/*--------------------------------*- C++ -*----------------------------------*\
  =========                 |
  \\      /  F ield         | OpenFOAM: The Open Source CFD Toolbox
   \\    /   O peration     | Website:  https://openfoam.org
    \\  /    A nd           | Version:  8
     \\/     M anipulation  |
\*---------------------------------------------------------------------------*/
FoamFile
{
    version     2.0;
    format      ascii;
    class       volScalarField;
    location    "1.6/wallFilmRegion";
    object      rho;
}
// * * * * * * * * * * * * * * * * * * * * * * * * * * * * * * * * * * * * * //

dimensions      [1 -3 0 0 0 0 0];

internalField   nonuniform List<scalar> 
1342
(
994.5114698
994.5114699
994.5114697
994.5114694
994.5114692
994.5114699
994.5114692
994.5114691
994.5114691
994.5114707
994.5114704
994.5114697
994.5114689
994.5114675
994.5114648
994.5114617
994.5114645
994.5114664
994.511467
994.5114675
994.5114678
994.511468
994.5114681
994.5114681
994.5114682
994.511468
994.5114695
994.5114693
994.5114697
994.5114698
994.5114696
994.5114691
994.5114686
994.5114684
994.5114715
994.5114714
994.5114704
994.5114696
994.5114691
994.5114685
994.5114675
994.5114656
994.5114631
994.5114629
994.5114649
994.5114664
994.5114673
994.5114677
994.5114679
994.511468
994.5114681
994.5114681
994.511468
994.5114693
994.5114691
994.5114691
994.5114694
994.5114695
994.5114694
994.5114691
994.511469
994.5114687
994.5114688
994.5114491
994.5114688
994.5114688
994.5114686
994.5114682
994.5114675
994.511466
994.5114641
994.5114627
994.5114637
994.5114658
994.5114672
994.5114677
994.5114679
994.511468
994.5114681
994.5114681
994.5114679
994.5114689
994.5114689
994.511469
994.5114691
994.5114699
994.5114698
994.5114694
994.5114691
994.5114684
994.5114456
994.5112081
994.5114678
994.5114683
994.5114682
994.511468
994.5114675
994.5114665
994.5114651
994.5114637
994.5114637
994.5114657
994.5114673
994.5114678
994.511468
994.511468
994.5114681
994.511468
994.5114679
994.5114687
994.5114687
994.5114688
994.5114688
994.5114696
994.5114692
994.511469
994.5114684
994.5114615
994.5113398
994.5108335
994.5114674
994.511468
994.511468
994.5114679
994.5114676
994.5114669
994.511466
994.5114648
994.511464
994.5114655
994.5114676
994.5114679
994.511468
994.5114681
994.5114681
994.511468
994.5114679
994.5114688
994.5114685
994.5114684
994.5114684
994.5114684
994.511469
994.5114666
994.5114573
994.5114518
994.5114673
994.5111049
994.5107603
994.5114674
994.5114679
994.5114679
994.51147
994.5114704
994.5114699
994.5114646
994.5114635
994.5114657
994.5114672
994.5114679
994.511468
994.5114681
994.5114681
994.511468
994.511468
994.511468
994.5114683
994.5114685
994.5114685
994.5114682
994.511467
994.5114591
994.5114492
994.5114424
994.5114427
994.5114693
994.5109176
994.5107317
994.511467
994.5114675
994.5114677
994.5114698
994.5114703
994.5114695
994.5114622
994.5114633
994.5114662
994.5114674
994.5114679
994.5114681
994.5114681
994.5114681
994.511468
994.511468
994.511468
994.5114685
994.5114687
994.5114686
994.5114681
994.5114665
994.5114581
994.5114472
994.5114334
994.5114283
994.5114701
994.5114436
994.5114614
994.5114654
994.5114657
994.5114675
994.5114695
994.5114697
994.5114685
994.5114646
994.5114631
994.5114661
994.5114673
994.5114679
994.5114681
994.5114681
994.5114681
994.511468
994.5114679
994.511468
994.5114686
994.5114688
994.5114685
994.5114684
994.5114665
994.5114604
994.5114511
994.5114281
994.5114136
994.5114705
994.5114195
994.5114501
994.5114587
994.5114403
994.511467
994.5114708
994.5114708
994.5114703
994.51147
994.5114691
994.5114676
994.5114674
994.5114678
994.511468
994.5114681
994.5114681
994.511468
994.5114678
994.5114679
994.5114696
994.5114688
994.5114683
994.5114699
994.5114672
994.5114696
994.5114602
994.5114262
994.5113915
994.5113479
994.511365
994.5114157
994.5114352
994.5113118
994.5114659
994.5114706
994.5114708
994.5114705
994.5114701
994.5114692
994.5114678
994.5114674
994.5114677
994.511468
994.511468
994.511468
994.5114679
994.5114677
994.5114679
994.5114695
994.5114674
994.5114676
994.5114683
994.5114694
994.5114717
994.5114707
994.5114318
994.5113527
994.5112049
994.5112406
994.5113286
994.5113678
994.5110749
994.511463
994.51147
994.5114705
994.5114703
994.5114698
994.5114688
994.5114675
994.5114672
994.5114676
994.5114679
994.511468
994.511468
994.5114679
994.5114676
994.5114679
994.5114692
994.5114675
994.5114678
994.5114685
994.5114678
994.5114683
994.5114674
994.511459
994.5114302
994.511336
994.5111167
994.5111055
994.5111844
994.51093
994.5114522
994.5114685
994.5114698
994.5114697
994.5114691
994.5114681
994.5114669
994.5114668
994.5114674
994.5114678
994.5114679
994.5114679
994.5114678
994.5114676
994.5114679
994.511468
994.5114659
994.5114679
994.5114685
994.5114667
994.5114681
994.5114678
994.5114643
994.5114561
994.5114477
994.5114535
994.5114656
994.5114678
994.5114678
994.5114672
994.5114673
994.5114685
994.5114686
994.5114669
994.5114658
994.5114654
994.5114661
994.511467
994.5114676
994.5114678
994.5114677
994.5114676
994.5114676
994.5114678
994.511468
994.5114675
994.511467
994.5114659
994.5114657
994.5114638
994.5114708
994.5114675
994.5114662
994.5114545
994.5114459
994.5114261
994.5113901
994.5113242
994.5114648
994.511466
994.5114669
994.5114668
994.5114631
994.5114643
994.5114653
994.511466
994.5114667
994.5114673
994.5114676
994.5114676
994.5114676
994.5114677
994.5114678
994.5114677
994.511467
994.511466
994.5114684
994.5114675
994.5114653
994.511472
994.5114698
994.5114668
994.5114623
994.5114568
994.511447
994.511429
994.5113996
994.5114598
994.5114637
994.5114645
994.511464
994.5114584
994.5114581
994.5114655
994.5114663
994.5114668
994.5114672
994.5114673
994.5114674
994.5114675
994.5114678
994.5114678
994.511469
994.5114668
994.5114682
994.5114711
994.5114719
994.5114716
994.511473
994.5114729
994.5114727
994.5114725
994.511472
994.5114709
994.5114679
994.5114589
994.5114559
994.5114599
994.5114609
994.5114599
994.5114553
994.5114513
994.5114567
994.5114663
994.5114668
994.5114671
994.5114672
994.5114672
994.5114676
994.5114679
994.5114679
994.5114719
994.5114646
994.5114657
994.5114703
994.5114717
994.5114717
994.511473
994.5114729
994.5114728
994.5114726
994.5114723
994.5114716
994.5114703
994.5114673
994.5114606
994.5114577
994.5114568
994.5114554
994.5114504
994.511459
994.5114637
994.5114663
994.5114669
994.5114671
994.5114671
994.5114672
994.5114678
994.5114679
994.5114679
994.511462
994.5114628
994.5114634
994.5114691
994.5114713
994.5114711
994.5114729
994.5114729
994.5114728
994.5114725
994.5114722
994.5114715
994.5114704
994.5114679
994.5114621
994.5114578
994.5114597
994.5114505
994.5114578
994.5114641
994.5114661
994.5114669
994.5114672
994.5114673
994.5114673
994.5114676
994.5114679
994.511468
994.5114679
994.5114584
994.5114609
994.5114611
994.5114675
994.5114707
994.5114703
994.5114727
994.5114727
994.5114725
994.5114721
994.5114715
994.5114705
994.511469
994.5114663
994.5114615
994.5114579
994.5114624
994.5114621
994.5114635
994.5114659
994.511467
994.5114676
994.5114677
994.5114678
994.5114679
994.511468
994.511468
994.511468
994.511468
994.5114342
994.51146
994.5114574
994.5114609
994.5114674
994.5114682
994.5114714
994.5114701
994.5114689
994.5114685
994.5114684
994.5114682
994.5114679
994.5114673
994.511466
994.5114626
994.5114638
994.5114667
994.5114661
994.511467
994.5114679
994.5114681
994.5114681
994.511468
994.511468
994.511468
994.511468
994.5114679
994.511468
994.511468
994.5114657
994.5114671
994.5114697
994.5114698
994.5114698
994.5114697
994.5114694
994.511469
994.5114686
994.5114683
994.5114682
994.5114679
994.5114676
994.5114669
994.5114654
994.5114648
994.5114672
994.5114674
994.511468
994.511468
994.511468
994.511468
994.511468
994.511468
994.511468
994.511468
994.511468
994.511468
994.5114682
994.5114685
994.5114688
994.511469
994.5114692
994.5114694
994.5114695
994.5114693
994.5114691
994.5114684
994.5114677
994.5114678
994.5114678
994.5114676
994.5114672
994.5114665
994.5114658
994.5114678
994.511468
994.511468
994.511468
994.511468
994.511468
994.511468
994.511468
994.511468
994.511468
994.511468
994.511468
994.5114682
994.5114686
994.5114687
994.5114687
994.511469
994.5114693
994.5114693
994.5114691
994.5114688
994.5114679
994.5114672
994.5114674
994.5114675
994.5114675
994.5114673
994.511467
994.5114679
994.511468
994.511468
994.511468
994.511468
994.511468
994.511468
994.511468
994.511468
994.511468
994.5114679
994.5114679
994.511468
994.5114682
994.5114686
994.5114686
994.5114687
994.5114687
994.5114692
994.511469
994.5114688
994.5114684
994.5114674
994.5114666
994.5114669
994.5114672
994.5114673
994.5114673
994.5114679
994.5114681
994.5114681
994.511468
994.511468
994.511468
994.5114681
994.5114681
994.5114681
994.5114681
994.511468
994.511468
994.511468
994.511468
994.5114683
994.5114685
994.5114685
994.5114686
994.5114686
994.5114686
994.5114686
994.5114684
994.5114679
994.5114668
994.5114661
994.5114664
994.5114669
994.5114672
994.5114675
994.5114681
994.5114681
994.5114681
994.511468
994.511468
994.511468
994.5114681
994.5114681
994.5114681
994.5114681
994.5114681
994.5114681
994.511468
994.511468
994.5114684
994.5114684
994.5114685
994.5114685
994.5114686
994.5114686
994.5114685
994.5114681
994.5114675
994.5114665
994.5114658
994.5114662
994.5114669
994.5114674
994.5114678
994.5114681
994.5114681
994.511468
994.511468
994.511468
994.511468
994.5114681
994.5114681
994.5114681
994.5114681
994.5114681
994.5114681
994.5114681
994.511468
994.5114684
994.5114684
994.5114684
994.5114684
994.5114686
994.5114686
994.5114684
994.511468
994.5114674
994.5114665
994.511466
994.5114664
994.5114672
994.5114678
994.5114681
994.5114682
994.5114681
994.511468
994.511468
994.511468
994.5114681
994.5114681
994.5114681
994.5114681
994.5114681
994.5114681
994.5114681
994.5114681
994.511468
994.5114684
994.5114684
994.5114684
994.5114684
994.5114685
994.5114685
994.5114684
994.5114681
994.5114675
994.5114669
994.5114666
994.511467
994.5114677
994.511468
994.5114682
994.5114683
994.5114681
994.511468
994.511468
994.511468
994.511468
994.5114681
994.5114681
994.5114681
994.5114681
994.5114681
994.5114681
994.5114681
994.5114682
994.5114684
994.5114684
994.5114684
994.5114683
994.5114684
994.5114685
994.5114684
994.5114682
994.5114678
994.5114674
994.5114672
994.5114675
994.5114679
994.5114681
994.5114682
994.5114683
994.5114681
994.511468
994.5114679
994.5114678
994.511468
994.511468
994.5114681
994.5114681
994.5114681
994.5114681
994.5114681
994.5114681
994.5114681
994.5114684
994.5114684
994.5114684
994.5114684
994.5114686
994.5114688
994.5114686
994.5114685
994.5114684
994.5114683
994.5114683
994.5114682
994.5114682
994.5114682
994.5114682
994.5114683
994.5114683
994.5114682
994.5114682
994.5114682
994.5114681
994.5114681
994.5114681
994.5114681
994.5114681
994.5114681
994.5114681
994.5114681
994.5114681
994.5114692
994.5114689
994.5114689
994.511471
994.5114695
994.5114733
994.5114741
994.5114751
994.5114687
994.5114688
994.5114691
994.51147
994.5114687
994.5114692
994.5114707
994.5114759
994.511469
994.5114749
994.5115012
994.5115775
994.5114822
994.5116572
994.5116562
994.5116388
994.5114693
994.5114689
994.5114688
994.511469
994.5114687
994.5114687
994.5114689
994.5114688
994.5114688
994.5114689
994.5114688
994.5114688
994.5114689
994.5114688
994.5114689
994.5114688
994.5114689
994.5114688
994.5114687
994.5114687
994.5114687
994.5114686
994.5114686
994.5114686
994.5114685
994.5114685
994.5114685
994.5114685
994.5114685
994.5114685
994.5114687
994.5114687
994.5114687
994.5114685
994.5114685
994.5114685
994.5114687
994.5114687
994.5114686
994.5114685
994.5114686
994.5114686
994.5114686
994.5114686
994.5114685
994.5114685
994.5114685
994.5114687
994.5114687
994.5114687
994.5114687
994.5114685
994.5114685
994.5114686
994.5114688
994.511469
994.5114687
994.5114686
994.5114691
994.511469
994.511469
994.5114697
994.5114691
994.5114691
994.5114702
994.5114691
994.5114697
994.511469
994.5114691
994.511469
994.5114691
994.511469
994.5114691
994.511469
994.5114692
994.511469
994.5114691
994.511469
994.5114691
994.5114691
994.5114693
994.5114692
994.511469
994.511469
994.511469
994.5114693
994.5114695
994.5114694
994.511469
994.5114692
994.511469
994.5114693
994.5114693
994.5114693
994.511469
994.511469
994.5114691
994.5114694
994.5114697
994.5114693
994.5114693
994.5114693
994.51147
994.5114696
994.5114696
994.5114687
994.5114687
994.5114687
994.5114687
994.5114687
994.5114687
994.5114687
994.5114687
994.5114688
994.5114688
994.5114687
994.5114687
994.5114687
994.5114687
994.5114687
994.5114687
994.5114688
994.5114687
994.5114687
994.5114688
994.5114688
994.5114688
994.5114688
994.5114689
994.5114687
994.5114686
994.5114687
994.5114686
994.5114685
994.5114686
994.5114685
994.5114685
994.5114685
994.5114685
994.5114687
994.5114687
994.5114688
994.5114687
994.5114689
994.5114692
994.5114687
994.5114686
994.5114686
994.5114687
994.5114686
994.5114687
994.5114687
994.5114687
994.5114687
994.5114688
994.5114687
994.5114688
994.5114687
994.5114688
994.5114687
994.5114686
994.5114686
994.5114686
994.5114685
994.5114685
994.5114685
994.5114685
994.5114685
994.5114685
994.5114687
994.5114687
994.5114688
994.5114689
994.5114688
994.511469
994.5114694
994.5114687
994.5114686
994.5114686
994.5114687
994.5114687
994.5114687
994.5114688
994.5114687
994.5114688
994.5114687
994.5114689
994.5114686
994.5114685
994.5114686
994.5114685
994.5114685
994.5114685
994.5114685
994.5114688
994.5114695
994.5114697
994.5114703
994.5114722
994.5114725
994.511476
994.5114687
994.5114687
994.5114687
994.5114688
994.5114687
994.5114688
994.5114686
994.511469
994.5114686
994.5114685
994.5114686
994.5114686
994.5114729
994.5114698
994.5114696
994.5114696
994.511469
994.5114687
994.5114687
994.5114687
994.5114687
994.5114687
994.5114692
994.5114692
994.5114693
994.51147
994.511469
994.511469
994.511469
994.5114689
994.5114691
994.511469
994.5114689
994.5114693
994.511469
994.511469
994.5114694
994.5114691
994.5114687
994.5114694
994.5114692
994.5114687
994.5114698
994.5114692
994.5114686
994.5114698
994.5114685
994.51147
994.5114689
994.5114687
994.5114687
994.5114687
994.5114687
994.5114687
994.5114687
994.5114687
994.5114688
994.5114689
994.5114687
994.5114686
994.5114685
994.5114685
994.5114687
994.5114687
994.5114687
994.5114687
994.5114687
994.5114688
994.511469
994.5114687
994.5114687
994.5114687
994.5114687
994.5114688
994.5114686
994.5114685
994.5114685
994.5114685
994.5114686
994.5114686
994.5114687
994.5114687
994.5114688
994.5114686
994.5114685
994.5114685
994.5114685
994.5114702
994.5114704
994.5114721
994.5114725
994.5114716
994.5114729
994.5114686
994.5114687
994.5114687
994.5114689
994.5114686
994.5114685
994.5114685
994.5114707
994.5114701
994.5114685
994.5114688
994.511469
994.5114696
994.5115144
994.5116277
994.5116074
994.5117094
994.5114688
994.5114707
994.5115694
994.5116591
994.5116757
994.5114692
994.5114741
994.5116595
994.5116736
994.5116591
994.5114686
994.5115102
994.5116985
994.5116754
994.5116526
994.5114692
994.5114687
994.5114695
994.5114693
994.5114688
994.5114687
994.5114688
994.5114687
994.5114696
994.51147
994.5114687
994.5114687
994.5114687
994.5114687
994.5114701
994.51147
994.5114687
994.5114687
994.5114699
994.5114687
994.5114691
994.5114699
994.5114686
994.5114688
994.5114687
994.5114694
994.5114686
994.5114699
994.51147
994.5114691
994.5114712
994.5114726
994.5114739
994.5114746
994.5114752
994.5114758
994.5114687
994.5114687
994.5114697
994.5114728
994.5114724
994.5114731
994.5114737
994.511473
994.5114735
994.5114746
994.5114739
994.5114743
994.5114693
994.5114698
994.5114708
994.511469
994.5114709
994.5114715
994.5114702
994.5114714
994.5114714
994.5114701
994.5114702
994.5114719
994.5114702
994.5114723
994.5114722
994.5114727
994.5114718
994.5114832
994.5114963
994.5114714
994.5114836
994.5114785
994.5114914
994.5115317
994.511516
994.511555
994.5116504
994.5114819
994.5116378
994.5116591
994.5114686
994.5116518
994.5114685
994.5116597
994.5116615
994.5116586
994.5114685
994.5116526
994.5114689
994.5114701
994.5114685
994.5114868
994.5114699
994.5114968
994.5115659
994.5115365
994.5115967
994.511678
994.5116505
994.5116824
994.5116985
994.5115149
994.5114717
994.5115452
994.5116266
994.5116106
994.5116505
994.5116714
994.5116624
994.5116622
994.5116596
994.5115973
994.511575
994.5117128
994.511676
994.5117029
994.5116912
994.5116663
994.5116795
994.5116683
994.5116584
994.5117079
994.511492
994.5116975
994.5116872
994.5116913
994.5116827
994.5116636
994.511673
994.5116625
994.5116492
994.5116517
)
;

boundaryField
{
    walls
    {
        type            zeroGradient;
    }
    wallFilmFace_top
    {
        type            zeroGradient;
    }
    region0_to_wallFilmRegion_wallFilmFace
    {
        type            zeroGradient;
    }
    mirrorFace_top
    {
        type            zeroGradient;
    }
    region0_to_wallFilmRegion_mirrorFace
    {
        type            zeroGradient;
    }
    procBoundary2to0
    {
        type            processor;
        value           nonuniform List<scalar> 
26
(
994.5114703
994.5114702
994.5114697
994.5114692
994.511469
994.5114696
994.5114691
994.5114685
994.5114708
994.5114703
994.5114661
994.5112994
994.5112345
994.5114505
994.5114516
994.5114584
994.5114622
994.511465
994.5114663
994.5114671
994.5114676
994.5114679
994.511468
994.5114681
994.5114681
994.511468
)
;
    }
    procBoundary2to1
    {
        type            processor;
        value           nonuniform List<scalar> 
33
(
994.5114698
994.5114698
994.5114696
994.5114696
994.5114695
994.5114689
994.5114688
994.5114688
994.511469
994.5114688
994.511468
994.5114676
994.5114686
994.5114692
994.5114709
994.5114685
994.5114687
994.5114694
994.5114686
994.5114689
994.5114667
994.5114668
994.511468
994.5114685
994.5114684
994.5114683
994.5114683
994.5114683
994.5114684
994.5114684
994.5114684
994.5114684
994.5114684
)
;
    }
    procBoundary2to3
    {
        type            processor;
        value           nonuniform List<scalar> 
64
(
994.5114691
994.5114729
994.5114746
994.5114764
994.5114755
994.5114712
994.5114822
994.5116344
994.5116275
994.5114703
994.5114691
994.5114704
994.5114694
994.5114691
994.5114691
994.5114691
994.5114691
994.5114691
994.511469
994.511469
994.511469
994.511469
994.5114692
994.5114692
994.5114692
994.5114693
994.5114694
994.5114694
994.5114696
994.5114694
994.5114688
994.511469
994.5114688
994.5114692
994.5114695
994.5114687
994.5114687
994.5114703
994.5114689
994.5114688
994.511473
994.5116636
994.5117274
994.511681
994.5116556
994.5116445
994.5114688
994.5114688
994.5114686
994.5114711
994.5114729
994.5114756
994.5114764
994.5114746
994.5114727
994.511472
994.5114702
994.5115185
994.5114685
994.511646
994.5117087
994.5116608
994.5116519
994.5116431
)
;
    }
}


// ************************************************************************* //
