/*--------------------------------*- C++ -*----------------------------------*\
  =========                 |
  \\      /  F ield         | OpenFOAM: The Open Source CFD Toolbox
   \\    /   O peration     | Website:  https://openfoam.org
    \\  /    A nd           | Version:  8
     \\/     M anipulation  |
\*---------------------------------------------------------------------------*/
FoamFile
{
    version     2.0;
    format      ascii;
    class       volVectorField;
    location    "1.6/wallFilmRegion";
    object      U;
}
// * * * * * * * * * * * * * * * * * * * * * * * * * * * * * * * * * * * * * //

dimensions      [0 1 -1 0 0 0 0];

internalField   nonuniform List<vector> 
1342
(
(-0.004160802909 0.04920245799 0)
(0.04619025847 0.06354676279 0)
(-0.01564521074 0.01577292941 0)
(-0.0561572308 -0.05265245762 0)
(-0.0618562997 0.03314592237 0)
(-0.07105938388 0.1599176335 0)
(-0.2874092336 0.003101114707 0)
(0.7644268723 -0.119201779 0)
(0.07131417795 -0.5198830035 0)
(0.4727334032 0.5050629353 0)
(0.2300202902 0.5310845353 0)
(0.3608852744 0.5784885862 0)
(0.3621789341 0.6698533166 0)
(0.1540316612 0.8197718276 0)
(0.2336921427 -0.1133553419 0)
(0.5665243884 0.532083708 0)
(-0.08610817212 0.7820838893 0)
(-0.3392199882 0.7066605943 0)
(-0.4175446914 0.6959082261 0)
(-0.2586476523 0.7617971174 0)
(-0.1230589056 0.888279424 0)
(-0.04416749309 1.034894103 0)
(-0.006882458735 1.183845028 0)
(0.01092660702 1.357543075 0)
(0.03109313881 0.8897571439 0)
(-0.08039260893 1.073575852 0)
(-0.05820507933 -0.02788336672 0)
(-0.05846117745 0.03056256597 0)
(-0.02450513841 0.0360581506 0)
(-0.03063182924 0.06729605373 0)
(-0.02469860224 0.04693039153 0)
(0.002446456671 0.06380856148 0)
(-0.008140877442 0.1060686761 0)
(-0.1813899363 -0.03781681871 0)
(-0.1333860845 0.3757898047 0)
(-0.3175738152 0.4136444293 0)
(0.1264019467 0.528415164 0)
(0.3670099482 0.5810996495 0)
(0.5061984893 0.6088367416 0)
(0.5702156701 0.6519865182 0)
(0.4568830008 0.7539673066 0)
(0.3483942619 -0.02181604342 0)
(0.7334821064 0.4160213285 0)
(-0.6520518059 0.7844285676 0)
(-0.6712587561 0.8416656337 0)
(-0.6033277421 0.8799679434 0)
(-0.1842865673 0.9138389193 0)
(0.08518200244 0.9820848161 0)
(0.216890424 1.074408835 0)
(0.2810322719 1.191227094 0)
(0.3125065574 1.346956287 0)
(0.3094793873 1.114770783 0)
(-0.04253597671 0.9302837762 0)
(0.01003455496 -0.04764389657 0)
(-0.01883576319 -0.05380718841 0)
(-0.07460983161 -0.01790627369 0)
(-0.03996784258 0.03498935602 0)
(-0.03119649459 0.07018833809 0)
(-0.005879628493 0.04233283196 0)
(0.03628904025 0.1205430565 0)
(-0.06237728429 0.1688932829 0)
(-0.07850564725 0.06582455168 0)
(0.1843874463 -0.1552821145 0)
(-1.023779772 0.5160846847 0)
(0.5488482416 0.6211463504 0)
(0.5840136849 0.6217669529 0)
(0.6595496673 0.6291991297 0)
(0.7103024071 0.6495664016 0)
(0.6307497351 0.7206864389 0)
(0.4658745529 0.1234290858 0)
(0.803146268 0.3520201299 0)
(-0.5723490728 0.8024810221 0)
(-0.567479009 0.8708274515 0)
(-0.4876919358 0.9213962747 0)
(0.1294882568 0.9433845902 0)
(0.3584192291 1.003830056 0)
(0.4664897999 1.086922223 0)
(0.5248021972 1.191915684 0)
(0.552076417 1.330484937 0)
(0.5301008915 1.256247661 0)
(0.03619820282 0.9153557692 0)
(0.01138721631 -0.1437089163 0)
(0.004773305863 -0.1276778296 0)
(0.02383835981 -0.05851315021 0)
(0.06395159042 0.03050417743 0)
(0.05061206672 0.07338436637 0)
(0.02575671672 0.1325609182 0)
(0.09380448446 0.1679598656 0)
(-0.03792782985 0.1460672253 0)
(-0.1912724831 0.07095425193 0)
(0.2108681095 -0.4220020383 0)
(-0.9328749849 0.5697169835 0)
(0.7990497419 0.6503390531 0)
(0.7589984339 0.6406193952 0)
(0.7870109642 0.6396059793 0)
(0.8115567672 0.6495395084 0)
(0.7504117985 0.6987599968 0)
(0.5941941835 0.2994788764 0)
(0.8338670533 0.3424595168 0)
(-0.3273343184 0.7951034811 0)
(-0.392361027 0.8828556072 0)
(-0.3432589981 0.9505781366 0)
(0.3561775043 0.9626101794 0)
(0.5990168856 1.015225316 0)
(0.7086869277 1.087686109 0)
(0.7627106438 1.178045624 0)
(0.7802134621 1.293558757 0)
(0.739097331 1.242082513 0)
(0.07343284086 0.9394242739 0)
(0.0509793952 -0.1099789555 0)
(0.0416790036 -0.1109135327 0)
(0.05291973088 -0.09214730129 0)
(0.03528455526 -0.05302760924 0)
(0.1127641122 0.07011620619 0)
(0.0586776183 0.08475512259 0)
(0.01790128054 0.06810804284 0)
(-0.1163700632 0.03143798932 0)
(-0.7547645758 -0.04182920039 0)
(0.4865593695 -0.4876456344 0)
(-0.7275044519 0.5818231968 0)
(0.9125817027 0.6546784469 0)
(0.8538561146 0.6478323975 0)
(0.8557007618 0.6453627006 0)
(0.7977287103 0.6524686793 0)
(0.7207309257 0.6877301617 0)
(0.6356359093 0.4813838394 0)
(0.7822089573 0.4019222164 0)
(-0.01069633178 0.7479922089 0)
(-0.2207271325 0.886304892 0)
(-0.2279987373 0.9754975615 0)
(0.5458935642 0.9192750021 0)
(0.7723933138 0.967121996 0)
(0.8845317965 1.033312923 0)
(0.9364728753 1.107235527 0)
(0.9467711477 1.200473585 0)
(0.8997034518 1.154029973 0)
(0.1313558432 1.088479206 0)
(0.03422727581 -0.05108358942 0)
(-0.08938067846 -0.1154056961 0)
(-0.2611382155 -0.2152639454 0)
(-0.3177051634 -0.2275245085 0)
(-0.2378999107 -0.1772220167 0)
(0.03113531658 -0.0506343347 0)
(0.04307728455 -0.03178164835 0)
(-0.1567772674 -0.1776514268 0)
(-0.7047852071 -0.08609840612 0)
(-0.657393301 -0.01500435026 0)
(0.6374846958 -0.4815305089 0)
(-0.4483536857 0.580179903 0)
(0.7199668188 0.6606212485 0)
(0.7242780821 0.6567552409 0)
(0.7800492314 0.627670253 0)
(0.2773922055 0.7017824343 0)
(0.1671751216 0.6241537089 0)
(0.170298996 0.4461377121 0)
(0.4472051506 -0.4394721967 0)
(0.2302794306 0.8313232262 0)
(0.2369903007 0.9148569453 0)
(0.2436821941 0.997131639 0)
(0.5488708672 0.9266508588 0)
(0.7262199778 0.9406127589 0)
(0.7911450371 0.9441139813 0)
(0.820594297 0.9801379988 0)
(0.8159693808 1.026559145 0)
(0.7814270358 0.9417967296 0)
(0.1597027865 1.102082302 0)
(-0.06727595511 -0.1721344479 0)
(-0.2572341279 -0.1893164686 0)
(-0.4069632962 -0.2435827211 0)
(-0.5965752717 -0.3318924738 0)
(-0.6204373804 -0.3146021755 0)
(-0.1264018049 -0.3239656285 0)
(-0.4276860639 -0.3280999145 0)
(-0.5680456321 -0.2005859062 0)
(-0.6668092588 -0.08905339494 0)
(-0.3589143292 0.1400555856 0)
(0.2819602412 -0.6041695794 0)
(0.2781326977 0.579955869 0)
(0.3857520637 0.7015061635 0)
(0.3327267269 0.6665647052 0)
(0.6635728762 0.5974411046 0)
(0.3113095685 0.6253737341 0)
(0.1154778812 0.5824181435 0)
(0.2026175218 0.3000854104 0)
(0.435587051 -0.6178823687 0)
(0.3448368282 0.8361996501 0)
(0.3218482241 0.9059854693 0)
(0.3067879316 0.9851337818 0)
(0.4450945159 0.9582236008 0)
(0.557760821 0.9430667652 0)
(0.6008195727 0.9142353174 0)
(0.6116514814 0.9116605398 0)
(0.5917360086 0.900682724 0)
(0.574238953 0.7476002664 0)
(0.1698125071 1.065912458 0)
(-0.1230539454 -0.1395337219 0)
(-0.2002501501 -0.1263605627 0)
(-0.3968192482 -0.2515388331 0)
(-0.5659579587 -0.270317979 0)
(-0.5729439256 -0.2499049382 0)
(-0.0992106274 -0.2965229977 0)
(-0.3661537726 -0.3653886488 0)
(-0.510627098 -0.2198762604 0)
(-0.6041652177 -0.09867685498 0)
(-0.1228622296 0.2911144459 0)
(0.3006772495 -0.8505553304 0)
(0.2976850678 -0.7411733389 0)
(0.2923764955 -0.4869254157 0)
(0.005750370839 0.4639548138 0)
(0.74277542 0.5746579126 0)
(0.443860295 0.6168971562 0)
(0.3707335607 0.5812036725 0)
(0.4175603637 0.1841013465 0)
(0.7860537913 0.06618675741 0)
(0.5092666244 0.8006721634 0)
(0.4415580321 0.8909154972 0)
(0.4000968405 0.975706879 0)
(0.417718217 0.986299462 0)
(0.4536967173 0.9807103106 0)
(0.4912757742 0.9211212109 0)
(0.4950388674 0.8856025431 0)
(0.4711986432 0.8038835827 0)
(0.4639760001 0.4849680033 0)
(0.172485254 1.018487822 0)
(0.0006801565198 0.05325519811 0)
(-0.1734644908 -0.1260039924 0)
(-0.4503386874 -0.2624364715 0)
(-0.4179385039 -0.15490165 0)
(-0.4752256629 -0.2084982663 0)
(-0.0906941067 -0.3343478481 0)
(-0.2797925663 -0.3913494039 0)
(-0.4139273093 -0.22908355 0)
(-0.5142203944 -0.1777308581 0)
(0.07942796071 0.3513330109 0)
(0.3491742508 -0.83370221 0)
(0.3595519677 -0.7744109824 0)
(0.371149662 -0.6600713047 0)
(0.3059112237 0.5832546916 0)
(0.7720137802 0.6038209284 0)
(0.1807052632 0.7210694506 0)
(0.2567549042 0.5758624044 0)
(0.2410149531 0.4744138119 0)
(0.3462764897 0.4844112385 0)
(0.6157912801 0.6810990208 0)
(0.6003434087 0.8548355308 0)
(0.5252734138 0.9604607131 0)
(0.4748369924 1.000395238 0)
(0.4621493057 0.9962740264 0)
(0.4772025893 0.9375670995 0)
(0.4784543365 0.8699413247 0)
(0.4659433544 0.7351161354 0)
(0.4092686353 -0.4780929273 0)
(0.1813151869 0.9533870215 0)
(-0.07010977017 0.3255578337 0)
(-0.4250051106 -0.08860886667 0)
(-0.3597206625 -0.1738878136 0)
(-0.0691352143 0.03445377234 0)
(-0.3286760476 -0.1744979528 0)
(-0.2070396864 -0.208804988 0)
(-0.1367203455 -0.3548490184 0)
(-0.2438843879 -0.2079121692 0)
(-0.3873409283 -0.1338680189 0)
(-0.3055792255 -0.1383523934 0)
(0.4103865252 -0.8007090784 0)
(0.4555545738 -0.7139039754 0)
(0.5033040767 -0.5793189769 0)
(0.7047208308 0.6309703606 0)
(0.7426966726 0.6678108981 0)
(0.1861178372 0.6535690349 0)
(0.2072952539 0.5878394824 0)
(0.2754550029 0.5507521293 0)
(0.506383945 0.5844971511 0)
(0.7790623231 0.7368964996 0)
(0.7564548591 0.8576487396 0)
(0.6626752824 0.9546078744 0)
(0.5774315311 1.002928699 0)
(0.5323535821 0.9975843889 0)
(0.5286408546 0.9412659529 0)
(0.5233627751 0.854193154 0)
(0.5078039528 0.6838080238 0)
(0.3501763308 -0.8950961175 0)
(0.19621802 0.8784410361 0)
(0.08704781563 0.08522008609 0)
(-0.1486522866 0.004578734367 0)
(-0.193495372 -0.05698382716 0)
(-0.1148362098 -0.09225015285 0)
(-0.06143981134 -0.3441973621 0)
(0.113020874 0.1673168042 0)
(0.03285366306 0.1462000081 0)
(-0.05166006229 -0.1391047016 0)
(-0.2265131366 -0.1650115359 0)
(-0.1939566684 -0.1734371179 0)
(0.4793702889 -0.7418454629 0)
(0.5855435204 -0.5779558238 0)
(0.6887405327 -0.3561460112 0)
(0.9070969052 0.5629883442 0)
(0.7871516787 0.7072270117 0)
(0.4536847239 0.6547594958 0)
(0.4270293626 0.639334108 0)
(0.5237783293 0.6415734849 0)
(0.7683980363 0.6989632961 0)
(0.9621653185 0.7931945779 0)
(0.9155544373 0.8690867017 0)
(0.8072796003 0.9540005815 0)
(0.6946530405 1.000174056 0)
(0.6236160018 0.9910363852 0)
(0.6029090145 0.9405246635 0)
(0.5896309192 0.8420805192 0)
(0.568087252 0.6520524224 0)
(0.3949206657 -0.8325577035 0)
(0.2073099911 0.8131617372 0)
(0.1055424236 0.0456595388 0)
(0.2069524786 0.1018886018 0)
(-0.02801138863 0.1014317265 0)
(-0.06789722258 -0.08837021492 0)
(-0.03764579382 -0.1028020739 0)
(0.1648740248 -0.1162345405 0)
(0.01475117948 -0.4797388362 0)
(0.1764689081 -0.3084006634 0)
(0.305118593 -0.3981598621 0)
(0.384769489 -0.4538660011 0)
(0.5962526177 -0.604255424 0)
(0.6994454427 -0.4141702384 0)
(0.8737054232 -0.1254370205 0)
(1.045381462 0.5013012395 0)
(0.9433412825 0.6907162627 0)
(0.8082449591 0.7287603757 0)
(0.7667120368 0.7224523251 0)
(0.806660065 0.7347404885 0)
(0.9211508352 0.7757133597 0)
(1.139197787 0.8201568468 0)
(1.0848337 0.8758911766 0)
(0.9594104759 0.9533179522 0)
(0.8181506353 0.9944111593 0)
(0.7249428171 0.9806185267 0)
(0.6909750478 0.936318481 0)
(0.6778016488 0.827736736 0)
(0.6589073248 0.6921628009 0)
(0.6930771167 0.03942739326 0)
(0.2187746105 0.7284784052 0)
(-0.1049807033 -0.2405949232 0)
(0.2123002933 0.04433839902 0)
(-0.136206712 0.5030903785 0)
(-0.3424328751 -0.0940302231 0)
(-0.612370392 -0.02066213739 0)
(-0.5380375251 -0.10909452 0)
(-0.2089482021 -0.4927361312 0)
(0.06086558255 -0.4263407874 0)
(0.1737865325 -0.2750137868 0)
(0.1110235026 -0.1799626339 0)
(-0.307798611 0.329509771 0)
(-0.4326586414 0.6086250464 0)
(-0.461260662 0.4477557955 0)
(-0.4517802024 0.06133596589 0)
(-0.3732604739 0.08113815938 0)
(0.4448959418 0.4780432021 0)
(0.845527289 0.7264209687 0)
(0.9006200905 0.7750819469 0)
(0.9357789393 0.7989035836 0)
(1.223129041 0.8226308316 0)
(1.231766336 0.8651367527 0)
(1.126112037 0.9330842556 0)
(0.9687917493 0.9775116476 0)
(0.840044743 0.9683686377 0)
(0.7282038653 0.9181199932 0)
(0.5054316223 0.7846200793 0)
(0.2288559897 0.7104106323 0)
(0.09218178261 0.4892111665 0)
(0.1693150815 0.6413952648 0)
(-0.388331112 -0.3956979639 0)
(-0.1089878194 -0.1239922976 0)
(-0.2882675039 -0.1863129721 0)
(-0.417199076 -0.1554543351 0)
(-0.4335730537 -0.09438579044 0)
(0.1085991282 -0.02331167182 0)
(-0.05548306173 0.1222234175 0)
(0.07078980155 -0.1477032758 0)
(0.1143258135 -0.1325403697 0)
(-0.0006270609307 0.08802591691 0)
(-0.2923008719 0.2677296429 0)
(-0.1736436271 0.3084687876 0)
(0.09165387404 0.2467653646 0)
(0.3216895379 0.2442633086 0)
(0.5556701701 0.3828330395 0)
(0.8812548195 0.6148947559 0)
(0.9499207741 0.7471729125 0)
(0.9320553471 0.7938237977 0)
(-0.4127685032 0.8146043781 0)
(0.06292854467 0.8248111303 0)
(0.3849925016 0.8419066531 0)
(0.6325004225 0.8745626672 0)
(0.8228446025 0.9212222149 0)
(0.8702899936 0.9478966888 0)
(0.7090709737 0.9041952792 0)
(0.4186875767 0.7956291302 0)
(0.01331489951 0.70090427 0)
(-0.1852076362 0.2241545194 0)
(0.1608634588 0.5872100366 0)
(-0.551736261 -0.2634513065 0)
(-0.04840458326 -0.2344132258 0)
(-0.1696836456 -0.2390415285 0)
(-0.3231420669 -0.1852450029 0)
(-0.2189148413 -0.1289434576 0)
(0.134547781 -0.08004870691 0)
(-0.2841306776 0.2482879999 0)
(-0.05955206711 0.05920758825 0)
(0.1068539218 -0.08121663136 0)
(0.2363736589 0.1897138141 0)
(0.4621347981 0.7172857499 0)
(0.3120620276 0.7230701132 0)
(0.3068210597 0.5111856067 0)
(0.4916115011 0.4266235147 0)
(0.7638030759 0.5063987632 0)
(0.9372670125 0.6381118081 0)
(0.9841074134 0.7394096345 0)
(0.9652153251 0.7988471693 0)
(-0.6213912201 0.8203396495 0)
(-0.7078298245 0.836921227 0)
(-0.01110424638 0.8460407006 0)
(0.3775343241 0.8693775166 0)
(0.6329164854 0.9144516184 0)
(0.7832633803 0.9667954575 0)
(0.6311777968 0.9037176461 0)
(0.3609387936 0.8275979645 0)
(-0.007955065838 0.7267425381 0)
(-0.1901987588 0.01660728145 0)
(0.1475176451 0.555879953 0)
(-0.503647969 -0.2365140889 0)
(0.002435616365 -0.3119983701 0)
(-0.08594873648 -0.2691421444 0)
(-0.142483893 -0.2216099388 0)
(0.1651465748 -0.3029463939 0)
(0.2495476899 -0.3032578341 0)
(0.3472952617 0.3652851828 0)
(0.3173703811 0.3288438997 0)
(0.3302654364 0.231066577 0)
(0.3184449512 0.2695864821 0)
(0.5293156779 0.5137526597 0)
(0.5833571473 0.8022039589 0)
(0.5092006497 0.739269076 0)
(0.5729090848 0.6370574903 0)
(0.7275316565 0.6293757463 0)
(0.862813144 0.6830048739 0)
(0.9445657213 0.744530457 0)
(0.9716921294 0.7969445942 0)
(-0.470208342 0.8213172654 0)
(-0.6104801818 0.845552977 0)
(-0.4891765215 0.8560780383 0)
(0.303313959 0.8704547668 0)
(0.5425889366 0.9155359286 0)
(0.5819366883 0.9603780846 0)
(0.4623359331 0.8885830157 0)
(0.2819812488 0.8288895019 0)
(-0.05109484671 0.7615183641 0)
(-0.1547946417 -0.08058126955 0)
(0.09448213161 0.5201403329 0)
(0.2406959109 0.01851871829 0)
(0.1106417107 -0.3870288719 0)
(0.143125399 -0.447731706 0)
(0.2598255692 -0.4535016705 0)
(0.4037647991 -0.02237266474 0)
(0.2621992371 -0.2907480891 0)
(0.3224552648 0.3510402638 0)
(0.3026020543 0.3184909772 0)
(0.2592171434 0.2600939498 0)
(0.309584085 0.3210514025 0)
(0.4599146378 0.5806720223 0)
(0.5759108489 0.9744498411 0)
(0.5983847535 1.131305049 0)
(0.608272693 1.077877827 0)
(0.6600724308 0.937822333 0)
(0.7353698862 0.2320358035 0)
(0.7117622614 -0.6938397141 0)
(0.6990673291 -0.6412419818 0)
(0.6567430891 0.839334849 0)
(0.6664101442 0.9269631078 0)
(0.6374402889 1.003291652 0)
(0.4457165423 0.9732987303 0)
(0.5055459451 0.9526845321 0)
(0.4983535583 0.9568009197 0)
(0.4201832938 0.9280504917 0)
(0.32882492 0.9685112029 0)
(0.07780567309 0.9736179874 0)
(-0.07596888484 -0.01157348164 0)
(0.0365982929 0.4603100601 0)
(-0.5426873986 -0.2712040553 0)
(0.2295100258 -0.5025511418 0)
(0.3327693296 -0.5439757504 0)
(0.4954514945 -0.4874274525 0)
(0.7975452256 0.1407257025 0)
(0.3641756553 -0.1032605282 0)
(0.241824159 0.3668059804 0)
(0.2493500292 0.276484654 0)
(0.2945593967 0.3047149098 0)
(0.3708773942 0.4078607284 0)
(0.5175964168 0.6930906959 0)
(0.6103953982 0.9643380313 0)
(0.6278686897 1.074178271 0)
(0.6281741464 1.100242466 0)
(0.6398853591 1.067830222 0)
(0.697594441 0.6663555355 0)
(0.6939545548 -0.404824159 0)
(0.693275232 -0.5529836228 0)
(0.7572792024 0.8191788285 0)
(0.7483193514 0.9105106339 0)
(0.7322986185 0.980246117 0)
(0.6517922135 1.025328514 0)
(0.5866186401 1.029228242 0)
(0.5394641809 1.034615619 0)
(0.4985408078 1.069510185 0)
(0.4681964961 1.199477583 0)
(0.02059444285 0.7334957745 0)
(-0.06402274132 0.08232485406 0)
(0.0111252015 0.3606295671 0)
(-0.5205946552 -0.2507339532 0)
(0.3610147603 -0.5685730303 0)
(0.5074952285 -0.5626245807 0)
(0.6689172733 -0.4460625909 0)
(0.963832723 0.1428825588 0)
(0.581861555 0.1904860735 0)
(0.3164567213 0.3218090223 0)
(0.3320790394 0.310725858 0)
(0.3793093002 0.3637856501 0)
(0.4662593653 0.4947510698 0)
(0.5803043421 0.6913766318 0)
(0.6427183091 0.8395724558 0)
(0.6517030077 0.927770125 0)
(0.6463153537 0.9889860726 0)
(0.6438080468 1.024147246 0)
(0.6669312473 0.9221911668 0)
(0.6746642982 -0.03629904384 0)
(0.6113485183 -0.4842714441 0)
(0.8291959067 0.6713718919 0)
(0.8221487513 0.8542652665 0)
(0.8124916387 0.9509301147 0)
(0.7327698483 1.032300147 0)
(0.6981630233 1.084904845 0)
(0.6886688727 1.13620851 0)
(0.62071736 1.1994916 0)
(0.217418236 0.762146584 0)
(-0.08520494244 0.3830393706 0)
(-0.09115240398 0.1125049409 0)
(0.09248265129 0.277862351 0)
(0.7228488624 -0.06824637224 0)
(0.6649748792 0.0950809167 0)
(0.755700019 0.4996937329 0)
(0.5439513582 0.8025765764 0)
(0.6617550757 0.8964802286 0)
(0.6869686922 0.8401948479 0)
(0.4058790324 0.4644672679 0)
(0.3244273252 0.5524017447 0)
(0.1823705884 0.5502962064 0)
(0.1193170631 0.5035610726 0)
(0.1465625313 0.4723683428 0)
(0.2151083178 0.4216260246 0)
(0.2453395483 0.4498442788 0)
(0.3353693528 0.5365453494 0)
(0.5131695444 0.7384872259 0)
(0.6171003307 0.8928165932 0)
(0.6636014243 0.2824318531 0)
(0.6681056536 -0.3598106794 0)
(0.8823772212 0.4384004626 0)
(0.9227285878 0.7524424721 0)
(0.5462133527 0.81998841 0)
(0.3045036863 0.4365723747 0)
(0.3101671141 0.4487362232 0)
(0.2921745214 0.4972834928 0)
(0.09450260023 0.3854608387 0)
(-0.05433952997 0.2279487265 0)
(-0.108852537 0.2091527691 0)
(-0.08981258968 0.04031229021 0)
(0.1635347462 0.2741384705 0)
(0.6394030476 0.2036835896 0)
(0.718948438 0.3467364155 0)
(0.3431368934 0.4251420627 0)
(0.1764395894 0.286413087 0)
(0.161594035 0.2591131364 0)
(0.2014862286 0.2916261217 0)
(0.2575463255 0.362905972 0)
(0.1854202573 0.4402138101 0)
(-0.01991852896 0.4402670537 0)
(-0.1718546859 0.4206684991 0)
(-0.1504503341 0.3812123871 0)
(-0.06003973968 0.2854310191 0)
(0.09431659051 0.3452213831 0)
(0.2347769891 0.4397282126 0)
(0.3863419531 0.5793034006 0)
(0.5190943632 0.7418752044 0)
(0.6316825614 0.5179476089 0)
(0.678014545 -0.1735159968 0)
(0.8369798574 0.2411214372 0)
(0.7536976491 0.3189180451 0)
(0.174427769 0.09279552123 0)
(-0.1453143804 -0.09402082976 0)
(-0.1046891296 0.0719836563 0)
(-0.1227729905 0.1314741616 0)
(-0.1244973721 0.1928018959 0)
(-0.07577844168 0.2260312063 0)
(0.00737439812 0.2657543583 0)
(0.04280708223 0.18966269 0)
(0.1761911345 0.2660580342 0)
(-0.2005372309 0.08302541466 0)
(0.1249049523 0.2244755934 0)
(0.09446574769 0.2223028854 0)
(0.1031157875 0.2351510921 0)
(0.09582730345 0.2413316366 0)
(0.08460265209 0.2576456529 0)
(0.07976404045 0.2640335238 0)
(0.08760226725 0.3231188388 0)
(0.03503930495 0.3479823608 0)
(-0.036988544 0.3941862848 0)
(0.06672437026 0.3850983068 0)
(0.1153684711 0.3628257474 0)
(0.1892253802 0.3985414785 0)
(0.2819275462 0.4657923138 0)
(0.383509095 0.5595680682 0)
(0.4800166198 0.6746074777 0)
(0.5864893874 0.5970721421 0)
(0.2960467781 -0.07779492808 0)
(0.3642961488 -0.06020859244 0)
(0.1203238434 -0.08596901415 0)
(-0.1089545368 -0.1710693513 0)
(-0.1357422515 -0.1323852903 0)
(-0.106842757 -0.07508582661 0)
(-0.04888845612 0.02368402123 0)
(-0.01923965165 0.1107146296 0)
(0.02634470158 0.1618511414 0)
(0.0734041716 0.2149667763 0)
(0.1067630212 0.1751009091 0)
(0.2129976692 0.2559070131 0)
(-0.4623817759 0.06543282765 0)
(-0.1604240893 -0.05876590284 0)
(-0.1197962447 0.001624498136 0)
(-0.07803140616 0.1049993963 0)
(-0.05326824521 0.07203588791 0)
(0.07920401514 0.1979209909 0)
(0.130760826 0.2626861039 0)
(0.1626626694 0.313888318 0)
(0.2817744337 0.4050493279 0)
(0.3060740634 0.5188106414 0)
(0.2225491408 0.4637279067 0)
(0.222921952 0.4391713685 0)
(0.2706570656 0.4630928957 0)
(0.3371364703 0.5146253059 0)
(0.409647565 0.5860200507 0)
(0.4858208846 0.6670785767 0)
(0.1285598406 -0.135069997 0)
(0.1379454122 -0.131217003 0)
(0.1114478286 -0.1063575909 0)
(-0.03734303158 -0.1549163772 0)
(-0.09204117069 -0.1908055229 0)
(-0.1154960351 -0.1635216196 0)
(-0.08075116828 -0.121332993 0)
(-0.05060947904 -0.08638856782 0)
(-0.06448636245 -0.0704364149 0)
(-0.07557022374 -0.0868391948 0)
(0.09359572448 0.1185158002 0)
(0.1411847808 0.009748294822 0)
(0.2232293736 0.2427496695 0)
(-0.007208889752 0.01439394056 0)
(0.006383411255 -0.07605541568 0)
(0.06443963829 -0.0530229888 0)
(-0.09657247721 -0.03496513881 0)
(-0.1267348058 -0.09123833063 0)
(0.1953617942 0.2037064455 0)
(0.2443473606 0.2612717795 0)
(0.344486144 0.3147879551 0)
(0.5819756419 0.4609860868 0)
(0.5854664615 0.5955818982 0)
(0.4372812888 0.5836258662 0)
(0.3722862972 0.5553142662 0)
(0.3775858509 0.5638347775 0)
(0.4141688383 0.6014479233 0)
(0.4637805114 0.6619835497 0)
(0.2271361905 -0.1209660346 0)
(0.08059862511 -0.1779743821 0)
(0.1047734753 -0.1326158646 0)
(0.03859898242 -0.09680052397 0)
(-0.02219794196 -0.1250592253 0)
(-0.06023594838 -0.1578180541 0)
(-0.09337143768 -0.1523538217 0)
(-0.1006785119 -0.160201673 0)
(-0.1226535343 -0.1634006674 0)
(-0.1418879842 -0.155565481 0)
(-0.1407053394 -0.1439935705 0)
(-0.0698384858 -0.02248192142 0)
(-0.1408647587 -0.1277180463 0)
(0.1791804006 0.2037922724 0)
(0.6864345159 0.418070395 0)
(0.4091479114 0.4738640193 0)
(0.262965853 0.358696542 0)
(-0.14540871 0.09110817663 0)
(0.09164879216 0.08372051045 0)
(0.3087669337 0.0347239367 0)
(0.3739481526 0.1458833574 0)
(0.5562196773 0.2724302805 0)
(0.7828679013 0.4515699955 0)
(0.781316965 0.6068328926 0)
(0.6532979547 0.6742090133 0)
(0.5529632675 0.6813327139 0)
(0.5134960573 0.6873586265 0)
(0.5145712834 0.7119857004 0)
(0.541878338 0.7326445268 0)
(0.1822168067 -0.2199884869 0)
(0.1019592145 -0.2016657499 0)
(0.1024863528 -0.1302672247 0)
(0.04589385964 -0.1241045699 0)
(0.01414192035 -0.1324140942 0)
(-0.006503458941 -0.1110302477 0)
(-0.07150069482 -0.1488534418 0)
(-0.1093797529 -0.1919757735 0)
(-0.1329195434 -0.2028603462 0)
(-0.1471667201 -0.1968559398 0)
(-0.1496331956 -0.1729174183 0)
(-0.1289365848 -0.1129570926 0)
(-0.1728242699 -0.1722694945 0)
(0.1157348007 0.1415025722 0)
(0.2561668028 0.3277990316 0)
(0.6367078495 0.6431212568 0)
(0.513470091 0.642500055 0)
(0.2918744913 0.3913237339 0)
(0.2115438379 0.08968125771 0)
(0.3106031832 0.0594154455 0)
(0.4067326163 0.09958870762 0)
(0.608579989 0.2012283716 0)
(0.8380564911 0.3794136457 0)
(0.885736599 0.5599342324 0)
(0.79974219 0.6878942124 0)
(0.6910818243 0.7408799561 0)
(0.6225973376 0.7603867392 0)
(0.5938937346 0.7783713294 0)
(0.6203908615 0.7992661382 0)
(0.255040931 -0.2080254146 0)
(0.166281409 -0.2147051377 0)
(0.1479146875 -0.1377220439 0)
(0.1139807226 -0.1565813119 0)
(0.08466922154 -0.149952675 0)
(0.04755885575 -0.1096072867 0)
(-0.06220530572 -0.1591994712 0)
(-0.1016772878 -0.2063212838 0)
(-0.1228753281 -0.2107520977 0)
(-0.1308399684 -0.2061017386 0)
(-0.1323142911 -0.1890813892 0)
(-0.1265444012 -0.1606976824 0)
(-0.1263901849 -0.1768129409 0)
(0.04866121975 0.04073576713 0)
(0.1080825423 0.34710187 0)
(0.6826469871 0.6618672544 0)
(0.6980196664 0.7480889506 0)
(0.5059038427 0.559304989 0)
(0.2408971042 0.1115600767 0)
(0.3180300059 0.08686105707 0)
(0.5255135213 0.01944096562 0)
(0.6534445912 0.1481799967 0)
(0.8394936786 0.3116687159 0)
(0.9275114641 0.4956424241 0)
(0.8827119364 0.6538305633 0)
(0.7745299698 0.7394967192 0)
(0.684013156 0.7721609503 0)
(0.6303568307 0.7850355114 0)
(0.5639405393 0.7631483511 0)
(0.3461980839 -0.08711990042 0)
(0.2183233194 -0.2000801242 0)
(0.1615530602 -0.1144279768 0)
(0.1109412125 -0.1503537927 0)
(0.07411942813 -0.1700437536 0)
(0.02510125056 -0.1543739696 0)
(-0.06469389702 -0.1724303256 0)
(-0.08610124476 -0.1909576205 0)
(-0.1041677836 -0.2012954074 0)
(-0.1144986584 -0.2095365013 0)
(-0.1163008408 -0.209469761 0)
(-0.1144657514 -0.1944392297 0)
(-0.09969980102 -0.1726676655 0)
(-0.006341006202 -0.09473142826 0)
(0.8516907166 0.6974776843 0)
(0.9439430423 1.017852384 0)
(0.9379387322 1.117702271 0)
(0.8518354894 1.053432399 0)
(0.4193577768 0.4140634861 0)
(0.3374604952 0.1872687587 0)
(0.4731538512 0.05747656595 0)
(0.6394852026 0.1329532063 0)
(0.8226495004 0.2695407364 0)
(0.939269681 0.4382947827 0)
(0.9324541242 0.6020937644 0)
(0.8337636833 0.7096580015 0)
(0.726500446 0.7562809923 0)
(0.6485758442 0.7617503327 0)
(0.5229743817 0.6793630133 0)
(0.4305243504 0.1225494096 0)
(0.2820104411 -0.1783385602 0)
(0.18486109 -0.1115261195 0)
(0.1107155616 -0.1086792087 0)
(0.06387361484 -0.1024595029 0)
(0.02019256053 -0.0600501953 0)
(-0.01889487854 -0.07970471764 0)
(-0.02987945411 -0.1172016752 0)
(-0.0343788636 -0.15161423 0)
(-0.03794020644 -0.1759294614 0)
(-0.03977091789 -0.1867942809 0)
(-0.06101260112 -0.171421817 0)
(-0.09673829159 -0.1431759906 0)
(-0.1296885791 -0.07721460584 0)
(1.189007265 0.7128649015 0)
(1.162304257 1.064805942 0)
(1.118483296 1.200042924 0)
(1.045096638 1.187055363 0)
(0.697602769 0.7639527607 0)
(0.4512612644 0.3868019925 0)
(0.4776908488 0.1479140341 0)
(0.6140402349 0.1653459417 0)
(0.7354959331 0.2649442434 0)
(0.7538211331 0.4027836195 0)
(0.6570136112 0.5530920012 0)
(0.532436568 0.6735230387 0)
(0.4757296765 0.7333066807 0)
(0.4140263499 0.7144987353 0)
(0.360367926 0.639729811 0)
(0.3410624623 0.2679433871 0)
(0.2390438988 -0.1358637076 0)
(0.07608576285 -0.1018686704 0)
(0.07297968584 -0.02998400198 0)
(-0.4013541371 0.1283695408 0)
(-0.4694024384 0.2574195557 0)
(-0.4326113914 0.3201474846 0)
(-0.3799781656 0.2988048542 0)
(-0.3149336708 0.2230936329 0)
(-0.2119924072 -0.06283876381 0)
(-0.1519977789 -0.1469559659 0)
(-0.1296825435 -0.09860759288 0)
(-0.1342823095 -0.07425737684 0)
(-0.17015179 -0.006220677886 0)
(1.619010887 0.3971831432 0)
(1.452207578 0.6099685156 0)
(1.329223827 0.7530137567 0)
(1.185245043 0.8144195642 0)
(0.9683768199 0.6977590677 0)
(0.723731455 0.452225346 0)
(0.6638684606 0.2830534513 0)
(0.7847269991 0.3221929722 0)
(0.8482295307 0.3869158561 0)
(0.8645340536 0.4420358897 0)
(0.8564168349 0.4867492276 0)
(0.8342092155 0.5187733452 0)
(0.8020545496 0.5326975292 0)
(0.7641969004 0.5238456346 0)
(0.7220266024 0.4896264857 0)
(0.6397130613 0.324344426 0)
(0.4309718379 0.0730982796 0)
(0.3558317607 0.1098985481 0)
(0.421440922 0.1973958017 0)
(0.4674713734 0.2182818701 0)
(0.4578272218 0.2424685936 0)
(0.4171207778 0.268152077 0)
(0.3671476079 0.2906815548 0)
(0.3106615264 0.3053396235 0)
(0.2444533883 0.306294244 0)
(0.1682182364 0.2887313976 0)
(0.08062382695 0.2584692917 0)
(-0.01213017684 0.1874678241 0)
(-0.1002981893 0.09971688094 0)
(-1.293389191 0.0003454679728 -0.2032058424)
(-2.469284066 -0.005404277665 -4.180290069)
(-3.437821673 0.1964859375 -3.316531097)
(-2.934647747 0.2175874182 -3.787457874)
(-4.057206302 0.7572489077 -2.955272493)
(-3.298887731 0.8924677734 -3.510406544)
(-3.088900705 0.9590840679 -3.785289194)
(-4.251612094 0.9404437976 -3.697630177)
(-1.483386487 -1.390141581 -2.605637231)
(-1.350200999 -1.370450267 -2.619008418)
(-1.489102014 -1.392574135 -2.643827764)
(-1.508411972 -1.465157829 -2.788519365)
(-2.164162733 -1.635377014 -1.742265939)
(-1.892723898 -1.796375175 -1.960617891)
(-1.973914272 -1.900710828 -2.069090723)
(-1.994768144 -2.045389378 -2.238630388)
(-2.948476497 -1.604607388 -1.00982165)
(-2.937019802 -1.850471439 -1.178533333)
(-3.10788649 -2.055819445 -1.304384575)
(-3.186031158 -2.310865653 -1.465975295)
(-6.493293339 1.451217797 -0.6449730816)
(-6.229377973 1.85890817 -0.9057185027)
(-6.036870425 2.126145972 -1.041902349)
(-5.755006599 2.417589605 -1.183734542)
(1.425129305e-05 -0.1327453797 -2.059269599)
(0.0005121649608 -4.018572411 -3.307725196)
(9.630660255e-05 -3.939241802 -5.310422349)
(0 -0.913811777 -2.475687382)
(1.788326333e-05 -3.73133107 -5.698261)
(1.521232385e-06 -3.386037391 -5.817803633)
(0 -2.238652836 -6.164604551)
(0 -3.008907548 -5.870435108)
(0 -2.580052218 -5.775242622)
(0 -1.518103572 -6.433252112)
(0 -2.132955728 -5.855262897)
(0 -1.692335013 -5.95927755)
(0 -0.6533257564 -6.759745052)
(0 -1.239302722 -6.099244665)
(0 -0.7273071718 -6.284497106)
(0 0.681159162 -6.395278152)
(0 0.05432645473 -6.381703971)
(0 0.7561454786 -6.1582241)
(0 1.139343734 -4.843083221)
(0 1.242535905 -5.957996361)
(0 1.671015455 -5.767455786)
(0 1.78610204 -4.589491045)
(0 2.061228803 -5.480337178)
(0 2.32408324 -4.84081113)
(3.145845191e-07 1.783785956 -2.274703083)
(7.537170028e-07 2.137529997 -3.365140659)
(9.122683424e-07 1.693513276 -1.901942111)
(1.718727747e-05 1.39931115 -1.097811402)
(1.987130644e-05 1.342846994 -1.615844633)
(0.0001921752582 1.22303427 -1.930836561)
(-0.000297327787 -3.948809402 -4.322510217)
(0.000479798748 -3.834546518 -3.945547099)
(-0.001442874716 -3.739281418 -3.87481729)
(0.0005508378264 1.255673321 -1.697464498)
(-0.0005999371081 1.28452804 -1.460078888)
(-0.000163612128 1.281746816 -1.541953629)
(0.005208375469 -3.444564864 -3.603496103)
(0.005106405543 -3.449564891 -3.247349591)
(-0.5064193862 0.5141167553 -2.029903608)
(0.001957425928 1.348695522 -1.18109387)
(0.001304147044 -3.064555661 -2.794930255)
(-3.030685344e-05 -2.836051816 -2.553071464)
(2.030588551e-05 -2.289952472 -2.082905808)
(-7.114629988e-07 -2.201135838 -1.757849881)
(-0.0002313554427 1.293466424 -0.9473412065)
(-3.363229852e-07 1.211198438 -0.7592340032)
(9.885946254e-06 1.262172226 -0.8931810306)
(0 -1.860207077 -1.416327077)
(0 -1.792560169 -1.131149483)
(0 -1.636054783 -0.9533876888)
(0 -1.542935749 -0.7347871696)
(0 1.081189181 -0.5849942764)