/*--------------------------------*- C++ -*----------------------------------*\
  =========                 |
  \\      /  F ield         | OpenFOAM: The Open Source CFD Toolbox
   \\    /   O peration     | Website:  https://openfoam.org
    \\  /    A nd           | Version:  8
     \\/     M anipulation  |
\*---------------------------------------------------------------------------*/
FoamFile
{
    version     2.0;
    format      ascii;
    class       surfaceScalarField;
    location    "1.1/wallFilmRegion";
    object      phi;
}
// * * * * * * * * * * * * * * * * * * * * * * * * * * * * * * * * * * * * * //

dimensions      [1 0 -1 0 0 0 0];

internalField   nonuniform List<scalar> 
2727
(
0.0003422912815
-0.0005296938357
-0.0002315595142
0.0001225431178
-0.0004370060251
0.0003313270481
0.000573547509
-0.0008744747682
0.001250990603
-0.0006563624082
0.000554410709
-0.000406193758
3.011075415e-05
-0.0001511807084
-5.257334273e-05
9.380292395e-05
0.0003412015272
1.852560885e-05
-0.0007169055995
-6.032027113e-06
0.001590639588
-0.001319368427
-0.001231846944
-0.0004156859811
-1.102941485e-06
-1.614417099e-05
0.0005935191872
-0.0007766878976
-5.28345769e-07
4.42319143e-10
8.720342077e-10
-7.021651592e-10
-1.742979863e-12
1.150953449e-09
2.845281812e-09
-1.804716955e-09
-4.017757146e-12
2.526227703e-09
6.386653776e-09
-2.936112729e-09
-3.923072803e-12
2.91332608e-09
1.079928421e-08
-2.802366536e-09
-2.589518487e-12
2.360243113e-09
2.02316367e-08
-1.254134244e-09
-5.605346825e-12
-9.42409351e-10
4.444554312e-08
5.13871003e-09
-1.530917814e-11
-1.273931875e-08
9.650154919e-08
2.702582076e-08
-9.821427151e-11
-6.648751358e-08
3.663081189e-06
6.120316399e-07
-2.68942931e-07
-2.175715645e-06
1.701090978e-05
3.995100913e-06
-7.447980566e-06
-4.683635252e-06
9.628203831e-06
4.399186623e-06
-4.368461023e-06
-4.436491289e-06
9.473927109e-06
2.847275602e-06
-2.073656842e-06
0.0007623703765
-0.001086518616
-0.0001981963096
0.0002227840612
-0.0002151460123
0.0008546791033
0.0001445605348
-0.0008376708906
0.0009092944654
-2.518169169e-05
-3.728084594e-05
-0.001051076538
8.643113688e-05
4.330058049e-06
-5.630865051e-08
-0.0001225544809
1.169548925e-05
-1.598162121e-06
-4.311155678e-07
-1.487506695e-05
5.242636159e-07
-2.908380552e-07
1.900852135e-07
-2.132599114e-07
-2.627355421e-07
-4.030818773e-07
3.520999069e-07
2.307524445e-07
-6.699104266e-08
9.692583954e-13
2.439940215e-13
-2.732615353e-13
2.265706422e-12
3.241047947e-13
-3.453766335e-13
2.219175431e-12
2.387697645e-13
-6.531003253e-14
-1.415834564e-12
1.150114006e-12
1.031580203e-14
4.99153823e-14
-5.966088997e-13
2.029079378e-12
-1.205496658e-13
2.308922796e-13
-9.060698888e-13
4.65008604e-12
-4.304906258e-13
8.519474269e-13
-1.746005697e-12
2.790481517e-11
-1.959964507e-12
6.594476227e-12
-8.760586785e-12
1.190919284e-07
-7.071618479e-11
1.081349946e-08
-4.849630675e-08
5.180932979e-06
-1.4306393e-07
8.138194694e-07
-3.264249518e-06
2.894072015e-06
-9.998178118e-07
9.319626371e-07
-1.637919503e-06
1.365224784e-06
-1.043140247e-06
5.405114599e-07
-4.321263402e-07
1.560172039e-05
0.000350323938
-0.003638368786
0.002580967588
-0.000200699244
-0.001572246306
0.002205646683
0.0002252724904
-0.001398880604
0.001883063144
-0.0005569547146
-0.001610819396
-0.0005218334222
0.0003193775782
0.001134579416
-0.0001527640453
-0.001203456509
2.629050239e-05
0.0001701894294
6.470373299e-07
7.568027373e-06
-0.0002324232913
2.011366055e-05
-5.813877454e-06
-1.980439741e-06
-1.634518797e-05
8.687060883e-08
5.863666774e-08
1.026266301e-07
-8.943301738e-08
-7.401997607e-08
9.801502629e-13
7.869496779e-14
-6.329870576e-15
-7.258973601e-13
3.578175213e-13
-1.751282191e-14
-2.40906783e-13
3.803328752e-14
4.871513963e-13
-5.86642852e-14
-3.029044075e-13
8.420491363e-14
8.347798541e-13
-1.22112323e-13
1.886978259e-13
-4.800701804e-13
3.505736021e-12
-3.365910966e-13
-1.760043797e-12
8.678197361e-13
2.051069023e-08
-8.229078132e-12
1.68615726e-09
-9.689161394e-09
1.943511761e-06
-2.65713216e-08
-1.14705584e-06
2.862511522e-07
9.480670163e-07
-2.85919461e-07
8.956341166e-09
-3.264980721e-07
1.881915433e-21
2.038687559e-22
8.141661942e-23
-9.56628004e-22
-1.496709259e-21
5.299680394e-21
-9.082842782e-21
1.75872189e-20
-1.373558317e-20
3.392116256e-20
-3.957280065e-20
8.191092938e-20
9.146840822e-18
-2.380233438e-19
3.71177359e-18
-2.686472495e-18
2.538918792e-16
-2.794808762e-17
1.24683459e-16
-7.997665279e-17
-4.045205348e-16
1.072630012e-15
-5.524532428e-16
1.686152967e-15
-2.484726391e-15
5.241629223e-15
6.639934095e-15
-2.242628971e-15
2.124864441e-07
-1.080358688e-14
7.208787572e-08
-2.325624068e-07
0.002368604644
0.000269534031
0.001514227985
-0.004460303385
0.002183056858
-0.002943621953
-0.001611409991
0.0004044092372
0.001079108448
-0.0002781382726
0.0006684650331
-0.0003816788983
5.2296834e-06
-4.368091178e-07
-2.182609013e-06
-3.188361196e-06
1.593240453e-07
5.1091e-07
1.948976931e-07
-8.448062966e-07
-3.895230221e-08
-2.910823131e-07
1.336333372e-08
2.146236756e-08
-7.298334889e-09
-3.820277711e-09
-6.524718115e-09
3.210057855e-23
1.400252886e-22
1.350768057e-23
-1.887621512e-23
1.473702983e-21
-2.661572779e-22
9.446969269e-22
-2.215827307e-22
5.230769006e-21
5.483071239e-21
-7.856231018e-22
-2.445874057e-21
-1.242616989e-20
2.021629958e-20
2.962774183e-20
-2.330299123e-21
9.893048941e-20
-6.837286111e-21
-7.077232037e-20
1.673820551e-19
4.6233829e-19
8.841847333e-19
-2.084330653e-20
-3.890004852e-19
-1.960805906e-18
4.240093716e-18
-6.692577389e-20
1.970117812e-18
-4.711585616e-16
3.156012149e-07
2.948646032e-07
-4.09692402e-07
0.003980307425
-0.00203217336
0.00343137263
-0.0002201915969
-0.003703665775
0.0018727503
5.931063242e-05
-0.002034544414
0.0009193317485
-0.0003643912581
-3.204153654e-06
7.203718007e-09
1.992211491e-06
1.941590038e-06
-8.42578852e-07
-4.960833523e-08
1.085829421e-07
6.855596862e-08
-5.275182698e-09
-1.308670745e-07
1.958922648e-24
3.992316456e-25
1.811602877e-25
-9.055587479e-25
2.584103279e-23
-4.145565047e-24
1.48177712e-23
-1.202001369e-23
9.194948356e-23
-3.84890434e-23
8.661015547e-23
-4.275751674e-23
-1.285228485e-22
2.75771738e-22
-1.799844785e-22
3.56424725e-22
8.017050232e-22
-3.749186424e-22
-6.85243258e-22
1.294921204e-21
2.384766795e-21
-2.424278502e-21
4.524317007e-21
-1.118110294e-21
7.436696044e-21
-8.453088363e-21
1.584872756e-20
-3.499201428e-21
6.993374706e-07
-4.412343103e-16
4.059081112e-07
-6.543520068e-07
-0.0002248560545
0.0002140375724
0.0003686562439
0.000617428066
-8.684853729e-09
-4.635492766e-10
0.0005520079217
-0.001012141461
0.0009992392583
-2.790494245e-05
-0.0001749508734
-7.664451138e-05
0.0004119305894
-1.034163381e-10
0.0001393518286
3.579904245e-05
-3.392700666e-05
-2.252763955e-12
7.090333113e-06
1.860169154e-06
9.182726519e-07
-2.536785261e-06
-3.136852012e-13
5.626488182e-14
6.310166607e-15
-3.280954005e-14
2.064419143e-15
1.029054086e-14
-3.718820406e-15
-5.178692367e-15
4.271366785e-15
4.631020241e-15
6.561974419e-15
-4.495492506e-15
-2.807093532e-15
-4.788421812e-15
5.578957998e-15
-2.06086448e-15
5.053773485e-15
6.461378744e-15
6.994068453e-15
-5.538096118e-15
-2.088539988e-15
-8.382698958e-15
1.636146693e-14
2.616620823e-14
-3.631502944e-15
-3.972853797e-12
1.636208903e-09
-2.933518038e-11
-1.478997943e-12
1.139790233e-13
1.98714326e-14
-8.037538938e-14
2.566523312e-14
2.080438985e-13
9.945501269e-14
-1.235613848e-13
-7.484846031e-14
0.0002198949886
0.001108713983
-0.001637498394
-0.0001558090103
-0.0008672041584
0.0002224426179
0.0001778782658
0.0003028201125
0.0002400901164
0.0002635479786
-0.001186969389
0.0002792269047
0.0008439497964
-0.00108597691
-0.0002500395686
0.0009373908474
0.0002745663639
-0.001116926897
-0.0006288015594
0.0007489725257
-0.001312840986
0.0002134575168
-0.0003395212837
0.0005292541051
-3.76882244e-05
-1.520977251e-05
-3.499686516e-06
-0.0005645015097
-2.139230504e-05
7.989771093e-05
-2.811910345e-07
-8.345395867e-07
-3.523950978e-05
2.633119447e-06
1.816163275e-05
-1.499565958e-05
-1.888931373e-06
-1.325361544e-05
-2.642228034e-06
2.936453953e-06
-1.273983992e-05
2.211266761e-06
3.420898401e-06
1.351544247e-05
-1.75934263e-05
-1.816275207e-06
-1.151849868e-05
-2.812784154e-06
1.517998327e-06
-1.134841884e-05
1.881855619e-06
4.58199713e-05
4.510051934e-05
-0.0004302606064
1.771238404e-05
-2.62534352e-05
-5.276745264e-06
2.35959824e-06
-0.0001371743653
8.201424747e-06
0.000512104539
0.0009219009468
-3.302755949e-06
-0.002175852489
-0.0002233582721
-0.0004232199138
4.986997435e-05
-3.041909785e-06
8.211070517e-05
2.942497414e-06
-2.785602158e-06
2.190424154e-05
-3.064963506e-05
1.404500249e-06
-3.577863234e-07
4.620877019e-07
5.765354991e-06
1.202922306e-06
4.883624877e-06
-3.714306468e-05
5.838965266e-05
-2.267240774e-05
1.066433321e-05
-3.66510105e-06
1.677644506e-06
1.694006325e-05
2.1991424e-06
-1.08735947e-05
-8.903683312e-05
0.0001431495719
-3.373941735e-05
2.827867007e-05
-6.833451198e-06
1.241984727e-07
4.549327402e-05
-1.940073086e-05
-3.005084234e-06
-0.0001980301195
0.00021420106
3.600404467e-07
-5.824604991e-07
2.190422137e-05
-1.65472466e-06
-1.139344059e-06
-1.969997212e-06
-1.310438737e-06
-0.0002027578321
0.0001646808729
2.665689849e-05
-7.58912158e-07
1.911482389e-06
-1.955034492e-06
7.894467437e-07
-2.533620552e-06
0.0001698303042
-0.0003955715917
0.0007309313466
-0.0005144225511
7.207100165e-05
-2.045676477e-05
-2.379167509e-06
-1.706476529e-06
0.0004887120931
2.512109367e-06
3.16281301e-06
-2.953396791e-06
-1.15238729e-08
-2.590233807e-06
2.805211415e-06
-7.127092615e-08
2.509528442e-06
2.261656767e-06
2.482496841e-06
-2.71373915e-06
2.46363644e-07
-2.371309671e-06
1.996629127e-06
5.164914928e-07
1.908927026e-06
1.511812405e-06
4.401846396e-06
-4.393769816e-06
5.389220886e-07
-2.863034291e-06
2.688032225e-06
7.001668809e-08
1.768755634e-06
6.693397408e-07
3.699257469e-06
-6.519698668e-06
-3.265454966e-08
-5.918771142e-07
3.765957938e-07
-2.988895888e-08
1.367589271e-08
6.610571677e-06
1.879943908e-05
-2.438325922e-06
-3.426486735e-08
-2.035501557e-06
7.973242538e-09
3.175135347e-08
2.363005275e-08
7.158424586e-07
-1.671047137e-06
3.446257628e-06
2.182902619e-07
-4.571807103e-07
3.55214883e-08
5.721730017e-07
7.858780478e-08
5.427548266e-07
-5.370249464e-06
6.350987672e-06
6.712512597e-07
-9.150158762e-07
1.335204101e-07
-4.41961934e-06
-2.173516486e-06
-2.988174971e-06
-3.812858082e-06
-4.323221533e-07
-1.345107922e-06
1.408681492e-05
-8.042891195e-06
-3.214710807e-07
-1.635607027e-06
-1.191346307e-06
5.520294768e-07
-8.980301772e-07
-3.797765595e-07
9.981268066e-07
-6.573831455e-07
-4.95132325e-07
-7.848434016e-07
-8.711548606e-07
1.26950767e-06
-2.103586586e-06
-4.622287694e-07
1.052073223e-06
-7.774554267e-07
-3.694226344e-07
-6.817920198e-07
-8.150648491e-07
1.344183536e-06
-3.168257604e-08
-2.610458441e-07
8.540416768e-07
-6.631727014e-07
-1.191259697e-07
-6.401050913e-07
-9.41651505e-08
-8.360141685e-07
0.001219931835
-0.001074047343
3.070252429e-08
5.427358706e-07
-4.317322053e-07
3.981607451e-07
-2.419945891e-07
0.002014189669
-0.001847026834
0.002980965412
-0.003380078327
0.00106633317
-0.001113622951
-1.296683712e-08
0.001499674561
0.001594458466
2.535182467e-06
-3.353023386e-07
3.154643282e-07
1.036076799e-07
-2.846583053e-06
3.017307542e-06
2.988796268e-07
2.580316437e-06
1.609674755e-06
-3.909586687e-07
5.471262421e-07
5.78832129e-07
-1.900553688e-06
1.854453987e-06
9.550570388e-07
1.047068965e-06
1.899466997e-06
-7.645634524e-07
5.181111274e-07
1.280728181e-06
-2.346637275e-06
1.626315223e-06
1.077773766e-06
1.399078474e-06
8.727197043e-08
-1.034886321e-07
5.297372893e-10
3.990455993e-07
-6.776047957e-07
9.460064065e-07
7.839941126e-08
3.085841998e-07
7.543579308e-13
2.873602977e-13
-2.947227255e-12
4.485622394e-09
-3.538086006e-10
8.876949676e-08
-5.31505965e-18
4.87706025e-09
-8.314344897e-16
1.931174594e-11
-5.944400078e-10
-3.269941654e-19
4.122621868e-19
2.081501402e-17
-2.208856391e-10
2.984568441e-19
-2.338679596e-06
9.168286997e-07
-3.389728793e-06
-8.552612999e-07
5.500999169e-10
-5.751935821e-10
-2.870238752e-06
-2.06860579e-06
-1.07795613e-06
7.690735705e-07
-2.676750006e-07
-5.862300242e-07
5.958143231e-06
-4.376414956e-06
-2.167909646e-07
-7.088314152e-07
-4.913171143e-07
2.889225983e-07
-3.759117818e-07
-2.205236396e-07
4.306227242e-07
-2.76818109e-07
-2.785592609e-07
-3.014273783e-07
-5.763531986e-07
3.92428413e-07
-3.431020035e-07
-3.553085731e-07
5.592126913e-07
-4.087412391e-07
-3.91420157e-07
-5.974832541e-07
-6.412413572e-07
2.58116627e-07
-1.265273876e-07
-3.378179279e-07
6.231067657e-07
-8.921842479e-07
-1.583465578e-07
-1.102304341e-06
-1.125496182e-07
1.082628028e-08
5.717961549e-09
-2.023568735e-08
3.762936824e-07
-5.346632828e-07
6.08978735e-09
-5.756936172e-08
0.0008283016451
-4.631765652e-07
0.000891393829
1.198546911e-08
1.232638115e-08
-2.641358441e-09
0.0006197033659
0.0005450845948
0.0001085018808
-0.0001379826435
4.21347907e-05
0.0008048855334
-0.0002397487005
-9.272848558e-05
0.0007281947618
-0.0001057605446
-0.00073543652
-6.81824346e-05
0.000398548474
0.0007259805697
4.808247321e-05
-0.00014892547
0.0004433658732
-0.0003257578967
-3.398080116e-06
-3.167626222e-05
1.325057389e-05
-1.010864849e-05
0.0005369762239
-4.148247312e-05
-5.706016215e-07
-1.439826021e-07
2.377149524e-06
-5.593762675e-06
1.001155007e-06
2.278253173e-06
-1.071540686e-05
4.26669696e-06
1.162179333e-06
2.702314941e-06
1.209860869e-07
-1.27914764e-07
1.54343044e-08
4.478058511e-07
-3.782510834e-07
9.478904823e-07
1.373591377e-07
3.431677555e-07
1.595464336e-13
3.692052626e-14
-4.590695535e-10
3.758466965e-08
-2.462006213e-08
1.948904086e-07
-8.775044816e-10
4.693033801e-08
-1.699551714e-06
9.443991228e-07
-2.528607194e-06
-9.113503089e-07
7.412738599e-10
1.252675085e-11
-2.112238364e-06
-1.101741367e-06
-4.549131068e-07
4.581889379e-07
-1.712664752e-07
-3.533122475e-07
3.062222159e-06
-1.996751515e-06
-1.355539476e-07
-2.802313499e-07
-1.932544308e-07
1.67674019e-07
-2.193942892e-07
-1.362315241e-07
1.767775299e-07
-1.137597185e-07
-2.170654563e-07
-1.412035469e-07
-7.808591646e-07
3.858145339e-07
-6.341233396e-07
-5.261617124e-07
3.368418853e-07
-3.438663864e-07
-1.212646077e-06
-1.093783142e-06
-2.728846677e-06
7.342021449e-07
-3.565596984e-07
-1.994658388e-06
1.684380481e-06
-2.941814842e-06
-1.625568028e-06
-6.243464842e-06
-2.591212712e-08
2.955504935e-08
-2.178339991e-10
-9.576558926e-08
1.520210815e-06
-6.324431339e-06
-1.441642562e-09
2.526342871e-08
0.0005615450755
-3.141214697e-09
0.0003679194874
3.434358663e-09
5.94619555e-10
9.967819436e-10
0.0002967336233
0.0003875843704
0.01259645538
-0.001688031243
-0.008687303522
0.002012820085
-0.004307508088
0.002549620544
-0.003324424525
-3.641163935e-06
-8.323947902e-05
8.475663379e-05
7.003394127e-07
7.659828314e-06
-5.418171748e-06
6.172420769e-07
-1.877857836e-06
-1.473092637e-05
-2.140867269e-05
-5.751426661e-05
8.729221748e-09
2.612479675e-06
-2.464905651e-07
-3.581017038e-06
-2.950954443e-07
1.609024219e-06
1.180748086e-05
5.598061541e-07
-2.036597419e-06
2.276007406e-06
-2.256423703e-07
4.570173899e-07
2.154595169e-06
3.746032201e-06
-1.959545393e-06
1.488748192e-06
1.668907941e-06
-4.773956921e-06
5.127299968e-06
1.573778139e-06
4.344270383e-06
6.355997376e-07
-7.759559006e-07
3.266089256e-07
9.58535757e-07
-1.648079192e-06
2.140821297e-06
4.792248968e-07
9.235063611e-07
3.152115003e-07
-1.505178491e-07
5.645568884e-08
2.801078978e-07
-3.650220439e-07
5.129390093e-07
2.15477518e-07
5.258293516e-07
-4.615284071e-07
6.567634174e-07
-1.576716427e-06
-3.169696114e-08
-8.156827845e-08
5.069651622e-07
-9.24862682e-07
-3.247452646e-08
-1.5523139e-07
2.61499859e-07
-1.103511854e-07
-1.685373145e-07
1.133232505e-06
-4.121503568e-07
-8.983919323e-08
-5.541504664e-08
-1.174441935e-07
1.306769295e-07
-2.871213932e-07
-1.473015026e-07
7.245018758e-08
-3.792346779e-08
-4.156014499e-07
-8.531319661e-08
-1.268273707e-06
8.590385301e-07
-2.366350771e-06
-1.296556262e-06
3.641667314e-07
-2.805244602e-07
-3.573614031e-06
-8.932292531e-07
-8.773809047e-06
5.040543538e-06
-7.781676836e-06
-8.041855276e-06
3.708231741e-06
-2.244152931e-06
-1.449212046e-05
-3.718592808e-06
-2.697152335e-05
5.610861022e-06
4.508796655e-06
1.100170142e-06
1.695613532e-05
-2.893941748e-05
4.909374076e-05
-0.0001022984563
-4.917438482e-05
-2.444617682e-05
0.0003233431352
0.0001381239515
5.124596246e-05
-0.0002469075813
0.0004031192786
-0.0007287203415
-0.004660542936
-0.001260333179
0.001217152735
0.0007661718256
-0.002218308364
-0.004318814935
-1.04737372e-06
-2.330698949e-08
8.606829747e-09
-1.014936106e-07
3.253758245e-06
-1.693441885e-06
-2.489898247e-09
-6.399425865e-07
-1.610568955e-10
3.756074897e-08
-1.52443031e-07
-1.315519496e-10
8.44557132e-09
-3.768232919e-09
-1.333538066e-11
6.664905516e-12
2.706801753e-06
-2.323860761e-08
6.670907713e-07
4.869740564e-12
3.854270703e-12
2.247337655e-11
5.083740064e-07
2.884518234e-06
4.478415652e-06
-1.422101553e-06
1.482966442e-06
1.196284892e-06
-5.305454586e-06
5.190148492e-06
1.35952503e-06
4.390680787e-06
1.183413183e-06
-1.024311647e-06
5.934903285e-07
1.058874568e-06
-2.425285856e-06
2.61091796e-06
6.859853642e-07
1.42265252e-06
6.788887698e-07
-3.694454744e-07
3.360704199e-07
4.465053526e-07
-6.606223438e-07
7.952891369e-07
4.356288658e-07
7.847919235e-07
2.911590384e-07
-2.544744772e-07
-1.434502132e-07
5.629266531e-07
-9.258174187e-07
1.320187071e-06
-1.86916104e-09
1.126226576e-06
3.057802433e-08
5.649950307e-08
-5.922825251e-08
-3.017054188e-08
-8.22410886e-08
1.712440363e-07
-4.642006075e-08
5.770925915e-08
-1.14843385e-08
1.547131925e-07
-4.737752378e-07
-1.199078641e-07
-6.206985717e-09
3.566517267e-08
-2.82426478e-07
4.589873946e-08
-2.410835535e-07
1.297054395e-06
-2.814887535e-06
-5.548097254e-07
7.693123913e-08
4.445479438e-08
-7.754867508e-07
2.541034881e-08
-3.501394216e-07
4.044188544e-06
-9.106204778e-07
-4.768552956e-07
4.518528161e-07
-1.11832037e-13
3.156536074e-07
-1.330300034e-16
-0.0002040640011
-3.514769843e-05
0.0001529482147
9.713503723e-05
4.610758511e-05
-7.607142164e-05
0.0003983273684
-0.0003581026512
-0.001558615375
-0.0003814784633
0.0008528555258
0.0009707605543
0.0005970825567
-0.001073104996
-0.002450595752
0.001854794771
-6.737007967e-07
-2.258654315e-07
-5.879596783e-07
-3.82991046e-07
-3.541026635e-07
1.492989639e-07
-2.752251228e-09
-2.445213437e-07
7.536869356e-07
-4.086609488e-07
-2.387060573e-08
-1.737929949e-07
2.509415636e-09
1.660074735e-09
-4.258562031e-11
-3.590321507e-08
-1.484226364e-09
3.596900726e-08
-7.223561623e-08
6.628129468e-08
3.122597016e-06
-7.081235569e-12
3.193109618e-07
-4.960217582e-07
-3.883110334e-10
5.033820031e-07
4.089609958e-09
3.201886287e-06
4.298970374e-06
-1.033416496e-06
1.288483941e-06
6.36749392e-07
-4.963027688e-06
4.978496775e-06
7.444078949e-07
4.456626513e-06
1.653975744e-06
-1.090918604e-06
6.964642065e-07
3.990722523e-07
-2.782577725e-06
2.969384721e-06
-1.581920873e-07
1.907039136e-06
1.110980441e-06
-3.910383304e-07
2.082667526e-07
-6.65554305e-07
-9.375229615e-07
1.567178259e-06
-1.103662217e-06
1.84561599e-06
1.006045897e-06
3.338641303e-07
-1.025811588e-07
-4.922182871e-07
-2.406916589e-06
2.050991997e-06
-9.964536351e-08
6.754505258e-07
4.43032165e-08
4.819281904e-08
-2.926609766e-08
-3.996602583e-08
-1.433641697e-07
1.021380589e-07
-2.705009774e-08
3.490780105e-08
1.746312283e-08
2.921206048e-08
-2.35868509e-08
-3.318268099e-08
-2.284465658e-08
2.195329686e-08
-5.526658985e-08
2.55198074e-08
6.523979932e-09
1.171864907e-08
-2.047750565e-11
-1.002759874e-07
-1.211257237e-08
4.522141496e-08
-1.574786119e-07
9.776527576e-08
2.254865657e-15
2.289342239e-15
3.821870724e-15
-1.061673974e-07
-1.463491919e-11
1.555332595e-07
3.056991763e-07
2.654802211e-08
-0.0005318834968
-0.0001947583367
0.0007548719294
0.0004201193764
0.0001273154355
-0.000287556428
0.001267999727
-0.0007496567204
-0.002791783979
-0.001741345454
0.002738475305
0.002700337458
0.001463669409
-0.001887489678
0.004727047325
-0.003601391349
5.236322572e-08
1.883156508e-06
-1.366884899e-06
-7.749744392e-06
1.224503239e-06
-2.675430254e-07
6.76774338e-07
-1.545814798e-07
-6.327242543e-06
2.480153684e-07
3.656730752e-07
-3.997147404e-06
3.916328826e-08
3.875593734e-07
1.668022743e-07
-3.632244722e-07
-2.285004334e-06
-1.41560939e-07
2.101286145e-07
-2.6255108e-06
1.375795891e-06
3.742655814e-06
1.217184158e-06
-1.051564875e-06
-3.939971329e-06
-1.613917263e-06
4.101126045e-06
-3.903115993e-06
5.285457885e-06
4.51139848e-06
3.13867454e-07
-4.493311986e-07
-3.526320748e-06
-4.879544679e-06
5.311487924e-06
-3.562689978e-06
4.710573511e-06
2.141830697e-06
7.485917484e-07
-1.014968948e-06
-3.535937223e-06
-2.973246409e-06
3.687517655e-06
-3.075702803e-06
3.053401863e-06
1.966295715e-06
1.199678491e-06
-1.069178195e-06
-2.169710332e-06
-2.009962561e-06
2.492332133e-06
-1.151018612e-06
1.932900327e-06
4.344590474e-07
3.601518794e-07
-7.416308564e-08
-4.20352119e-07
-1.491158169e-06
1.132414719e-06
-3.432688861e-07
4.104011203e-07
3.36756243e-08
3.46434585e-08
-2.867688317e-08
-5.792146171e-07
-7.839992182e-08
3.381790541e-07
-9.787886452e-07
5.166292837e-07
3.212507178e-08
3.543212694e-08
-4.993127173e-08
-1.312879313e-06
-2.653633175e-08
7.176376649e-07
-1.153169318e-06
7.49168653e-07
5.763925705e-08
6.158051836e-08
-1.972751749e-08
-2.317378417e-07
-4.651396114e-08
4.149709793e-07
3.078882928e-07
7.071178342e-08
-0.0001526742812
-1.893513054e-07
0.0002762074952
0.0003396574893
-8.66826035e-09
-0.0002264456378
0.0008626407465
-0.0003525293233
-8.402586927e-19
3.358923388e-19
-1.436319709e-20
1.685689692e-18
-5.821653793e-21
-5.08477237e-19
-2.267464385e-19
-5.777673793e-21
1.08268392e-19
5.994514428e-19
2.310989232e-21
5.89220277e-20
-2.510605102e-20
4.144096525e-20
-9.562940925e-20
-1.019798242e-18
-3.9790075e-19
1.050074312e-18
2.720776342e-18
1.496929436e-19
5.358682475e-19
-2.233142472e-19
3.925765722e-19
-4.287059178e-19
-5.548349081e-10
-7.754833451e-18
-2.208654513e-10
3.668188939e-09
2.486289538e-18
1.109749527e-17
-3.836371173e-18
-1.90794827e-11
-1.096712246e-10
-3.909636915e-10
4.596592937e-11
1.07694393e-10
1.602351939e-09
1.484407851e-11
5.847431042e-10
-1.508248301e-10
4.87088075e-11
-1.120730055e-10
-4.167785482e-10
-2.578245718e-10
4.236003636e-10
1.894976145e-09
8.065602211e-11
3.980493232e-10
-1.089169278e-10
1.160888551e-10
-1.116844538e-10
-4.783900578e-10
-6.164974678e-10
8.454672504e-10
2.250031646e-09
1.575129167e-10
4.435914372e-10
-1.172937265e-10
2.068626208e-10
-1.253346312e-10
-5.763411739e-10
-1.117580469e-09
1.4448655e-09
2.740004942e-09
2.644697199e-10
5.210440121e-10
-1.349473528e-10
3.242656972e-10
-1.447213943e-10
-0.002528946074
-1.321460361e-08
0.0001929967199
0.001561879756
2.351244706e-08
7.369029616e-08
-1.09721164e-07
-0.002717260909
-0.0004046721003
0.0003813328713
-0.002182786505
0.001428631123
-0.0001996151086
0.0001537514432
-0.001221679901
-0.001380744171
0.001843234121
0.0001232989247
-0.001093625403
0.0007786188667
-0.000614939598
0.0002389227862
-0.0005988160446
-0.001458231927
-0.0002111508404
0.001318296567
-0.0004787505171
0.0002184037926
-0.0003485610842
-0.00104636986
-3.642431408e-19
-2.404507192e-21
-9.478293758e-22
1.676189081e-20
-4.645013639e-20
-5.995778604e-20
1.562568278e-19
-2.081654764e-19
-3.771810814e-11
-8.576472535e-19
1.995085577e-12
-4.151234234e-11
-1.083263911e-11
1.867236178e-11
-2.639136041e-11
3.513541594e-11
-4.072317148e-11
-4.548129441e-11
5.785414468e-11
-4.542800688e-11
-4.987086534e-11
-7.227874075e-11
8.482625091e-11
-2.022350686e-21
-2.286545666e-19
1.212638574e-20
7.932302401e-22
2.918174605e-12
-5.556320462e-19
-6.259117375e-19
9.712458941e-12
5.329822246e-11
1.442701503e-11
-6.418652107e-17
3.993692595e-11
1.920327405e-11
6.138370461e-11
-1.231694775e-14
-4.880647925e-11
-8.49426515e-08
-0.005131788357
0.001519849628
-4.826896751e-09
4.014369168e-08
1.147415723e-07
0.0002350197887
-0.005349242567
-0.0001565216251
-0.0022202654
-0.003369565156
-0.0004935305586
-0.0006949031323
-0.001309698603
0.002653102465
-0.000826934599
-4.627329661e-05
-0.001248976761
-0.001086907305
0.0003557232429
-1.997495323e-19
7.643518164e-21
-3.947701153e-21
-1.770444503e-20
3.422649007e-20
5.058106447e-21
-1.430529614e-21
1.308354283e-20
-2.879727914e-21
-1.902225803e-19
3.199362835e-20
-1.962415998e-17
-2.320584609e-16
7.212374916e-16
7.695087068e-17
-1.674214196e-17
2.539109947e-16
-2.163075796e-19
-1.162018174e-15
3.488016375e-15
6.816533075e-16
-9.655657871e-19
1.59647174e-15
-4.297145281e-15
-0.001046613981
-0.003888457179
-0.0008709305959
0.004189771948
-0.003433709361
0.005560920023
-0.0006621985878
-0.0007022168479
-0.001987877127
0.0001891641541
0.002828781983
-6.094868643e-06
-0.002971409359
-0.00166858308
0.000693051647
0.002849418869
-0.003680516212
-0.002303817119
-7.154821741e-05
0.0008136250382
-0.0003703708572
1.629402097e-19
-1.437001379e-19
4.458323147e-22
4.336652723e-22
-1.719057619e-22
-5.060609629e-23
9.778017028e-21
-1.365010964e-21
9.993987462e-22
1.507953559e-20
-7.919917875e-21
2.848424714e-20
1.18693257e-20
-1.375758321e-21
-3.711210489e-20
5.369369432e-20
1.013896534e-19
-4.184695637e-21
2.065522224e-16
-2.047696994e-16
1.922201538e-19
0.004970476935
-0.004074736575
0.0002908964184
0.003856959936
-0.001842002945
0.004441215713
-0.002380808995
-0.000351562266
-0.0007033720034
0.00131684996
0.0005234235685
-0.0001058845214
5.172856996e-24
-1.797886959e-25
4.065764818e-24
-1.192994589e-27
2.352498816e-23
-1.453250231e-23
3.776659501e-23
-6.806760177e-27
-1.279218879e-21
6.442271711e-22
2.398566923e-21
-3.670392538e-25
0.001960305427
-4.140495123e-07
0.001540174908
5.171793588e-09
7.487903212e-05
0.0004242095236
-2.525374582e-09
3.731195977e-11
-5.944483354e-16
1.530166217e-05
1.380008267e-05
2.333351133e-06
1.803277605e-14
7.524655762e-15
-3.671301692e-19
8.073117907e-14
-5.388890233e-05
0.0001199712862
4.32467883e-06
-8.873220912e-14
3.439325441e-13
-3.91011454e-18
8.940007675e-11
-0.0002355579839
-0.0009911696788
0.0006868569715
-1.900797579e-12
1.619306503e-11
-1.167744588e-16
-6.024801571e-07
0.0004635054125
1.747433693e-05
-1.328678092e-06
2.00459202e-07
-1.454122891e-07
-9.295111881e-09
-5.397857024e-07
0.0003766304808
-3.060752224e-05
0.0001542165174
6.946986103e-08
7.180131225e-09
-6.727605399e-09
-6.006929328e-07
-0.0002704477928
0.0005234572515
0.0001840900729
-8.52017836e-08
1.656671828e-07
-8.165296692e-09
-6.521312108e-07
-0.0007581439475
0.0009937719454
0.0001980747042
-2.496447803e-07
3.341864477e-07
-9.793324347e-09
-8.836497866e-07
-0.001305843043
0.00111937393
0.0003065000321
-4.331433151e-07
4.500393871e-07
-3.88424787e-08
0.0001319854468
-0.0002642940514
0.0003597061642
-0.0001289250177
-0.0008776448476
0.0008626142156
-0.000107773579
-0.0007314873519
-1.513464377e-06
-2.969744274e-06
-0.001641638325
6.65734931e-07
-1.832289789e-05
-3.215375078e-05
-2.507926078e-05
3.418714106e-05
-0.0002335335962
-0.001448147844
0.001801548163
0.0005431806214
0.0001891252396
-0.0003542833785
0.0004172563369
0.0001387009928
-8.108223823e-05
-0.001703359569
0.002062945126
-0.0004339660441
1.562106719e-07
-0.001675309012
0.0004817802989
0.0001420364793
0.0002470848428
0.0001746242524
-0.0006127659624
0.003002488775
-0.004784937264
0.003387311408
0.002996352772
-0.003433447351
0.001765052151
-0.003426545941
0.005957779066
0.0002637957344
-0.003049589528
0.001103190514
-0.0006487681487
-0.00211582466
0.004569721441
-0.002797273343
0.0009884287037
-0.0009135134849
-1.273124314e-05
0.0007672640262
-0.0006434067526
-4.207168154e-05
0.0005543076692
-0.0004838904836
-2.720619587e-05
0.0004233513558
-0.000371027746
-2.401908921e-05
0.0003159793647
-0.0002611055745
-3.551859273e-05
0.0002103067493
-0.0001909765447
2.023237156e-07
0.0002651479676
-0.0004012730806
5.736767818e-05
0.0003328910705
-0.00014826788
0.0001022970289
6.029018411e-05
-2.739004597e-05
1.05356315e-05
8.310313587e-06
4.098359501e-05
-3.649118841e-05
-0.0002316018052
0.001301964075
-0.0009382201259
4.206012506e-06
1.685545656e-05
-1.03855526e-05
-1.212303374e-06
0.001793417874
-9.487823774e-06
-0.001454433991
1.497869469e-19
1.447065732e-18
3.66278218e-17
2.61020877e-09
1.745803625e-09
2.059791115e-09
2.470994895e-09
4.82642905e-08
6.063526429e-05
-0.001435945765
0.001149356001
-0.001003716321
0.0002138397183
0.0005526074827
-0.0004188173096
-0.0005010808231
-0.0006732195243
0.0002951788473
-0.0007803477102
0.0006939219479
-0.0002309983484
0.0003869771068
-0.0001249067041
-4.470635119e-07
7.447513778e-07
-4.033104068e-07
6.989413904e-07
-5.238887636e-07
-3.655133331e-07
-1.078990075e-19
-1.405537748e-20
5.015400642e-20
-1.604352791e-18
-1.300279835e-19
-4.261578794e-11
-2.470743367e-11
3.126940753e-11
-4.861884181e-11
-3.916945576e-11
-5.024086346e-07
4.094289942e-06
-6.850331494e-07
-4.35881491e-06
-2.877673804e-07
2.58405587e-06
-2.463018536e-06
-1.734044929e-06
1.390639846e-07
3.449025562e-07
-5.336094972e-08
-1.084065612e-06
3.282326503e-07
-2.182388783e-07
1.536548441e-07
-1.107098245e-07
0.00217672131
-0.002209916049
0.001674135443
0.00260354404
-0.003229716391
0.0008697368233
-0.001513729622
0.002025803327
0.0006180265515
-0.001331117395
0.001380595056
0.0002897308603
-0.0004037683729
-0.001265443693
-0.0005454152841
0.0004724599767
1.975487263e-05
-3.668168422e-06
-1.844194857e-06
-1.637990556e-05
-3.293204992e-13
4.264410544e-13
3.107231592e-14
2.099745365e-15
-2.002530822e-13
3.84440125e-15
4.102192239e-14
1.187137357e-13
-8.684632197e-14
-1.169412238e-14
1.816247042e-14
-8.659372027e-14
1.251525637e-13
-2.369821282e-14
2.956310465e-14
-3.020437841e-14
-4.159205952e-14
3.67350327e-14
1.658897487e-13
-1.096589957e-13
-3.704442091e-14
4.827755574e-14
-2.497412279e-13
4.067785071e-13
-6.816219216e-14
1.161768119e-13
-8.751357503e-14
1.27622242e-13
-7.842748692e-14
1.27069134e-09
-5.999078496e-10
-4.843918519e-13
1.113709678e-10
-1.507058156e-07
3.133520455e-07
7.229506694e-09
3.865242239e-08
3.007874319e-08
-1.549444722e-08
5.884141528e-09
4.611943707e-08
-1.061149559e-08
-2.447018016e-08
1.791771604e-08
0.002384775684
0.003407149937
-0.003400862108
-0.00152063118
-0.004561168617