/*--------------------------------*- C++ -*----------------------------------*\
  =========                 |
  \\      /  F ield         | OpenFOAM: The Open Source CFD Toolbox
   \\    /   O peration     | Website:  https://openfoam.org
    \\  /    A nd           | Version:  8
     \\/     M anipulation  |
\*---------------------------------------------------------------------------*/
FoamFile
{
    version     2.0;
    format      ascii;
    class       volScalarField;
    location    "1.1/wallFilmRegion";
    object      rho;
}
// * * * * * * * * * * * * * * * * * * * * * * * * * * * * * * * * * * * * * //

dimensions      [1 -3 0 0 0 0 0];

internalField   nonuniform List<scalar> 
1342
(
994.5114685
994.5114686
994.5114695
994.5114699
994.5114692
994.5114688
994.5114689
994.5116543
994.5116348
994.5116038
994.5115824
994.5115693
994.5115283
994.5115024
994.5114817
994.511473
994.5114747
994.5114742
994.5114684
994.5114685
994.5114685
994.5114691
994.5114734
994.5115539
994.5115297
994.5117249
994.5117263
994.5117269
994.511743
994.5118111
994.5117872
994.5117334
994.5116291
994.5114792
994.5114846
994.511493
994.5114684
994.5114684
994.5114684
994.5114685
994.5114688
994.511471
994.5116109
994.511788
994.5118115
994.5118635
994.5118549
994.5118054
994.5117607
994.5114906
994.511503
994.5118231
994.5118324
994.5118262
994.5118263
994.5118195
994.511819
994.5118106
994.5115459
994.5114684
994.5114684
994.5114772
994.5115256
994.5117738
994.5118594
994.5118437
994.5118245
994.5118292
994.5118292
994.5118188
994.511813
994.5115301
994.5114684
994.5114684
994.5114772
994.5115671
994.5118111
994.5118305
994.5118194
994.511809
994.5118092
994.5118088
994.5117853
994.5115005
994.5114684
994.5114684
994.5114685
994.5114687
994.5114722
994.5117554
994.511756
994.5117573
994.5117586
994.5117582
994.5117554
994.5117501
994.5117645
994.5117978
994.5114685
994.5114686
994.5114685
994.5114685
994.5114685
994.5114685
994.5114685
994.5114697
994.5114685
994.5114686
994.5114695
994.5114694
994.511471
994.5114686
994.5114687
994.5114687
994.5114686
994.5114687
994.5114686
994.5114685
994.5114686
994.5114685
994.5114685
994.5114685
994.5114685
994.5114685
994.5114684
994.5114684
994.5114685
994.5114685
994.5114685
994.5114686
994.5114686
994.5114695
994.5114687
994.5114696
994.5114674
994.511469
994.511468
994.5114687
994.5114687
994.5114688
994.5114688
994.5114686
994.5114684
994.5114683
994.5114687
994.5114683
994.5114684
994.5114689
994.5114686
994.5114686
994.5114688
994.5114678
994.5114675
994.5114686
994.5114675
994.5114676
994.5114687
994.5114681
994.5114684
994.5114687
994.5114685
994.5114693
994.5114699
994.5114701
994.5114684
994.5114655
994.5114627
994.5114632
994.5114687
994.5114642
994.5114651
994.5114698
994.5114659
994.5114665
994.5114688
994.5114661
994.5114641
994.5114688
994.5114689
994.5114689
994.5114682
994.5114687
994.5114682
994.511468
994.511468
994.5114679
994.5114682
994.511468
994.5114679
994.5114617
994.5114671
994.5114641
994.511422
994.5114603
994.5114376
994.5114552
994.5113673
994.5113634
994.5114698
994.5114675
994.5114699
994.5114667
994.5114696
994.5114654
994.5114612
994.5114579
994.5114587
994.5114638
994.5114605
994.5114628
994.5114656
994.5114647
994.5114657
994.5114605
994.5114652
994.5114567
994.511469
994.5114107
994.5114693
994.5114702
994.5114702
994.5114702
994.5114704
994.5114702
994.5114704
994.5114704
994.5114705
994.5114704
994.5114692
994.5114699
994.5114692
994.5114613
994.5114675
994.5114643
994.5113628
994.511464
994.5114638
994.5114697
994.5114677
994.5114696
994.5114639
994.5114691
994.511462
994.5114555
994.5114504
994.5114524
994.5114634
994.5114594
994.5114651
994.5114671
994.5114674
994.5114681
994.5114564
994.5114683
994.5114644
994.5114697
994.5113827
994.5114701
994.5114696
994.5114701
994.5114696
994.51147
994.5114689
994.5114688
994.5114706
994.5114692
994.5114705
994.5114705
994.5114703
994.5114703
994.5114695
994.51147
994.5114696
994.511466
994.5114687
994.5114668
994.5114666
994.5114649
994.5114663
994.5114694
994.5114687
994.5114689
994.5114596
994.5114685
994.5114565
994.5114514
994.5114431
994.5114536
994.5114666
994.5114638
994.5114674
994.5114685
994.5114684
994.5114687
994.5114687
994.5114688
994.5114688
994.5114703
994.5114688
994.5114688
994.5114689
994.5114688
994.5114688
994.5114681
994.5114685
994.5114676
994.5114673
994.5114172
994.5114005
994.5114702
994.5113972
994.51147
994.5114696
994.5114699
994.5114695
994.5114673
994.5114688
994.5114676
994.5114661
994.5114658
994.5114661
994.5114684
994.5114685
994.5114686
994.5114516
994.5114577
994.5114362
994.5114561
994.5114364
994.5114542
994.5114674
994.5114628
994.5114662
994.5114686
994.5114674
994.5114677
994.5114688
994.5114688
994.5114688
994.5114688
994.5114688
994.5114688
994.5114682
994.5114683
994.5114675
994.5114682
994.5114674
994.5114104
994.5114541
994.5114609
994.5114699
994.5114685
994.5114698
994.5114695
994.5114698
994.5114695
994.5114678
994.5114688
994.5114674
994.5114663
994.5114667
994.5114673
994.5114666
994.5114677
994.5114636
994.511422
994.511438
994.5114093
994.5114235
994.5114028
994.5114238
994.5114277
994.5114455
994.5114582
994.5113347
994.5114637
994.5114655
994.5114688
994.5114688
994.5114688
994.5114688
994.5114688
994.5114688
994.5114685
994.5114691
994.5114679
994.5114691
994.5114692
994.5114674
994.5114692
994.5114693
994.5114698
994.5114695
994.5114696
994.5114693
994.5114693
994.5114687
994.5114672
994.5114681
994.5114677
994.5114671
994.5114673
994.5114665
994.5114595
994.5114646
994.5114581
994.511403
994.5114579
994.5114633
994.5114203
994.5114657
994.5114667
994.51145
994.5114669
994.5114654
994.5114688
994.5114688
994.5114688
994.5117213
994.5117653
994.5117185
994.5117484
994.5117602
994.5117104
994.5117652
994.5117626
994.5117176
994.5117569
994.511766
994.5117144
994.5117608
994.5117576
994.5117122
994.5117557
994.5117547
994.5117103
994.5117536
994.5117523
994.5117103
994.51175
994.5117465
994.5114684
994.5116158
994.5114684
994.5114684
994.5114684
994.5114684
994.5114684
994.5114685
994.5114684
994.5117774
994.5117826
994.5117923
994.5117915
994.5117817
994.5117789
994.5117758
994.511765
994.5117904
994.5117797
994.5118018
994.5117958
994.5117929
994.5117915
994.5117745
994.5114684
994.5115641
994.5114684
994.5114684
994.5114684
994.5114684
994.5114684
994.5114684
994.5118197
994.5118186
994.5118269
994.511834
994.5118426
994.5118269
994.5118299
994.5118246
994.5118204
994.5118249
994.511822
994.5118161
994.5118214
994.5118196
994.511802
994.5114684
994.5114684
994.5114684
994.5114684
994.5114684
994.5114684
994.5114684
994.5118512
994.5118286
994.5118314
994.5118233
994.511824
994.5118261
994.5118039
994.5118233
994.5118212
994.5118324
994.5118106
994.5114684
994.5114684
994.5114684
994.5117885
994.511799
994.5117906
994.5114684
994.5114684
994.5114686
994.5116316
994.5114686
994.5116259
994.5114685
994.5116216
994.5114686
994.5114836
994.5114686
994.5114827
994.5114686
994.5114823
994.5114686
994.5114822
994.5114687
994.5114829
994.5114685
994.5114687
994.5114685
994.5114686
994.5114686
994.5114685
994.5114685
994.5114684
994.5114685
994.5114685
994.5114687
994.5114689
994.5114688
994.5114688
994.5114686
994.5114688
994.5114686
994.5114685
994.5114686
994.5114688
994.5114688
994.5114686
994.5114687
994.5114687
994.5114696
994.5114655
994.5114671
994.5114697
994.5114675
994.5114688
994.5114686
994.5114685
994.5114689
994.5114684
994.511468
994.5114683
994.5114672
994.5114154
994.5114453
994.5114662
994.5114698
994.5114606
994.5114625
994.5114649
994.5114652
994.5114664
994.5114691
994.5114702
994.5114703
994.5114705
994.5114701
994.5114651
994.511458
994.5114677
994.5114693
994.5114545
994.5114591
994.511466
994.5114668
994.5113682
994.5114697
994.5114699
994.5114701
994.5114706
994.51147
994.5114684
994.5114644
994.5114668
994.5114688
994.5114462
994.5114616
994.5114681
994.5114687
994.5114689
994.5114699
994.5114687
994.5114645
994.5114687
994.51147
994.5114688
994.5114654
994.5114685
994.5114681
994.5114415
994.5114646
994.5114683
994.5114688
994.5114688
994.5114688
994.5114683
994.5114181
994.5114004
994.5114698
994.5114689
994.511466
994.5114685
994.511448
994.5114111
994.5114309
994.511334
994.5114688
994.5114688
994.5114688
994.5114688
994.5114684
994.5114648
994.5114692
994.5114698
994.5114683
994.5114671
994.5114664
994.5114284
994.5114031
994.5114377
994.5114593
994.5114688
994.5114688
994.5114695
994.5114694
994.5114693
994.5114692
994.5114692
994.5114692
994.5114691
994.5114691
994.5114689
994.5114688
994.5114688
994.5114724
994.5114688
994.5117211
994.5117067
994.511717
994.5117078
994.5117159
994.5117131
994.5117111
994.5117098
994.5116473
994.5114684
994.5114684
994.5114684
994.5114685
994.5114685
994.5114685
994.5114684
994.5115259
994.5115093
994.5117792
994.5117884
994.5118002
994.5117882
994.5118024
994.5117852
994.5117799
994.5117777
994.5117897
994.5117717
994.5117819
994.5115851
994.5114826
994.5114978
994.5115451
994.5115395
994.5114684
994.5114684
994.5114684
994.5114685
994.5114684
994.5114705
994.5118107
994.5117996
994.5118299
994.51185
994.5118267
994.51185
994.5118364
994.511826
994.5118294
994.5115476
994.5115824
994.5116668
994.5114684
994.5114684
994.5114684
994.51147
994.5114728
994.5114702
994.5118038
994.5117891
994.5117982
994.5117999
994.5118167
994.5117848
994.5118332
994.5118247
994.5117518
994.5117887
994.5117792
994.51179
994.5117773
994.5117922
994.51178
994.5117787
994.511756
994.5118284
994.5117185
994.5117517
994.5117528
994.5117495
994.5117537
994.5117537
994.5117418
994.5117412
994.5117921
994.5117159
994.5117251
994.5117282
994.5117302
994.5117361
994.5117388
994.5117386
994.5117518
994.5117843
994.5117336
994.5117362
994.511737
994.5117368
994.5117375
994.511736
994.5117363
994.5117524
994.5117819
994.5114686
994.5116278
994.5114685
994.511661
994.5114686
994.5116292
994.5114685
994.5114685
994.5116639
994.5116635
994.5114686
994.5116234
994.5114685
994.5114685
994.5116578
994.5116551
994.5114685
994.5114686
994.5114685
994.5114685
994.5116539
994.5115232
994.5114686
994.5114829
994.5114685
994.5114686
994.511662
994.5116621
994.5114686
994.5114825
994.5114686
994.5114686
994.5116609
994.5116596
994.5114686
994.5114821
994.5114686
994.5114686
994.5116579
994.5116568
994.5114686
994.5114822
994.5114686
994.5114686
994.5116568
994.511659
994.5114687
994.5114685
994.5114686
994.5114686
994.5116532
994.5114685
994.5114687
994.5114687
994.5114685
994.5114687
994.5114688
994.5114688
994.5114688
994.5114688
994.5114688
994.5114685
994.5114689
994.5114685
994.5114685
994.5114692
994.5114694
994.5114687
994.5114694
994.5114685
994.5114685
994.5114688
994.5114688
994.511469
994.5114689
994.5114688
994.5114809
994.5114959
994.5115099
994.5114688
994.5114688
994.511513
994.5114688
994.5114688
994.5114716
994.5114688
994.5114688
994.5114688
994.5114688
994.5115107
994.5115078
994.5115036
994.5114696
994.5114694
994.5116755
994.5116975
994.5114694
994.5114694
994.5114694
994.5116437
994.5116827
994.5116778
994.5114693
994.5114694
994.5114694
994.5116198
994.5116769
994.5116731
994.5114693
994.5114694
994.5114694
994.5115913
994.5116688
994.5116679
994.5114692
994.5114694
994.5114694
994.5115751
994.5116742
994.5116926
994.5114692
994.5114694
994.5114694
994.5115604
994.5117251
994.5117682
994.5114691
994.5114694
994.5114694
994.5115131
994.5117044
994.51168
994.5114691
994.5114694
994.5114694
994.5114932
994.5116704
994.511669
994.511469
994.51147
994.5114706
994.5114728
994.5115682
994.5114768
994.5114689
994.5114694
994.511469
994.5114738
994.5114767
994.5114781
994.5114688
994.5114689
994.5114689
994.5114751
994.5114804
994.5114834
994.5114729
994.5114688
994.5114689
994.511491
994.5114859
994.5115019
994.5114947
994.5114685
994.5114684
994.5114685
994.5114684
994.5114684
994.5114685
994.5114685
994.5114684
994.5114685
994.5114685
994.5114685
994.5114685
994.5114698
994.5114689
994.5114694
994.5114817
994.5114991
994.5114718
994.5114756
994.511516
994.5115364
994.5114867
994.5115534
994.5115956
994.5115805
994.5115715
994.5117312
994.5117245
994.5117265
994.5117664
994.5117309
994.5117701
994.5117772
994.5117688
994.5117917
994.5118184
994.5118634
994.5118584
994.5118923
994.51175
994.5118399
994.5118004
994.511728
994.5117817
994.511775
994.5114799
994.5117054
994.5114849
994.5114813
994.5114837
994.5114869
994.511489
994.5114922
994.5114979
994.511503
994.5115131
994.5115246
994.5115628
994.511531
994.5117944
994.5118061
994.5117909
994.511787
994.5114684
994.5114684
994.5114684
994.5114684
994.5114684
994.5114684
994.5114684
994.5114684
994.5114685
994.5114684
994.5114684
994.5114685
994.5114685
994.5114685
994.5114685
994.5114691
994.5114689
994.5114687
994.5114686
994.5114736
994.5114704
994.511473
994.5114774
994.5114968
994.5114881
994.511684
994.5116378
994.5116186
994.5115159
994.5115895
994.5117838
994.5117823
994.5117968
994.5117896
994.5117978
994.5118095
994.5118248
994.5118346
994.5118395
994.5118423
994.5118735
994.5118232
994.511834
994.5118209
994.5118108
994.5118063
994.5117987
994.5115006
994.511492
994.511784
994.5115
994.5114957
994.5115078
994.5115228
994.5115202
994.5115596
994.5115613
994.5115903
994.511622
994.5116962
994.5118219
994.5118343
994.5118286
994.5118322
994.5118252
994.5118236
994.5118153
994.5118115
994.5115392
994.5114684
994.5118423
994.5118286
994.5118276
994.51183
994.5114684
994.5114684
994.5114684
994.5114684
994.5114684
994.5114684
994.5114684
994.5114685
994.5114685
994.5114686
994.5114686
994.511469
994.511469
994.5114692
994.511472
994.511472
994.5114701
994.5114982
994.5114761
994.5114897
994.5117942
994.5118059
994.5117986
994.5118135
994.511821
994.511813
994.5118154
994.511829
994.5118164
994.5118174
994.5118246
994.5118171
994.5118234
994.5115567
994.5117744
994.5118217
994.5117773
994.5118257
994.5117361
994.5117698
994.5118189
994.5118187
994.5116093
994.5115425
994.5116402
994.511804
994.5117945
994.5118193
994.5118415
994.5118512
994.5118289
994.5118432
994.5118277
994.5118326
994.5115358
994.5116033
994.5117363
994.5117091
994.5117964
994.5118454
994.5118322
994.5118525
994.5118407
994.511816
994.5118129
994.5118167
994.5118778
994.511515
994.5114684
994.5114684
994.5118282
994.5117836
994.5118212
994.5117742
994.5118277
994.5117983
994.5118104
994.5117961
994.5117924
994.5118099
994.5117911
994.5118084
994.5118063
994.5117846
994.5117763
994.5119601
994.5117531
994.5119767
994.5114684
994.5114965
994.5114684
994.5114684
994.5114684
994.5114684
994.5114684
994.5114684
994.5114684
994.5114684
994.5114684
994.5114684
994.5114684
994.5114684
994.5114685
994.5114685
994.5114685
994.5114686
994.5114687
994.5114694
994.5114691
994.5118009
994.511471
994.5114742
994.511498
994.511477
994.511774
994.5117833
994.5117746
994.5117859
994.5117755
994.5117768
994.5117784
994.5117581
994.5117952
994.5117798
994.511781
994.5117819
994.5117992
994.5117827
994.511757
994.5117829
994.5117824
994.511754
994.5117989
994.5117814
994.5117656
994.5117808
994.5117727
994.5117854
994.5118072
994.5117919
994.5118017
994.511795
994.5116915
994.5117883
994.5118109
994.5114807
994.5115205
994.5117909
994.5117814
994.5118089
994.5117924
994.511797
994.5118171
994.5117996
994.5116578
994.5118019
994.5118303
994.5118155
994.5117571
994.5117415
994.5117683
994.5117196
994.5117474
994.5117848
994.5117723
994.5117719
994.5117762
994.5117654
994.5117603
994.5117777
994.5117588
994.511761
994.5117804
994.5117644
994.5117635
994.5117707
994.5117605
994.511753
994.5117415
994.5117427
994.5117318
994.5116681
994.511731
994.5117738
994.5117947
994.5117166
994.5117095
994.5117339
994.5117123
994.5117179
994.5117556
994.5117249
994.5117277
994.5117496
994.5117314
994.511734
994.5117513
994.5117375
994.5117414
994.511755
994.5117451
994.5117494
994.511749
994.5117524
994.5117567
994.5117359
994.5117667
994.5117791
994.5117651
994.5118013
994.5118225
994.5118081
994.5118197
994.511803
994.5114685
994.5117133
994.5117197
994.5117231
994.5117223
994.5117263
994.511727
994.5117298
994.5117287
994.5117285
994.5117281
994.5117287
994.5117329
994.5117301
994.511732
994.5117378
994.5117325
994.5117326
994.5117392
994.5117318
994.511732
994.5117411
994.5117321
994.5117383
994.5117673
994.5117492
994.5117636
994.5117963
994.51178
994.5117928
994.5114699
994.5117745
994.5117318
994.5117462
994.5117554
994.5117353
994.5117464
994.5117468
994.5117556
994.5117375
994.5117472
994.5117475
994.5117568
994.5117366
994.5117485
994.5117491
994.5117372
994.5117497
994.5117497
994.511759
994.5117371
994.5117492
994.5117478
994.5117347
994.5117461
994.5117457
994.5117421
994.5117475
994.5117528
994.5117569
994.5117671
994.5117622
994.5117746
994.5117678
994.5117799
)
;

boundaryField
{
    walls
    {
        type            zeroGradient;
    }
    wallFilmFace_top
    {
        type            zeroGradient;
    }
    region0_to_wallFilmRegion_wallFilmFace
    {
        type            zeroGradient;
    }
    mirrorFace_top
    {
        type            zeroGradient;
    }
    region0_to_wallFilmRegion_mirrorFace
    {
        type            zeroGradient;
    }
    procBoundary3to2
    {
        type            processor;
        value           nonuniform List<scalar> 
64
(
994.5116781
994.5117312
994.511758
994.5117635
994.5117777
994.5118234
994.5118318
994.5118315
994.5117557
994.5114686
994.5114687
994.5114687
994.5114687
994.5114685
994.5114692
994.5114691
994.5114696
994.5114701
994.5114701
994.5114699
994.5114686
994.511468
994.5114681
994.5114681
994.5114688
994.5114688
994.5114688
994.5114697
994.511469
994.511469
994.5117108
994.5117743
994.5117743
994.5117943
994.511821
994.5114686
994.5116273
994.5114686
994.5114695
994.5116559
994.5117987
994.5118006
994.5117763
994.5117386
994.5117167
994.5117329
994.5114686
994.5116559
994.5114694
994.5117008
994.5117582
994.51176
994.5117635
994.5117792
994.5118424
994.5117907
994.5117882
994.5118418
994.51178
994.5117738
994.5117511
994.5117084
994.5117233
994.5117475
)
;
    }
}


// ************************************************************************* //
