/*--------------------------------*- C++ -*----------------------------------*\
  =========                 |
  \\      /  F ield         | OpenFOAM: The Open Source CFD Toolbox
   \\    /   O peration     | Website:  https://openfoam.org
    \\  /    A nd           | Version:  8
     \\/     M anipulation  |
\*---------------------------------------------------------------------------*/
FoamFile
{
    version     2.0;
    format      ascii;
    class       volScalarField;
    location    "1.1/wallFilmRegion";
    object      sigma;
}
// * * * * * * * * * * * * * * * * * * * * * * * * * * * * * * * * * * * * * //

dimensions      [1 0 -2 0 0 0 0];

internalField   nonuniform List<scalar> 
1342
(
0.07244713491
0.07244713493
0.07244713567
0.07244713595
0.07244713543
0.07244713513
0.07244713517
0.07244727653
0.07244726167
0.07244723806
0.07244722176
0.07244721172
0.07244718049
0.07244716075
0.07244714498
0.0724471383
0.07244713959
0.07244713925
0.07244713485
0.07244713486
0.07244713489
0.07244713531
0.07244713865
0.07244719996
0.07244718157
0.07244733038
0.07244733143
0.0724473319
0.07244734415
0.07244739613
0.07244737786
0.07244733684
0.07244725734
0.07244714308
0.0724471472
0.07244715354
0.07244713483
0.07244713483
0.07244713484
0.07244713486
0.07244713508
0.07244713677
0.07244724343
0.07244737846
0.07244739638
0.07244743602
0.0724474295
0.07244739173
0.07244735764
0.07244715171
0.0724471612
0.07244740526
0.07244741235
0.07244740761
0.07244740769
0.07244740249
0.07244740213
0.07244739574
0.07244719391
0.07244713483
0.07244713484
0.07244714151
0.07244717839
0.07244736763
0.07244743291
0.07244742093
0.07244740633
0.0724474099
0.0724474099
0.07244740198
0.07244739754
0.07244718188
0.07244713483
0.07244713483
0.07244714154
0.07244721006
0.07244739609
0.07244741087
0.07244740242
0.07244739448
0.07244739464
0.07244739435
0.07244737646
0.07244715929
0.07244713484
0.07244713483
0.07244713485
0.07244713504
0.07244713773
0.07244735362
0.07244735412
0.07244735511
0.0724473561
0.07244735575
0.07244735361
0.07244734956
0.07244736058
0.07244738597
0.07244713485
0.07244713492
0.07244713486
0.07244713486
0.07244713486
0.07244713486
0.07244713491
0.07244713577
0.07244713492
0.07244713496
0.07244713567
0.07244713557
0.0724471368
0.07244713497
0.07244713503
0.07244713503
0.07244713493
0.07244713501
0.07244713498
0.07244713489
0.07244713494
0.0724471349
0.07244713491
0.0724471349
0.0724471349
0.07244713489
0.07244713477
0.07244713484
0.07244713491
0.07244713486
0.07244713488
0.07244713498
0.07244713492
0.07244713564
0.07244713506
0.07244713571
0.07244713408
0.07244713525
0.07244713447
0.07244713505
0.07244713507
0.07244713514
0.07244713511
0.07244713494
0.07244713483
0.07244713477
0.07244713502
0.07244713477
0.0724471348
0.07244713517
0.07244713494
0.07244713494
0.07244713509
0.07244713433
0.07244713411
0.07244713493
0.07244713413
0.07244713423
0.07244713505
0.07244713454
0.07244713479
0.07244713507
0.07244713492
0.07244713553
0.07244713598
0.0724471361
0.07244713482
0.07244713262
0.0724471305
0.07244713084
0.07244713504
0.07244713158
0.07244713227
0.0724471359
0.07244713294
0.07244713333
0.07244713512
0.07244713302
0.07244713151
0.07244713514
0.07244713519
0.0724471352
0.07244713464
0.07244713501
0.07244713463
0.07244713452
0.07244713454
0.07244713444
0.07244713467
0.07244713453
0.07244713446
0.07244712968
0.07244713383
0.07244713154
0.07244709947
0.0724471286
0.07244711134
0.07244712475
0.07244705774
0.07244705473
0.0724471359
0.0724471341
0.07244713592
0.07244713354
0.07244713571
0.07244713253
0.07244712933
0.07244712682
0.07244712739
0.07244713126
0.07244712881
0.07244713055
0.07244713271
0.07244713199
0.07244713277
0.0724471288
0.07244713234
0.0724471259
0.07244713528
0.07244709083
0.0724471355
0.0724471362
0.07244713614
0.07244713616
0.07244713635
0.0724471362
0.07244713634
0.07244713633
0.0724471364
0.07244713634
0.07244713539
0.07244713598
0.0724471354
0.0724471294
0.07244713412
0.07244713171
0.07244705428
0.07244713148
0.07244713129
0.07244713581
0.07244713424
0.07244713569
0.07244713136
0.07244713532
0.0724471299
0.07244712498
0.07244712108
0.07244712259
0.07244713097
0.07244712795
0.07244713233
0.0724471338
0.07244713405
0.0724471346
0.07244712565
0.0724471347
0.07244713178
0.07244713582
0.07244706946
0.07244713612
0.07244713576
0.07244713607
0.07244713569
0.072447136
0.07244713522
0.0724471351
0.07244713645
0.07244713545
0.07244713642
0.07244713638
0.07244713629
0.07244713628
0.07244713563
0.07244713603
0.0724471357
0.072447133
0.07244713503
0.07244713361
0.07244713343
0.07244713212
0.0724471332
0.07244713553
0.07244713501
0.07244713516
0.07244712807
0.07244713485
0.07244712573
0.07244712186
0.07244711552
0.07244712351
0.07244713345
0.07244713129
0.07244713402
0.07244713491
0.07244713478
0.072447135
0.07244713505
0.07244713508
0.0724471351
0.07244713628
0.07244713514
0.07244713515
0.07244713522
0.07244713513
0.07244713513
0.07244713461
0.0724471349
0.0724471342
0.07244713393
0.07244709578
0.07244708303
0.07244713615
0.07244708049
0.07244713604
0.0724471357
0.07244713595
0.07244713566
0.07244713395
0.07244713514
0.07244713418
0.07244713308
0.07244713281
0.07244713304
0.07244713484
0.0724471349
0.07244713499
0.07244712196
0.07244712662
0.07244711022
0.07244712543
0.07244711043
0.07244712399
0.07244713407
0.07244713051
0.07244713313
0.07244713496
0.07244713407
0.07244713428
0.0724471351
0.0724471351
0.0724471351
0.07244713513
0.07244713512
0.07244713511
0.07244713467
0.07244713472
0.07244713409
0.07244713466
0.07244713402
0.07244709061
0.07244712393
0.07244712908
0.07244713595
0.0724471349
0.0724471359
0.07244713565
0.07244713588
0.07244713564
0.07244713435
0.07244713514
0.07244713402
0.0724471332
0.0724471335
0.07244713396
0.07244713343
0.07244713429
0.07244713111
0.07244709945
0.07244711165
0.07244708972
0.07244710058
0.07244708479
0.0724471008
0.0724471038
0.07244711735
0.07244712701
0.07244703286
0.07244713123
0.07244713259
0.0724471351
0.0724471351
0.07244713509
0.0724471351
0.07244713509
0.07244713509
0.07244713485
0.07244713532
0.07244713442
0.07244713538
0.07244713544
0.07244713403
0.07244713541
0.07244713548
0.07244713588
0.07244713568
0.07244713573
0.07244713548
0.07244713551
0.07244713507
0.07244713386
0.0724471346
0.07244713428
0.07244713382
0.07244713398
0.07244713338
0.07244712802
0.07244713194
0.07244712692
0.07244708495
0.07244712678
0.07244713091
0.0724470981
0.07244713277
0.07244713351
0.07244712076
0.07244713369
0.07244713253
0.0724471351
0.0724471351
0.0724471351
0.0724473276
0.07244736119
0.07244732547
0.07244734826
0.07244735728
0.07244731929
0.07244736109
0.07244735911
0.07244732479
0.07244735474
0.07244736168
0.07244732235
0.07244735773
0.07244735529
0.07244732072
0.07244735388
0.0724473531
0.07244731924
0.07244735223
0.07244735123
0.07244731927
0.07244734948
0.07244734682
0.07244713484
0.07244724719
0.07244713484
0.07244713484
0.07244713484
0.07244713484
0.07244713484
0.07244713485
0.07244713485
0.07244737043
0.0724473744
0.07244738173
0.07244738112
0.07244737369
0.07244737157
0.07244736915
0.07244736091
0.0724473803
0.07244737213
0.07244738904
0.07244738445
0.07244738219
0.07244738117
0.07244736816
0.07244713483
0.0724472078
0.07244713483
0.07244713483
0.07244713483
0.07244713483
0.07244713483
0.07244713483
0.07244740267
0.07244740185
0.07244740814
0.07244741356
0.07244742009
0.07244740811
0.07244741042
0.07244740642
0.07244740321
0.07244740665
0.0724474044
0.07244739989
0.07244740398
0.07244740255
0.07244738916
0.07244713483
0.07244713483
0.07244713483
0.07244713483
0.07244713483
0.07244713483
0.07244713483
0.07244742667
0.07244740942
0.0724474116
0.07244740539
0.07244740594
0.07244740754
0.07244739063
0.07244740538
0.07244740381
0.07244741236
0.07244739573
0.07244713483
0.07244713483
0.07244713484
0.07244737888
0.07244738685
0.07244738043
0.07244713483
0.07244713484
0.07244713493
0.0724472592
0.07244713493
0.0724472549
0.07244713492
0.07244725158
0.07244713495
0.07244714642
0.07244713497
0.07244714571
0.07244713498
0.07244714538
0.07244713499
0.07244714531
0.072447135
0.07244714588
0.0724471349
0.07244713502
0.07244713489
0.07244713498
0.07244713496
0.0724471349
0.0724471349
0.07244713482
0.0724471349
0.07244713492
0.07244713505
0.07244713515
0.07244713511
0.07244713508
0.07244713493
0.0724471351
0.07244713492
0.07244713492
0.07244713496
0.07244713512
0.07244713514
0.07244713497
0.07244713504
0.07244713504
0.07244713572
0.0724471326
0.07244713383
0.07244713578
0.07244713416
0.07244713513
0.07244713492
0.07244713492
0.07244713516
0.07244713482
0.07244713454
0.07244713471
0.07244713389
0.07244709437
0.07244711718
0.07244713312
0.07244713589
0.07244712885
0.07244713028
0.07244713217
0.07244713237
0.0724471333
0.07244713532
0.07244713618
0.07244713622
0.07244713638
0.07244713613
0.07244713232
0.07244712684
0.07244713427
0.07244713553
0.07244712422
0.07244712771
0.07244713298
0.07244713357
0.07244705842
0.07244713581
0.07244713598
0.07244713608
0.07244713647
0.07244713604
0.07244713482
0.07244713175
0.07244713361
0.07244713509
0.07244711789
0.07244712966
0.07244713458
0.07244713501
0.07244713516
0.07244713599
0.07244713505
0.07244713181
0.07244713503
0.072447136
0.0724471351
0.07244713249
0.0724471349
0.07244713459
0.07244711428
0.0724471319
0.07244713474
0.0724471351
0.07244713513
0.07244713511
0.07244713477
0.07244709647
0.07244708297
0.0724471359
0.07244713519
0.07244713295
0.07244713489
0.07244711927
0.07244709112
0.07244710621
0.07244703235
0.0724471351
0.0724471351
0.0724471351
0.07244713511
0.07244713482
0.07244713206
0.07244713545
0.07244713584
0.0724471347
0.0724471338
0.07244713332
0.07244710429
0.07244708499
0.07244711143
0.07244712786
0.0724471351
0.07244713509
0.07244713565
0.07244713553
0.07244713548
0.07244713545
0.07244713543
0.07244713539
0.07244713533
0.07244713532
0.0724471352
0.07244713513
0.07244713512
0.07244713785
0.07244713512
0.07244732751
0.0724473165
0.07244732437
0.07244731732
0.07244732354
0.07244732138
0.07244731981
0.07244731886
0.07244727124
0.07244713484
0.07244713484
0.07244713484
0.07244713485
0.07244713485
0.07244713485
0.07244713484
0.07244717868
0.07244716601
0.07244737179
0.07244737882
0.07244738777
0.07244737866
0.07244738946
0.07244737636
0.07244737232
0.07244737065
0.07244737978
0.07244736607
0.0724473738
0.07244722378
0.07244714562
0.07244715724
0.07244719329
0.07244718903
0.07244713483
0.07244713483
0.07244713483
0.07244713485
0.07244713484
0.07244713644
0.07244739581
0.07244738731
0.07244741045
0.07244742572
0.07244740799
0.07244742573
0.07244741538
0.07244740747
0.07244741008
0.07244719516
0.07244722175
0.07244728607
0.07244713483
0.07244713483
0.07244713484
0.07244713601
0.07244713813
0.07244713618
0.0724473905
0.07244737932
0.07244738627
0.07244738754
0.07244740036
0.07244737606
0.07244741294
0.0724474065
0.07244735089
0.072447379
0.07244737174
0.07244738001
0.07244737032
0.0724473817
0.07244737239
0.0724473714
0.07244735411
0.07244740929
0.07244732552
0.07244735081
0.07244735167
0.07244734909
0.07244735237
0.07244735234
0.07244734327
0.07244734282
0.07244738158
0.07244732348
0.07244733051
0.07244733288
0.07244733443
0.07244733889
0.07244734093
0.0724473408
0.0724473509
0.07244737564
0.07244733697
0.07244733901
0.07244733956
0.07244733943
0.07244734001
0.07244733881
0.07244733908
0.07244735131
0.07244737386
0.07244713494
0.07244725633
0.07244713492
0.07244728166
0.07244713493
0.07244725737
0.07244713492
0.07244713492
0.07244728387
0.07244728355
0.07244713493
0.07244725297
0.07244713492
0.0724471349
0.07244727921
0.07244727715
0.07244713491
0.07244713494
0.0724471349
0.07244713491
0.07244727622
0.07244717659
0.07244713496
0.07244714584
0.07244713491
0.07244713494
0.07244728244
0.0724472825
0.07244713498
0.07244714559
0.07244713495
0.07244713495
0.07244728157
0.07244728059
0.07244713499
0.07244714527
0.07244713496
0.07244713496
0.07244727931
0.07244727847
0.072447135
0.07244714535
0.07244713496
0.07244713497
0.07244727842
0.0724472801
0.072447135
0.07244713489
0.07244713498
0.072447135
0.07244727568
0.07244713485
0.07244713501
0.07244713503
0.07244713485
0.07244713505
0.07244713509
0.0724471351
0.07244713511
0.07244713512
0.07244713512
0.07244713486
0.07244713522
0.07244713486
0.07244713486
0.07244713538
0.07244713555
0.07244713505
0.0724471356
0.07244713487
0.07244713488
0.07244713512
0.07244713511
0.07244713525
0.07244713518
0.07244713511
0.07244714433
0.07244715574
0.07244716644
0.07244713515
0.07244713509
0.07244716883
0.07244713509
0.0724471351
0.07244713722
0.0724471351
0.07244713514
0.07244713508
0.07244713509
0.07244716704
0.07244716482
0.07244716168
0.07244713569
0.07244713555
0.0724472927
0.07244730949
0.07244713559
0.07244713554
0.07244713554
0.07244726847
0.07244729816
0.07244729447
0.0724471355
0.07244713554
0.07244713554
0.07244725022
0.07244729381
0.07244729088
0.07244713546
0.07244713554
0.07244713554
0.07244722851
0.07244728756
0.07244728692
0.07244713544
0.07244713554
0.07244713554
0.07244721613
0.07244729174
0.07244730575
0.07244713542
0.07244713554
0.07244713555
0.07244720492
0.07244733052
0.07244736336
0.07244713535
0.07244713556
0.07244713557
0.0724471689
0.07244731478
0.07244729612
0.07244713534
0.07244713558
0.07244713559
0.07244715373
0.07244728885
0.07244728778
0.07244713527
0.072447136
0.07244713647
0.07244713815
0.0724472109
0.07244714124
0.07244713515
0.07244713554
0.0724471353
0.07244713895
0.0724471411
0.07244714222
0.07244713512
0.07244713521
0.07244713516
0.07244713993
0.07244714399
0.07244714623
0.07244713821
0.07244713512
0.07244713515
0.07244715205
0.07244714819
0.07244716037
0.07244715485
0.07244713485
0.07244713484
0.07244713485
0.07244713484
0.07244713484
0.07244713486
0.07244713485
0.07244713485
0.07244713486
0.07244713491
0.07244713487
0.07244713489
0.07244713589
0.07244713518
0.07244713557
0.07244714491
0.07244715818
0.07244713739
0.07244714027
0.07244717112
0.07244718666
0.07244714872
0.07244719962
0.0724472318
0.07244722031
0.07244721339
0.07244733516
0.07244733006
0.0724473316
0.07244736198
0.07244733498
0.07244736481
0.07244737022
0.07244736388
0.07244738126
0.07244740164
0.07244743599
0.07244743212
0.07244745797
0.0724473495
0.07244741809
0.07244738795
0.07244733276
0.07244737369
0.07244736859
0.07244714358
0.07244731554
0.07244714739
0.07244714465
0.07244714649
0.07244714889
0.07244715053
0.07244715292
0.07244715732
0.07244716118
0.07244716889
0.07244717762
0.07244720681
0.07244718257
0.07244738339
0.07244739225
0.07244738072
0.07244737774
0.07244713483
0.07244713483
0.07244713483
0.07244713483
0.07244713483
0.07244713483
0.07244713484
0.07244713484
0.07244713485
0.07244713484
0.07244713484
0.07244713485
0.07244713488
0.07244713487
0.07244713486
0.07244713535
0.07244713522
0.07244713501
0.07244713496
0.07244713874
0.07244713637
0.07244713831
0.07244714171
0.07244715645
0.07244714982
0.0724472992
0.07244726399
0.07244724933
0.07244717104
0.07244722715
0.0724473753
0.07244737411
0.07244738517
0.07244737972
0.07244738597
0.07244739485
0.07244740653
0.07244741399
0.07244741771
0.07244741992
0.07244744367
0.07244740531
0.07244741353
0.07244740355
0.07244739585
0.07244739241
0.07244738664
0.07244715939
0.07244715277
0.07244737543
0.07244715893
0.07244715562
0.07244716482
0.07244717631
0.07244717434
0.07244720438
0.07244720563
0.07244722775
0.07244725191
0.07244730849
0.07244740431
0.07244741375
0.07244740947
0.07244741216
0.07244740683
0.07244740565
0.07244739931
0.07244739637
0.07244718881
0.07244713483
0.07244741987
0.07244740942
0.07244740864
0.07244741053
0.07244713483
0.07244713483
0.07244713483
0.07244713483
0.07244713483
0.07244713484
0.07244713484
0.07244713485
0.07244713486
0.07244713493
0.07244713493
0.07244713528
0.07244713525
0.07244713539
0.07244713754
0.07244713757
0.07244713609
0.07244715756
0.07244714067
0.07244715108
0.07244738324
0.07244739214
0.07244738657
0.07244739791
0.07244740367
0.07244739758
0.07244739935
0.07244740973
0.07244740016
0.07244740091
0.07244740641
0.0724474007
0.07244740545
0.07244720213
0.07244736814
0.07244740416
0.0724473703
0.0724474072
0.0724473389
0.07244736461
0.07244740208
0.07244740191
0.0724472422
0.07244719131
0.07244726582
0.07244739072
0.07244738347
0.07244740237
0.07244741924
0.0724474267
0.07244740964
0.0724474206
0.07244740873
0.07244741249
0.0724471862
0.07244723767
0.07244733905
0.07244731831
0.07244738485
0.07244742222
0.0724474122
0.07244742767
0.0724474187
0.0724473998
0.07244739745
0.07244740039
0.07244744694
0.07244717035
0.07244713483
0.07244713483
0.07244740916
0.07244737515
0.0724474038
0.072447368
0.07244740874
0.07244738634
0.07244739557
0.07244738468
0.07244738187
0.07244739517
0.07244738085
0.07244739405
0.07244739242
0.0724473759
0.07244736959
0.07244750966
0.07244735188
0.07244752238
0.07244713483
0.07244715621
0.07244713483
0.07244713483
0.07244713483
0.07244713483
0.07244713483
0.07244713483
0.07244713483
0.07244713483
0.07244713484
0.07244713484
0.07244713484
0.07244713484
0.07244713485
0.07244713487
0.07244713486
0.07244713494
0.072447135
0.07244713554
0.07244713537
0.07244738831
0.07244713677
0.07244713924
0.07244715734
0.07244714137
0.07244736781
0.0724473749
0.07244736823
0.07244737689
0.07244736898
0.07244736998
0.07244737114
0.07244735569
0.07244738396
0.07244737225
0.07244737313
0.07244737383
0.07244738704
0.0724473744
0.07244735486
0.07244737458
0.0724473742
0.07244735253
0.07244738677
0.07244737347
0.07244736143
0.07244737298
0.07244736683
0.07244737651
0.07244739313
0.07244738144
0.07244738893
0.07244738384
0.0724473049
0.07244737873
0.07244739598
0.07244714416
0.07244717451
0.07244738067
0.07244737346
0.07244739444
0.07244738181
0.07244738535
0.07244740063
0.07244738735
0.07244727922
0.07244738909
0.07244741072
0.07244739947
0.0724473549
0.07244734303
0.07244736344
0.07244732632
0.07244734751
0.07244737601
0.07244736649
0.0724473662
0.07244736946
0.07244736124
0.07244735735
0.07244737066
0.0724473562
0.07244735787
0.07244737268
0.07244736049
0.07244735984
0.07244736528
0.07244735754
0.07244735178
0.07244734302
0.07244734391
0.07244733561
0.07244728707
0.07244733502
0.07244736768
0.07244738357
0.07244732401
0.07244731866
0.0724473372
0.07244732073
0.07244732507
0.0724473538
0.07244733034
0.07244733254
0.07244734922
0.07244733532
0.07244733734
0.0724473505
0.07244733998
0.07244734292
0.07244735334
0.07244734578
0.07244734907
0.07244734878
0.07244735136
0.07244735464
0.07244733879
0.07244736223
0.07244737173
0.07244736104
0.0724473886
0.07244740477
0.07244739382
0.07244740262
0.07244738989
0.07244713487
0.07244732155
0.07244732644
0.07244732904
0.07244732839
0.07244733146
0.07244733201
0.07244733409
0.07244733326
0.07244733309
0.07244733283
0.07244733328
0.0724473365
0.07244733433
0.07244733578
0.07244734021
0.07244733613
0.07244733626
0.0724473413
0.07244733564
0.07244733578
0.07244734274
0.07244733585
0.07244734058
0.07244736272
0.07244734891
0.07244735987
0.07244738482
0.07244737241
0.07244738214
0.07244713596
0.07244736818
0.07244733567
0.0724473466
0.07244735362
0.07244733833
0.07244734676
0.07244734705
0.0724473538
0.07244733999
0.07244734736
0.07244734758
0.07244735468
0.07244733931
0.07244734833
0.07244734885
0.07244733977
0.07244734931
0.0724473493
0.07244735637
0.0724473397
0.07244734892
0.0724473478
0.07244733781
0.07244734654
0.07244734623
0.07244734347
0.07244734761
0.07244735163
0.07244735478
0.07244736256
0.07244735881
0.07244736824
0.07244736311
0.07244737229
)
;

boundaryField
{
    walls
    {
        type            zeroGradient;
    }
    wallFilmFace_top
    {
        type            zeroGradient;
    }
    region0_to_wallFilmRegion_wallFilmFace
    {
        type            zeroGradient;
    }
    mirrorFace_top
    {
        type            zeroGradient;
    }
    region0_to_wallFilmRegion_mirrorFace
    {
        type            zeroGradient;
    }
    procBoundary3to2
    {
        type            processor;
        value           nonuniform List<scalar> 
64
(
0.07244729467
0.07244733516
0.0724473556
0.07244735977
0.07244737065
0.0724474055
0.07244741185
0.07244741163
0.07244735383
0.07244713499
0.07244713502
0.07244713503
0.07244713503
0.0724471349
0.0724471354
0.07244713531
0.07244713575
0.07244713614
0.07244713612
0.07244713598
0.072447135
0.07244713453
0.07244713458
0.07244713458
0.07244713513
0.07244713512
0.07244713512
0.07244713582
0.07244713524
0.07244713524
0.07244731964
0.07244736806
0.07244736806
0.07244738332
0.07244740363
0.07244713495
0.07244725594
0.07244713493
0.07244713565
0.07244727775
0.07244738668
0.07244738808
0.0724473696
0.07244734078
0.07244732413
0.07244733647
0.07244713493
0.07244727775
0.07244713555
0.07244731199
0.07244735573
0.07244735715
0.07244735977
0.07244737173
0.07244741993
0.07244738054
0.07244737862
0.07244741951
0.07244737242
0.07244736766
0.07244735033
0.0724473178
0.07244732912
0.07244734762
)
;
    }
}


// ************************************************************************* //
