/*--------------------------------*- C++ -*----------------------------------*\
  =========                 |
  \\      /  F ield         | OpenFOAM: The Open Source CFD Toolbox
   \\    /   O peration     | Website:  https://openfoam.org
    \\  /    A nd           | Version:  8
     \\/     M anipulation  |
\*---------------------------------------------------------------------------*/
FoamFile
{
    version     2.0;
    format      ascii;
    class       volScalarField;
    location    "1.2/wallFilmRegion";
    object      alpha;
}
// * * * * * * * * * * * * * * * * * * * * * * * * * * * * * * * * * * * * * //

dimensions      [0 0 0 0 0 0 0];

internalField   nonuniform List<scalar> 
1369
(
10.65826029
9.771667106
9.620349166
8.002198784
5.247279709
3.887537112
3.559122185
3.917179226
5.333657931
3.922677639
1.852598132
1.691113924
2.008581344
2.404248008
2.820146019
3.201451767
3.527011998
3.74813966
3.700725656
3.160464129
2.116331039
0.9722062611
0.2370405694
0.01808102485
2.330869067e-05
3.000630604e-08
2.095749724e-05
1.276332663
3.136782528
6.074826609
4.939141277
1.406563012
0.4203430574
0.217904066
0.1707116882
0.8467902584
0.8114922936
1.268240259
6.362401518
3.8791613
1.03638933
0.3582208318
0.3685709783
0.7273128132
1.575605843
3.318860738
5.171290245
6.23605693
6.29583971
5.572080643
4.797395298
5.143870973
9.115203649
8.968555733
7.452263384
7.684082511
8.705211012
9.647122849
9.51879162
9.758504859
8.471670186
5.662282819
3.17793422
1.87862069
0.1553212689
0.06163301021
0.05827371204
0.07741694862
1.179238174
1.149977662
0.03490699178
0.0158728957
0.01645673165
0.02206693465
0.03411258098
0.06091060952
0.08492494943
0.1099609497
0.1438167407
0.1372925833
0.08166839879
0.02874242867
0.007431554769
0.001713216205
6.090507351e-05
2.492996505e-07
2.187442096e-05
0.2865745514
0.5668098116
1.789745828
0.8705531222
0.1045707959
0.06950046302
0.06285598401
0.06264104491
0.2644658601
0.2873726626
0.1716526428
0.1585605586
0.07639353092
0.02869381292
0.01398383645
0.00800348134
0.009036709842
0.03815238029
0.6051527323
0.8171006941
0.6700390989
0.546697931
0.4741618092
0.4551300606
0.6203961083
2.374086945
0.9036954819
0.4121920766
0.5396824051
1.835163005
3.442861205
5.741765012
8.393960383
8.003373006
4.63258863
4.56658125
3.870774887
2.302629715
1.525852356
1.123246211
1.209130759
2.501356515
2.508221088
0.03778114624
0.01849928244
0.01757831242
0.02193057312
0.02740870274
0.03608679799
0.07846440139
0.196388736
0.3977188974
0.6014386243
0.6553870908
0.4649604719
0.1398374613
0.00310387094
0.0001200740645
1.211202131e-06
0.0001528109347
0.1699283196
0.6878395178
2.270698272
0.6011402675
0.1885189262
0.1108389606
0.06938873984
0.06161478074
0.2293485106
0.3138841226
0.3033304829
0.2944375897
0.2056372811
0.2279618209
0.2622879612
0.3339988919
0.5678245028
1.165864395
1.577932599
1.116604021
0.6651483329
0.4660121388
0.3940985515
0.4019933642
0.5952974341
5.284517908
4.507032103
3.061355466
3.48803056
4.53525241
5.849028545
6.751960032
9.311797639
7.472545094
2.673669028
3.654360015
3.996689498
3.367513846
2.732412453
2.345491753
2.48928056
3.072680083
3.019259287
0.03869386093
0.02103259329
0.0184261035
0.01982202477
0.01921008798
0.01374355148
0.0060043625
0.001311738018
0.0003435897269
0.0001225111343
0.0002736214219
0.002925762171
0.1620943589
0.02153007698
0.0007521457297
6.967771314e-05
0.03935819913
0.07505082115
0.4600239207
0.7946175217
0.3070523513
0.2547506317
0.1469864157
0.06968352798
0.05480417066
0.1782255328
0.2555129676
0.3271641122
0.5243722932
0.4259935255
0.2974137039
0.345330437
0.4827368881
0.5211733912
0.6066723035
0.6663322525
0.5133849924
0.3597177265
0.2846652262
0.2649770394
0.2920313097
0.4551863289
5.141338878
3.56649122
3.776772174
4.212012731
4.504981006
4.444669526
3.446076504
9.07714138
8.041188258
1.413468574
3.216390675
3.853045732
3.689999254
3.465285604
3.625299991
4.971755113
4.26517073
3.302681965
0.04757176216
0.03157752451
0.03048384117
0.03391450633
0.03286780062
0.02142936374
0.007186399434
0.001025828584
7.65663878e-05
1.991605772e-05
4.128794256e-05
0.0003980386787
1.53985155
0.8008279258
0.3000758929
0.4858374455
0.4265536943
0.01779048954
0.03682053058
0.0822294953
0.09987899
0.194348074
0.1538857342
0.06235982626
0.0380971824
0.1132567453
0.1183615578
0.1058161928
0.09998741884
0.09182547437
0.09622285531
0.09490188494
0.0933799895
0.141712688
0.2976184606
0.3646923281
0.312273643
0.2292106823
0.1803992126
0.1697507449
0.191807976
0.2978019239
5.663501026
5.178729631
5.158505742
5.043208286
4.652695042
4.195885221
2.124359737
8.889829047
8.193213748
0.6126314956
1.619032812
2.78463632
3.36239052
4.021098149
4.848334338
5.263794846
4.59980933
2.022012375
0.06080794385
0.04819949496
0.04940949751
0.05501023212
0.05236784173
0.03333459248
0.01148603833
0.001642089555
5.328166172e-05
1.319004918e-05
2.610604842e-05
0.0001856471696
0.001171073226
0.0489713466
0.4118995294
0.07449641882
0.01797078095
0.005558238756
0.005900524191
0.01113093102
0.02201295394
0.06562540283
0.09762216659
0.05291642444
0.01662764309
0.04599283998
0.03906604396
0.02658644468
0.01958044999
0.01980924151
0.05115855874
0.06473910222
0.07766276311
0.1234019255
0.249010394
0.2627333451
0.2084811302
0.146609341
0.1088900187
0.09761945289
0.1052510475
0.148531553
0.4638586033
8.032874253
7.299545059
5.338165299
4.576663176
3.561361121
0.5188812825
7.376416305
7.573998178
0.5718253322
2.588299487
1.957382873
3.098177488
5.107501511
5.454701631
5.032056053
2.382735236
0.1133610945
0.07787553238
0.07383646745
0.07403451016
0.0805318414
0.07344632307
0.0448461883
0.0163769371
0.002722071973
3.559619345e-05
8.271114875e-06
1.968213727e-05
0.0002313456602
0.0005521430739
0.003804757041
0.4940634018
0.01305175496
0.002318815518
0.001869668611
0.002098803574
0.004517136095
0.01094611476
0.01385065512
0.01930345906
0.04620522577
0.0006217109302
0.0006106758829
0.0005195013424
0.0005315485618
0.002788498319
0.005657849759
0.05747829524
0.07738010067
0.09063794519
0.101287377
0.1820457271
0.1914587706
0.1580262486
0.1179116037
0.08693096564
0.06888714907
0.0645446361
0.07128969572
0.1268303837
0.8856661032
7.387764596
6.483405843
4.437320373
4.396002972
0.8216569447
7.558625509
6.45873381
1.171987666
2.238712174
2.759832333
3.987183713
5.514701987
4.704778217
3.494314733
0.1348088093
0.1138841162
0.1174748041
0.1053248632
0.1020619855
0.1076734819
0.09188070245
0.05327753965
0.02086170212
0.004577514476
2.30681105e-05
4.608857535e-06
1.712625545e-05
0.0003543593671
0.0006645975693
0.00237956795
0.6993167211
0.007812537642
0.001475562154
0.003890707984
0.00140208395
0.003901200331
0.01469004063
0.008357231504
0.005140687579
0.01755412897
0.0004946017888
0.003262169647
0.001561668289
0.0009939649171
0.004277173309
0.007086602887
0.0694519724
0.1088946697
0.1131542831
0.06954961234
0.1356555762
0.1569835827
0.143745895
0.1216803731
0.09757670544
0.07459837959
0.05724475454
0.05064475187
0.0546221015
0.1159768
1.212881385
3.050311358
3.097419237
2.880058629
1.837162294
7.685203321
4.981084526
0.3618091536
0.5055388113
1.026107082
2.208045969
2.83183703
1.176843779
0.111987596
0.1155018824
0.1576104524
0.1602602357
0.1378101659
0.1295213727
0.1296912926
0.1027509428
0.05640072746
0.02419786071
0.007438653791
1.491344864e-05
2.309403304e-06
1.708747078e-05
0.0006391571704
0.0009396130686
0.002283288406
0.8337515741
0.02576089882
0.009135290963
0.01644966181
0.01150989106
0.02368896143
0.02288522243
0.005947037413
0.003245083095
0.007518896949
0.02020475204
0.3566312279
0.3612023838
0.006139874348
0.006816857054
0.00931074413
0.08030749206
0.1567967546
0.1308227863
0.05500265671
0.1221420602
0.1534259357
0.1504852971
0.1389216778
0.1208605025
0.09584802624
0.06934207269
0.05047583668
0.04548633689
0.05391089115
0.1088590682
0.1796903119
0.238911569
0.3413558192
0.4656576511
5.646537593
4.646753097
0.1453287791
0.07087781603
0.03705403218
0.0396387558
0.04621650466
0.06552819921
0.1013019105
0.1624760616
0.2048816681
0.191064319
0.1607419308
0.1465935367
0.1352444398
0.09932730682
0.05332133183
0.02527479131
0.01006375544
9.556274198e-06
6.367306678e-06
1.940352624e-05
0.001371481426
0.001496009044
0.002441388519
0.7640213803
0.0636516902
0.02916717498
0.04456888157
0.03767790268
0.05595767585
0.03942941343
0.002814175825
0.001160874141
0.00769373646
0.07059510633
0.3626576948
0.04231183283
0.008831108807
0.008421403609
0.01477313835
0.08806238672
0.2128860275
0.1475236538
0.06195859957
0.1259452857
0.1634414014
0.1667562059
0.1615365234
0.1479220776
0.1212155606
0.08752534283
0.05965404675
0.04739415576
0.05516178307
0.08845854628
0.1538182062
0.240941808
0.3891068141
0.5615133806
5.284502554
5.020897449
0.1372691522
0.04042029501
0.01450829047
0.01905477315
0.03197694355
0.06490120921
0.1337518756
0.2129054648
0.2371923418
0.2046860547
0.1671466623
0.14652009
0.1237606714
0.082982775
0.04497343801
0.02389274621
0.01104885384
1.201302641e-05
0.000197139378
2.518036615e-05
0.004222303482
0.002643512548
0.002598176029
0.5128758977
0.1301826708
0.05917590268
0.09466597665
0.08137964307
0.07324357645
0.01670814085
0.00113754032
0.0007851148424
0.003631041533
0.03088790934
0.1626489617
0.001032222992
0.003903340484
0.02020470773
0.02601865625
0.08564756939
0.2506258139
0.1834747796
0.07957965907
0.1246757375
0.1636415403
0.1751069495
0.1755448575
0.1630351653
0.1344858061
0.09725477116
0.06661453347
0.05263462577
0.06401196906
0.1175950521
0.2291591719
0.388403898
0.643800192
0.938520517
5.806848156
5.442784409
0.1762951736
0.03980447713
0.0135325399
0.01988652828
0.03979453369
0.09209578201
0.1826387689
0.2572108149
0.2541960921
0.2032381115
0.159144938
0.1316845282
0.1010161965
0.06318907248
0.03523472406
0.02124042124
0.01146926869
0.0003984457347
0.0167779789
7.558588451e-05
0.02312284532
0.006111649222
0.006596587146
0.2786247249
0.2088493541
0.08388011997
0.1503220521
0.1110966024
0.02011280382
0.01508177367
0.0116286966
0.008066662322
0.02724998667
0.1196265949
0.4771805221
0.09290364025
0.02688475282
0.05707931266
0.03466975981
0.07418825335
0.2461981046
0.251554782
0.1031109007
0.09075534854
0.1198365662
0.1493280969
0.1556350732
0.140246168
0.1125522081
0.08331768352
0.06192574124
0.05444297106
0.07467510167
0.1546561813
0.3278258881
0.588107973
0.987948753
1.42069493
6.385250238
0.2367208597
0.2904076511
0.2547378485
0.1875445952
0.1385800394
0.1053787864
0.07400078062
0.04519385073
0.02691243003
0.01896737803
0.01420512456
0.01608426914
0.2478439654
0.06719885683
0.09880391855
0.03448012061
0.02170965385
0.1479034444
0.2701691739
0.08456622321
0.1683012977
0.0552712212
0.01487656903
0.03393010085
0.08320439021
0.355888634
0.3741464685
0.7029015132
0.3570010627
0.2032578816
0.08254355664
0.05679296302
0.03489508936
0.0678143952
0.2471384448
0.3699782513
0.1409645288
0.08925401867
0.1121967995
0.119493405
0.09809167591
0.07828019486
0.06577487825
0.05757095707
0.05237198275
0.05359780308
0.07865676848
0.1698233026
0.3762412742
0.6986275912
1.1914783
1.706021024
6.638529074
0.1079140685
0.0751176941
0.05017643163
0.03127078786
0.02080811687
0.01918323842
0.03045322842
0.1221279808
0.619617531
0.6203619097
0.8534744972
0.431021751
0.06505518752
0.1061831563
0.2718395994
0.04339244357
0.1179714614
0.06617167676
0.215302985
0.6650997164
0.807885096
0.7994364193
0.6949695738
0.5586885063
0.3880898137
0.1472022299
0.08762706466
0.05510561287
0.03435483267
0.09746801308
0.4475964166
0.5627520068
0.1883767356
0.271677807
0.3347417282
0.1878839748
0.09792983358
0.06940048327
0.06063837345
0.05689613237
0.05468757452
0.05596860043
0.07240913958
0.1387893534
0.3026011309
0.5764369237
1.029863938
1.525405692
6.344350807
0.03305313631
0.02196248019
0.02003599762
0.03906749628
0.1106138729
0.316264864
0.9123362538
0.7208251517
1.093013128
1.572163954
0.3060311142
0.08951656561
0.2127655616
0.06236295566
0.2957984326
0.8275024043
1.094628309
0.9520676688
0.8401528907
0.8099340127
0.7158023957
0.5968196228
0.4577655063
0.1610412236
0.08281765391
0.05411674734
0.04378510912
0.1593615843
0.6009155679
0.647754611
0.2185935233
0.3099416797
0.1549929279
0.07973394012
0.05773888403
0.05295361375
0.05304805648
0.05377065288
0.054242265
0.05556633882
0.06186598366
0.08766491725
0.1620511998
0.3091038598
0.6126250846
1.011839956
5.72487947
0.3724940069
0.6950639404
1.143003075
1.037890562
1.027930888
1.634164644
0.3049734949
0.05070244652
0.1049809327
0.03027401836
0.1081648076
1.205012423
1.157151154
0.9123254253
0.7811580092
0.7195408021
0.6643825347
0.6175787622
0.3556871856
0.07613315818
0.0557401229
0.06032744543
0.07946161528
0.1961621109
0.4953305626
0.506639045
0.258117565
0.1455188167
0.07477693114
0.04601380643
0.03870926562
0.0398102561
0.04316951404
0.04652890532
0.04948212199
0.05243802113
0.05608299299
0.06236273662
0.08050785663
0.1307631129
0.2884266893
0.5777656721
5.292474619
0.659830113
0.5110151553
0.9537870958
1.527491101
0.1158875995
0.04119893605
0.03726449329
0.04835932848
0.04914838231
0.3159719185
1.547963126
1.414802555
1.161990561
0.790009375
0.550255096
0.3090180517
0.06079119919
0.04013934617
0.06256454682
0.08693941694
0.1123457786
0.14769067
0.2788154494
0.3070455487
0.2569370666
0.1892128228
0.1174903436
0.0614085178
0.03555663398
0.02946619001
0.03073316192
0.03410479501
0.03832243101
0.04365671937
0.05010373694
0.05613479566
0.0606141776
0.07240808764
0.1461945215
0.3540320024
5.115722095
0.2575329481
0.04883399797
0.03965654544
0.06963912461
0.07484581576
0.3658405962
1.34632105
1.59434651
1.466972883
1.148201068
0.4733502249
0.1594799082
0.03225013889
0.06519562317
0.09434946507
0.1025396995
0.1055725044
0.09791334425
0.1674281208
0.206333403
0.2194426736
0.2186956381
0.1812034437
0.1060306093
0.04411135342
0.02052597657
0.01617224652
0.01724660797
0.02019576072
0.02579952556
0.03533096343
0.04620198154
0.05177053058
0.05266962397
0.0892829807
0.2497236962
4.948413692
0.08173248084
0.1653512109
0.3409073917
0.3836220193
0.6306311178
0.9351729294
1.178155719
1.159074929
0.6048237202
0.2050157825
0.1158788191
0.1240278162
0.09619571267
0.0811567281
0.07766338729
0.07470507418
0.1266070672
0.1592163735
0.1884755874
0.2159603936
0.2282791004
0.2032748144
0.1548779813
0.1040616739
0.07509060957
0.06905618494
0.07869528168
0.08565113204
0.07689013235
0.06152127193
0.04710087334
0.03862238437
0.06397739385
0.2064994353
4.839409194
0.3525993924
0.3340565978
0.2171941281
0.02134010288
0.09359387225
0.6192894494
1.025906469
1.278557182
0.9429811826
0.6517250115
0.2097348812
0.04038196561
0.01489385129
0.006018873273
0.01411891095
0.1036519846
0.1152446099
0.1115967247
0.1864405995
0.4218901055
0.7299013981
0.9154070582
0.9222104503
0.8116296067
0.6649904394
0.515458328
0.3695154996
0.2376120764
0.138339898
0.07738284366
0.0479943313
0.06454906151
0.2072442539
4.904781417
0.5067578398
0.1575790475
0.1238329014
0.00442140389
0.001387596697
0.03100276902
0.1885751899
0.6029447891
0.8139406144
0.9180945353
0.1479339288
0.03461698148
0.01489892839
0.005016105169
0.009239968735
0.1462342856
0.1806220879
0.1389372071
0.1320817548
0.1488188845
0.1465614544
0.1294037933
0.114499041
0.1129078082
0.1260543552
0.1474426948
0.1596057893
0.1537661541
0.1250341666
0.08783221468
0.06002188596
0.07890653308
0.244112259
5.156742588
0.353870682
0.1929582614
0.1715753944
0.04287065901
0.3790155563
0.3703931422
0.1839239443
0.2144769156
1.104329915
0.1714118818
0.04461783671
0.01743553397
0.005679993045
0.009144054198
0.196341728
0.1640620199
0.09749940126
0.0800184638
0.07110996485
0.05493847436
0.03869535966
0.03406897673
0.04613053011
0.07230943911
0.1094170617
0.1421095379
0.1730267748
0.1736968241
0.1414976081
0.1043543924
0.1362731174
0.3408205221
5.551696485
0.2977371955
0.5019218926
0.3062754159
0.1800944837
0.02699282005
0.06885437458
0.02198083629
0.04547484123
1.366939772
0.2932590722
0.06911303691
0.0198514619
0.006270720986
0.008675354377
0.06427771296
0.0467518404
0.04740857386
0.06006461348
0.07210671283
0.06985847462
0.05535267377
0.05538857263
0.07919465553
0.1131777762
0.1484597218
0.1847215199
0.2303417388
0.2652676951
0.2732478683
0.2586035336
0.3397583432
0.5613235443
6.003221868
0.5166553946
0.588942587
0.281936056
0.0953486721
0.01986952707
0.0168109791
0.01407955841
0.1082968163
1.334113455
0.3689315376
0.1061702142
0.01969566234
0.006128786666
0.00751360605
0.01697133063
0.02179422405
0.02928018131
0.053287321
0.1073448301
0.1684132337
0.2073808644
0.2220970498
0.2119776378
0.1854049994
0.1594261267
0.1590324189
0.1915312489
0.2505138644
0.3202081701
0.3733530353
0.5010147423
0.6894437463
6.168477824
0.4441061828
0.2896219236
0.3629931978
0.1843971462
0.01532107962
0.02125408863
0.1454089985
1.043855396
0.5974966414
0.1690400279
0.0203648148
0.004759229139
0.00460446504
0.009340190679
0.01242997885
0.0159598538
0.07872805824
0.2575378099
0.4260383175
0.5036369766
0.4875589089
0.375493253
0.2294680545
0.1291472214
0.08480163136
0.07163899504
0.07074524336
0.0725946701
0.07156215545
0.1094475988
0.1992491078
5.382432074
0.3936474886
0.2776423476
0.2509996661
0.1161473869
0.09664098161
0.3215964669
0.879149816
0.5646409622
0.3708490859
0.07544246024
0.004566674739
0.006886486576
0.01192008812
0.02527729755
0.06576480879
0.4092655987
0.6493946843
0.6397268834
0.468854796
0.306899115
0.1736375362
0.09362112265
0.05451673832
0.03667873348
0.02853887987
0.02476397896
0.0230350819
0.02230452752
0.03253504542
0.06205642009
4.421438206
0.7526188912
0.3314059305
0.1805747314
0.5940117084
0.4341166606
0.6029593054
0.7607702977
0.4237915548
0.5541287033
0.7985782165
0.4597868003
0.06405762022
0.1122254736
0.9751278296
1.194870088
0.6478303595
0.4636834157
0.3078355721
0.1721062101
0.09857366682
0.05564496021
0.03476566722
0.02448744154
0.01969552944
0.01753270478
0.01664433495
0.01646086487
0.01671936282
0.02212307403
0.03784046801
3.467138078
1.309107217
0.8227447164
0.2494607113
0.5954011716
0.5388273825
0.7071720381
0.6334628164
0.7736026816
1.366237726
1.181032464
0.1777994022
0.6195029236
1.284391939
1.351693436
0.2622119113
0.07957512555
0.1286079928
0.05904341855
0.02902212786
0.009384292959
0.007202000827
0.0078097854
0.008888059574
0.009946619664
0.01085024467
0.01161243674
0.01231873477
0.01305651147
0.01634948752
0.0267603962
2.645545501
0.5504793259
0.8897511697
2.02886234
1.45777821
0.06180762725
0.02829430402
0.1424832888
0.03790273599
0.001557781543
0.001416920468
0.003468104605
0.03503390326
0.1342282943
0.243550452
0.05450157909
0.01646013435
0.009137379449
0.007658790337
0.007725525521
0.008093374775
0.008503395723
0.008947110155
0.009470036363
0.01141755801
0.01796967741
2.092147228
1.371537661
1.74081666
1.472513351
0.2842816966
0.01975551968
0.0008961888764
0.0002092121284
6.911215617e-05
1.899699693e-05
6.425571443e-05
0.0001636673179
0.0004166655479
0.001348733104
0.332005052
0.153335794
0.05955705207
0.0284789001
0.01989754057
0.01704941568
0.01536971138
0.01398684716
0.01293002421
0.01227146253
0.01328977748
0.01765577847
1.784061983
)
;

boundaryField
{
    walls
    {
        type            zeroGradient;
    }
    wallFilmFace_top
    {
        type            zeroGradient;
    }
    region0_to_wallFilmRegion_wallFilmFace
    {
        type            zeroGradient;
    }
    mirrorFace_top
    {
        type            zeroGradient;
    }
    region0_to_wallFilmRegion_mirrorFace
    {
        type            zeroGradient;
    }
    procBoundary0to1
    {
        type            processor;
        value           nonuniform List<scalar> 
52
(
5.81142774
0.2085699813
0.04011526291
0.01482687815
0.02534636895
0.05716722918
0.1320764154
0.1320764154
0.2862684797
0.3046487622
0.2361409739
0.1585438231
0.1585438231
0.07538841435
0.0499195789
0.0499195789
0.02249299421
0.01949536216
0.04811885705
0.1583681449
0.1583681449
0.001052050759
0.0102016835
0.0102016835
0.3891821094
0.2061174316
0.8757924549
1.719525436
1.719525436
0.1707155972
0.05671621519
0.05671621519
0.2238960718
0.2238960718
0.3720431123
1.96146553
1.96146553
0.7628137739
0.591752689
0.7535169261
0.7535169261
0.4737959738
0.4737959738
1.0787924
1.142799204
0.646793644
0.8243233405
0.1940353502
0.2499661414
0.4118402414
0.4118402414
1.399343081
)
;
    }
    procBoundary0to2
    {
        type            processor;
        value           nonuniform List<scalar> 
26
(
1.718398435
1.585213947
0.666706047
0.3256290903
0.08594628933
0.00111774126
0.0001887210595
6.668804625e-05
7.648484338e-06
3.011959607e-05
8.0265322e-05
0.0002123802481
0.000602160404
0.3464543802
0.2298326689
0.09725568866
0.04198780806
0.02524817447
0.02171596246
0.02115454192
0.0204789068
0.0194412657
0.01844500431
0.01917834545
0.0236429212
1.631715008
)
;
    }
}


// ************************************************************************* //
