/*--------------------------------*- C++ -*----------------------------------*\
  =========                 |
  \\      /  F ield         | OpenFOAM: The Open Source CFD Toolbox
   \\    /   O peration     | Website:  https://openfoam.org
    \\  /    A nd           | Version:  8
     \\/     M anipulation  |
\*---------------------------------------------------------------------------*/
FoamFile
{
    version     2.0;
    format      ascii;
    class       volScalarField;
    location    "1.2/wallFilmRegion";
    object      delta;
}
// * * * * * * * * * * * * * * * * * * * * * * * * * * * * * * * * * * * * * //

dimensions      [0 1 0 0 0 0 0];

internalField   nonuniform List<scalar> 
1369
(
0.01065826029
0.009771667106
0.009620349166
0.008002198784
0.005247279709
0.003887537112
0.003559122185
0.003917179226
0.005333657931
0.003922677639
0.001852598132
0.001691113924
0.002008581344
0.002404248008
0.002820146019
0.003201451767
0.003527011998
0.00374813966
0.003700725656
0.003160464129
0.002116331039
0.0009722062611
0.0002370405694
1.808102485e-05
2.330869067e-08
3.000630604e-11
2.095749724e-08
0.001276332663
0.003136782528
0.006074826609
0.004939141277
0.001406563012
0.0004203430574
0.000217904066
0.0001707116882
0.0008467902584
0.0008114922936
0.001268240259
0.006362401518
0.0038791613
0.00103638933
0.0003582208318
0.0003685709783
0.0007273128132
0.001575605843
0.003318860738
0.005171290245
0.00623605693
0.00629583971
0.005572080643
0.004797395298
0.005143870973
0.009115203649
0.008968555733
0.007452263384
0.007684082511
0.008705211012
0.009647122849
0.00951879162
0.009758504859
0.008471670186
0.005662282819
0.00317793422
0.00187862069
0.0001553212689
6.163301021e-05
5.827371204e-05
7.741694862e-05
0.001179238174
0.001149977662
3.490699178e-05
1.58728957e-05
1.645673165e-05
2.206693465e-05
3.411258098e-05
6.091060952e-05
8.492494943e-05
0.0001099609497
0.0001438167407
0.0001372925833
8.166839879e-05
2.874242867e-05
7.431554769e-06
1.713216205e-06
6.090507351e-08
2.492996505e-10
2.187442096e-08
0.0002865745514
0.0005668098116
0.001789745828
0.0008705531222
0.0001045707959
6.950046302e-05
6.285598401e-05
6.264104491e-05
0.0002644658601
0.0002873726626
0.0001716526428
0.0001585605586
7.639353092e-05
2.869381292e-05
1.398383645e-05
8.00348134e-06
9.036709842e-06
3.815238029e-05
0.0006051527323
0.0008171006941
0.0006700390989
0.000546697931
0.0004741618092
0.0004551300606
0.0006203961083
0.002374086945
0.0009036954819
0.0004121920766
0.0005396824051
0.001835163005
0.003442861205
0.005741765012
0.008393960383
0.008003373006
0.00463258863
0.00456658125
0.003870774887
0.002302629715
0.001525852356
0.001123246211
0.001209130759
0.002501356515
0.002508221088
3.778114624e-05
1.849928244e-05
1.757831242e-05
2.193057312e-05
2.740870274e-05
3.608679799e-05
7.846440139e-05
0.000196388736
0.0003977188974
0.0006014386243
0.0006553870908
0.0004649604719
0.0001398374613
3.10387094e-06
1.200740645e-07
1.211202131e-09
1.528109347e-07
0.0001699283196
0.0006878395178
0.002270698272
0.0006011402675
0.0001885189262
0.0001108389606
6.938873984e-05
6.161478074e-05
0.0002293485106
0.0003138841226
0.0003033304829
0.0002944375897
0.0002056372811
0.0002279618209
0.0002622879612
0.0003339988919
0.0005678245028
0.001165864395
0.001577932599
0.001116604021
0.0006651483329
0.0004660121388
0.0003940985515
0.0004019933642
0.0005952974341
0.005284517908
0.004507032103
0.003061355466
0.00348803056
0.00453525241
0.005849028545
0.006751960032
0.009311797639
0.007472545094
0.002673669028
0.003654360015
0.003996689498
0.003367513846
0.002732412453
0.002345491753
0.00248928056
0.003072680083
0.003019259287
3.869386093e-05
2.103259329e-05
1.84261035e-05
1.982202477e-05
1.921008798e-05
1.374355148e-05
6.0043625e-06
1.311738018e-06
3.435897269e-07
1.225111343e-07
2.736214219e-07
2.925762171e-06
0.0001620943589
2.153007698e-05
7.521457297e-07
6.967771314e-08
3.935819913e-05
7.505082115e-05
0.0004600239207
0.0007946175217
0.0003070523513
0.0002547506317
0.0001469864157
6.968352798e-05
5.480417066e-05
0.0001782255328
0.0002555129676
0.0003271641122
0.0005243722932
0.0004259935255
0.0002974137039
0.000345330437
0.0004827368881
0.0005211733912
0.0006066723035
0.0006663322525
0.0005133849924
0.0003597177265
0.0002846652262
0.0002649770394
0.0002920313097
0.0004551863289
0.005141338878
0.00356649122
0.003776772174
0.004212012731
0.004504981006
0.004444669526
0.003446076504
0.00907714138
0.008041188258
0.001413468574
0.003216390675
0.003853045732
0.003689999254
0.003465285604
0.003625299991
0.004971755113
0.00426517073
0.003302681965
4.757176216e-05
3.157752451e-05
3.048384117e-05
3.391450633e-05
3.286780062e-05
2.142936374e-05
7.186399434e-06
1.025828584e-06
7.65663878e-08
1.991605772e-08
4.128794256e-08
3.980386787e-07
0.00153985155
0.0008008279258
0.0003000758929
0.0004858374455
0.0004265536943
1.779048954e-05
3.682053058e-05
8.22294953e-05
9.987899e-05
0.000194348074
0.0001538857342
6.235982626e-05
3.80971824e-05
0.0001132567453
0.0001183615578
0.0001058161928
9.998741884e-05
9.182547437e-05
9.622285531e-05
9.490188494e-05
9.33799895e-05
0.000141712688
0.0002976184606
0.0003646923281
0.000312273643
0.0002292106823
0.0001803992126
0.0001697507449
0.000191807976
0.0002978019239
0.005663501026
0.005178729631
0.005158505742
0.005043208286
0.004652695042
0.004195885221
0.002124359737
0.008889829047
0.008193213748
0.0006126314956
0.001619032812
0.00278463632
0.00336239052
0.004021098149
0.004848334338
0.005263794846
0.00459980933
0.002022012375
6.080794385e-05
4.819949496e-05
4.940949751e-05
5.501023212e-05
5.236784173e-05
3.333459248e-05
1.148603833e-05
1.642089555e-06
5.328166172e-08
1.319004918e-08
2.610604842e-08
1.856471696e-07
1.171073226e-06
4.89713466e-05
0.0004118995294
7.449641882e-05
1.797078095e-05
5.558238756e-06
5.900524191e-06
1.113093102e-05
2.201295394e-05
6.562540283e-05
9.762216659e-05
5.291642444e-05
1.662764309e-05
4.599283998e-05
3.906604396e-05
2.658644468e-05
1.958044999e-05
1.980924151e-05
5.115855874e-05
6.473910222e-05
7.766276311e-05
0.0001234019255
0.000249010394
0.0002627333451
0.0002084811302
0.000146609341
0.0001088900187
9.761945289e-05
0.0001052510475
0.000148531553
0.0004638586033
0.008032874253
0.007299545059
0.005338165299
0.004576663176
0.003561361121
0.0005188812825
0.007376416305
0.007573998178
0.0005718253322
0.002588299487
0.001957382873
0.003098177488
0.005107501511
0.005454701631
0.005032056053
0.002382735236
0.0001133610945
7.787553238e-05
7.383646745e-05
7.403451016e-05
8.05318414e-05
7.344632307e-05
4.48461883e-05
1.63769371e-05
2.722071973e-06
3.559619345e-08
8.271114875e-09
1.968213727e-08
2.313456602e-07
5.521430739e-07
3.804757041e-06
0.0004940634018
1.305175496e-05
2.318815518e-06
1.869668611e-06
2.098803574e-06
4.517136095e-06
1.094611476e-05
1.385065512e-05
1.930345906e-05
4.620522577e-05
6.217109302e-07
6.106758829e-07
5.195013424e-07
5.315485618e-07
2.788498319e-06
5.657849759e-06
5.747829524e-05
7.738010067e-05
9.063794519e-05
0.000101287377
0.0001820457271
0.0001914587706
0.0001580262486
0.0001179116037
8.693096564e-05
6.888714907e-05
6.45446361e-05
7.128969572e-05
0.0001268303837
0.0008856661032
0.007387764596
0.006483405843
0.004437320373
0.004396002972
0.0008216569447
0.007558625509
0.00645873381
0.001171987666
0.002238712174
0.002759832333
0.003987183713
0.005514701987
0.004704778217
0.003494314733
0.0001348088093
0.0001138841162
0.0001174748041
0.0001053248632
0.0001020619855
0.0001076734819
9.188070245e-05
5.327753965e-05
2.086170212e-05
4.577514476e-06
2.30681105e-08
4.608857535e-09
1.712625545e-08
3.543593671e-07
6.645975693e-07
2.37956795e-06
0.0006993167211
7.812537642e-06
1.475562154e-06
3.890707984e-06
1.40208395e-06
3.901200331e-06
1.469004063e-05
8.357231504e-06
5.140687579e-06
1.755412897e-05
4.946017888e-07
3.262169647e-06
1.561668289e-06
9.939649171e-07
4.277173309e-06
7.086602887e-06
6.94519724e-05
0.0001088946697
0.0001131542831
6.954961234e-05
0.0001356555762
0.0001569835827
0.000143745895
0.0001216803731
9.757670544e-05
7.459837959e-05
5.724475454e-05
5.064475187e-05
5.46221015e-05
0.0001159768
0.001212881385
0.003050311358
0.003097419237
0.002880058629
0.001837162294
0.007685203321
0.004981084526
0.0003618091536
0.0005055388113
0.001026107082
0.002208045969
0.00283183703
0.001176843779
0.000111987596
0.0001155018824
0.0001576104524
0.0001602602357
0.0001378101659
0.0001295213727
0.0001296912926
0.0001027509428
5.640072746e-05
2.419786071e-05
7.438653791e-06
1.491344864e-08
2.309403304e-09
1.708747078e-08
6.391571704e-07
9.396130686e-07
2.283288406e-06
0.0008337515741
2.576089882e-05
9.135290963e-06
1.644966181e-05
1.150989106e-05
2.368896143e-05
2.288522243e-05
5.947037413e-06
3.245083095e-06
7.518896949e-06
2.020475204e-05
0.0003566312279
0.0003612023838
6.139874348e-06
6.816857054e-06
9.31074413e-06
8.030749206e-05
0.0001567967546
0.0001308227863
5.500265671e-05
0.0001221420602
0.0001534259357
0.0001504852971
0.0001389216778
0.0001208605025
9.584802624e-05
6.934207269e-05
5.047583668e-05
4.548633689e-05
5.391089115e-05
0.0001088590682
0.0001796903119
0.000238911569
0.0003413558192
0.0004656576511
0.005646537593
0.004646753097
0.0001453287791
7.087781603e-05
3.705403218e-05
3.96387558e-05
4.621650466e-05
6.552819921e-05
0.0001013019105
0.0001624760616
0.0002048816681
0.000191064319
0.0001607419308
0.0001465935367
0.0001352444398
9.932730682e-05
5.332133183e-05
2.527479131e-05
1.006375544e-05
9.556274198e-09
6.367306678e-09
1.940352624e-08
1.371481426e-06
1.496009044e-06
2.441388519e-06
0.0007640213803
6.36516902e-05
2.916717498e-05
4.456888157e-05
3.767790268e-05
5.595767585e-05
3.942941343e-05
2.814175825e-06
1.160874141e-06
7.69373646e-06
7.059510633e-05
0.0003626576948
4.231183283e-05
8.831108807e-06
8.421403609e-06
1.477313835e-05
8.806238672e-05
0.0002128860275
0.0001475236538
6.195859957e-05
0.0001259452857
0.0001634414014
0.0001667562059
0.0001615365234
0.0001479220776
0.0001212155606
8.752534283e-05
5.965404675e-05
4.739415576e-05
5.516178307e-05
8.845854628e-05
0.0001538182062
0.000240941808
0.0003891068141
0.0005615133806
0.005284502554
0.005020897449
0.0001372691522
4.042029501e-05
1.450829047e-05
1.905477315e-05
3.197694355e-05
6.490120921e-05
0.0001337518756
0.0002129054648
0.0002371923418
0.0002046860547
0.0001671466623
0.00014652009
0.0001237606714
8.2982775e-05
4.497343801e-05
2.389274621e-05
1.104885384e-05
1.201302641e-08
1.97139378e-07
2.518036615e-08
4.222303482e-06
2.643512548e-06
2.598176029e-06
0.0005128758977
0.0001301826708
5.917590268e-05
9.466597665e-05
8.137964307e-05
7.324357645e-05
1.670814085e-05
1.13754032e-06
7.851148424e-07
3.631041533e-06
3.088790934e-05
0.0001626489617
1.032222992e-06
3.903340484e-06
2.020470773e-05
2.601865625e-05
8.564756939e-05
0.0002506258139
0.0001834747796
7.957965907e-05
0.0001246757375
0.0001636415403
0.0001751069495
0.0001755448575
0.0001630351653
0.0001344858061
9.725477116e-05
6.661453347e-05
5.263462577e-05
6.401196906e-05
0.0001175950521
0.0002291591719
0.000388403898
0.000643800192
0.000938520517
0.005806848156
0.005442784409
0.0001762951736
3.980447713e-05
1.35325399e-05
1.988652828e-05
3.979453369e-05
9.209578201e-05
0.0001826387689
0.0002572108149
0.0002541960921
0.0002032381115
0.000159144938
0.0001316845282
0.0001010161965
6.318907248e-05
3.523472406e-05
2.124042124e-05
1.146926869e-05
3.984457347e-07
1.67779789e-05
7.558588451e-08
2.312284532e-05
6.111649222e-06
6.596587146e-06
0.0002786247249
0.0002088493541
8.388011997e-05
0.0001503220521
0.0001110966024
2.011280382e-05
1.508177367e-05
1.16286966e-05
8.066662322e-06
2.724998667e-05
0.0001196265949
0.0004771805221
9.290364025e-05
2.688475282e-05
5.707931266e-05
3.466975981e-05
7.418825335e-05
0.0002461981046
0.000251554782
0.0001031109007
9.075534854e-05
0.0001198365662
0.0001493280969
0.0001556350732
0.000140246168
0.0001125522081
8.331768352e-05
6.192574124e-05
5.444297106e-05
7.467510167e-05
0.0001546561813
0.0003278258881
0.000588107973
0.000987948753
0.00142069493
0.006385250238
0.0002367208597
0.0002904076511
0.0002547378485
0.0001875445952
0.0001385800394
0.0001053787864
7.400078062e-05
4.519385073e-05
2.691243003e-05
1.896737803e-05
1.420512456e-05
1.608426914e-05
0.0002478439654
6.719885683e-05
9.880391855e-05
3.448012061e-05
2.170965385e-05
0.0001479034444
0.0002701691739
8.456622321e-05
0.0001683012977
5.52712212e-05
1.487656903e-05
3.393010085e-05
8.320439021e-05
0.000355888634
0.0003741464685
0.0007029015132
0.0003570010627
0.0002032578816
8.254355664e-05
5.679296302e-05
3.489508936e-05
6.78143952e-05
0.0002471384448
0.0003699782513
0.0001409645288
8.925401867e-05
0.0001121967995
0.000119493405
9.809167591e-05
7.828019486e-05
6.577487825e-05
5.757095707e-05
5.237198275e-05
5.359780308e-05
7.865676848e-05
0.0001698233026
0.0003762412742
0.0006986275912
0.0011914783
0.001706021024
0.006638529074
0.0001079140685
7.51176941e-05
5.017643163e-05
3.127078786e-05
2.080811687e-05
1.918323842e-05
3.045322842e-05
0.0001221279808
0.000619617531
0.0006203619097
0.0008534744972
0.000431021751
6.505518752e-05
0.0001061831563
0.0002718395994
4.339244357e-05
0.0001179714614
6.617167676e-05
0.000215302985
0.0006650997164
0.000807885096
0.0007994364193
0.0006949695738
0.0005586885063
0.0003880898137
0.0001472022299
8.762706466e-05
5.510561287e-05
3.435483267e-05
9.746801308e-05
0.0004475964166
0.0005627520068
0.0001883767356
0.000271677807
0.0003347417282
0.0001878839748
9.792983358e-05
6.940048327e-05
6.063837345e-05
5.689613237e-05
5.468757452e-05
5.596860043e-05
7.240913958e-05
0.0001387893534
0.0003026011309
0.0005764369237
0.001029863938
0.001525405692
0.006344350807
3.305313631e-05
2.196248019e-05
2.003599762e-05
3.906749628e-05
0.0001106138729
0.000316264864
0.0009123362538
0.0007208251517
0.001093013128
0.001572163954
0.0003060311142
8.951656561e-05
0.0002127655616
6.236295566e-05
0.0002957984326
0.0008275024043
0.001094628309
0.0009520676688
0.0008401528907
0.0008099340127
0.0007158023957
0.0005968196228
0.0004577655063
0.0001610412236
8.281765391e-05
5.411674734e-05
4.378510912e-05
0.0001593615843
0.0006009155679
0.000647754611
0.0002185935233
0.0003099416797
0.0001549929279
7.973394012e-05
5.773888403e-05
5.295361375e-05
5.304805648e-05
5.377065288e-05
5.4242265e-05
5.556633882e-05
6.186598366e-05
8.766491725e-05
0.0001620511998
0.0003091038598
0.0006126250846
0.001011839956
0.00572487947
0.0003724940069
0.0006950639404
0.001143003075
0.001037890562
0.001027930888
0.001634164644
0.0003049734949
5.070244652e-05
0.0001049809327
3.027401836e-05
0.0001081648076
0.001205012423
0.001157151154
0.0009123254253
0.0007811580092
0.0007195408021
0.0006643825347
0.0006175787622
0.0003556871856
7.613315818e-05
5.57401229e-05
6.032744543e-05
7.946161528e-05
0.0001961621109
0.0004953305626
0.000506639045
0.000258117565
0.0001455188167
7.477693114e-05
4.601380643e-05
3.870926562e-05
3.98102561e-05
4.316951404e-05
4.652890532e-05
4.948212199e-05
5.243802113e-05
5.608299299e-05
6.236273662e-05
8.050785663e-05
0.0001307631129
0.0002884266893
0.0005777656721
0.005292474619
0.000659830113
0.0005110151553
0.0009537870958
0.001527491101
0.0001158875995
4.119893605e-05
3.726449329e-05
4.835932848e-05
4.914838231e-05
0.0003159719185
0.001547963126
0.001414802555
0.001161990561
0.000790009375
0.000550255096
0.0003090180517
6.079119919e-05
4.013934617e-05
6.256454682e-05
8.693941694e-05
0.0001123457786
0.00014769067
0.0002788154494
0.0003070455487
0.0002569370666
0.0001892128228
0.0001174903436
6.14085178e-05
3.555663398e-05
2.946619001e-05
3.073316192e-05
3.410479501e-05
3.832243101e-05
4.365671937e-05
5.010373694e-05
5.613479566e-05
6.06141776e-05
7.240808764e-05
0.0001461945215
0.0003540320024
0.005115722095
0.0002575329481
4.883399797e-05
3.965654544e-05
6.963912461e-05
7.484581576e-05
0.0003658405962
0.00134632105
0.00159434651
0.001466972883
0.001148201068
0.0004733502249
0.0001594799082
3.225013889e-05
6.519562317e-05
9.434946507e-05
0.0001025396995
0.0001055725044
9.791334425e-05
0.0001674281208
0.000206333403
0.0002194426736
0.0002186956381
0.0001812034437
0.0001060306093
4.411135342e-05
2.052597657e-05
1.617224652e-05
1.724660797e-05
2.019576072e-05
2.579952556e-05
3.533096343e-05
4.620198154e-05
5.177053058e-05
5.266962397e-05
8.92829807e-05
0.0002497236962
0.004948413692
8.173248084e-05
0.0001653512109
0.0003409073917
0.0003836220193
0.0006306311178
0.0009351729294
0.001178155719
0.001159074929
0.0006048237202
0.0002050157825
0.0001158788191
0.0001240278162
9.619571267e-05
8.11567281e-05
7.766338729e-05
7.470507418e-05
0.0001266070672
0.0001592163735
0.0001884755874
0.0002159603936
0.0002282791004
0.0002032748144
0.0001548779813
0.0001040616739
7.509060957e-05
6.905618494e-05
7.869528168e-05
8.565113204e-05
7.689013235e-05
6.152127193e-05
4.710087334e-05
3.862238437e-05
6.397739385e-05
0.0002064994353
0.004839409194
0.0003525993924
0.0003340565978
0.0002171941281
2.134010288e-05
9.359387225e-05
0.0006192894494
0.001025906469
0.001278557182
0.0009429811826
0.0006517250115
0.0002097348812
4.038196561e-05
1.489385129e-05
6.018873273e-06
1.411891095e-05
0.0001036519846
0.0001152446099
0.0001115967247
0.0001864405995
0.0004218901055
0.0007299013981
0.0009154070582
0.0009222104503
0.0008116296067
0.0006649904394
0.000515458328
0.0003695154996
0.0002376120764
0.000138339898
7.738284366e-05
4.79943313e-05
6.454906151e-05
0.0002072442539
0.004904781417
0.0005067578398
0.0001575790475
0.0001238329014
4.42140389e-06
1.387596697e-06
3.100276902e-05
0.0001885751899
0.0006029447891
0.0008139406144
0.0009180945353
0.0001479339288
3.461698148e-05
1.489892839e-05
5.016105169e-06
9.239968735e-06
0.0001462342856
0.0001806220879
0.0001389372071
0.0001320817548
0.0001488188845
0.0001465614544
0.0001294037933
0.000114499041
0.0001129078082
0.0001260543552
0.0001474426948
0.0001596057893
0.0001537661541
0.0001250341666
8.783221468e-05
6.002188596e-05
7.890653308e-05
0.000244112259
0.005156742588
0.000353870682
0.0001929582614
0.0001715753944
4.287065901e-05
0.0003790155563
0.0003703931422
0.0001839239443
0.0002144769156
0.001104329915
0.0001714118818
4.461783671e-05
1.743553397e-05
5.679993045e-06
9.144054198e-06
0.000196341728
0.0001640620199
9.749940126e-05
8.00184638e-05
7.110996485e-05
5.493847436e-05
3.869535966e-05
3.406897673e-05
4.613053011e-05
7.230943911e-05
0.0001094170617
0.0001421095379
0.0001730267748
0.0001736968241
0.0001414976081
0.0001043543924
0.0001362731174
0.0003408205221
0.005551696485
0.0002977371955
0.0005019218926
0.0003062754159
0.0001800944837
2.699282005e-05
6.885437458e-05
2.198083629e-05
4.547484123e-05
0.001366939772
0.0002932590722
6.911303691e-05
1.98514619e-05
6.270720986e-06
8.675354377e-06
6.427771296e-05
4.67518404e-05
4.740857386e-05
6.006461348e-05
7.210671283e-05
6.985847462e-05
5.535267377e-05
5.538857263e-05
7.919465553e-05
0.0001131777762
0.0001484597218
0.0001847215199
0.0002303417388
0.0002652676951
0.0002732478683
0.0002586035336
0.0003397583432
0.0005613235443
0.006003221868
0.0005166553946
0.000588942587
0.000281936056
9.53486721e-05
1.986952707e-05
1.68109791e-05
1.407955841e-05
0.0001082968163
0.001334113455
0.0003689315376
0.0001061702142
1.969566234e-05
6.128786666e-06
7.51360605e-06
1.697133063e-05
2.179422405e-05
2.928018131e-05
5.3287321e-05
0.0001073448301
0.0001684132337
0.0002073808644
0.0002220970498
0.0002119776378
0.0001854049994
0.0001594261267
0.0001590324189
0.0001915312489
0.0002505138644
0.0003202081701
0.0003733530353
0.0005010147423
0.0006894437463
0.006168477824
0.0004441061828
0.0002896219236
0.0003629931978
0.0001843971462
1.532107962e-05
2.125408863e-05
0.0001454089985
0.001043855396
0.0005974966414
0.0001690400279
2.03648148e-05
4.759229139e-06
4.60446504e-06
9.340190679e-06
1.242997885e-05
1.59598538e-05
7.872805824e-05
0.0002575378099
0.0004260383175
0.0005036369766
0.0004875589089
0.000375493253
0.0002294680545
0.0001291472214
8.480163136e-05
7.163899504e-05
7.074524336e-05
7.25946701e-05
7.156215545e-05
0.0001094475988
0.0001992491078
0.005382432074
0.0003936474886
0.0002776423476
0.0002509996661
0.0001161473869
9.664098161e-05
0.0003215964669
0.000879149816
0.0005646409622
0.0003708490859
7.544246024e-05
4.566674739e-06
6.886486576e-06
1.192008812e-05
2.527729755e-05
6.576480879e-05
0.0004092655987
0.0006493946843
0.0006397268834
0.000468854796
0.000306899115
0.0001736375362
9.362112265e-05
5.451673832e-05
3.667873348e-05
2.853887987e-05
2.476397896e-05
2.30350819e-05
2.230452752e-05
3.253504542e-05
6.205642009e-05
0.004421438206
0.0007526188912
0.0003314059305
0.0001805747314
0.0005940117084
0.0004341166606
0.0006029593054
0.0007607702977
0.0004237915548
0.0005541287033
0.0007985782165
0.0004597868003
6.405762022e-05
0.0001122254736
0.0009751278296
0.001194870088
0.0006478303595
0.0004636834157
0.0003078355721
0.0001721062101
9.857366682e-05
5.564496021e-05
3.476566722e-05
2.448744154e-05
1.969552944e-05
1.753270478e-05
1.664433495e-05
1.646086487e-05
1.671936282e-05
2.212307403e-05
3.784046801e-05
0.003467138078
0.001309107217
0.0008227447164
0.0002494607113
0.0005954011716
0.0005388273825
0.0007071720381
0.0006334628164
0.0007736026816
0.001366237726
0.001181032464
0.0001777994022
0.0006195029236
0.001284391939
0.001351693436
0.0002622119113
7.957512555e-05
0.0001286079928
5.904341855e-05
2.902212786e-05
9.384292959e-06
7.202000827e-06
7.8097854e-06
8.888059574e-06
9.946619664e-06
1.085024467e-05
1.161243674e-05
1.231873477e-05
1.305651147e-05
1.634948752e-05
2.67603962e-05
0.002645545501
0.0005504793259
0.0008897511697
0.00202886234
0.00145777821
6.180762725e-05
2.829430402e-05
0.0001424832888
3.790273599e-05
1.557781543e-06
1.416920468e-06
3.468104605e-06
3.503390326e-05
0.0001342282943
0.000243550452
5.450157909e-05
1.646013435e-05
9.137379449e-06
7.658790337e-06
7.725525521e-06
8.093374775e-06
8.503395723e-06
8.947110155e-06
9.470036363e-06
1.141755801e-05
1.796967741e-05
0.002092147228
0.001371537661
0.00174081666
0.001472513351
0.0002842816966
1.975551968e-05
8.961888764e-07
2.092121284e-07
6.911215617e-08
1.899699693e-08
6.425571443e-08
1.636673179e-07
4.166655479e-07
1.348733104e-06
0.000332005052
0.000153335794
5.955705207e-05
2.84789001e-05
1.989754057e-05
1.704941568e-05
1.536971138e-05
1.398684716e-05
1.293002421e-05
1.227146253e-05
1.328977748e-05
1.765577847e-05
0.001784061983
)
;

boundaryField
{
    walls
    {
        type            zeroGradient;
    }
    wallFilmFace_top
    {
        type            zeroGradient;
    }
    region0_to_wallFilmRegion_wallFilmFace
    {
        type            zeroGradient;
    }
    mirrorFace_top
    {
        type            zeroGradient;
    }
    region0_to_wallFilmRegion_mirrorFace
    {
        type            zeroGradient;
    }
    procBoundary0to1
    {
        type            processor;
        value           nonuniform List<scalar> 
52
(
0.00581142774
0.0002085699813
4.011526291e-05
1.482687815e-05
2.534636895e-05
5.716722918e-05
0.0001320764154
0.0001320764154
0.0002862684797
0.0003046487622
0.0002361409739
0.0001585438231
0.0001585438231
7.538841435e-05
4.99195789e-05
4.99195789e-05
2.249299421e-05
1.949536216e-05
4.811885705e-05
0.0001583681449
0.0001583681449
1.052050759e-06
1.02016835e-05
1.02016835e-05
0.0003891821094
0.0002061174316
0.0008757924549
0.001719525436
0.001719525436
0.0001707155972
5.671621519e-05
5.671621519e-05
0.0002238960718
0.0002238960718
0.0003720431123
0.00196146553
0.00196146553
0.0007628137739
0.000591752689
0.0007535169261
0.0007535169261
0.0004737959738
0.0004737959738
0.0010787924
0.001142799204
0.000646793644
0.0008243233405
0.0001940353502
0.0002499661414
0.0004118402414
0.0004118402414
0.001399343081
)
;
    }
    procBoundary0to2
    {
        type            processor;
        value           nonuniform List<scalar> 
26
(
0.001718398435
0.001585213947
0.000666706047
0.0003256290903
8.594628933e-05
1.11774126e-06
1.887210595e-07
6.668804625e-08
7.648484338e-09
3.011959607e-08
8.0265322e-08
2.123802481e-07
6.02160404e-07
0.0003464543802
0.0002298326689
9.725568866e-05
4.198780806e-05
2.524817447e-05
2.171596246e-05
2.115454192e-05
2.04789068e-05
1.94412657e-05
1.844500431e-05
1.917834545e-05
2.36429212e-05
0.001631715008
)
;
    }
}


// ************************************************************************* //
