/*--------------------------------*- C++ -*----------------------------------*\
  =========                 |
  \\      /  F ield         | OpenFOAM: The Open Source CFD Toolbox
   \\    /   O peration     | Website:  https://openfoam.org
    \\  /    A nd           | Version:  8
     \\/     M anipulation  |
\*---------------------------------------------------------------------------*/
FoamFile
{
    version     2.0;
    format      ascii;
    class       volScalarField;
    location    "1.2/wallFilmRegion";
    object      mu;
}
// * * * * * * * * * * * * * * * * * * * * * * * * * * * * * * * * * * * * * //

dimensions      [1 -1 -1 0 0 0 0];

internalField   nonuniform List<scalar> 
1369
(
0.0008861473675
0.0008861473679
0.000886147368
0.0008861473664
0.0008861473642
0.0008861473635
0.0008861473636
0.0008861473634
0.0008861473628
0.0008861473628
0.0008861473631
0.0008861473656
0.0008861473675
0.0008861473694
0.000886147371
0.0008861473722
0.0008861473734
0.000886147375
0.0008861473772
0.0008861473797
0.0008861473819
0.0008861473829
0.0008861473804
0.0008861473434
0.0008861376827
0.0008860849918
0.0008861375132
0.0008861474016
0.0008861474321
0.0008861474388
0.0008861474402
0.0008861474165
0.0008861473944
0.0008861473881
0.0008861473907
0.0008861474068
0.0008861474053
0.0008861474116
0.0008861474167
0.0008861474168
0.0008861474159
0.0008861474127
0.0008861474115
0.000886147413
0.0008861474143
0.0008861474157
0.0008861474158
0.0008861474153
0.0008861474144
0.000886147413
0.0008861474107
0.0008861474062
0.0008861473938
0.0008861473922
0.0008861473935
0.0008861473971
0.0008861474027
0.0008861474092
0.0008861474137
0.0008861474093
0.0008861473663
0.0008861473668
0.000886147367
0.0008861473669
0.0008861473596
0.0008861473561
0.0008861473557
0.000886147356
0.0008861473595
0.0008861473589
0.0008861472972
0.0008861472777
0.000886147281
0.0008861472922
0.0008861473128
0.000886147339
0.0008861473544
0.000886147363
0.0008861473682
0.0008861473709
0.0008861473693
0.0008861473519
0.0008861472795
0.0008861470468
0.0008861421914
0.0008860887266
0.0008861322039
0.0008861473933
0.0008861473846
0.0008861474365
0.0008861474567
0.0008861473949
0.0008861473708
0.0008861473874
0.0008861473969
0.0008861474075
0.0008861474045
0.0008861473983
0.000886147411
0.0008861474104
0.0008861473987
0.0008861473788
0.0008861473532
0.0008861473578
0.0008861473976
0.0008861474259
0.0008861474252
0.0008861474243
0.0008861474224
0.0008861474194
0.0008861474156
0.0008861474101
0.0008861473892
0.0008861473905
0.0008861473921
0.0008861473962
0.0008861474029
0.0008861474037
0.0008861474039
0.0008861474028
0.0008861473653
0.0008861473653
0.0008861473658
0.0008861473662
0.0008861473655
0.0008861473639
0.000886147355
0.0008861473495
0.0008861473602
0.00088614736
0.0008861472991
0.0008861472914
0.0008861472933
0.000886147293
0.0008861472882
0.0008861472894
0.000886147319
0.0008861473421
0.0008861473526
0.0008861473574
0.0008861473593
0.0008861473591
0.000886147359
0.0008861471452
0.0008861441538
0.0008860954735
0.0008861434927
0.0008861473927
0.0008861473839
0.0008861474371
0.0008861474508
0.0008861474022
0.000886147382
0.0008861473933
0.0008861473993
0.0008861474076
0.0008861474053
0.0008861474
0.0008861474063
0.0008861474068
0.000886147408
0.0008861474139
0.000886147418
0.0008861474278
0.0008861474346
0.0008861474332
0.0008861474308
0.0008861474282
0.000886147424
0.0008861474192
0.0008861474147
0.0008861474096
0.0008861473893
0.0008861473923
0.0008861473972
0.0008861473929
0.0008861473939
0.0008861473927
0.0008861473902
0.0008861473877
0.0008861473671
0.0008861473654
0.0008861473653
0.0008861473656
0.0008861473654
0.0008861473646
0.0008861473618
0.0008861473611
0.0008861473614
0.0008861473608
0.0008861473116
0.0008861473178
0.0008861473255
0.0008861473304
0.000886147326
0.0008861472956
0.0008861471648
0.0008861464391
0.0008861444086
0.0008861417104
0.0008861442557
0.0008861465131
0.0008861473498
0.0008861473303
0.0008861461829
0.0008861392145
0.0008861473174
0.0008861473879
0.0008861473841
0.0008861474213
0.0008861474286
0.000886147408
0.0008861473863
0.0008861473939
0.0008861473985
0.0008861474074
0.0008861474058
0.0008861474015
0.0008861473974
0.0008861473936
0.0008861473957
0.0008861474209
0.0008861474407
0.0008861474481
0.0008861474478
0.000886147441
0.0008861474349
0.0008861474288
0.0008861474221
0.0008861474159
0.0008861474113
0.0008861474075
0.0008861473875
0.0008861473874
0.000886147389
0.0008861473884
0.000886147389
0.0008861473891
0.0008861473905
0.000886147398
0.0008861473683
0.000886147366
0.0008861473653
0.0008861473653
0.0008861473652
0.0008861473647
0.0008861473636
0.0008861473629
0.0008861473624
0.000886147361
0.000886147328
0.0008861473359
0.0008861473433
0.0008861473491
0.0008861473484
0.0008861473316
0.000886147255
0.000886146722
0.0008861409215
0.0008861321778
0.000886137819
0.0008861450193
0.0008861473809
0.0008861473829
0.0008861473887
0.000886147392
0.0008861473907
0.0008861473734
0.0008861473904
0.0008861474068
0.0008861474086
0.0008861474013
0.0008861473856
0.0008861473892
0.0008861473932
0.0008861474064
0.0008861474051
0.0008861474028
0.0008861473981
0.0008861473908
0.0008861473922
0.000886147398
0.000886147414
0.0008861474306
0.0008861474304
0.000886147432
0.0008861474291
0.0008861474228
0.0008861474152
0.0008861474088
0.000886147405
0.0008861474031
0.0008861473873
0.0008861473843
0.0008861473838
0.0008861473847
0.0008861473857
0.0008861473872
0.0008861473917
0.0008861474045
0.0008861473684
0.0008861473616
0.000886147363
0.0008861473645
0.0008861473648
0.0008861473646
0.000886147364
0.0008861473627
0.0008861473625
0.0008861473598
0.0008861473436
0.000886147349
0.0008861473549
0.0008861473607
0.0008861473611
0.0008861473495
0.0008861472969
0.0008861469614
0.0008861386409
0.0008861272519
0.0008861348001
0.0008861445807
0.000886146194
0.0008861472232
0.0008861473958
0.0008861473958
0.0008861473739
0.0008861473257
0.0008861473401
0.0008861473548
0.0008861473611
0.0008861473788
0.0008861473776
0.0008861473755
0.0008861473714
0.0008861474036
0.000886147398
0.0008861473893
0.0008861473695
0.000886147351
0.0008861474021
0.000886147407
0.0008861474075
0.0008861474182
0.0008861474163
0.0008861474171
0.0008861474149
0.000886147409
0.0008861474012
0.0008861473954
0.0008861473935
0.0008861473944
0.0008861473975
0.0008861473925
0.0008861473832
0.0008861473833
0.000886147385
0.0008861473878
0.0008861473985
0.0008861474046
0.000886147367
0.0008861473559
0.0008861473621
0.0008861473639
0.0008861473644
0.000886147364
0.0008861473629
0.0008861473609
0.0008861473599
0.0008861473489
0.0008861473562
0.0008861473585
0.0008861473632
0.0008861473683
0.0008861473691
0.0008861473603
0.0008861473225
0.000886147126
0.0008861352817
0.000886120223
0.0008861324233
0.0008861454264
0.0008861461759
0.0008861468307
0.0008861474024
0.0008861473735
0.00088614727
0.0008861472407
0.0008861472657
0.0008861472783
0.0008861472875
0.0008861472989
0.000886147317
0.0008861473521
0.0008861463134
0.0008861467505
0.0008861465675
0.0008861463202
0.0008861470092
0.0008861471444
0.000886147423
0.0008861474151
0.000886147398
0.0008861474053
0.0008861474077
0.0008861474067
0.0008861474038
0.0008861473985
0.0008861473908
0.0008861473827
0.0008861473789
0.0008861473805
0.000886147386
0.0008861473946
0.0008861473957
0.0008861473875
0.0008861473863
0.0008861473938
0.0008861473962
0.0008861474025
0.0008861473672
0.00088614736
0.00088614736
0.0008861473624
0.0008861473627
0.0008861473617
0.0008861473612
0.0008861473583
0.0008861473499
0.0008861473622
0.0008861473647
0.000886147366
0.0008861473696
0.0008861473737
0.0008861473742
0.0008861473666
0.0008861473379
0.0008861472271
0.0008861307515
0.0008861109302
0.0008861307785
0.0008861462319
0.0008861465893
0.0008861468424
0.0008861474041
0.0008861473636
0.0008861471539
0.000886147313
0.0008861471829
0.0008861471361
0.0008861472409
0.0008861471794
0.0008861471359
0.0008861473195
0.0008861459431
0.0008861471127
0.0008861469693
0.0008861466891
0.0008861470985
0.0008861471674
0.0008861474332
0.000886147419
0.0008861473901
0.0008861473945
0.0008861474058
0.0008861474054
0.0008861474034
0.0008861473998
0.000886147394
0.0008861473852
0.0008861473748
0.0008861473695
0.0008861473722
0.0008861473812
0.0008861473949
0.0008861473919
0.0008861473945
0.000886147399
0.0008861474016
0.0008861474026
0.0008861473703
0.0008861473627
0.0008861473562
0.0008861473585
0.0008861473597
0.0008861473586
0.0008861473559
0.0008861473472
0.0008861473652
0.0008861473702
0.0008861473716
0.0008861473723
0.0008861473747
0.0008861473776
0.0008861473774
0.00088614737
0.0008861473468
0.0008861472825
0.0008861254778
0.0008861029235
0.0008861307014
0.0008861467531
0.0008861468906
0.0008861469535
0.0008861474044
0.000886147395
0.0008861473279
0.0008861473715
0.0008861473172
0.0008861472744
0.0008861472517
0.0008861470494
0.0008861469716
0.0008861472407
0.000886147313
0.0008861474082
0.0008861474044
0.0008861472133
0.0008861471652
0.0008861472128
0.0008861474415
0.0008861474208
0.0008861473907
0.0008861473944
0.0008861474071
0.0008861474068
0.0008861474056
0.0008861474033
0.0008861473994
0.0008861473928
0.0008861473823
0.0008861473702
0.000886147366
0.0008861473727
0.0008861473846
0.0008861473929
0.0008861473992
0.0008861474054
0.0008861474109
0.0008861474047
0.0008861473719
0.0008861473662
0.0008861473297
0.0008861473038
0.0008861473026
0.0008861473172
0.0008861473433
0.0008861473639
0.0008861473731
0.0008861473766
0.0008861473774
0.0008861473775
0.0008861473788
0.0008861473803
0.000886147379
0.0008861473707
0.0008861473502
0.0008861473078
0.0008861205254
0.0008861339036
0.0008861325159
0.0008861470824
0.0008861470958
0.0008861470662
0.0008861474042
0.0008861474074
0.0008861473727
0.0008861473873
0.0008861473462
0.0008861473129
0.0008861472821
0.0008861467755
0.0008861465336
0.000886147297
0.0008861473884
0.0008861474228
0.000886147399
0.0008861472677
0.0008861471714
0.0008861472871
0.0008861474489
0.000886147423
0.0008861474017
0.0008861474027
0.0008861474081
0.0008861474079
0.0008861474071
0.0008861474054
0.0008861474026
0.0008861473977
0.0008861473893
0.0008861473769
0.0008861473675
0.0008861473724
0.0008861473856
0.0008861473974
0.0008861474062
0.0008861474137
0.0008861474191
0.0008861474071
0.0008861473728
0.0008861473712
0.0008861473286
0.000886147296
0.0008861473115
0.0008861473378
0.0008861473607
0.0008861473735
0.0008861473795
0.0008861473818
0.000886147382
0.0008861473817
0.0008861473821
0.0008861473821
0.0008861473791
0.0008861473688
0.000886147349
0.0008861473154
0.0008861308469
0.0008861468733
0.0008861355018
0.0008861472674
0.0008861472197
0.0008861471614
0.0008861474037
0.0008861474125
0.0008861473871
0.0008861473916
0.0008861473536
0.0008861473165
0.0008861472568
0.000886146289
0.0008861461955
0.0008861471705
0.0008861473584
0.000886147417
0.0008861466115
0.000886147077
0.0008861472766
0.0008861473614
0.0008861474557
0.0008861474293
0.0008861474153
0.0008861474098
0.0008861474085
0.0008861474085
0.0008861474077
0.0008861474063
0.0008861474038
0.0008861473995
0.0008861473924
0.0008861473815
0.0008861473715
0.0008861473753
0.0008861473898
0.0008861474022
0.0008861474108
0.0008861474178
0.0008861474227
0.0008861474087
0.0008861473734
0.0008861473726
0.0008861473308
0.0008861473056
0.000886147329
0.0008861473548
0.0008861473718
0.0008861473805
0.0008861473845
0.0008861473859
0.0008861473857
0.0008861473849
0.0008861473842
0.0008861473827
0.0008861473774
0.0008861473643
0.0008861473447
0.0008861473152
0.0008861463298
0.0008861473814
0.0008861408174
0.0008861473564
0.0008861472763
0.0008861473274
0.0008861474031
0.0008861474139
0.0008861473878
0.0008861473898
0.0008861473497
0.0008861473129
0.0008861473245
0.0008861472488
0.0008861471642
0.0008861473509
0.0008861474134
0.0008861474212
0.0008861474033
0.0008861472937
0.0008861473693
0.0008861474048
0.0008861474607
0.0008861474408
0.0008861474294
0.0008861474175
0.0008861474085
0.0008861474084
0.0008861474075
0.0008861474054
0.0008861474024
0.000886147398
0.0008861473912
0.0008861473819
0.0008861473739
0.0008861473782
0.0008861473928
0.0008861474049
0.000886147413
0.0008861474194
0.0008861474238
0.0008861474096
0.0008861473857
0.0008861473883
0.000886147389
0.0008861473883
0.0008861473869
0.000886147385
0.0008861473815
0.0008861473731
0.0008861473573
0.0008861473397
0.0008861473228
0.0008861473401
0.0008861474106
0.0008861474039
0.0008861474143
0.0008861473464
0.0008861473334
0.0008861473969
0.0008861474125
0.0008861473692
0.0008861473804
0.0008861473523
0.0008861473701
0.0008861474338
0.0008861474658
0.0008861475017
0.0008861474616
0.0008861474455
0.0008861474628
0.00088614744
0.0008861473992
0.0008861474218
0.0008861474279
0.0008861474621
0.0008861474515
0.0008861474413
0.0008861474265
0.0008861474126
0.0008861474082
0.0008861474048
0.0008861474005
0.000886147396
0.0008861473915
0.0008861473865
0.0008861473807
0.0008861473756
0.0008861473794
0.0008861473929
0.0008861474048
0.0008861474127
0.0008861474188
0.0008861474227
0.0008861474088
0.0008861473873
0.0008861473838
0.0008861473776
0.0008861473656
0.0008861473482
0.0008861473408
0.0008861473625
0.0008861473992
0.000886147414
0.0008861474451
0.0008861474515
0.0008861474443
0.0008861473694
0.0008861473824
0.0008861474081
0.0008861473509
0.0008861473736
0.0008861474565
0.0008861474848
0.0008861474948
0.0008861474943
0.0008861474892
0.0008861474773
0.0008861474763
0.0008861474653
0.0008861474264
0.0008861474269
0.0008861474365
0.0008861474382
0.0008861474594
0.0008861474425
0.0008861474373
0.0008861474224
0.0008861474126
0.0008861474095
0.0008861474056
0.0008861474002
0.0008861473954
0.0008861473917
0.0008861473882
0.000886147384
0.0008861473794
0.0008861473792
0.0008861473891
0.0008861474009
0.0008861474092
0.0008861474155
0.000886147419
0.0008861474054
0.0008861473701
0.0008861473545
0.000886147346
0.0008861473691
0.0008861473913
0.0008861474032
0.0008861474093
0.0008861474078
0.0008861474155
0.0008861474103
0.0008861474091
0.0008861473679
0.0008861473997
0.0008861474174
0.0008861474615
0.0008861474852
0.0008861474892
0.0008861474939
0.0008861474937
0.0008861474903
0.0008861474856
0.0008861474823
0.0008861474674
0.0008861474343
0.0008861474382
0.0008861474407
0.0008861474381
0.000886147451
0.000886147432
0.0008861474286
0.0008861474146
0.0008861474104
0.0008861474048
0.0008861473987
0.0008861473944
0.0008861473921
0.0008861473905
0.0008861473885
0.0008861473858
0.0008861473821
0.0008861473788
0.0008861473812
0.0008861473908
0.0008861474003
0.0008861474082
0.0008861474119
0.0008861473992
0.0008861474026
0.0008861474061
0.0008861474099
0.0008861473999
0.0008861474212
0.000886147418
0.0008861474321
0.0008861474111
0.0008861473757
0.0008861473844
0.0008861474265
0.000886147469
0.0008861474739
0.0008861474826
0.0008861474918
0.0008861474911
0.0008861474876
0.0008861474808
0.0008861474629
0.0008861474352
0.0008861474334
0.0008861474284
0.0008861474274
0.0008861474379
0.0008861474213
0.0008861474178
0.0008861474097
0.0008861474026
0.0008861473966
0.0008861473914
0.0008861473887
0.0008861473882
0.000886147388
0.0008861473873
0.0008861473859
0.0008861473834
0.0008861473798
0.0008861473761
0.0008861473769
0.0008861473848
0.0008861473964
0.0008861474024
0.0008861473925
0.000886147404
0.0008861473966
0.0008861474335
0.0008861474359
0.0008861475004
0.0008861474755
0.0008861473874
0.0008861474492
0.0008861474333
0.0008861474553
0.0008861474634
0.0008861474709
0.0008861474791
0.0008861474873
0.0008861474849
0.0008861474718
0.0008861474279
0.0008861474058
0.0008861474016
0.0008861474061
0.0008861474135
0.0008861474206
0.000886147412
0.0008861474099
0.0008861474068
0.0008861474035
0.0008861473995
0.0008861473937
0.000886147387
0.0008861473836
0.0008861473834
0.0008861473837
0.0008861473835
0.0008861473824
0.0008861473797
0.0008861473754
0.000886147371
0.0008861473715
0.0008861473836
0.0008861473939
0.0008861473882
0.0008861474875
0.0008861475183
0.0008861474829
0.0008861475286
0.0008861474915
0.0008861474716
0.0008861474646
0.0008861474701
0.0008861474749
0.0008861474763
0.0008861474804
0.0008861474624
0.000886147351
0.0008861473698
0.0008861473842
0.0008861473963
0.0008861474038
0.0008861474066
0.0008861474086
0.000886147408
0.0008861474064
0.0008861474042
0.0008861474018
0.0008861473981
0.000886147391
0.0008861473802
0.0008861473743
0.0008861473744
0.0008861473758
0.0008861473768
0.0008861473759
0.000886147372
0.0008861473658
0.0008861473609
0.0008861473706
0.0008861473869
0.000886147386
0.0008861475486
0.0008861475673
0.000886147548
0.0008861475175
0.0008861474703
0.0008861474737
0.0008861474763
0.0008861474736
0.0008861474648
0.0008861474401
0.0008861473949
0.000886147392
0.0008861473881
0.0008861473943
0.0008861473999
0.000886147402
0.0008861474086
0.0008861474086
0.0008861474064
0.0008861474042
0.0008861474026
0.0008861474002
0.000886147396
0.0008861473904
0.0008861473846
0.0008861473803
0.0008861473777
0.0008861473745
0.0008861473689
0.0008861473608
0.0008861473514
0.0008861473441
0.0008861473582
0.000886147382
0.0008861473851
0.000886147567
0.0008861475673
0.0008861475515
0.0008861474068
0.000886147453
0.0008861474809
0.0008861474776
0.000886147461
0.000886147448
0.000886147438
0.0008861474152
0.0008861473661
0.0008861473246
0.0008861472875
0.0008861473667
0.0008861474056
0.0008861474021
0.0008861473941
0.000886147395
0.0008861473987
0.000886147399
0.0008861473977
0.0008861473958
0.0008861473934
0.0008861473903
0.0008861473864
0.0008861473814
0.0008861473782
0.0008861473746
0.0008861473662
0.0008861473523
0.000886147355
0.0008861473797
0.0008861473849
0.0008861475413
0.0008861475713
0.0008861475577
0.000886147094
0.0008861465328
0.0008861474408
0.0008861475112
0.0008861474893
0.0008861474688
0.0008861474537
0.000886147404
0.0008861473623
0.00088614734
0.0008861472977
0.000886147363
0.0008861474057
0.0008861474005
0.0008861473927
0.0008861473886
0.0008861473895
0.000886147391
0.0008861473913
0.0008861473898
0.0008861473864
0.0008861473825
0.0008861473793
0.0008861473766
0.0008861473936
0.0008861474077
0.0008861474064
0.0008861473892
0.0008861473698
0.0008861473806
0.0008861473849
0.0008861475294
0.0008861475493
0.0008861475327
0.000886147469
0.000886147516
0.0008861475115
0.0008861475112
0.0008861475129
0.0008861474734
0.0008861474154
0.0008861473831
0.0008861473554
0.0008861473148
0.0008861473624
0.0008861474035
0.0008861473974
0.0008861473895
0.0008861473843
0.0008861473815
0.0008861473783
0.0008861473731
0.0008861473667
0.0008861473657
0.0008861473697
0.0008861473738
0.0008861473761
0.0008861474094
0.0008861474286
0.000886147426
0.0008861474087
0.0008861473839
0.0008861473818
0.0008861473846
0.0008861475619
0.0008861475458
0.0008861475303
0.0008861475168
0.0008861474923
0.0008861475038
0.0008861474851
0.0008861475233
0.0008861474838
0.0008861474262
0.0008861473993
0.0008861473651
0.000886147326
0.0008861473592
0.0008861473933
0.0008861473867
0.0008861473841
0.0008861473831
0.0008861473818
0.0008861473787
0.0008861473715
0.0008861473654
0.0008861473692
0.0008861473743
0.000886147378
0.0008861473802
0.0008861473812
0.0008861473812
0.0008861473804
0.0008861473789
0.0008861473772
0.0008861473792
0.0008861473836
0.0008861475437
0.0008861475388
0.000886147531
0.0008861475174
0.0008861474901
0.0008861474737
0.0008861474719
0.0008861475276
0.0008861474654
0.0008861474327
0.000886147413
0.0008861473671
0.0008861473265
0.0008861473519
0.0008861473745
0.0008861473799
0.0008861473822
0.0008861473867
0.0008861473899
0.0008861473903
0.0008861473885
0.0008861473861
0.0008861473843
0.0008861473832
0.0008861473825
0.0008861473824
0.0008861473827
0.0008861473828
0.0008861473825
0.0008861473817
0.0008861473795
0.0008861473769
0.0008861473813
0.000886147521
0.0008861475166
0.0008861475188
0.0008861475051
0.0008861474781
0.0008861474965
0.0008861475259
0.0008861474667
0.0008861474421
0.0008861474372
0.0008861473693
0.0008861473044
0.0008861473293
0.0008861473611
0.0008861473705
0.0008861473763
0.0008861473967
0.0008861473997
0.000886147399
0.0008861473972
0.0008861473949
0.0008861473921
0.0008861473887
0.0008861473845
0.0008861473801
0.000886147377
0.0008861473751
0.0008861473733
0.0008861473711
0.000886147368
0.0008861473626
0.0008861473775
0.0008861475406
0.0008861475389
0.0008861475192
0.0008861475204
0.0008861475243
0.0008861475174
0.0008861474701
0.0008861474556
0.0008861474737
0.0008861474207
0.0008861471196
0.0008861473412
0.0008861473736
0.0008861473867
0.000886147395
0.0008861474035
0.0008861474015
0.0008861473993
0.0008861473967
0.0008861473934
0.0008861473893
0.0008861473838
0.0008861473767
0.000886147369
0.0008861473623
0.0008861473572
0.000886147354
0.0008861473522
0.0008861473543
0.0008861473558
0.0008861473735
0.0008861475325
0.0008861475483
0.0008861475336
0.0008861475266
0.0008861475326
0.0008861475213
0.0008861474877
0.0008861474835
0.0008861474896
0.0008861474572
0.0008861474284
0.000886147413
0.0008861474118
0.0008861474165
0.0008861474125
0.0008861474082
0.0008861474013
0.000886147398
0.0008861473975
0.0008861473899
0.0008861473808
0.0008861473698
0.0008861473588
0.00088614735
0.0008861473443
0.0008861473411
0.00088614734
0.0008861473407
0.0008861473456
0.0008861473537
0.0008861473732
0.0008861475023
0.0008861475454
0.0008861475371
0.000886147528
0.0008861475269
0.0008861475179
0.0008861474943
0.000886147495
0.0008861475018
0.0008861474732
0.0008861474026
0.0008861474193
0.0008861474281
0.0008861474173
0.0008861474147
0.0008861473937
0.0008861473857
0.0008861473947
0.0008861476058
0.0008861474535
0.0008861473234
0.0008861472967
0.0008861473008
0.0008861473087
0.0008861473151
0.00088614732
0.0008861473242
0.0008861473287
0.0008861473363
0.0008861473492
0.0008861473739
0.0008861475096
0.0008861475038
0.0008861474792
0.000886147463
0.0008861473822
0.0008861473636
0.0008861474027
0.0008861473825
0.0008861469994
0.0008861469251
0.0008861470995
0.0008861473565
0.0008861476661
0.0008861476935
0.0008861476564
0.000886147518
0.000886147356
0.0008861472916
0.0008861472859
0.0008861472922
0.0008861472991
0.0008861473057
0.0008861473128
0.0008861473235
0.0008861473412
0.0008861473745
0.0008861475278
0.0008861474853
0.0008861474589
0.0008861474297
0.0008861473514
0.000886146404
0.000886144456
0.0008861418293
0.0008861352777
0.0008861418416
0.000886144585
0.0008861459993
0.0008861467096
0.0008861477008
0.0008861476913
0.000886147642
0.0008861475175
0.0008861473983
0.0008861473477
0.0008861473337
0.0008861473299
0.0008861473287
0.0008861473291
0.0008861473327
0.0008861473411
0.0008861473736
)
;

boundaryField
{
    walls
    {
        type            zeroGradient;
    }
    wallFilmFace_top
    {
        type            zeroGradient;
    }
    region0_to_wallFilmRegion_wallFilmFace
    {
        type            zeroGradient;
    }
    mirrorFace_top
    {
        type            zeroGradient;
    }
    region0_to_wallFilmRegion_mirrorFace
    {
        type            zeroGradient;
    }
    procBoundary0to1
    {
        type            processor;
        value           nonuniform List<scalar> 
52
(
0.000886147374
0.0008861473733
0.0008861473345
0.0008861473216
0.0008861473472
0.0008861473682
0.00088614738
0.00088614738
0.0008861473893
0.000886147391
0.0008861473911
0.0008861473898
0.0008861473898
0.0008861473857
0.0008861473798
0.0008861473798
0.0008861473593
0.0008861473491
0.0008861473776
0.0008861473961
0.0008861473961
0.0008861469409
0.0008861473303
0.0008861473303
0.0008861474011
0.0008861474285
0.0008861474466
0.0008861474461
0.0008861474461
0.0008861476004
0.0008861475518
0.0008861475518
0.0008861475684
0.0008861475684
0.0008861475592
0.0008861475215
0.0008861475215
0.0008861475417
0.0008861475562
0.0008861475232
0.0008861475232
0.0008861475216
0.0008861475216
0.0008861475224
0.0008861475147
0.0008861475105
0.0008861475337
0.0008861475404
0.0008861475449
0.0008861475311
0.0008861475311
0.0008861475444
)
;
    }
    procBoundary0to2
    {
        type            processor;
        value           nonuniform List<scalar> 
26
(
0.000886147485
0.0008861474547
0.0008861474452
0.0008861474329
0.0008861474063
0.000886146389
0.0008861438804
0.0008861401957
0.0008861242192
0.000886137213
0.0008861422673
0.000886144759
0.0008861459819
0.0008861477089
0.0008861477069
0.0008861476916
0.0008861476312
0.0008861475035
0.0008861473991
0.0008861473587
0.000886147348
0.0008861473458
0.0008861473457
0.0008861473473
0.000886147351
0.0008861473728
)
;
    }
}


// ************************************************************************* //
