/*--------------------------------*- C++ -*----------------------------------*\
  =========                 |
  \\      /  F ield         | OpenFOAM: The Open Source CFD Toolbox
   \\    /   O peration     | Website:  https://openfoam.org
    \\  /    A nd           | Version:  8
     \\/     M anipulation  |
\*---------------------------------------------------------------------------*/
FoamFile
{
    version     2.0;
    format      ascii;
    class       surfaceScalarField;
    location    "1.2/wallFilmRegion";
    object      phi;
}
// * * * * * * * * * * * * * * * * * * * * * * * * * * * * * * * * * * * * * //

dimensions      [1 0 -1 0 0 0 0];

internalField   nonuniform List<scalar> 
2648
(
-0.004113724983
0.005954695782
-0.00910188496
0.003423469351
-0.01096997251
0.001282355744
-0.01079188862
5.776565977e-05
-0.01087739076
0.0005237791991
-0.01058734875
0.0002762331221
-0.01039058016
0.0002490384622
-0.01067453177
0.0001965201056
-0.007787238753
-0.004260864068
-0.006401159259
-0.006355234422
-0.007562908365
-0.0003517283431
-0.008691154402
-0.0001421531806
-0.00999288647
-0.0001126554775
-0.0112559901
-8.050330637e-05
-0.01228982002
-1.144172522e-05
-0.01310736429
0.0001588584565
-0.0137003329
0.0002306671453
-0.01367563279
0.000289815871
-0.01222075975
0.0003291186851
-0.008845962804
0.0002841491353
-0.004521128789
0.000139405892
-0.001293919725
2.441885087e-05
-0.0001198200745
-8.510020243e-07
-1.851293542e-07
3.009596783e-06
-1.705631525e-10
1.352641974e-07
5.095748481e-11
3.915824492e-10
-4.163317121e-07
2.026920384e-07
-0.003161075511
-0.003023269895
-0.01262354209
-0.00251006685
-0.01154120381
-0.004420570135
-0.004168107232
-0.00237137054
-0.001656509389
-0.0006466113224
-0.0008872203695
-0.0005832216016
-0.0005065698977
-0.0006288368606
-5.93012364e-05
-0.0007365429086
0.00211736277
-0.003775963033
0.0006643443097
-0.003008630425
0.0003729162729
-0.001238550354
0.01190604206
0.0004424326913
0.007500093691
0.0003116781459
0.002411855183
-2.882443747e-06
0.001326532435
-1.108216157e-05
0.001932233189
-3.708917109e-06
0.004257566842
9.778519271e-07
0.008972515798
2.566475249e-05
0.0175956812
-0.001962809926
0.02617385698
-0.003088082841
0.03071494399
-0.003004177185
0.03016663092
-0.003038125734
0.02571866909
-0.003173654841
0.01931817108
-0.003476731201
0.01265246724
-0.005153850593
0.01352838572
-0.008204443672
0.01640034417
0.001331809626
0.01463658468
0.001642757679
0.0108617545
0.001787886148
0.007202214678
0.001662595094
0.005950702997
0.002373748209
0.004318592241
0.004302880604
0.008040847811
0.01028366489
-0.00386699459
0.009967027603
0.003894270373
0.00628559308
0.005152519479
-2.823808329e-05
0.006048766152
-0.0001669713376
0.0006365597025
-0.0001579062716
0.0002670416628
-0.0001474188889
0.0002378146582
-0.0002107609463
0.000254167953
0.0008477219217
-0.004191895927
-0.0001351149632
-0.00697843724
-0.0001518956777
-0.0003801290983
-0.0001705722824
-0.0001807341834
-0.0001995469971
-0.0001465028831
-0.0002513572309
-0.0001239147607
-0.0003448781219
-6.607512646e-05
-0.0003851101197
-1.025596022e-05
-0.0004480982271
0.0002940195366
-0.0006236651099
0.0004767007473
-0.0007015609348
0.0005619247927
-0.0004839260365
0.0004623076441
-0.000193335009
0.0002458414013
-5.530210458e-05
8.294199031e-05
-1.33542961e-05
2.157881201e-05
-4.885394916e-07
5.847237229e-06
-1.370091567e-09
4.569466432e-07
3.423541874e-10
3.566345746e-09
4.247674938e-08
2.338224597e-07
0.0004208093922
-0.002052021195
0.000704236876
-0.003855682013
-0.0005470380357
-0.006221228662
-9.296932805e-05
-0.001800111757
-0.0001709218477
-0.001157513245
-0.0002632700232
-0.0009375397282
-0.00019523984
-0.0007333380475
-9.322263982e-06
-0.0007435283849
0.0007073400439
-0.003101791226
0.0009619798075
-0.003233028484
0.0005201877485
-0.002126693694
0.0003682970676
0.000793457986
0.0001836207613
0.0004753077158
8.589128119e-05
0.0001285343601
5.409540701e-05
4.708660485e-05
3.942505729e-05
3.268496857e-05
5.226717957e-05
3.539973022e-05
0.0001755776399
0.0001089752601
0.001721076951
-0.003291009439
0.00213117975
-0.004151022813
0.001981724594
-0.003555621279
0.001930515625
-0.003290748559
0.001922539733
-0.0032969662
0.001684275363
-0.003642305435
0.0006481280532
-0.005448068129
-0.0007539045576
-0.008744399334
0.0004084923434
0.001625930077
0.000642297123
0.001002678611
7.269332592e-05
0.001558050354
-0.005178422254
0.004986217196
-0.009505922459
0.006175020139
-0.01013486284
0.005656623118
0.001586496957
0.005717175001
-0.008489853991
0.008101565208
0.002188460332
0.009167071754
0.00463218404
0.008193423246
0.006925090725
0.004491938968
0.004053345584
0.001646045604
0.002678658428
-0.0003128647902
0.001477206333
0.0001213309428
-0.0003030111297
0.00245977724
-0.005267194832
-8.65125607e-05
-0.007364183519
-0.000158516455
-0.0004268946595
-0.0001936151175
-0.0002508477771
-0.0002187963879
-0.0002295117425
-0.0002408290582
-0.0002529647222
-0.0002634468398
-0.0002441798149
-0.000427619674
-0.0001534719769
-0.000812361875
-4.698998378e-05
-0.001563634846
-9.478303989e-06
-0.002493966265
-2.630443239e-06
-0.002803054416
-9.553904617e-07
-0.002037737886
-1.466409517e-06
-0.0006727844311
-1.302894328e-05
-1.934141576e-05
0.0001919911165
-8.879626877e-07
1.593374507e-05
-6.224367626e-09
1.122306177e-06
1.257883846e-09
1.877339322e-08
3.897073988e-07
1.357790133e-06
0.0002446801638
-0.0009035537288
0.0008824484352
-0.002765519481
-0.0001068904175
-0.003694882762
0.0002326511799
-0.001758314544
-0.0002152106865
-0.001824580714
-0.0003215918983
-0.001209468107
-0.0002024578827
-0.0006987772727
-1.212551974e-05
-0.000626460302
0.0006471692058
-0.002218803427
0.001171502312
-0.002599227838
0.001071800804
-0.002368165625
0.0008367021833
1.409593718e-05
0.0006536583007
0.0002994229593
0.0008892426438
-0.0003092956757
0.001128161705
-0.0005130236269
0.00150342257
-0.0003693069952
0.002562272298
-0.0008264292929
0.004528144809
-0.001977452697
0.00478312235
-0.003148657747
0.003186431752
-0.003136033158
0.002156839223
-0.002773231171
0.001797949688
-0.002606609744
0.001731626668
-0.00265290528
0.001481422331
-0.002992783105
0.0003176770727
-0.004550325042
-0.006196008878
-0.008873321092
-0.002185152888
-0.001649961406
-0.003488556466
0.002108541558
-0.008704529597
0.005129524514
-0.01248900699
0.007574060702
-0.01328399161
0.007802723292
-0.01151878126
0.005946817511
-0.004781524117
0.002798198119
-0.0101836121
0.005303479315
0.0001709778252
0.007282582448
0.00351200405
0.008726549954
0.005885689766
0.007618873519
0.005201735428
0.005789860057
0.004029539341
0.003907727006
0.002500575041
0.003310259441
-0.001918047074
0.003876924233
-0.005142788524
-5.942732689e-05
-0.006012234784
-0.0001587970583
-0.0004942312158
-0.0001864635803
-0.0003447129614
-0.0001807405345
-0.0003457066904
-0.0001576922697
-0.0003970355833
-0.000107766247
-0.000399445494
-4.691845273e-05
-0.000275362054
-9.448318535e-06
-0.0001015884594
-2.047671451e-06
-1.612548987e-05
-5.584457621e-07
-1.292297651e-06
-6.684441788e-08
-3.724923412e-07
1.102039664e-06
-5.799917671e-07
2.659592108e-06
-4.840588512e-06
-0.0001004039573
0.0003987249638
-4.789898588e-06
0.0001130153259
-3.143067726e-07
2.758464315e-06
1.444507263e-08
3.080891063e-07
6.424562833e-05
2.297792646e-05
0.0001104215025
-0.0002151778088
0.0009575738987
-0.0003321738785
0.001225625739
-0.0006343572594
0.0006852463297
-0.0007862221838
-0.0001763170366
-0.001530675718
-0.000327964874
-0.001237455809
-0.000183531531
-0.000568905253
-1.397646364e-05
-0.0004075381307
0.0005236133205
-0.001283474628
0.001049010255
-0.001253599026
0.001531588936
-0.0009909963305
0.00260728938
-0.0007260719468
0.002342042918
-0.0006305080873
0.001609217032
-0.0007199288772
0.00162130986
-0.0006737797514
0.002079265645
-0.0005797954346
0.002129278495
-0.000892979415
0.002133742054
-0.00251022412
0.002017265804
-0.002881032777
0.001616787441
-0.002546009545
0.001318937411
-0.002084664873
0.001220510044
-0.001829920878
0.001272316598
-0.001828925227
0.001183981525
-0.002073804621
0.0002829611498
-0.003092472241
-0.006082402802
-0.006883224612
-0.006334879997
-0.001252204201
-0.00781544045
0.002380471876
-0.009087407105
0.005969830069
-0.008887933114
0.007574982415
-0.006980375841
0.007085805683
-0.004646300295
0.004082136985
-0.007093850057
0.002495878564
-0.0125935724
0.003615017422
-0.0006559480476
0.007061750609
0.000633810288
0.008830842877
0.004677325347
0.008824157866
0.005525376912
0.007841853915
0.004695085165
0.006411193391
0.003114694763
0.007412360414
-0.002554653761
0.00639474062
-0.002547302487
-7.719954192e-05
-0.002556133363
-0.0002098905055
-0.0005963847521
-0.0002420171865
-0.0004904663564
-0.0002420010789
-0.0005250218491
-0.000216446409
-0.0006102593519
-0.0001401232861
-0.0006084717087
-5.107474436e-05
-0.0004071800806
-7.4013951e-06
-0.000148538395
-4.748095091e-07
-2.371062989e-05
-9.591368637e-08
-8.229131538e-07
5.831206981e-10
-2.257860478e-07
1.962240619e-07
-3.785902628e-07
-3.298601119e-07
-2.445136788e-06
-0.002901161884
-2.698584908e-06
-0.001142981506
-3.713607326e-05
-0.00189440117
-0.0008431606148
-0.001456494028
-0.000451306839
-3.119882706e-05
-0.0001366192225
2.047780271e-05
-6.287967335e-05
0.0001253385054
-6.392946691e-05
0.0003369630448
-0.0001072971511
0.0004509171448
-0.0001961896567
4.457357553e-05
-0.0005539499932
-0.0002490749963
-0.0007941376705
-0.0001199280472
-0.0004119467507
-1.036106546e-05
-0.0001633505781
0.000343035966
-0.0004714780946
0.0005353400526
-0.0003997359089
0.0006587920103
-0.0002740026079
0.0007820954597
-0.00020079597
0.0007690680837
-0.0001985774962
0.0007082765437
-0.0005065966436
0.0005278811661
-0.0005812486369
0.0004009629628
-0.0006029695278
0.0005430620137
-0.0009865325261
0.001074794976
-0.003124254893
0.00130782528
-0.003020849181
0.001187489345
-0.002267170058
0.0009784678581
-0.001617524999
0.0008708091644
-0.001255487787
0.0009012109068
-0.001147208043
0.0008764277944
-0.001216456816
0.0002776099665
-0.001627093211
-0.007863049167
-0.001772752756
-0.007456553434
-0.000187357709
-0.008564299213
0.002488500974
-0.008805796123
0.006657467184
-0.008086188659
0.007557854961
-0.005298427413
0.005701646153
-0.001947779355
0.0009904215681
-0.01064118366
0.001756570303
-0.01626122689
0.001889647767
-0.001066628625
0.003518683563
-4.874085877e-06
0.00578350393
0.003076442135
0.007135464731
0.004448504761
0.008026452861
0.00331562657
0.006613326714
0.003610541396
0.005319942606
0.0006924854887
0.005401553318
0.00188567267
-0.0001529184068
-0.0005228319972
-0.0003115703168
-0.0007286198048
-0.0003163747321
-0.0007200095176
-0.0003292805903
-0.0007592420363
-0.0003042149211
-0.0008678569847
-0.0001970939716
-0.0008380122915
-7.236975338e-05
-0.0005396777478
-1.122526724e-05
-0.0002020237904
-3.40240397e-07
-3.559019347e-05
-6.504300131e-08
-4.978325562e-07
2.453605886e-09
-1.268324359e-07
1.410570895e-07
-2.761399968e-07
1.282691325e-06
-2.931283105e-06
8.39084764e-06
-6.16374739e-06
4.742909357e-05
-3.145526063e-05
-0.0004414185877
0.0003315926809
-0.0001075920619
-8.630407043e-05
-1.657348064e-05
-2.147215764e-05
5.556428756e-06
-1.780473824e-05
2.488549144e-05
-1.873960664e-05
6.468684341e-05
-3.694060308e-05
0.0001409052666
-8.223401833e-05
0.000174391018
-0.0001054120837
-7.42234777e-05
-0.0001436344792
-3.45223001e-05
-0.0002822179902
-9.349343727e-06
-4.325564278e-06
0.0001298327252
-1.382837563e-07
0.000166217019
-3.574267155e-06
0.0001604651688
-3.752890618e-06
0.0001536348823
-2.082334444e-05
0.0001368033508
-4.344489985e-05
0.0002219290846
-0.0005408790812
0.0002082805175
-0.0006662864495
0.0002269473787
-0.0007043277827
0.0004206285817
-0.0009077716935
0.001039809338
-0.002853575086
0.001249078608
-0.002884171369
0.001090000681
-0.002219632867
0.0008290213914
-0.001574520291
0.0006508168793
-0.001129854367
0.0006086461807
-0.0008694846243
0.0006754100829
-0.0007823548001
0.0005215889695
-0.0008132986118
-3.385922494e-05
-0.0011109647
-0.005279865725
0.002426136724
-0.005794764107
0.005464784813
-0.006295891499
0.006904963153
-0.005363534088
0.007270173709
-0.001451282798
0.00253164312
-0.001024540427
-0.0002091728292
-0.01542740494
-0.0007256737408
-0.01951337989
0.0001811381407
-0.00220505452
0.0009788603531
0.001185944902
0.002681276293
0.002259068698
0.003611543371
0.003893776673
0.003558507418
0.003499450769
0.004068232888
0.005397705598
0.003771041084
0.006248174271
-0.0002994626957
-0.0004671467026
-0.000452578694
-0.0009663492666
-0.0004360039734
-0.001057880737
-0.0004246595067
-0.0009954601289
-0.0004452243082
-0.001018625369
-0.0004093769092
-0.001123380808
-0.0002575084994
-0.001033168166
-9.640249174e-05
-0.000635589411
-1.805530447e-05
-0.0002499805703
-2.335544235e-07
-5.285291194e-05
-4.143701739e-08
-2.896828397e-07
2.155401098e-09
-6.271804044e-08
1.122895962e-07
-2.209145205e-07
1.715451406e-06
-4.13445766e-06
3.758348871e-06
-7.132164027e-06
1.151158155e-06
-2.292420474e-05
-8.436182882e-05
0.00191658823
-1.501032021e-05
-1.258850997e-06
-5.47904831e-06
-1.754671699e-07
1.948453744e-06
1.512353439e-08
8.830711646e-06
-1.67553715e-06
2.289753674e-05
-1.569322128e-05
5.541222743e-05
-7.050975622e-05
7.307039716e-05
-4.608788498e-05
7.735624407e-05
-2.881220291e-05
5.722492829e-06
-8.414892036e-05
-1.35760846e-07
-6.953328173e-07
1.56366116e-06
4.619640869e-06
2.094642194e-06
-1.392244484e-06
2.021389457e-06
-2.274949091e-06
7.279164818e-06
-2.062096372e-05
1.363690695e-05
-4.270599271e-05
0.0001139633862
-0.000655055095
0.0001160075178
-0.0009122959531
0.0001264615393
-0.000877064719
0.0003006949727
-0.0006814111689
0.000933594348
-0.00227361495
0.001239419518
-0.002567152044
0.001185570236
-0.002211468375
0.0009643288618
-0.001747473384
0.0007214454769
-0.001319970801
0.0005468651949
-0.0009611160849
0.0004924703248
-0.0006987329864
0.0005439681035
-0.0005772241996
0.0004647905185
-0.0005785572632
-0.003802333515
-0.0005499819684
-0.002720568819
0.008586558208
-0.001918054575
0.01006383874
0.000353974083
0.005696411394
0.0001985936208
0.002028493223
0.001399727415
-0.0004114372379
-0.0184187982
-0.003749131761
-0.01942328493
-0.004586323602
-0.001425250823
-0.003694544256
-0.0002692447708
-0.002343914436
0.002927232226
-0.001330008495
0.006124276034
-0.000910292956
0.007906925908
-0.0006609916088
0.006109771786
-0.0002612204164
-0.0002164752761
-0.0005307926425
-0.0009363801393
-0.0006396477302
-0.001363106959
-0.0005930430353
-0.00143193397
-0.0005654861637
-0.001280729287
-0.0005854880719
-0.001267968151
-0.0005174254272
-0.001340737475
-0.0003082121704
-0.001139085624
-0.0001192762651
-0.0006665529991
-2.934092224e-05
-0.0002805879902
-1.513349121e-07
-7.588284372e-05
-2.343452695e-08
-1.663030205e-07
1.4833328e-09
-2.76590747e-08
1.014254582e-07
-1.954229104e-07
2.754304263e-06
-6.591967784e-06
5.277952469e-06
-9.013791197e-06
3.411625969e-06
-2.016468459e-05
-3.589610932e-05
0.003779024689
-4.102754681e-06
5.164214763e-05
-2.900958391e-06
1.158574433e-05
6.894731405e-07
3.687141892e-05
2.15577517e-06
8.218651585e-06
3.853861748e-06
1.712112602e-06
-4.505629901e-06
-5.448164165e-05
-5.448143048e-06
-2.543276434e-05
-2.523819167e-06
-1.513414477e-05
-2.005777338e-07
-3.111258986e-05
1.312323278e-07
7.686837354e-07
6.236998705e-06
5.319777823e-06
4.228251209e-06
6.52623914e-07
2.823589531e-06
4.380741627e-07
9.566798147e-06
-2.140120821e-05
1.663706209e-05
-4.792906792e-05
0.0001227694103
-0.00073850941
1.987129656e-05
-0.001253047543
-7.671144098e-05
-0.00103561343
0.0001312870079
-0.0005501420404
0.0008188242281
-0.001892841902
0.001230888354
-0.00230743348
0.001345323321
-0.002151552836
0.00126067916
-0.001876689931
0.001036479295
-0.001547509284
0.0007512978755
-0.001187373965
0.0005282507915
-0.000825361993
0.0004431174902
-0.0005597986397
0.0004800734604
-0.0004548862721
0.0006132816384
-0.0004857785418
0.001805010678
-0.0003218811321
0.004502072598
-0.0003330622627
0.006716526377
-0.000401280063
0.006936707051
-0.0005178431892
0.006120973026
-0.0008529217611
-0.01709413443
-0.001396265619
-0.02040477849
-0.001907903953
-0.001235615985
-0.003420473891
-0.000456649928
-0.003820505207
-0.0001668757675
-0.002882168425
-0.0001132313507
-0.001221426151
-9.73849633e-05
-0.0003738691912
-0.0002148449747
-0.000592519925
-0.0006837832324
-0.0007944110097
-0.001340053313
-0.0008610051398
-0.001775723749
-0.0007728819622
-0.001732990263
-0.0007203655182
-0.001502927564
-0.0007175642272
-0.001436411071
-0.0006021319153
-0.001421828208
-0.0003362664405
-0.001117487768
-0.0001345553306
-0.0006233013475
-4.115130295e-05
-0.0002837178419
-8.839038575e-08
-9.690021224e-05
-1.193267574e-08
-9.264527448e-08
9.095830269e-10
-6.625068079e-08
1.038644143e-07
-1.916490812e-07
5.081291215e-06
-1.165597388e-05
8.515384621e-06
-1.208149319e-05
6.444467687e-06
-1.886367247e-05
-9.389684774e-05
0.005151222183
-1.423857301e-05
0.0002143935926
-6.249918354e-07
6.47920937e-05
5.461337788e-06
0.0001722022515
1.799134283e-05
7.281702313e-05
3.04278495e-05
5.432524356e-05
-8.17474869e-07
-2.892588448e-05
-3.217383561e-06
-1.085522352e-05
-4.594514959e-06
-5.34309901e-06
-9.939187401e-06
-2.766925686e-05
-5.6716725e-05
-1.39269875e-05
-0.0003596131097
-0.0012446414
-1.259868739e-06
-0.0001223580947
1.072822754e-05
3.450041376e-06
1.251880857e-05
-1.889739789e-05
2.113872329e-05
-6.558863578e-05
0.0001055898663
-0.0007810468643
-0.0002254978785
-0.001638741989
-0.0002247018934
-0.001191361141
2.784923307e-05
-0.0005858051682
0.0008015121791
-0.001644783627
0.001315968825
-0.002069169825
0.001570295487
-0.002031191981
0.001620070493
-0.001904149613
0.001461229699
-0.001697551542
0.00112583299
-0.001375368075
0.0007514145028
-0.0009851633357
0.0005061813618
-0.0006366547769
0.0004434998451
-0.0004476628267
0.0005313664908
-0.0004373866458
0.001053795281
-0.0005909964898
0.001647352357
-0.0008178931765
0.002089827996
-0.001076387975
0.002393489005
-0.001518033871
0.002393235551
-0.002088649715
-0.01956093085
-0.0002111389048
-0.02187788844
-0.0002856605525
-0.001369890772
-0.0003342856871
-0.0004512929877
-0.000317130404
-0.0001535717658
-0.0003199649525
-0.0001685876242
-0.000377337379
-0.0002361643078
-0.0005077338599
-0.0005047383148
-0.0007950823859
-0.001032388035
-0.001078182072
-0.001736708839
-0.001090753374
-0.002059789682
-0.0009443105712
-0.001855881908
-0.0008534452126
-0.001566886085
-0.0007852057848
-0.001439356268
-0.0006010464514
-0.001303708156
-0.0003211106178
-0.0009441759645
-0.0001369695186
-0.0005158158478
-4.795750082e-05
-0.0002581465455
-5.16963781e-08
-0.0001037731908
-3.35492553e-08
-9.463954543e-08
3.169610748e-09
-1.726543398e-06
1.157420617e-07
-2.051055172e-07
1.029463763e-05
-2.257459997e-05
1.351662978e-05
-1.506160954e-05
8.01891363e-06
-1.583203543e-05
-0.0001998298648
0.00504257018
-2.904120856e-05
0.0005938537364
1.336992867e-05
0.000194717027
2.384328509e-05
0.0004865760088
6.596913351e-05
0.0002325854369
0.0001004216357
0.0001324655693
7.213786117e-06
-9.036966897e-06
-1.283519694e-06
-2.952452737e-06
-6.331793145e-06
-1.872240594e-06
-7.574077199e-05
3.777123076e-06
-0.0002922383605
-2.204244395e-06
0.0001577054497
-0.0005944476869
4.728099322e-05
-7.552035205e-07
1.272528554e-05
1.125999322e-05
1.087522814e-05
-3.856109514e-05
2.708909591e-05
-0.0001089120027
5.512557059e-05
-0.0007252627308
-0.0005034786965
-0.001845895006
-0.0003423277764
-0.001400383861
4.122539221e-06
-0.0006643013165
0.0008521292598
-0.001314151228
0.001461677896
-0.001673663236
0.001830342888
-0.001734983589
0.00200361377
-0.001740334886
0.00191014423
-0.00165101075
0.001535011842
-0.001390332862
0.001044100188
-0.001024165006
0.0006613485671
-0.0006791020042
0.0005041501312
-0.0004725606776
0.0005776453402
-0.0004596443291
0.0008910864173
-0.0006681278824
0.001437105849
-0.001127065526
0.002065684963
-0.00170852083
0.002654432786
-0.002590613827
0.002671737403
-0.003536805671
-0.0216725575
0.0004313743328
-0.02303026593
-0.0001028469292
-0.00149105747
-0.0001323118941
-0.0004258649477
-0.0001467629376
-0.0001475490601
-0.0002001914592
-0.0001931560965
-0.00033693863
-0.0003203179635
-0.0006538401594
-0.000676280995
-0.001109421169
-0.001360246994
-0.001373648743
-0.002066043696
-0.001271244708
-0.002165883877
-0.001062220638
-0.001809975676
-0.000921199927
-0.001470287215
-0.0007767437394
-0.001279329931
-0.0005271527466
-0.001055889732
-0.0002736529091
-0.000696654334
-0.0001273640526
-0.0003883260681
-4.914101073e-05
-0.0002160094365
-6.32533724e-08
-9.932109704e-05
-1.054192465e-06
-4.457532284e-07
1.287599412e-07
-5.525247443e-05
1.104754422e-07
-2.393750872e-07
1.844578911e-05
-4.457703421e-05
1.865137913e-05
-1.456302974e-05
7.809696659e-06
-1.359299442e-05
-0.0003367505838
0.00354671763
-3.380933979e-05
0.001257138734
4.99932368e-05
0.0003719754295
5.39813682e-05
0.0009786130113
9.676900374e-05
0.0004424328998
4.961004803e-05
4.010966582e-05
-3.989876979e-07
-1.207504229e-05
-7.870663817e-07
-8.646406937e-07
-3.424804775e-06
4.50241999e-07
-1.637620972e-05
1.152045353e-05
-7.623865176e-05
-5.552147488e-07
-2.792151442e-07
-0.001490365951
5.189104495e-07
5.410211023e-07
3.46570281e-06
8.726760857e-06
-1.821507053e-06
-0.0001307133697
2.432629407e-05
-0.00015192111
2.436788047e-05
-0.0005746416881
-0.0006514821454
-0.001713232721
-0.0004004313016
-0.001742079617
2.486605373e-05
-0.0007384079431
0.0008447600096
-0.0007428063026
0.001487451755
-0.0009518130992
0.001942937632
-0.001127595451
0.002191625244
-0.001271870088
0.002121341932
-0.001265051344
0.001727202078
-0.001096136366
0.001195363549
-0.0008327925057
0.0007756136056
-0.0006012407722
0.0005918554387
-0.000465480293
0.0006998605481
-0.0004987396239
0.001196923157
-0.0008063594328
0.002103906696
-0.001500176217
0.003236750893
-0.002465537216
0.004339067673
-0.003879621961
0.00435804324
-0.005297948034
-0.02257508716
0.0005571675692
-0.000100564068
-0.00012329608
-0.0001485259482
-0.0002365704596
-0.0004743506236
-0.0009521792469
-0.001479655241
-0.001713822389
-0.001630071062
-0.002256624242
-0.00139394368
-0.002102171198
-0.001116529551
-0.001623126339
-0.0009149981039
-0.001252868234
-0.0006985985505
-0.001012181469
-0.0004270823635
-0.0007513788471
-0.0002183070398
-0.0004725059114
-0.0001119196029
-0.0002776133682
-4.842919813e-05
-0.0001748502361
-1.159500789e-06
-9.936040488e-05
-4.942880492e-05
1.225383869e-06
4.72943427e-06
-0.001951648865
1.450142692e-07
-1.027876207e-09
-1.613755916e-06
-6.594140245e-05
3.017879285e-06
-1.197232724e-05
-0.0001475948896
1.791092606e-05
-0.0004224275663
0.001995462431
-2.423071172e-05
0.002001282543
8.065436977e-05
0.0004642455988
6.728768791e-05
0.00129153629
-1.945620467e-06
0.0003940710118
-8.730614245e-06
-1.308461074e-05
-6.911503429e-06
-2.565326823e-05
-5.654490515e-06
3.118917132e-06
-3.189674898e-05
1.291543504e-05
-0.0002149601208
6.152974044e-05
-0.0005157080633
-0.0006867066095
0.0003195570682
-0.0001492716272
0.0001297462707
-0.000166838023
5.4686321e-07
6.841689143e-06
-5.334811971e-05
-0.0001944583957
1.066721332e-05
-0.0001610545582
6.563487105e-05
-0.0004474943553
-0.000368328597
-0.001822350052
-0.0002732335644
-0.002464644975
0.0001122129953
-0.0009263353987
0.0005997799836
-6.88515251e-05
0.001069483532
-3.89318453e-05
0.00155715194
-0.0003877854097
0.001780659877
-0.0006402693982
0.001664616273
-0.0006726581765
0.001336635471
-0.0006271786334
0.0009798483796
-0.000553474155
0.0007212037162
-0.0004800389751
0.0006313605679
-0.000434141534
0.0008345537274
-0.0005094999054
0.001571510022
-0.0008837409231
0.002973463987
-0.001713121398
0.004801707705
-0.002953779737
0.006612885989
-0.004774777245
0.0065659883
-0.006524876506
-0.0219210945
-0.001859991995
-0.001812120292
-0.001432625739
-0.001088204406
-0.0008257476906
-0.0009558375027
-0.0005626133973
-0.0006977256762
-0.0003220581129
-0.0004793569941
-0.0001713317099
-0.000304201436
-9.897488838e-05
-0.0001966015039
-5.616601071e-05
-0.0001538024923
-5.036273317e-05
-0.0001683508247
-0.0006513949138
-0.0005599590073
-0.0001162096273
-0.01107987549
-0.0001132220912
-6.092230568e-05
-4.101205424e-05
-0.0001190876305
-2.795503848e-05
1.140378723e-05
-0.0002092516685
8.778810516e-05
-0.0003775153599
0.001025387648
-1.96540065e-05
0.002484543202
6.04012505e-05
0.0002866783391
4.541049171e-05
0.00112475383
-5.486802129e-06
5.294586372e-05
-2.405428827e-05
3.123725104e-06
-5.975374446e-05
-5.78448661e-05
-3.155518757e-05
-5.645273259e-05
-0.0003373937799
0.0005255151378
-0.001290070626
0.0007546320275
-0.0006387894823
0.0005168248874
-0.0006097726749
0.0005773771055
-0.0002708660055
-0.0001545717558
-0.0001578310845
-0.000203816594
-8.625120719e-05
-0.0002121620971
1.748463857e-06
-0.0001565890805
0.0001638032418
-0.0005497070763
0.000464868845
-0.004087964234
0.0002658441011
-0.004036409967
0.0003147136181
-0.001282345282
0.0004289246336
0.0006017706133
0.000611707462
0.0006029490988
0.000738174665
-0.0001471601301
0.0007317044846
-0.000578965318
0.0006874021413
-0.0005922128046
0.0006545458344
-0.0005587509037
0.0006281426229
-0.0005142031429
0.000608659507
-0.0004645713206
0.0006420108288
-0.0004275517976
0.0009078084719
-0.0004705286351
0.001756410998
-0.0007582776531
0.003437106183
-0.001444505423
0.005698655735
-0.002566712109
0.00800459929
-0.004352580637
0.007957903363
-0.00614133807
-0.01960942305
-0.0006570580058
-0.0004136693596
-0.0002371045846
-0.0002902086021
-0.0001379253603
-0.0001950390902
-0.0001046063111
-0.0001695818216
-0.0001482853792
-0.0002714511422
-0.0006276927672
-0.0007234200147
-0.002504328371
-0.003586854804
-0.00129477731
-0.01627750213
-0.001309062525
0.0004780192283
-0.0007936477581
0.000278095233
-0.0001575066709
0.0001405158363
-0.0002170758399
0.0001664640381
-0.0003425073577
0.0005302095918
-3.465186186e-05
0.002174179421
4.469757743e-06
4.415103331e-05
-4.649543538e-06
0.0004131093278
-0.0001078552509
-0.0001225215529
-0.0005619678142
9.913177223e-05
-0.001323704142
0.0003614477165
-0.00144763191
0.0006793709942
-0.00144620261
0.0009245079994
-0.001346182304
0.0009653701856
-0.001015454843
0.0007196885243
-0.000511802174
8.214678298e-05
-0.0003571193143
-0.0004083331707
-0.0001997113609
-0.0002448749967
-9.532961703e-05
-0.0002001488916
-9.477670665e-06
-0.0001976544977
0.0002224661589
-0.0008885758788
0.0008103460192
-0.006880274916
0.0002933863387
-0.005411683111
0.0003999176408
-0.001669905276
0.001267374052
0.001198178031
0.001746159562
-6.240306736e-06
0.001154491488
-0.0003579955555
0.0007537455954
-0.0004238917998
0.0006421369449
-0.0004496424522
0.0006385260436
-0.0004529931628
0.0006565606631
-0.0004403296017
0.0006717507411
-0.0004171103239
0.0007059663596
-0.0003920084505
0.0008822647586
-0.0003911021216
0.001516761714
-0.0005043617962
0.002884391923
-0.0008470537336
0.004841301175
-0.001505059527
0.007051921174
-0.00280773893
0.007248680418
-0.004373154329
-0.01675830703
-0.0001783673592
-0.0001530202073
-0.0003748117152
-0.001383009705
-0.003689750562
-0.002348603347
-0.006011860342
-0.005853378614
-0.001298552974
-0.01273751706
-0.0006489430463
-0.0007886248559
-0.001098843079
-0.0006035618102
-0.0004672018051
-0.0005691172623
-0.000180037708
-7.341871927e-05
-0.0002658674816
8.813656977e-05
-5.160558039e-05
0.001181527241
-0.0001414342254
-1.576754873e-05
-0.0006982134514
-7.176976544e-05
-0.001653357329
-0.0004563675694
-0.001544781686
-0.0005121189673
-0.001447659863
6.204758864e-05
-0.001534175745
0.000678472013
-0.001483963405
0.0009360486245
-0.001293065506
0.0008158302342
-0.001097668062
0.0003382251143
-0.0006031752403
-0.0003154144441
-0.0004069515564
-0.0002527485871
-0.000232347007
-0.0001856039017
-0.0001295068516
-0.0002456005145
-6.728941523e-05
-0.0004252012743
0.0003248214251
-0.001305726075
0.001230923911
-0.006640579472
0.0007503006147
-0.005127077284
0.000488755111
-0.002309909193
0.001208745223
-0.0005576809405
0.0007774442455
-0.0004622364422
0.0005410410054
-0.0003460381602
0.0004919821107
-0.000310731897
0.0005283566933
-0.0003159592053
0.0005932154723
-0.0003286538551
0.0006553617905
-0.0003356225627
0.0007034266679
-0.0003346312946
0.0007435204878
-0.0003275032234
0.0008161493191
-0.0003192263951
0.001063827482
-0.0003346333896
0.001709518065
-0.0004258859841
0.00279446847
-0.000693772176
0.004359228167
-0.001429434126
0.004933056018
-0.002652704122
-0.01509188853
-0.01221944318
-0.01035913289
0.00616911951
0.005388257297
0.01146203985
-0.0003798737177
0.004107655731
-0.001255619294
-0.0002284174296
-0.001068868964
-7.558611172e-05
-0.0002849022775
-0.0001129813379
-7.26525676e-05
-2.502147988e-05
0.000153493097
2.161810694e-05
-6.409407229e-05
6.004226083e-05
-8.526218111e-05
-0.001370745436
-0.0002442596161
-0.001378888931
-0.001124863088
-0.001334586335
-0.0006384585309
-0.001274198363
0.0001925011065
-0.001223653551
0.0007678197874
-0.001240274942
0.000745428432
-0.0009861145874
0.0001685488966
-0.0003391328492
-0.0001101305377
-0.0002833202153
-0.0001300665793
-0.0002683772979
-0.0002506530186
-0.000292306747
-0.00046325982
-0.0003244431816
-0.000762516389
0.0002845538749
-0.001193634072
0.001545304383
-0.003879429567
0.001831126481
-0.00352908244
0.001247101191
-0.002559123278
0.0008734049594
-0.001617567552
0.0005058568453
-0.0008652652944
0.0003588156867
-0.0004164660279
0.0003567568157
-0.0002389719378
0.0004220599458
-0.0001970259148
0.0005096050148
-0.0001987230987
0.0005969705084
-0.000209678786
0.0006748884936
-0.0002208114995
0.0007397999854
-0.0002310206855
0.0007878030217
-0.0002386357816
0.0008301233974
-0.000244063696
0.0009625117445
-0.0002661742762
0.001326053737
-0.0003556591796
0.002167593659
-0.0007345470256
0.002899056609
-0.001638906418
-0.01473592128
0.0002543065208
0.001586076154
0.001682884395
-2.120716523e-05
-4.542955716e-05
-0.0005515660943
-4.252266957e-05
-9.632402392e-05
-3.465272134e-05
-5.06657909e-05
-1.801792178e-05
-9.769740618e-05
-0.0001096202404
-5.739277024e-05
-0.001201864119
-0.0003162093835
-0.001855784025
-0.001121644799
-0.001849886915
-0.001369425516
-0.001284942159
-0.000866820569
-0.0009776625232
0.0002822336983
-0.0007886934233
0.0006870024486
-0.0002760722403
0.0002013250069