/*--------------------------------*- C++ -*----------------------------------*\
  =========                 |
  \\      /  F ield         | OpenFOAM: The Open Source CFD Toolbox
   \\    /   O peration     | Website:  https://openfoam.org
    \\  /    A nd           | Version:  8
     \\/     M anipulation  |
\*---------------------------------------------------------------------------*/
FoamFile
{
    version     2.0;
    format      ascii;
    class       volScalarField;
    location    "1.2/wallFilmRegion";
    object      sigma;
}
// * * * * * * * * * * * * * * * * * * * * * * * * * * * * * * * * * * * * * //

dimensions      [1 0 -2 0 0 0 0];

internalField   nonuniform List<scalar> 
1369
(
0.07244713438
0.07244713438
0.07244713438
0.07244713437
0.07244713434
0.07244713434
0.07244713434
0.07244713434
0.07244713433
0.07244713433
0.07244713433
0.07244713436
0.07244713438
0.0724471344
0.07244713441
0.07244713443
0.07244713444
0.07244713446
0.07244713448
0.07244713451
0.07244713453
0.07244713454
0.07244713451
0.07244713413
0.07244703382
0.07244648667
0.07244703206
0.07244713473
0.07244713505
0.07244713512
0.07244713513
0.07244713489
0.07244713466
0.07244713459
0.07244713462
0.07244713479
0.07244713477
0.07244713484
0.07244713489
0.07244713489
0.07244713488
0.07244713485
0.07244713484
0.07244713485
0.07244713486
0.07244713488
0.07244713488
0.07244713487
0.07244713487
0.07244713485
0.07244713483
0.07244713478
0.07244713465
0.07244713464
0.07244713465
0.07244713469
0.07244713474
0.07244713481
0.07244713486
0.07244713481
0.07244713437
0.07244713437
0.07244713437
0.07244713437
0.0724471343
0.07244713426
0.07244713426
0.07244713426
0.0724471343
0.07244713429
0.07244713365
0.07244713345
0.07244713348
0.0724471336
0.07244713381
0.07244713408
0.07244713424
0.07244713433
0.07244713439
0.07244713441
0.0724471344
0.07244713422
0.07244713347
0.07244713105
0.07244708063
0.07244652545
0.07244697693
0.07244713465
0.07244713456
0.07244713509
0.07244713531
0.07244713466
0.07244713441
0.07244713459
0.07244713468
0.07244713479
0.07244713476
0.0724471347
0.07244713483
0.07244713482
0.0724471347
0.0724471345
0.07244713423
0.07244713428
0.07244713469
0.07244713499
0.07244713498
0.07244713497
0.07244713495
0.07244713492
0.07244713488
0.07244713482
0.0724471346
0.07244713462
0.07244713463
0.07244713468
0.07244713475
0.07244713476
0.07244713476
0.07244713475
0.07244713436
0.07244713436
0.07244713436
0.07244713437
0.07244713436
0.07244713434
0.07244713425
0.07244713419
0.0724471343
0.0724471343
0.07244713367
0.07244713359
0.07244713361
0.0724471336
0.07244713355
0.07244713357
0.07244713388
0.07244713412
0.07244713422
0.07244713427
0.07244713429
0.07244713429
0.07244713429
0.07244713207
0.07244710101
0.07244659551
0.07244709414
0.07244713464
0.07244713455
0.0724471351
0.07244713524
0.07244713474
0.07244713453
0.07244713465
0.07244713471
0.0724471348
0.07244713477
0.07244713472
0.07244713478
0.07244713479
0.0724471348
0.07244713486
0.0724471349
0.072447135
0.07244713508
0.07244713506
0.07244713504
0.07244713501
0.07244713497
0.07244713492
0.07244713487
0.07244713482
0.07244713461
0.07244713464
0.07244713469
0.07244713464
0.07244713465
0.07244713464
0.07244713461
0.07244713459
0.07244713437
0.07244713436
0.07244713436
0.07244713436
0.07244713436
0.07244713435
0.07244713432
0.07244713431
0.07244713432
0.07244713431
0.0724471338
0.07244713386
0.07244713394
0.07244713399
0.07244713395
0.07244713363
0.07244713227
0.07244712474
0.07244710365
0.07244707564
0.07244710207
0.07244712551
0.0724471342
0.07244713399
0.07244712208
0.07244704972
0.07244713386
0.07244713459
0.07244713455
0.07244713494
0.07244713501
0.0724471348
0.07244713457
0.07244713465
0.0724471347
0.07244713479
0.07244713478
0.07244713473
0.07244713469
0.07244713465
0.07244713467
0.07244713493
0.07244713514
0.07244713522
0.07244713521
0.07244713514
0.07244713508
0.07244713502
0.07244713495
0.07244713488
0.07244713483
0.07244713479
0.07244713459
0.07244713459
0.0724471346
0.0724471346
0.0724471346
0.0724471346
0.07244713462
0.0724471347
0.07244713439
0.07244713436
0.07244713436
0.07244713436
0.07244713435
0.07244713435
0.07244713434
0.07244713433
0.07244713433
0.07244713431
0.07244713397
0.07244713405
0.07244713413
0.07244713419
0.07244713418
0.07244713401
0.07244713321
0.07244712768
0.07244706745
0.07244697665
0.07244703523
0.07244711
0.07244713452
0.07244713454
0.0724471346
0.07244713463
0.07244713462
0.07244713444
0.07244713462
0.07244713479
0.07244713481
0.07244713473
0.07244713457
0.0724471346
0.07244713465
0.07244713478
0.07244713477
0.07244713474
0.0724471347
0.07244713462
0.07244713463
0.0724471347
0.07244713486
0.07244713503
0.07244713503
0.07244713505
0.07244713502
0.07244713495
0.07244713487
0.07244713481
0.07244713477
0.07244713475
0.07244713458
0.07244713455
0.07244713455
0.07244713456
0.07244713457
0.07244713458
0.07244713463
0.07244713476
0.07244713439
0.07244713432
0.07244713433
0.07244713435
0.07244713435
0.07244713435
0.07244713434
0.07244713433
0.07244713433
0.0724471343
0.07244713413
0.07244713419
0.07244713425
0.07244713431
0.07244713431
0.07244713419
0.07244713365
0.07244713016
0.07244704376
0.0724469255
0.07244700388
0.07244710544
0.07244712219
0.07244713288
0.07244713467
0.07244713467
0.07244713445
0.07244713394
0.07244713409
0.07244713425
0.07244713431
0.0724471345
0.07244713448
0.07244713446
0.07244713442
0.07244713475
0.0724471347
0.0724471346
0.0724471344
0.07244713421
0.07244713474
0.07244713479
0.07244713479
0.0724471349
0.07244713489
0.07244713489
0.07244713487
0.07244713481
0.07244713473
0.07244713467
0.07244713465
0.07244713466
0.07244713469
0.07244713464
0.07244713454
0.07244713454
0.07244713456
0.07244713459
0.0724471347
0.07244713476
0.07244713437
0.07244713426
0.07244713432
0.07244713434
0.07244713435
0.07244713434
0.07244713433
0.07244713431
0.0724471343
0.07244713419
0.07244713426
0.07244713428
0.07244713433
0.07244713439
0.0724471344
0.0724471343
0.07244713391
0.07244713187
0.07244700888
0.07244685252
0.0724469792
0.07244711422
0.07244712201
0.0724471288
0.07244713474
0.07244713444
0.07244713337
0.07244713306
0.07244713332
0.07244713345
0.07244713355
0.07244713367
0.07244713385
0.07244713422
0.07244712343
0.07244712797
0.07244712607
0.0724471235
0.07244713066
0.07244713206
0.07244713496
0.07244713487
0.07244713469
0.07244713477
0.0724471348
0.07244713479
0.07244713476
0.0724471347
0.07244713462
0.07244713454
0.0724471345
0.07244713451
0.07244713457
0.07244713466
0.07244713467
0.07244713459
0.07244713457
0.07244713465
0.07244713468
0.07244713474
0.07244713438
0.0724471343
0.0724471343
0.07244713433
0.07244713433
0.07244713432
0.07244713431
0.07244713428
0.0724471342
0.07244713432
0.07244713435
0.07244713436
0.0724471344
0.07244713444
0.07244713445
0.07244713437
0.07244713407
0.07244713292
0.07244696184
0.07244675602
0.07244696212
0.07244712259
0.0724471263
0.07244712893
0.07244713476
0.07244713434
0.07244713216
0.07244713381
0.07244713246
0.07244713198
0.07244713306
0.07244713243
0.07244713197
0.07244713388
0.07244711959
0.07244713173
0.07244713024
0.07244712733
0.07244713159
0.0724471323
0.07244713506
0.07244713491
0.07244713461
0.07244713466
0.07244713478
0.07244713477
0.07244713475
0.07244713471
0.07244713465
0.07244713456
0.07244713445
0.0724471344
0.07244713443
0.07244713452
0.07244713466
0.07244713463
0.07244713466
0.07244713471
0.07244713473
0.07244713474
0.07244713441
0.07244713433
0.07244713426
0.07244713429
0.0724471343
0.07244713429
0.07244713426
0.07244713417
0.07244713435
0.07244713441
0.07244713442
0.07244713443
0.07244713445
0.07244713448
0.07244713448
0.0724471344
0.07244713416
0.0724471335
0.07244690708
0.07244667288
0.07244696132
0.072447128
0.07244712943
0.07244713008
0.07244713476
0.07244713466
0.07244713397
0.07244713442
0.07244713386
0.07244713341
0.07244713318
0.07244713108
0.07244713027
0.07244713306
0.07244713381
0.0724471348
0.07244713476
0.07244713278
0.07244713228
0.07244713277
0.07244713515
0.07244713493
0.07244713462
0.07244713466
0.07244713479
0.07244713479
0.07244713477
0.07244713475
0.07244713471
0.07244713464
0.07244713453
0.07244713441
0.07244713436
0.07244713443
0.07244713456
0.07244713464
0.07244713471
0.07244713477
0.07244713483
0.07244713476
0.07244713442
0.07244713437
0.07244713399
0.07244713372
0.07244713371
0.07244713386
0.07244713413
0.07244713434
0.07244713444
0.07244713447
0.07244713448
0.07244713448
0.0724471345
0.07244713451
0.0724471345
0.07244713441
0.0724471342
0.07244713376
0.07244685566
0.07244699457
0.07244698016
0.07244713142
0.07244713156
0.07244713125
0.07244713476
0.07244713479
0.07244713443
0.07244713458
0.07244713416
0.07244713381
0.07244713349
0.07244712823
0.07244712572
0.07244713365
0.0724471346
0.07244713495
0.07244713471
0.07244713334
0.07244713234
0.07244713354
0.07244713522
0.07244713496
0.07244713473
0.07244713474
0.0724471348
0.0724471348
0.07244713479
0.07244713477
0.07244713474
0.07244713469
0.0724471346
0.07244713448
0.07244713438
0.07244713443
0.07244713457
0.07244713469
0.07244713478
0.07244713486
0.07244713491
0.07244713479
0.07244713443
0.07244713442
0.07244713397
0.07244713364
0.0724471338
0.07244713407
0.07244713431
0.07244713444
0.0724471345
0.07244713453
0.07244713453
0.07244713453
0.07244713453
0.07244713453
0.0724471345
0.07244713439
0.07244713419
0.07244713384
0.07244696283
0.07244712925
0.07244701117
0.07244713334
0.07244713284
0.07244713224
0.07244713475
0.07244713485
0.07244713458
0.07244713463
0.07244713423
0.07244713385
0.07244713323
0.07244712318
0.07244712221
0.07244713233
0.07244713428
0.07244713489
0.07244712653
0.07244713136
0.07244713343
0.07244713432
0.07244713529
0.07244713502
0.07244713487
0.07244713482
0.0724471348
0.0724471348
0.0724471348
0.07244713478
0.07244713476
0.07244713471
0.07244713464
0.07244713452
0.07244713442
0.07244713446
0.07244713461
0.07244713474
0.07244713483
0.0724471349
0.07244713495
0.07244713481
0.07244713444
0.07244713443
0.072447134
0.07244713374
0.07244713398
0.07244713425
0.07244713442
0.07244713451
0.07244713456
0.07244713457
0.07244713457
0.07244713456
0.07244713455
0.07244713454
0.07244713448
0.07244713435
0.07244713414
0.07244713384
0.0724471236
0.07244713452
0.07244706636
0.07244713426
0.07244713343
0.07244713396
0.07244713475
0.07244713486
0.07244713459
0.07244713461
0.07244713419
0.07244713381
0.07244713393
0.07244713315
0.07244713227
0.07244713421
0.07244713486
0.07244713494
0.07244713475
0.07244713361
0.0724471344
0.07244713477
0.07244713535
0.07244713514
0.07244713502
0.0724471349
0.0724471348
0.0724471348
0.07244713479
0.07244713477
0.07244713474
0.0724471347
0.07244713463
0.07244713453
0.07244713444
0.07244713449
0.07244713464
0.07244713477
0.07244713485
0.07244713492
0.07244713496
0.07244713482
0.07244713457
0.07244713459
0.0724471346
0.07244713459
0.07244713458
0.07244713456
0.07244713452
0.07244713444
0.07244713427
0.07244713409
0.07244713391
0.07244713409
0.07244713483
0.07244713476
0.07244713486
0.07244713416
0.07244713402
0.07244713468
0.07244713485
0.0724471344
0.07244713451
0.07244713422
0.07244713441
0.07244713507
0.0724471354
0.07244713577
0.07244713536
0.07244713519
0.07244713537
0.07244713513
0.07244713471
0.07244713494
0.07244713501
0.07244713536
0.07244713525
0.07244713515
0.07244713499
0.07244713485
0.0724471348
0.07244713477
0.07244713472
0.07244713467
0.07244713463
0.07244713458
0.07244713452
0.07244713446
0.0724471345
0.07244713464
0.07244713477
0.07244713485
0.07244713491
0.07244713495
0.07244713481
0.07244713458
0.07244713455
0.07244713448
0.07244713436
0.07244713418
0.0724471341
0.07244713433
0.07244713471
0.07244713486
0.07244713518
0.07244713525
0.07244713518
0.0724471344
0.07244713453
0.0724471348
0.07244713421
0.07244713444
0.0724471353
0.0724471356
0.0724471357
0.0724471357
0.07244713564
0.07244713552
0.07244713551
0.07244713539
0.07244713499
0.072447135
0.07244713509
0.07244713511
0.07244713533
0.07244713516
0.0724471351
0.07244713495
0.07244713485
0.07244713481
0.07244713477
0.07244713472
0.07244713467
0.07244713463
0.07244713459
0.07244713455
0.0724471345
0.0724471345
0.0724471346
0.07244713473
0.07244713481
0.07244713488
0.07244713491
0.07244713477
0.07244713441
0.07244713424
0.07244713416
0.0724471344
0.07244713463
0.07244713475
0.07244713481
0.0724471348
0.07244713488
0.07244713482
0.07244713481
0.07244713438
0.07244713471
0.0724471349
0.07244713535
0.0724471356
0.07244713564
0.07244713569
0.07244713569
0.07244713565
0.0724471356
0.07244713557
0.07244713542
0.07244713507
0.07244713511
0.07244713514
0.07244713511
0.07244713525
0.07244713505
0.07244713501
0.07244713487
0.07244713482
0.07244713477
0.0724471347
0.07244713466
0.07244713463
0.07244713462
0.0724471346
0.07244713457
0.07244713453
0.0724471345
0.07244713452
0.07244713462
0.07244713472
0.0724471348
0.07244713484
0.07244713471
0.07244713474
0.07244713478
0.07244713482
0.07244713472
0.07244713494
0.0724471349
0.07244713505
0.07244713483
0.07244713446
0.07244713455
0.07244713499
0.07244713543
0.07244713548
0.07244713557
0.07244713567
0.07244713566
0.07244713563
0.07244713556
0.07244713537
0.07244713508
0.07244713506
0.07244713501
0.072447135
0.07244713511
0.07244713494
0.0724471349
0.07244713482
0.07244713474
0.07244713468
0.07244713463
0.0724471346
0.07244713459
0.07244713459
0.07244713458
0.07244713457
0.07244713454
0.07244713451
0.07244713447
0.07244713448
0.07244713456
0.07244713468
0.07244713474
0.07244713464
0.07244713476
0.07244713468
0.07244713506
0.07244713509
0.07244713576
0.0724471355
0.07244713459
0.07244713523
0.07244713506
0.07244713529
0.07244713537
0.07244713545
0.07244713554
0.07244713562
0.0724471356
0.07244713546
0.07244713501
0.07244713478
0.07244713473
0.07244713478
0.07244713486
0.07244713493
0.07244713484
0.07244713482
0.07244713479
0.07244713475
0.07244713471
0.07244713465
0.07244713458
0.07244713455
0.07244713454
0.07244713455
0.07244713455
0.07244713453
0.07244713451
0.07244713446
0.07244713441
0.07244713442
0.07244713455
0.07244713465
0.07244713459
0.07244713562
0.07244713594
0.07244713558
0.07244713605
0.07244713567
0.07244713546
0.07244713539
0.07244713544
0.07244713549
0.07244713551
0.07244713555
0.07244713536
0.07244713421
0.0724471344
0.07244713455
0.07244713468
0.07244713476
0.07244713478
0.07244713481
0.0724471348
0.07244713478
0.07244713476
0.07244713473
0.0724471347
0.07244713462
0.07244713451
0.07244713445
0.07244713445
0.07244713447
0.07244713448
0.07244713447
0.07244713443
0.07244713436
0.07244713431
0.07244713441
0.07244713458
0.07244713457
0.07244713626
0.07244713645
0.07244713625
0.07244713594
0.07244713545
0.07244713548
0.07244713551
0.07244713548
0.07244713539
0.07244713513
0.07244713466
0.07244713463
0.07244713459
0.07244713466
0.07244713472
0.07244713474
0.07244713481
0.07244713481
0.07244713478
0.07244713476
0.07244713474
0.07244713472
0.07244713467
0.07244713462
0.07244713456
0.07244713451
0.07244713448
0.07244713445
0.07244713439
0.07244713431
0.07244713421
0.07244713414
0.07244713428
0.07244713453
0.07244713456
0.07244713645
0.07244713645
0.07244713629
0.07244713479
0.07244713527
0.07244713556
0.07244713552
0.07244713535
0.07244713521
0.07244713511
0.07244713487
0.07244713436
0.07244713393
0.07244713355
0.07244713437
0.07244713477
0.07244713474
0.07244713466
0.07244713466
0.0724471347
0.07244713471
0.07244713469
0.07244713467
0.07244713465
0.07244713462
0.07244713458
0.07244713452
0.07244713449
0.07244713445
0.07244713436
0.07244713422
0.07244713425
0.07244713451
0.07244713456
0.07244713618
0.0724471365
0.07244713635
0.07244713154
0.07244712571
0.07244713514
0.07244713587
0.07244713564
0.07244713543
0.07244713527
0.07244713476
0.07244713433
0.07244713409
0.07244713365
0.07244713433
0.07244713477
0.07244713472
0.07244713464
0.0724471346
0.07244713461
0.07244713462
0.07244713463
0.07244713461
0.07244713457
0.07244713453
0.0724471345
0.07244713447
0.07244713465
0.0724471348
0.07244713478
0.0724471346
0.0724471344
0.07244713451
0.07244713456
0.07244713606
0.07244713627
0.07244713609
0.07244713543
0.07244713592
0.07244713587
0.07244713587
0.07244713589
0.07244713548
0.07244713488
0.07244713454
0.07244713425
0.07244713383
0.07244713433
0.07244713475
0.07244713469
0.07244713461
0.07244713455
0.07244713452
0.07244713449
0.07244713444
0.07244713437
0.07244713436
0.0724471344
0.07244713444
0.07244713447
0.07244713481
0.07244713501
0.07244713499
0.07244713481
0.07244713455
0.07244713453
0.07244713456
0.0724471364
0.07244713623
0.07244713607
0.07244713593
0.07244713567
0.07244713579
0.0724471356
0.072447136
0.07244713559
0.07244713499
0.07244713471
0.07244713435
0.07244713395
0.07244713429
0.07244713465
0.07244713458
0.07244713455
0.07244713454
0.07244713453
0.0724471345
0.07244713442
0.07244713436
0.0724471344
0.07244713445
0.07244713449
0.07244713451
0.07244713452
0.07244713452
0.07244713451
0.0724471345
0.07244713448
0.0724471345
0.07244713455
0.07244713621
0.07244713616
0.07244713608
0.07244713594
0.07244713565
0.07244713548
0.07244713546
0.07244713604
0.0724471354
0.07244713506
0.07244713485
0.07244713437
0.07244713395
0.07244713422
0.07244713445
0.07244713451
0.07244713453
0.07244713458
0.07244713461
0.07244713462
0.0724471346
0.07244713457
0.07244713455
0.07244713454
0.07244713453
0.07244713453
0.07244713454
0.07244713454
0.07244713453
0.07244713453
0.0724471345
0.07244713448
0.07244713452
0.07244713597
0.07244713593
0.07244713595
0.07244713581
0.07244713553
0.07244713572
0.07244713602
0.07244713541
0.07244713515
0.0724471351
0.0724471344
0.07244713372
0.07244713398
0.07244713431
0.07244713441
0.07244713447
0.07244713468
0.07244713471
0.07244713471
0.07244713469
0.07244713466
0.07244713463
0.0724471346
0.07244713456
0.07244713451
0.07244713448
0.07244713446
0.07244713444
0.07244713442
0.07244713438
0.07244713433
0.07244713448
0.07244713618
0.07244713616
0.07244713595
0.07244713597
0.07244713601
0.07244713594
0.07244713544
0.07244713529
0.07244713548
0.07244713493
0.0724471318
0.07244713411
0.07244713444
0.07244713458
0.07244713466
0.07244713475
0.07244713473
0.07244713471
0.07244713468
0.07244713465
0.07244713461
0.07244713455
0.07244713447
0.07244713439
0.07244713432
0.07244713427
0.07244713424
0.07244713422
0.07244713424
0.07244713426
0.07244713444
0.07244713609
0.07244713626
0.0724471361
0.07244713603
0.07244713609
0.07244713598
0.07244713563
0.07244713558
0.07244713565
0.07244713531
0.07244713501
0.07244713485
0.07244713484
0.07244713489
0.07244713485
0.0724471348
0.07244713473
0.0724471347
0.07244713469
0.07244713461
0.07244713452
0.0724471344
0.07244713429
0.0724471342
0.07244713414
0.07244713411
0.07244713409
0.0724471341
0.07244713415
0.07244713424
0.07244713444
0.07244713578
0.07244713623
0.07244713614
0.07244713604
0.07244713603
0.07244713594
0.0724471357
0.0724471357
0.07244713577
0.07244713548
0.07244713474
0.07244713492
0.07244713501
0.0724471349
0.07244713487
0.07244713465
0.07244713457
0.07244713466
0.07244713685
0.07244713527
0.07244713392
0.07244713364
0.07244713369
0.07244713377
0.07244713383
0.07244713389
0.07244713393
0.07244713398
0.07244713405
0.07244713419
0.07244713445
0.07244713585
0.07244713579
0.07244713554
0.07244713537
0.07244713453
0.07244713434
0.07244713474
0.07244713453
0.07244713056
0.07244712978
0.0724471316
0.07244713426
0.07244713748
0.07244713776
0.07244713738
0.07244713594
0.07244713426
0.07244713359
0.07244713353
0.0724471336
0.07244713367
0.07244713374
0.07244713381
0.07244713392
0.07244713411
0.07244713445
0.07244713604
0.0724471356
0.07244713533
0.07244713502
0.07244713421
0.07244712437
0.07244710415
0.07244707687
0.07244700884
0.072447077
0.07244710549
0.07244712017
0.07244712755
0.07244713784
0.07244713774
0.07244713723
0.07244713594
0.0724471347
0.07244713417
0.07244713403
0.07244713399
0.07244713398
0.07244713398
0.07244713402
0.0724471341
0.07244713444
)
;

boundaryField
{
    walls
    {
        type            zeroGradient;
    }
    wallFilmFace_top
    {
        type            zeroGradient;
    }
    region0_to_wallFilmRegion_wallFilmFace
    {
        type            zeroGradient;
    }
    mirrorFace_top
    {
        type            zeroGradient;
    }
    region0_to_wallFilmRegion_mirrorFace
    {
        type            zeroGradient;
    }
    procBoundary0to1
    {
        type            processor;
        value           nonuniform List<scalar> 
52
(
0.07244713445
0.07244713444
0.07244713404
0.0724471339
0.07244713417
0.07244713439
0.07244713451
0.07244713451
0.07244713461
0.07244713462
0.07244713462
0.07244713461
0.07244713461
0.07244713457
0.07244713451
0.07244713451
0.07244713429
0.07244713419
0.07244713448
0.07244713468
0.07244713468
0.07244712995
0.07244713399
0.07244713399
0.07244713473
0.07244713501
0.0724471352
0.0724471352
0.0724471352
0.0724471368
0.07244713629
0.07244713629
0.07244713646
0.07244713646
0.07244713637
0.07244713598
0.07244713598
0.07244713619
0.07244713634
0.072447136
0.072447136
0.07244713598
0.07244713598
0.07244713599
0.07244713591
0.07244713586
0.0724471361
0.07244713617
0.07244713622
0.07244713608
0.07244713608
0.07244713622
)
;
    }
    procBoundary0to2
    {
        type            processor;
        value           nonuniform List<scalar> 
26
(
0.0724471356
0.07244713528
0.07244713519
0.07244713506
0.07244713478
0.07244712422
0.07244709817
0.07244705991
0.07244689401
0.07244702894
0.07244708142
0.07244710729
0.07244711999
0.07244713792
0.0724471379
0.07244713774
0.07244713712
0.07244713579
0.07244713471
0.07244713429
0.07244713418
0.07244713415
0.07244713415
0.07244713417
0.07244713421
0.07244713443
)
;
    }
}


// ************************************************************************* //
