/*--------------------------------*- C++ -*----------------------------------*\
  =========                 |
  \\      /  F ield         | OpenFOAM: The Open Source CFD Toolbox
   \\    /   O peration     | Website:  https://openfoam.org
    \\  /    A nd           | Version:  8
     \\/     M anipulation  |
\*---------------------------------------------------------------------------*/
FoamFile
{
    version     2.0;
    format      ascii;
    class       volScalarField;
    location    "1.2/wallFilmRegion";
    object      T;
}
// * * * * * * * * * * * * * * * * * * * * * * * * * * * * * * * * * * * * * //

dimensions      [0 0 0 1 0 0 0];

internalField   nonuniform List<scalar> 
1369
(
300.0000022
300.0000022
300.0000022
300.0000023
300.0000024
300.0000024
300.0000024
300.0000024
300.0000025
300.0000025
300.0000025
300.0000023
300.0000022
300.0000021
300.000002
300.000002
300.0000019
300.0000018
300.0000017
300.0000016
300.0000015
300.0000014
300.0000016
300.0000035
300.0005062
300.0032485
300.0005151
300.0000005
299.9999989
299.9999985
299.9999984
299.9999997
300.0000008
300.0000012
300.000001
300.0000002
300.0000003
299.9999999
299.9999997
299.9999997
299.9999997
299.9999999
299.9999999
299.9999999
299.9999998
299.9999997
299.9999997
299.9999997
299.9999998
299.9999999
300
300.0000002
300.0000009
300.0000009
300.0000009
300.0000007
300.0000004
300.0000001
299.9999998
300.0000001
300.0000023
300.0000023
300.0000023
300.0000023
300.0000026
300.0000028
300.0000028
300.0000028
300.0000026
300.0000027
300.0000059
300.0000069
300.0000067
300.0000061
300.0000051
300.0000037
300.0000029
300.0000025
300.0000022
300.0000021
300.0000021
300.000003
300.0000068
300.0000189
300.0002716
300.0030541
300.0007914
300.0000009
300.0000013
299.9999986
299.9999976
300.0000008
300.0000021
300.0000012
300.0000007
300.0000001
300.0000003
300.0000006
300
300
300.0000006
300.0000016
300.000003
300.0000027
300.0000007
299.9999992
299.9999992
299.9999993
299.9999994
299.9999995
299.9999997
300
300.0000011
300.000001
300.0000009
300.0000007
300.0000004
300.0000003
300.0000003
300.0000004
300.0000023
300.0000023
300.0000023
300.0000023
300.0000023
300.0000024
300.0000029
300.0000032
300.0000026
300.0000026
300.0000058
300.0000062
300.0000061
300.0000061
300.0000064
300.0000063
300.0000048
300.0000035
300.000003
300.0000028
300.0000027
300.0000027
300.0000027
300.0000138
300.0001695
300.0027029
300.0002039
300.0000009
300.0000014
299.9999986
299.9999979
300.0000004
300.0000015
300.0000009
300.0000006
300.0000001
300.0000003
300.0000005
300.0000002
300.0000002
300.0000001
299.9999998
299.9999996
299.9999991
299.9999987
299.9999988
299.9999989
299.9999991
299.9999993
299.9999995
299.9999998
300
300.0000011
300.0000009
300.0000007
300.0000009
300.0000009
300.0000009
300.000001
300.0000012
300.0000023
300.0000023
300.0000023
300.0000023
300.0000023
300.0000024
300.0000025
300.0000026
300.0000025
300.0000026
300.0000051
300.0000048
300.0000044
300.0000042
300.0000044
300.000006
300.0000128
300.0000505
300.0001562
300.0002966
300.0001642
300.0000467
300.0000031
300.0000042
300.0000639
300.0004265
300.0000048
300.0000012
300.0000014
299.9999994
299.9999991
300.0000001
300.0000013
300.0000009
300.0000006
300.0000002
300.0000002
300.0000005
300.0000007
300.0000009
300.0000008
299.9999994
299.9999984
299.999998
299.999998
299.9999984
299.9999987
299.999999
299.9999994
299.9999997
300
300.0000002
300.0000012
300.0000012
300.0000011
300.0000011
300.0000011
300.0000011
300.000001
300.0000006
300.0000022
300.0000023
300.0000023
300.0000023
300.0000023
300.0000024
300.0000024
300.0000025
300.0000025
300.0000026
300.0000043
300.0000039
300.0000035
300.0000032
300.0000032
300.0000041
300.0000081
300.0000358
300.0003377
300.0007927
300.0004991
300.0001244
300.0000015
300.0000014
300.0000011
300.000001
300.000001
300.0000019
300.000001
300.0000002
300.0000001
300.0000005
300.0000013
300.0000011
300.0000009
300.0000002
300.0000003
300.0000004
300.0000006
300.000001
300.0000009
300.0000006
299.9999998
299.9999989
299.999999
299.9999989
299.999999
299.9999993
299.9999997
300.0000001
300.0000003
300.0000004
300.0000012
300.0000014
300.0000014
300.0000013
300.0000013
300.0000012
300.000001
300.0000003
300.0000022
300.0000025
300.0000025
300.0000024
300.0000024
300.0000024
300.0000024
300.0000025
300.0000025
300.0000026
300.0000035
300.0000032
300.0000029
300.0000026
300.0000026
300.0000032
300.0000059
300.0000234
300.0004564
300.0010491
300.0006562
300.0001473
300.0000633
300.0000097
300.0000008
300.0000008
300.0000019
300.0000044
300.0000037
300.0000029
300.0000026
300.0000016
300.0000017
300.0000018
300.000002
300.0000004
300.0000006
300.0000011
300.0000021
300.0000031
300.0000004
300.0000002
300.0000001
299.9999996
299.9999997
299.9999996
299.9999998
300.0000001
300.0000005
300.0000008
300.0000009
300.0000008
300.0000007
300.0000009
300.0000014
300.0000014
300.0000013
300.0000012
300.0000006
300.0000003
300.0000023
300.0000028
300.0000025
300.0000024
300.0000024
300.0000024
300.0000025
300.0000026
300.0000026
300.0000032
300.0000028
300.0000027
300.0000025
300.0000022
300.0000021
300.0000026
300.0000046
300.0000148
300.0006312
300.0014149
300.0007799
300.0001032
300.0000642
300.0000302
300.0000004
300.0000019
300.0000073
300.0000088
300.0000075
300.0000069
300.0000064
300.0000058
300.0000049
300.000003
300.0000571
300.0000343
300.0000439
300.0000567
300.0000209
300.0000138
299.9999993
299.9999998
300.0000006
300.0000003
300.0000001
300.0000002
300.0000003
300.0000006
300.000001
300.0000014
300.0000016
300.0000016
300.0000013
300.0000008
300.0000008
300.0000012
300.0000013
300.0000009
300.0000007
300.0000004
300.0000022
300.0000026
300.0000026
300.0000025
300.0000025
300.0000025
300.0000026
300.0000027
300.0000031
300.0000025
300.0000024
300.0000023
300.0000021
300.0000019
300.0000019
300.0000023
300.0000038
300.0000095
300.0008669
300.0018985
300.0008655
300.0000613
300.0000427
300.0000296
300.0000003
300.0000024
300.0000133
300.0000051
300.0000118
300.0000143
300.0000088
300.000012
300.0000143
300.0000047
300.0000764
300.0000155
300.000023
300.0000375
300.0000162
300.0000126
299.9999988
299.9999995
300.0000011
300.0000008
300.0000002
300.0000003
300.0000004
300.0000005
300.0000009
300.0000013
300.0000019
300.0000021
300.000002
300.0000015
300.0000008
300.000001
300.0000008
300.0000006
300.0000005
300.0000004
300.0000021
300.0000025
300.0000028
300.0000027
300.0000026
300.0000027
300.0000028
300.0000033
300.0000023
300.0000021
300.000002
300.000002
300.0000019
300.0000017
300.0000017
300.0000021
300.0000033
300.0000067
300.0011414
300.0023152
300.0008696
300.0000342
300.000027
300.0000238
300.0000003
300.0000008
300.0000043
300.000002
300.0000048
300.0000071
300.0000083
300.0000188
300.0000228
300.0000088
300.0000051
300.0000001
300.0000003
300.0000103
300.0000128
300.0000103
299.9999984
299.9999995
300.000001
300.0000008
300.0000002
300.0000002
300.0000002
300.0000004
300.0000006
300.0000009
300.0000015
300.0000021
300.0000023
300.000002
300.0000013
300.0000009
300.0000006
300.0000003
300
300.0000003
300.000002
300.0000023
300.0000042
300.0000055
300.0000056
300.0000048
300.0000035
300.0000024
300.0000019
300.0000018
300.0000017
300.0000017
300.0000016
300.0000016
300.0000016
300.0000021
300.0000031
300.0000053
300.0013991
300.0007029
300.0007751
300.0000171
300.0000164
300.0000179
300.0000003
300.0000002
300.000002
300.0000012
300.0000033
300.0000051
300.0000067
300.000033
300.0000456
300.0000059
300.0000011
299.9999994
300.0000006
300.0000074
300.0000124
300.0000064
299.999998
299.9999993
300.0000005
300.0000004
300.0000001
300.0000001
300.0000002
300.0000003
300.0000004
300.0000007
300.0000011
300.0000017
300.0000022
300.000002
300.0000013
300.0000007
300.0000002
299.9999998
299.9999995
300.0000002
300.000002
300.000002
300.0000043
300.0000059
300.0000051
300.0000038
300.0000026
300.0000019
300.0000016
300.0000015
300.0000015
300.0000015
300.0000015
300.0000015
300.0000016
300.0000022
300.0000032
300.0000049
300.000862
300.0000279
300.0006197
300.0000074
300.0000099
300.000013
300.0000003
299.9999999
300.0000012
300.000001
300.000003
300.0000049
300.000008
300.0000584
300.0000632
300.0000125
300.0000027
299.9999997
300.0000416
300.0000173
300.000007
300.0000025
299.9999976
299.999999
299.9999997
300
300.0000001
300.0000001
300.0000001
300.0000002
300.0000003
300.0000006
300.0000009
300.0000015
300.000002
300.0000018
300.0000011
300.0000004
300
299.9999996
299.9999994
300.0000001
300.0000019
300.000002
300.0000041
300.0000054
300.0000042
300.0000029
300.000002
300.0000016
300.0000013
300.0000013
300.0000013
300.0000013
300.0000014
300.0000014
300.0000017
300.0000024
300.0000034
300.000005
300.0000562
300.0000015
300.0003431
300.0000028
300.000007
300.0000043
300.0000004
299.9999998
300.0000012
300.0000011
300.0000032
300.0000051
300.0000045
300.0000084
300.0000128
300.0000031
299.9999998
299.9999994
300.0000004
300.0000061
300.0000021
300.0000003
299.9999974
299.9999984
299.999999
299.9999996
300.0000001
300.0000001
300.0000001
300.0000003
300.0000004
300.0000006
300.000001
300.0000015
300.0000019
300.0000017
300.0000009
300.0000003
299.9999999
299.9999995
299.9999993
300
300.0000013
300.0000011
300.0000011
300.0000011
300.0000012
300.0000013
300.0000015
300.0000019
300.0000028
300.0000037
300.0000046
300.0000037
300
300.0000003
299.9999998
300.0000033
300.000004
300.0000007
299.9999999
300.0000021
300.0000016
300.000003
300.0000021
299.9999988
299.9999971
299.9999952
299.9999973
299.9999982
299.9999973
299.9999985
300.0000006
299.9999994
299.9999991
299.9999973
299.9999979
299.9999984
299.9999992
299.9999999
300.0000001
300.0000003
300.0000005
300.0000007
300.000001
300.0000012
300.0000015
300.0000018
300.0000016
300.0000009
300.0000003
299.9999999
299.9999996
299.9999994
300.0000001
300.0000012
300.0000014
300.0000017
300.0000023
300.0000032
300.0000036
300.0000025
300.0000006
299.9999998
299.9999982
299.9999979
299.9999982
300.0000021
300.0000015
300.0000001
300.0000031
300.0000019
299.9999976
299.9999961
299.9999956
299.9999956
299.9999959
299.9999965
299.9999966
299.9999971
299.9999992
299.9999991
299.9999986
299.9999985
299.9999974
299.9999983
299.9999986
299.9999994
299.9999999
300
300.0000002
300.0000005
300.0000008
300.000001
300.0000012
300.0000014
300.0000016
300.0000016
300.0000011
300.0000005
300.0000001
299.9999997
299.9999995
300.0000003
300.0000021
300.0000029
300.0000033
300.0000021
300.000001
300.0000004
300.0000001
300.0000001
299.9999997
300
300.0000001
300.0000022
300.0000006
299.9999996
299.9999973
299.9999961
299.9999959
299.9999957
299.9999957
299.9999958
299.9999961
299.9999963
299.999997
299.9999988
299.9999985
299.9999984
299.9999986
299.9999979
299.9999989
299.9999991
299.9999998
300
300.0000003
300.0000006
300.0000008
300.0000009
300.000001
300.0000011
300.0000013
300.0000015
300.0000016
300.0000015
300.000001
300.0000005
300.0000001
299.9999999
300.0000006
300.0000004
300.0000002
300
300.0000005
299.9999994
299.9999996
299.9999989
300
300.0000018
300.0000014
299.9999992
299.9999969
299.9999967
299.9999962
299.9999958
299.9999958
299.999996
299.9999963
299.9999973
299.9999987
299.9999988
299.9999991
299.9999991
299.9999986
299.9999994
299.9999996
300
300.0000004
300.0000007
300.000001
300.0000011
300.0000012
300.0000012
300.0000012
300.0000013
300.0000014
300.0000016
300.0000018
300.0000017
300.0000013
300.0000007
300.0000004
300.0000009
300.0000003
300.0000007
299.9999988
299.9999987
299.9999953
299.9999966
300.0000012
299.999998
299.9999988
299.9999977
299.9999972
299.9999968
299.9999964
299.999996
299.9999961
299.9999968
299.9999991
300.0000002
300.0000005
300.0000002
299.9999998
299.9999995
299.9999999
300
300.0000002
300.0000004
300.0000006
300.0000009
300.0000012
300.0000014
300.0000014
300.0000014
300.0000014
300.0000015
300.0000016
300.0000018
300.000002
300.000002
300.0000014
300.0000009
300.0000012
299.999996
299.9999944
299.9999962
299.9999938
299.9999958
299.9999968
299.9999972
299.9999969
299.9999966
299.9999966
299.9999964
299.9999973
300.0000031
300.0000021
300.0000014
300.0000007
300.0000003
300.0000002
300.0000001
300.0000001
300.0000002
300.0000003
300.0000004
300.0000006
300.000001
300.0000016
300.0000019
300.0000019
300.0000018
300.0000017
300.0000018
300.000002
300.0000023
300.0000026
300.0000021
300.0000012
300.0000013
299.9999928
299.9999918
299.9999928
299.9999944
299.9999969
299.9999967
299.9999966
299.9999967
299.9999972
299.9999985
300.0000008
300.000001
300.0000012
300.0000008
300.0000005
300.0000004
300.0000001
300.0000001
300.0000002
300.0000003
300.0000004
300.0000005
300.0000007
300.000001
300.0000013
300.0000016
300.0000017
300.0000019
300.0000022
300.0000026
300.0000031
300.0000034
300.0000027
300.0000015
300.0000013
299.9999918
299.9999918
299.9999927
300.0000002
299.9999978
299.9999963
299.9999965
299.9999974
299.999998
299.9999986
299.9999997
300.0000023
300.0000045
300.0000064
300.0000023
300.0000002
300.0000004
300.0000008
300.0000008
300.0000006
300.0000006
300.0000007
300.0000008
300.0000009
300.000001
300.0000012
300.0000015
300.0000017
300.0000019
300.0000023
300.000003
300.0000029
300.0000016
300.0000013
299.9999932
299.9999916
299.9999923
300.0000165
300.0000457
299.9999984
299.9999948
299.9999959
299.999997
299.9999977
300.0000003
300.0000025
300.0000037
300.0000059
300.0000025
300.0000002
300.0000005
300.0000009
300.0000011
300.0000011
300.000001
300.000001
300.0000011
300.0000012
300.0000014
300.0000016
300.0000018
300.0000009
300.0000001
300.0000002
300.0000011
300.0000021
300.0000015
300.0000013
299.9999938
299.9999928
299.9999936
299.9999969
299.9999945
299.9999947
299.9999948
299.9999947
299.9999967
299.9999997
300.0000014
300.0000029
300.000005
300.0000025
300.0000004
300.0000007
300.0000011
300.0000014
300.0000015
300.0000017
300.0000019
300.0000023
300.0000023
300.0000021
300.0000019
300.0000018
300
299.999999
299.9999992
300.0000001
300.0000014
300.0000015
300.0000013
299.9999921
299.9999929
299.9999938
299.9999945
299.9999957
299.9999951
299.9999961
299.9999941
299.9999962
299.9999992
300.0000006
300.0000024
300.0000044
300.0000027
300.0000009
300.0000012
300.0000014
300.0000014
300.0000015
300.0000016
300.000002
300.0000023
300.0000021
300.0000019
300.0000017
300.0000016
300.0000015
300.0000015
300.0000016
300.0000016
300.0000017
300.0000016
300.0000014
299.9999931
299.9999933
299.9999937
299.9999944
299.9999959
299.9999967
299.9999968
299.9999939
299.9999971
299.9999988
299.9999999
300.0000023
300.0000044
300.000003
300.0000019
300.0000016
300.0000015
300.0000012
300.0000011
300.000001
300.0000011
300.0000013
300.0000014
300.0000014
300.0000014
300.0000015
300.0000014
300.0000014
300.0000014
300.0000015
300.0000016
300.0000017
300.0000015
299.9999942
299.9999945
299.9999944
299.9999951
299.9999965
299.9999955
299.999994
299.9999971
299.9999983
299.9999986
300.0000021
300.0000055
300.0000042
300.0000026
300.0000021
300.0000018
300.0000007
300.0000006
300.0000006
300.0000007
300.0000008
300.000001
300.0000011
300.0000013
300.0000016
300.0000017
300.0000018
300.0000019
300.000002
300.0000022
300.0000025
300.0000017
299.9999932
299.9999933
299.9999943
299.9999943
299.9999941
299.9999944
299.9999969
299.9999976
299.9999967
299.9999995
300.0000151
300.0000036
300.0000019
300.0000012
300.0000008
300.0000004
300.0000005
300.0000006
300.0000007
300.0000009
300.0000011
300.0000014
300.0000017
300.0000022
300.0000025
300.0000028
300.0000029
300.000003
300.0000029
300.0000028
300.0000019
299.9999936
299.9999928
299.9999936
299.999994
299.9999936
299.9999942
299.999996
299.9999962
299.9999959
299.9999976
299.9999991
299.9999999
299.9999999
299.9999997
299.9999999
300.0000001
300.0000005
300.0000006
300.0000007
300.0000011
300.0000015
300.0000021
300.0000027
300.0000031
300.0000034
300.0000036
300.0000037
300.0000036
300.0000034
300.0000029
300.0000019
299.9999952
299.999993
299.9999934
299.9999939
299.9999939
299.9999944
299.9999956
299.9999956
299.9999952
299.9999967
300.0000004
299.9999995
299.9999991
299.9999996
299.9999998
300.0000009
300.0000013
300.0000008
299.9999898
299.9999978
300.0000045
300.0000059
300.0000057
300.0000053
300.000005
300.0000047
300.0000045
300.0000043
300.0000039
300.0000032
300.0000019
299.9999948
299.9999951
299.9999964
299.9999973
300.0000015
300.0000024
300.0000004
300.0000014
300.0000214
300.0000253
300.0000162
300.0000028
299.9999867
299.9999853
299.9999872
299.9999944
300.0000028
300.0000062
300.0000065
300.0000061
300.0000058
300.0000054
300.0000051
300.0000045
300.0000036
300.0000019
299.9999939
299.9999961
299.9999975
299.999999
300.0000031
300.0000524
300.0001537
300.0002904
300.0006314
300.0002898
300.000147
300.0000734
300.0000365
299.9999849
299.9999854
299.9999879
299.9999944
300.0000006
300.0000033
300.000004
300.0000042
300.0000043
300.0000042
300.000004
300.0000036
300.0000019
)
;

boundaryField
{
    walls
    {
        type            zeroGradient;
    }
    wallFilmFace_top
    {
        type            zeroGradient;
    }
    region0_to_wallFilmRegion_wallFilmFace
    {
        type            zeroGradient;
    }
    mirrorFace_top
    {
        type            zeroGradient;
    }
    region0_to_wallFilmRegion_mirrorFace
    {
        type            zeroGradient;
    }
    procBoundary0to1
    {
        type            processor;
        value           nonuniform List<scalar> 
52
(
300.0000019
300.0000019
300.0000039
300.0000046
300.0000033
300.0000022
300.0000016
300.0000016
300.0000011
300.000001
300.000001
300.0000011
300.0000011
300.0000013
300.0000016
300.0000016
300.0000027
300.0000032
300.0000017
300.0000007
300.0000007
300.0000244
300.0000042
300.0000042
300.0000005
299.9999991
299.9999981
299.9999981
299.9999981
299.9999901
299.9999926
299.9999926
299.9999918
299.9999918
299.9999923
299.9999942
299.9999942
299.9999932
299.9999924
299.9999941
299.9999941
299.9999942
299.9999942
299.9999942
299.9999946
299.9999948
299.9999936
299.9999932
299.999993
299.9999937
299.9999937
299.999993
)
;
    }
    procBoundary0to2
    {
        type            processor;
        value           nonuniform List<scalar> 
26
(
299.9999961
299.9999977
299.9999982
299.9999988
300.0000002
300.0000532
300.0001837
300.0003755
300.0012069
300.0005307
300.0002676
300.000138
300.0000743
299.9999845
299.9999846
299.9999854
299.9999885
299.9999952
300.0000006
300.0000027
300.0000032
300.0000034
300.0000034
300.0000033
300.0000031
300.000002
)
;
    }
}


// ************************************************************************* //
