/*--------------------------------*- C++ -*----------------------------------*\
  =========                 |
  \\      /  F ield         | OpenFOAM: The Open Source CFD Toolbox
   \\    /   O peration     | Website:  https://openfoam.org
    \\  /    A nd           | Version:  8
     \\/     M anipulation  |
\*---------------------------------------------------------------------------*/
FoamFile
{
    version     2.0;
    format      ascii;
    class       volVectorField;
    location    "1.2/wallFilmRegion";
    object      U;
}
// * * * * * * * * * * * * * * * * * * * * * * * * * * * * * * * * * * * * * //

dimensions      [0 1 -1 0 0 0 0];

internalField   nonuniform List<vector> 
1369
(
(0.09536748845 -0.01299681152 0)
(-0.04233431587 -0.07949407359 0)
(-0.2128630739 -0.1278849831 0)
(-0.448601966 -0.1729730415 0)
(-0.6150218307 -0.27859126 0)
(-0.6625669413 -0.335229839 0)
(-0.6583710091 -0.3173406785 0)
(-0.6331748245 -0.2646626704 0)
(-0.5982182666 -0.1741633401 0)
(-0.8326758956 -0.261623059 0)
(-1.156732421 -0.4968300003 0)
(-1.107909689 -0.4840973216 0)
(-1.041273309 -0.4651727176 0)
(-0.9719142623 -0.4466781033 0)
(-0.9050190996 -0.42895611 0)
(-0.8363627972 -0.413232507 0)
(-0.7588453174 -0.4020668953 0)
(-0.6688096533 -0.3998291482 0)
(-0.5732702229 -0.4108735327 0)
(-0.4856188304 -0.4374616113 0)
(-0.4177698872 -0.4796491286 0)
(-0.3663913101 -0.5407650111 0)
(-0.3197297825 -0.6569820594 0)
(-0.1731423661 -0.7969612683 0)
(0.5059631584 -0.945900225 0)
(1.254742873 -0.3011434208 0)
(0.9234713072 0.6737069577 0)
(-0.9257299717 0.003578549087 0)
(-0.334967616 -0.2249834986 0)
(-0.3276740421 -0.2307025139 0)
(-0.4359886157 -0.2821284275 0)
(-0.7045003209 -0.3692924914 0)
(-0.8294430732 -0.4950320981 0)
(-0.9316867443 -0.3981286858 0)
(-1.12318283 -0.2530315937 0)
(-1.462872363 0.2376369107 0)
(-1.049935926 0.3108626448 0)
(-0.738227011 -0.1324484156 0)
(-0.6601915656 0.19992448 0)
(-0.6841273411 0.2102331618 0)
(-0.685542469 0.2142957347 0)
(-0.6450814769 0.2967533347 0)
(-0.6064767549 0.51570462 0)
(-0.6045499832 0.6344207307 0)
(-0.6060371527 0.6498425034 0)
(-0.5441365124 0.5997282397 0)
(-0.5269608862 0.5636058486 0)
(-0.5415105239 0.5468562114 0)
(-0.581876839 0.5336911102 0)
(-0.644919546 0.517455887 0)
(-0.7262081033 0.4950890963 0)
(-0.8248125873 0.3880012561 0)
(-0.5826244715 0.1525876725 0)
(-0.4277479675 0.1728542942 0)
(-0.3930373041 0.2281180148 0)
(-0.3793971012 0.2028648728 0)
(-0.3430215069 0.10731497 0)
(-0.205405006 0.07429386402 0)
(-0.06404896991 0.06090987445 0)
(0.06744315914 0.03866305182 0)
(0.01673639674 0.08946648966 0)
(0.1124767685 0.1767215302 0)
(0.239333195 0.2095594306 0)
(0.4500052272 0.224614 0)
(0.6401346543 -0.2664997368 0)
(0.6840743888 -0.3270981753 0)
(0.6792321346 -0.2673851397 0)
(0.6497329013 -0.1509916399 0)
(-0.1309105504 0.1113140514 0)
(-0.280126883 0.04640123116 0)
(-0.878796052 -0.8989476923 0)
(-0.7079679868 -1.199560075 0)
(-0.355674796 -1.074355453 0)
(0.2154840896 -0.9095089316 0)
(0.8160169481 -0.7070291016 0)
(0.8522277758 -0.5351422826 0)
(0.7772259682 -0.4597107257 0)
(0.6889034401 -0.4343043334 0)
(0.5944167676 -0.5170672003 0)
(0.506054511 -0.6039880276 0)
(0.4326133307 -0.6959894048 0)
(0.3720088426 -0.7797121073 0)
(0.2961318486 -0.8528578197 0)
(0.2066162511 -0.8572281421 0)
(0.6610754552 -0.9025381732 0)
(1.369664469 -0.3031552101 0)
(1.021519473 0.6044299729 0)
(-1.196379631 0.05967777255 0)
(-0.5573041728 0.2623336281 0)
(-0.1710056358 0.01073357248 0)
(-0.1145177908 -0.1488613788 0)
(-0.5409300178 -0.04675718755 0)
(-0.8583896378 -0.4925932713 0)
(-1.080303511 -0.4263020357 0)
(-1.241460379 -0.2575120924 0)
(-1.408668334 0.2497694689 0)
(-1.055703737 0.3370047417 0)
(-0.7137796721 0.397398739 0)
(0.6842063361 0.2673969 0)
(0.707371143 0.2422228252 0)
(0.6617814306 0.2851039328 0)
(0.4848900665 0.3715875643 0)
(0.5119341206 0.477088902 0)
(0.6049336014 0.6036067966 0)
(0.6099431573 0.6650543599 0)
(-0.1100765252 0.3454029707 0)
(-0.2363026293 0.2785606575 0)
(-0.3658782204 0.29361813 0)
(-0.5428605615 0.3552481158 0)
(-0.7075756785 0.4194604971 0)
(-0.815024775 0.470065675 0)
(-0.8500311489 0.3415593659 0)
(-0.1160830114 -0.1115432202 0)
(0.4589587348 -0.07203001807 0)
(0.440831342 0.1714263563 0)
(0.4285920424 0.1702731147 0)
(0.3814218841 -0.1403743364 0)
(0.2543437201 -0.1897967269 0)
(0.1544380338 -0.1735397248 0)
(0.09798783778 -0.09120677667 0)
(-0.1137192145 -0.02277289351 0)
(0.02631467295 0.1791989416 0)
(0.08833158854 0.2048891871 0)
(0.199533653 0.235501523 0)
(0.1946731073 0.2288461514 0)
(0.2000429618 0.1992389317 0)
(0.1515679806 0.03744960408 0)
(0.02006052967 -0.09433307406 0)
(-0.2050177378 0.116690639 0)
(-0.2787874293 0.09908269942 0)
(-1.141533934 -0.6157042768 0)
(-1.253729781 -1.259131589 0)
(-1.316001138 -1.157287502 0)
(-1.345517503 -1.031476403 0)
(-1.293414301 -0.8961780991 0)
(-0.9030089873 -0.705422965 0)
(-0.07518718405 -0.4902116118 0)
(0.1881224843 -0.4172987705 0)
(0.1953799098 -0.445231301 0)
(0.1744038732 -0.4644837688 0)
(0.175464423 -0.473809563 0)
(0.2099416348 -0.4876978384 0)
(0.2880410432 -0.5679153434 0)
(0.4797548216 -0.7995045343 0)
(0.8477265243 -0.8228764091 0)
(1.507219219 -0.3045482585 0)
(1.128141209 0.5323893029 0)
(-1.23191578 0.03889266305 0)
(-0.5692308588 0.2769404757 0)
(-0.3789300491 0.005212913298 0)
(-0.4865299677 -0.04502951318 0)
(-0.6931495566 0.1302828897 0)
(-0.842574457 -0.556218901 0)
(-1.045043618 -0.4605577653 0)
(-1.18532115 -0.2603395934 0)
(-1.311023035 0.248732518 0)
(-1.015588884 0.3703331616 0)
(-0.6958858798 0.4484699825 0)
(0.3333815576 0.3267215914 0)
(0.5516119706 0.2966953651 0)
(0.2401713141 0.4006777665 0)
(0.192777071 0.455109212 0)
(0.3104659945 0.4885069609 0)
(0.1859989681 0.4989863647 0)
(-0.03007589375 0.4910922699 0)
(-0.3084846782 0.3610666828 0)
(-0.5098498546 0.3038895311 0)
(-0.7066691426 0.3221876981 0)
(-0.8741920998 0.3892337748 0)
(-0.9721105525 0.4572005607 0)
(-1.005027577 0.5067723464 0)
(-0.9887316291 0.2999098608 0)
(-0.214986791 -0.1785599194 0)
(-0.0910116112 -0.1232886234 0)
(0.05616282941 -0.03359369398 0)
(0.1587826975 -0.1856958558 0)
(0.1676670268 -0.2354027035 0)
(0.1081892515 -0.2330079963 0)
(0.04459822639 -0.198814228 0)
(-0.05967027454 -0.0723805126 0)
(-0.1148842354 -0.1472526597 0)
(0.06865483975 0.2291793942 0)
(0.1153984674 0.2068772294 0)
(0.1601096726 0.2303418973 0)
(0.1594155739 0.2486163961 0)
(0.1531643892 0.2477387335 0)
(0.1130801073 0.2171244799 0)
(-0.0448532923 0.1483730319 0)
(-0.1398801784 0.1434612105 0)
(-0.211786252 0.1334423867 0)
(-1.077174417 -0.4907548922 0)
(-1.144763885 -1.158580713 0)
(-1.188912002 -1.061512933 0)
(-1.220938128 -0.9388844053 0)
(-1.262834329 -0.8620164049 0)
(-1.342706864 -0.8582377179 0)
(-1.498735047 -0.8560576182 0)
(-1.643322111 -0.7241575004 0)
(-1.767302455 -0.5833038951 0)
(-1.950000341 -0.4167288564 0)
(-1.363470407 0.3631339099 0)
(-1.110740588 0.5204615315 0)
(-0.01264248153 -0.3204586644 0)
(0.5518783221 -0.7027291006 0)
(1.031940216 -0.6943902244 0)
(1.609848489 -0.2952302464 0)
(0.6591592527 0.3418758828 0)
(-1.189233845 0.01616802299 0)
(-0.6397852836 0.3068244759 0)
(-0.556794773 0.1499212001 0)
(-0.665136978 0.1884327244 0)
(-0.7471977129 0.3012375174 0)
(-0.812196104 -0.5644218191 0)
(-0.9715995891 -0.4681232251 0)
(-1.11347397 -0.2665814929 0)
(-1.19260724 0.2493732007 0)
(-1.030165423 0.3951685941 0)
(-0.7597959505 0.5055076103 0)
(-0.3237036921 0.5215779383 0)
(-0.2587272572 0.5692368086 0)
(-0.4493042123 0.6369001583 0)
(-0.4915255981 0.5501404437 0)
(-0.4642891228 0.4798899129 0)
(-0.504903282 0.4650483558 0)
(-0.6256290972 0.4312668173 0)
(-0.642168207 0.3403528557 0)
(-0.7188207858 0.3238104889 0)
(-0.843839555 0.3670981699 0)
(-0.9673331275 0.4373056555 0)
(-1.041355425 0.5033189628 0)
(-1.055955414 0.5501039862 0)
(-1.021652588 0.3372168274 0)
(-0.13244539 -0.1954333207 0)
(-0.002679410306 -0.1793197323 0)
(0.08219796645 -0.1884505042 0)
(0.1368280665 -0.2186137586 0)
(0.1679519064 -0.2239177517 0)
(0.1596896467 -0.2147234779 0)
(0.1321879892 -0.2306895121 0)
(-0.04636374115 0.1187104092 0)
(-0.1396669748 -0.2563324796 0)
(-0.05562931562 0.3248165204 0)
(0.0780418046 0.2385004252 0)
(0.1361033453 0.2431558985 0)
(0.1512368346 0.2596110016 0)
(0.1434249027 0.2649953759 0)
(0.1014068893 0.2313660375 0)
(-0.03260916498 0.1569489522 0)
(-0.1025431363 0.1699658775 0)
(-0.1542004558 0.159082465 0)
(-1.012134027 -0.5351392008 0)
(-1.050566193 -0.9156618572 0)
(-1.091736774 -0.8260993636 0)
(-1.133375041 -0.7393551661 0)
(-1.181198869 -0.7053806479 0)
(-1.241426197 -0.7291510094 0)
(-1.344106462 -0.8300567992 0)
(-1.517918116 -0.7528217502 0)
(-1.626947063 -0.6076515849 0)
(-1.811261661 -0.4488886383 0)
(-1.461516943 0.455312023 0)
(-1.3348221 0.5872191699 0)
(0.508810016 -0.3829610722 0)
(0.5063360513 -0.4120562542 0)
(-0.2860374856 -0.4236774493 0)
(-0.4828523089 -0.431653423 0)
(-0.5413082885 -0.3174607186 0)
(-1.243152898 -0.06804688146 0)
(-1.174972751 0.3207526597 0)
(-0.995106845 0.4260542199 0)
(-0.9179486273 0.4729461257 0)
(-0.8366956749 0.5175264836 0)
(-0.8049554485 -0.4672168942 0)
(-0.8630596012 -0.4090670173 0)
(-1.037800499 -0.2815518365 0)
(-1.086392942 0.2614861708 0)
(-1.09980846 0.4029935334 0)
(-1.123677421 0.5892706181 0)
(-1.136912023 0.776584751 0)
(-1.122322727 0.9394389862 0)
(-1.055412483 0.8979916509 0)
(-0.9363779959 0.7168621206 0)
(-0.7846098185 0.5034423634 0)
(-0.7624897172 0.4385677221 0)
(-1.07055865 0.4021821976 0)
(-0.9464560271 0.3900958018 0)
(-0.9207606618 0.3966403125 0)
(-0.9851813997 0.4376216398 0)
(-1.072608878 0.4989079199 0)
(-1.125376954 0.5600959383 0)
(-1.11836028 0.6046549854 0)
(-1.066713464 0.3935004045 0)
(-0.1115265561 -0.1792529754 0)
(-0.04603433886 -0.1542889458 0)
(0.04457030944 -0.1627169415 0)
(0.1483101029 -0.2098168296 0)
(0.1702434624 -0.2054387536 0)
(0.1611051524 -0.2172360984 0)
(0.1064586532 -0.3318441229 0)
(-0.1139871687 0.2837946919 0)
(-0.1694193432 -0.3771109819 0)
(-0.1597865531 0.4270116981 0)
(-0.03867166619 0.2540330918 0)
(0.1079759865 0.2229379712 0)
(0.1498491066 0.2326809323 0)
(0.1289826428 0.2328804203 0)
(0.07149813495 0.2051118785 0)
(-0.06513535779 0.09417124064 0)
(-0.008681841188 0.1276193703 0)
(-0.1002890577 0.129980291 0)
(-0.9602248171 -0.6874950984 0)
(-0.9958182003 -0.7285317199 0)
(-1.045178812 -0.6762300279 0)
(-1.097582946 -0.636970943 0)
(-1.155464074 -0.637483988 0)
(-1.215044737 -0.6596585974 0)
(-1.256584103 -0.7226229181 0)
(-1.385880252 -0.7770921499 0)
(-1.479017445 -0.623839361 0)
(-1.631214901 -0.4580005604 0)
(-1.454892977 0.4988106217 0)
(-1.31389174 0.6865829997 0)
(-1.115591319 0.82921883 0)
(-0.6600985312 0.7426856529 0)
(-0.1256172976 -0.5299007717 0)
(-0.7357737262 -0.7702549395 0)
(-0.9883910046 -0.5431546722 0)
(-1.031904306 -0.1110045181 0)
(-1.003719779 0.3303182952 0)
(-0.9432131771 0.5949434105 0)
(-0.8743896311 0.6800042045 0)
(-0.8608805698 0.724296889 0)
(-0.8309945321 -0.1412994545 0)
(-0.7025044265 -0.1664341084 0)
(-0.9378529707 -0.2890621519 0)
(-0.9751585411 0.2444704537 0)
(-0.9579577192 0.3748288321 0)
(-0.9489155044 0.5586075571 0)
(-0.9253162433 0.7655191016 0)
(-0.8935927664 0.9558557535 0)
(-0.9359927091 0.5592380113 0)
(-0.8691560565 0.3924718618 0)
(-0.7766491598 0.3133405353 0)
(-0.8451530612 0.3277470067 0)
(-1.452594758 0.4200820948 0)
(-1.365776601 0.4960199112 0)
(-1.266184583 0.5469747197 0)
(-1.233579901 0.600040295 0)
(-1.246097012 0.6405077528 0)
(-1.237968534 0.6707253231 0)
(-1.20594034 0.6971206944 0)
(-1.136256403 0.7107935011 0)
(-0.6637759534 0.05372703556 0)
(0.04207405967 -0.05731498266 0)
(0.05275666297 -0.1018423448 0)
(0.1169770651 -0.1365366142 0)
(0.156422773 -0.16510996 0)
(0.1119775068 -0.1652729008 0)
(-0.01255461305 -0.4544192598 0)
(-0.1764408332 0.4219631431 0)
(-0.2623861618 -0.4379785003 0)
(-0.2153498686 0.1499152848 0)
(0.03869039678 -0.07550294635 0)
(0.1140764495 0.1581120834 0)
(0.1160863507 0.1425370818 0)
(0.03698248141 0.1135662239 0)
(0.0783291891 0.03922903032 0)
(0.09166668693 0.1244761035 0)
(0.09100570552 0.03989570991 0)
(-0.830646461 -0.6237344107 0)
(-0.9213344051 -0.6494354812 0)
(-0.9652278508 -0.6460591212 0)
(-1.017190677 -0.6123317334 0)
(-1.069626768 -0.6005530532 0)
(-1.139102248 -0.6222654019 0)
(-1.205032322 -0.6374606674 0)
(-1.224206136 -0.6539538143 0)
(-1.243485171 -0.8012179268 0)
(-1.333530912 -0.6382215152 0)
(-1.452588063 -0.4608686233 0)
(-1.366589395 0.5180392472 0)
(-1.234209167 0.7335910679 0)
(-1.129014287 0.8931777316 0)
(-1.002019399 0.6000475741 0)
(0.2874935893 -0.5294648672 0)
(-0.593903719 -0.8899445214 0)
(-0.8735983258 -0.5299674519 0)
(-0.8831941669 -0.1129412743 0)
(-0.7918772175 0.3415717575 0)
(-0.7013873024 0.5814941171 0)
(-0.6364196476 0.5305818419 0)
(-0.669644992 0.580009534 0)
(-0.6654247492 0.5773787138 0)
(-0.5258203706 0.3017918284 0)
(-0.4613427412 -0.2746243152 0)
(0.9294204212 0.2258522297 0)
(-0.4258306217 0.3358946161 0)
(-0.4709893953 0.5486748381 0)
(-0.5764409992 0.2856128269 0)
(-0.6506179543 0.2870758301 0)
(-0.9564191763 0.2417346124 0)
(-0.8624609314 0.1932463392 0)
(-0.7860856355 0.1356558154 0)
(-0.957209533 0.1704320669 0)
(-1.699724698 0.4808828622 0)
(-1.663692688 0.6442039433 0)
(-1.55851323 0.7760017324 0)
(-1.451835818 0.8699114961 0)
(-1.367675537 0.9243166359 0)
(-1.300335902 0.8963814979 0)
(-1.231666757 0.8452288302 0)
(-1.158047151 0.8286693993 0)
(-1.094569778 0.8453729309 0)
(0.02038163017 -0.04341608095 0)
(0.09809940055 -0.07082710527 0)
(0.143632798 -0.02161418659 0)
(0.1630822409 -0.07358491485 0)
(0.03135283257 0.09153916177 0)
(-0.0384460575 -0.08401574609 0)
(-0.2338526115 0.4650221179 0)
(-0.3452452774 -0.4770946474 0)
(-0.162899663 -0.2279916568 0)
(0.05339151132 -0.220105544 0)
(0.1184336136 -0.07370575098 0)
(0.1370076255 -0.05531989465 0)
(0.1009782242 0.002565712669 0)
(0.1207288322 -0.04518973361 0)
(0.1580553823 0.003696520779 0)
(-0.7917959776 -0.4368550332 0)
(-0.8743071666 -0.5821062664 0)
(-0.8896482592 -0.6124715244 0)
(-0.9354715436 -0.6228069598 0)
(-0.9899178849 -0.5927260025 0)
(-1.028532843 -0.6002104423 0)
(-1.122243189 -0.6352603439 0)
(-1.194091567 -0.6338992662 0)
(-1.185570099 -0.6204381991 0)
(-1.078499761 -0.7857811725 0)
(-1.191874064 -0.653470889 0)
(-1.28406401 -0.4620349027 0)
(-1.22748328 0.5326429561 0)
(-1.112151885 0.7666089958 0)
(-1.029141459 0.9385966799 0)
(-0.9353675494 0.8035440105 0)
(0.492663124 -0.4757007349 0)
(0.5615023152 -0.536582673 0)
(0.8496838815 -0.07304679473 0)
(0.8848207848 -0.09053001632 0)
(0.5515514884 0.1294073969 0)
(-0.1075859268 0.2079095542 0)
(-0.3288450283 0.008815626056 0)
(-0.4393846814 -0.1270936844 0)
(-0.4617006918 -0.1054134792 0)
(-0.4382145681 0.07387226144 0)
(0.1786222971 -0.1628594774 0)
(0.5918395058 0.2210689785 0)
(0.2465174426 0.1983787789 0)
(0.01071078743 0.3956134651 0)
(-0.3931136237 0.227603562 0)
(-0.5612934381 0.2630962425 0)
(-0.9403455555 0.2519894813 0)
(-0.8223450306 0.1358209338 0)
(-0.7726795949 -0.09578509073 0)
(-1.013105667 -0.1462093976 0)
(-1.670817667 0.560357338 0)
(-1.624956293 0.7638685986 0)
(-1.535379731 0.9563068978 0)
(-1.436249474 1.096934406 0)
(-1.352758357 1.176031217 0)
(-1.290658105 1.154330455 0)
(-1.223016738 1.055157305 0)
(-1.134032473 0.9693221476 0)
(-1.035621999 0.9502064138 0)
(-0.97133689 0.9777151283 0)
(0.1363974465 0.1833332177 0)
(0.1683294056 0.143725243 0)
(0.09512471486 0.1799944538 0)
(0.06130414427 0.2957730533 0)
(-0.00644287018 0.2313728974 0)
(-0.2479641772 0.5024383592 0)
(-0.4391151801 -0.5212654756 0)
(-0.629667033 -0.3316553634 0)
(-0.1613787948 -0.4938286889 0)
(0.09477231979 -0.2376171881 0)
(0.1717596818 -0.1419902658 0)
(0.1872477327 -0.08118948552 0)
(0.1406384592 -0.1470233672 0)
(-0.5573776849 -0.5863082109 0)
(-0.8367966879 -0.5386633663 0)
(-0.8649761839 -0.5671351084 0)
(-0.9072253063 -0.6115264368 0)
(-0.9334726344 -0.6188609104 0)
(-0.9788163756 -0.6013083098 0)
(-1.050460073 -0.6125216158 0)
(-1.107170505 -0.6731063053 0)
(-1.182585479 -0.6348998408 0)
(-1.146342635 -0.5850264948 0)
(-0.97299047 -0.6286367289 0)
(-1.050677145 -0.6716720747 0)
(-1.124500624 -0.4618944521 0)
(-1.072464582 0.5483019653 0)
(-0.9619382034 0.785212721 0)
(-0.9000647399 0.9589025606 0)
(-0.8406647772 1.029137247 0)
(0.5940948986 -0.3902533012 0)
(0.7678256697 -0.4115926248 0)
(0.7293325377 0.07035429653 0)
(1.020997282 -0.07869020674 0)
(0.6272670797 0.1515259889 0)
(0.1958471365 0.1914025099 0)
(-0.1499131088 0.09039284529 0)
(-0.4206443263 -0.1205525007 0)
(-0.4761899541 -0.09696056065 0)
(-0.3939353494 -0.03709772839 0)
(0.1339459458 -0.07096066063 0)
(-0.2611160062 0.03596986012 0)
(-0.1565633194 -0.25438487 0)
(0.0779222744 0.2079488106 0)
(-0.238242354 0.1754728643 0)
(-0.4739317547 0.2274132684 0)
(-0.9090091373 0.2707075921 0)
(-0.7847860353 0.0177626883 0)
(-0.819289789 -0.3959201974 0)
(-0.9983545012 -0.5003626804 0)
(-1.445696221 0.611468244 0)
(-1.399521783 0.8281725037 0)
(-1.339886559 1.05354818 0)
(-1.280456911 1.235717062 0)
(-1.222193526 1.322707896 0)
(-1.200633589 1.329715668 0)
(-1.170672513 1.247196542 0)
(-1.096293884 1.130145204 0)
(-0.9755167106 1.069899576 0)
(-0.8407881637 1.069155434 0)
(-0.7305164209 1.093206493 0)
(-0.5458550675 1.030522485 0)
(-0.4368074236 0.9807519925 0)
(-0.3686262638 0.938309373 0)
(-0.3626721258 0.5974515191 0)
(-0.3612828949 0.5363218763 0)
(-0.4439155925 -0.504478644 0)
(-1.080091386 0.1721712106 0)
(-1.134248602 -1.051040188 0)
(-1.002958925 -0.9281940169 0)
(-0.7577674075 -0.8270072919 0)
(-0.6273545116 -0.6918512091 0)
(-0.8014642432 -0.5714494192 0)
(-0.7955297012 -0.528132014 0)
(-0.8218753402 -0.5454455696 0)
(-0.8780044313 -0.6090623633 0)
(-0.9168247604 -0.6433771472 0)
(-0.9468354071 -0.6454522077 0)
(-0.9917180638 -0.6317781815 0)
(-1.063748869 -0.6419368994 0)
(-1.155359591 -0.6856078916 0)
(-1.168223328 -0.6355795107 0)
(-1.111113235 -0.5533210525 0)
(-0.9633639409 -0.4921339269 0)
(-0.8989654976 -0.6948257037 0)
(-0.9679487052 -0.4611161693 0)
(-0.9138424194 0.5703253142 0)
(-0.74720652 0.7383122041 0)
(-0.7240121894 0.9084462564 0)
(-0.7131868674 1.073574112 0)
(0.6483943089 -0.3375264321 0)
(0.905849714 -0.352047158 0)
(0.6969983779 0.1339391462 0)
(1.084246018 -0.03337257727 0)
(0.645012433 0.1507353145 0)
(0.2653443661 0.2333861401 0)
(0.002383381455 0.1603226333 0)
(-0.3550806322 -0.1201852307 0)
(-0.4494205896 -0.1223782066 0)
(-0.3293009963 -0.05817497047 0)
(-0.1736152051 -0.1772702853 0)
(-0.4290708588 0.00047721197 0)
(-0.425291176 0.09496881717 0)
(0.03508013677 0.1502955809 0)
(-0.2130292158 0.1658306214 0)
(-0.4189135479 0.1174736389 0)
(-0.8746290109 0.2848282876 0)
(-0.763258866 -0.1474583498 0)
(-0.8047721549 -0.6012925446 0)
(-0.903037095 -0.6108629292 0)
(-1.180617831 0.6254842165 0)
(-1.146451997 0.8588539948 0)
(-1.10967865 1.103140913 0)
(-1.090100447 1.304874616 0)
(-1.085669829 1.41627308 0)
(-1.081182727 1.416696509 0)
(-1.092900612 1.361494877 0)
(-1.049975286 1.255586712 0)
(-0.9240145494 1.17661366 0)
(-0.7538021147 1.157079575 0)
(-0.6127769691 1.140294712 0)
(-0.521463719 1.069692608 0)
(-0.4600081047 0.9800056297 0)
(-0.4149756843 0.900910652 0)
(-0.3851028082 0.5939068984 0)
(-0.3830081377 0.4544643813 0)
(-0.4323178556 -0.5037678062 0)
(-0.9268285105 0.5285759135 0)
(-1.110991815 -1.080191349 0)
(-1.124978002 -0.9205866335 0)
(-1.017555132 -0.7691583219 0)
(-0.851866099 -0.6043078092 0)
(-0.7619306854 -0.5346533927 0)
(-0.7567520838 -0.5378100491 0)
(-0.8185661189 -0.6053784092 0)
(-0.8683907401 -0.6651477146 0)
(-0.9065768345 -0.69739804 0)
(-0.9383755477 -0.6968065753 0)
(-0.9838471777 -0.6825136146 0)
(-1.054700473 -0.6943907781 0)
(-1.132795466 -0.6992748593 0)
(-1.138305565 -0.6356412033 0)
(-1.061690365 -0.5338302388 0)
(-0.9254455104 -0.4419133889 0)
(-0.6853458885 -0.7134090227 0)
(-0.7933148937 -0.4597458286 0)
(-0.7242393684 0.6030359295 0)
(-0.3279975433 0.3594923454 0)
(-0.4217914845 0.5989292302 0)
(-0.5122427902 0.9488805122 0)
(0.6788895662 -0.2828936671 0)
(0.9704047659 -0.2847910573 0)
(0.6455538747 0.1595013251 0)
(1.111289421 0.02585493011 0)
(0.596407045 0.09924146203 0)
(0.2107228376 0.1616355198 0)
(-0.1111612428 -0.01303947966 0)
(-0.1668783383 -0.06391042644 0)
(-0.03014571672 -0.1560208022 0)
(0.4280298828 -0.05090456367 0)
(0.1592436169 -0.06542901918 0)
(-0.3060491963 -0.03740656272 0)
(0.2781845718 -0.02356832125 0)
(0.2213340946 0.1338586076 0)
(-0.1707844856 0.06093318664 0)
(-0.4228906984 -0.07629726942 0)
(-0.8283158998 0.2814084775 0)
(-0.7178970115 -0.2189312384 0)
(-0.7301692187 -0.560081345 0)
(-0.7757021993 -0.5438580455 0)
(-0.9391243461 0.6124285104 0)
(-0.910357384 0.874057489 0)
(-0.8828827175 1.120091921 0)
(-0.9036212041 1.314153302 0)
(-0.9508490035 1.424815063 0)
(-0.9978541377 1.429738119 0)
(-1.024870394 1.387836949 0)
(-1.000176873 1.308648161 0)
(-0.8815214524 1.245730313 0)
(-0.6902438328 1.221175224 0)
(-0.5298188541 1.177432145 0)
(-0.467635092 1.055563787 0)
(-0.4246347083 0.9586199767 0)
(-0.3942826077 0.869672848 0)
(-0.3727852045 0.6076553355 0)
(-0.3675031336 0.4142558695 0)
(-0.4186206777 -0.5123456307 0)
(-0.7740514694 0.5402033707 0)
(-1.040601448 -1.088411194 0)
(-1.067715315 -0.9104704558 0)
(-0.9357571715 -0.7280505829 0)
(-0.7668924556 -0.5761584138 0)
(-0.7148284021 -0.5538234583 0)
(-0.7410190787 -0.5899389619 0)
(-0.7967987374 -0.6721183104 0)
(-0.8451186629 -0.7347290934 0)
(-0.884391111 -0.7699728049 0)
(-0.919555625 -0.7691973256 0)
(-0.969899052 -0.7551850886 0)
(-1.04737376 -0.7620251413 0)
(-1.084358208 -0.7207643825 0)
(-1.078083358 -0.6385069988 0)
(-0.9834816115 -0.5174765782 0)
(-0.8160645838 -0.4088846349 0)
(0.4603650428 -0.2295470453 0)
(0.1309862597 -0.4167750786 0)
(0.08735805844 0.4786159426 0)
(-0.05969952036 -0.05743999323 0)
(-0.05740476057 -0.000491429573 0)
(0.09784613901 0.1087747548 0)
(0.7118283794 -0.2250172767 0)
(0.9716089655 -0.2187387759 0)
(0.61857272 0.1553253187 0)
(0.9676362601 0.05565777529 0)
(0.4969330332 0.04254081254 0)
(-0.1005967397 -0.06380551602 0)
(-0.04984661798 -0.06318074956 0)
(0.151925326 -0.06721103602 0)
(0.1453771945 -0.08657310689 0)
(0.2099078008 -0.1702310687 0)
(-0.1603608708 -0.2240738702 0)
(-0.3219930217 -0.01301366305 0)
(-0.172231557 0.1599403944 0)
(0.2282785245 0.1465399054 0)
(-0.2897476637 -0.1420625516 0)
(-0.4583355739 -0.1955274261 0)
(-0.7293792846 0.2630130586 0)
(-0.681537972 -0.06885814191 0)
(-0.6625303085 -0.2523689078 0)
(-0.6644634502 -0.3290247643 0)
(-0.7068586174 0.5677919465 0)
(-0.6869360526 0.8820788938 0)
(-0.6356799955 1.075836807 0)
(-0.7398250873 1.211858901 0)
(-0.8631522003 1.298189874 0)
(-0.9606801635 1.305755431 0)
(-0.9852409919 1.299604915 0)
(-0.9523523048 1.280459643 0)
(-0.8378895345 1.274566803 0)
(-0.6528864205 1.269589265 0)
(-0.5187121033 1.182223805 0)
(-0.4526422666 1.047042127 0)
(-0.418456208 0.942856838 0)
(-0.3954413225 0.8484195364 0)
(-0.3771564194 0.6190682321 0)
(-0.3434809232 0.3973221213 0)
(-0.714942184 -0.6609493786 0)
(-0.7658858786 -0.7441624856 0)
(-0.8144482765 -0.8164810483 0)
(-0.8560850937 -0.8593823726 0)
(-0.8985750922 -0.8633540185 0)
(-0.9617390578 -0.8557531079 0)
(-0.9945675616 -0.8121966286 0)
(-1.018201208 -0.7511823078 0)
(-0.9963892726 -0.6454875249 0)
(-0.8703878222 -0.4993037724 0)
(-0.5905937522 -0.3681314086 0)
(0.1581176295 -0.3188680902 0)
(-1.714667546 -0.2577616131 0)
(-0.08640001158 -0.1217212459 0)
(-0.07481491783 -0.1296358029 0)
(-0.01255707866 -0.1313309378 0)
(0.4481891761 -0.1511819019 0)
(0.7284621176 -0.1592249803 0)
(0.9554592915 -0.1473135597 0)
(0.494463658 0.09623827535 0)
(0.760211421 0.06051688781 0)
(0.2163988084 -0.001329617814 0)
(-0.07630749464 -0.07957979218 0)
(-0.1026159413 -0.07595239158 0)
(-0.0982624811 -0.08165869762 0)
(0.177725864 0.0621977993 0)
(0.244608693 -0.2600952313 0)
(-0.03616022108 -0.1424919413 0)
(0.2378427988 -0.2501802044 0)
(0.007172835049 -0.4079478655 0)
(-0.1770838057 -0.3119919679 0)
(-0.3988320695 -0.2976819934 0)
(-0.4698375862 -0.2445849832 0)
(-0.5976682801 0.2555596905 0)
(-0.8013867707 0.2744158796 0)
(-0.6771528379 0.1382818655 0)
(-0.6570720251 0.01934341634 0)
(0.5516961433 0.4704749292 0)
(0.6171148519 0.5838268323 0)
(-0.01696288927 0.6122875272 0)
(-0.5728425577 0.7429744956 0)
(-0.8649365952 0.8935117821 0)
(-0.9568995842 1.032983246 0)
(-0.9481291454 1.150193199 0)
(-0.8909561556 1.243472877 0)
(-0.791048887 1.306196895 0)
(-0.6497647476 1.321669897 0)
(-0.5278070076 1.210348447 0)
(-0.4630286155 1.058688062 0)
(-0.4317949309 0.9455036984 0)
(-0.4104535183 0.8440856099 0)
(-0.3919685106 0.628939286 0)
(-0.3205667689 0.3965674176 0)
(-0.8826823741 -0.9835762753 0)
(-0.9062020677 -0.9354032369 0)
(-0.9266643577 -0.8732802961 0)
(-0.9381315539 -0.7901711042 0)
(-0.9037011931 -0.6640154412 0)
(-0.7419716318 -0.5322971146 0)
(-0.5211520044 -0.5359618709 0)
(-1.080213243 -0.5917112639 0)
(-1.881460994 -0.2950257739 0)
(0.06651839885 -0.1629105309 0)
(0.04656807468 -0.1735224281 0)
(0.07934840036 -0.2305610125 0)
(0.3649879223 -0.3007998915 0)
(0.6657662469 -0.1476414746 0)
(0.8939413631 -0.128761836 0)
(0.1872704225 -0.04659403713 0)
(0.5837260491 0.06927912989 0)
(-0.02415112167 -0.08473589711 0)
(0.1185635113 -0.02523253643 0)
(0.08477514806 -0.1601428996 0)
(0.08401569536 -0.199321992 0)
(0.1193503567 -0.1979522796 0)
(0.1610777696 -0.2585866111 0)
(0.1839549304 -0.2700397868 0)
(0.08742286862 -0.3040027982 0)
(-0.2183771792 -0.4588281367 0)
(-0.2906764705 -0.4352507545 0)
(-0.3754372154 -0.3598380296 0)
(-0.4467925764 -0.2489324036 0)
(-0.5365348651 0.2275320053 0)
(-1.035319865 0.2733669598 0)
(-0.7652840935 0.1238439468 0)
(-0.7119120847 -0.009494045404 0)
(0.8042578748 0.4753134122 0)
(0.4637254923 0.548136377 0)
(-0.1405344104 0.5962619502 0)
(-0.6160827908 0.7518117425 0)
(-0.8511286858 0.9367636584 0)
(-0.896161663 1.093134454 0)
(-0.8693589054 1.217014025 0)
(-0.8174205415 1.314619682 0)
(-0.7452098188 1.380190253 0)
(-0.6570470115 1.387055842 0)
(-0.5709297603 1.286035735 0)
(-0.4969747115 1.11154048 0)
(-0.4636777984 0.9796576629 0)
(-0.4395009785 0.8629639816 0)
(-0.4176996734 0.6383879415 0)
(-0.3010352545 0.4063587949 0)
(-0.8390398381 -0.9379202511 0)
(-0.8477824169 -0.8438134718 0)
(-0.7984146684 -0.8316952269 0)
(-0.655372143 -1.27308825 0)
(-0.7941287076 -1.469926034 0)
(-1.200621009 -1.089663549 0)
(-1.706549719 -0.3559572795 0)
(0.08838119869 -0.03938292623 0)
(0.01896415582 -0.09085941862 0)
(-0.01326936328 -0.06237339642 0)
(0.1497297247 -0.273292887 0)
(0.3384174348 -0.1677335884 0)
(0.7144894776 -0.106365481 0)
(0.01735857278 -0.0752898133 0)
(0.1205730501 -0.02966542392 0)
(-0.005947456047 -0.1554690399 0)
(-0.02543848156 -0.1758779879 0)
(0.02454825799 -0.1801279934 0)
(0.08506556119 -0.1978971728 0)
(0.1131966505 -0.2176504935 0)
(0.1182562619 -0.23717492 0)
(0.07512831292 -0.2381483166 0)
(-0.04483906348 -0.2879215264 0)
(-0.2914985177 -0.533846729 0)
(-0.3039428014 -0.544186906 0)
(-0.3683362167 -0.3977199745 0)
(-0.461031356 -0.2511907109 0)
(-0.5847894618 0.1584774954 0)
(-1.26723413 0.2888688831 0)
(-0.9148335033 0.1605334246 0)
(-0.8243880792 0.09355873106 0)
(0.08267873195 0.3970686672 0)
(-0.4718898138 0.4584980882 0)
(-0.7624342615 0.6419582476 0)
(-0.8603347733 0.8467079859 0)
(-0.8564955996 1.022638742 0)
(-0.8211237167 1.16633427 0)
(-0.7774863575 1.28697199 0)
(-0.7290203291 1.386924325 0)
(-0.6735335806 1.45812464 0)
(-0.6142842088 1.477427328 0)
(-0.5860856497 1.416756319 0)
(-0.5542347792 1.245528012 0)
(-0.5155667268 1.068828099 0)
(-0.4822511825 0.9145991549 0)
(-0.451538402 0.6453601743 0)
(-0.2877021025 0.4270673825 0)
(-0.4738308919 -2.258715917 0)
(-0.4928917672 -1.598189102 0)
(-0.5344841828 -0.3900911325 0)
(-0.2411006546 1.574143054 0)
(-0.1370710514 0.8485868222 0)
(-0.05682351643 0.02830630545 0)
(-0.1981417795 -0.1934280938 0)
(-0.140415062 -0.1334750785 0)
(0.4022791448 -0.102578045 0)
(-0.1221089792 -0.07877634717 0)
(-0.2540939169 0.2349408618 0)
(-0.07014010234 -0.111948382 0)
(-0.06366291249 -0.1479991646 0)
(-0.01152903516 -0.1836009912 0)
(0.07728716333 -0.191209375 0)
(0.1192035106 -0.1972843174 0)
(0.1109506633 -0.2067812235 0)
(0.03886363634 -0.2337923138 0)
(-0.1335036169 -0.3744857541 0)
(-0.3761800163 -0.6028755496 0)
(-0.365703415 -0.5121873082 0)
(-0.4503861632 -0.4637894359 0)
(-0.615081971 -0.3432537885 0)
(-0.7538246733 -0.01963639401 0)
(-1.428853363 0.3379640808 0)
(-1.120315539 0.3464629455 0)
(-0.9752943823 0.4464458723 0)
(-0.8534426157 0.6135428078 0)
(-0.7712393704 0.7032222595 0)
(-0.7499220432 0.7809016044 0)
(-0.7539901135 0.9298710889 0)
(-0.739590526 1.092059111 0)
(-0.7098997782 1.23382432 0)
(-0.6731166127 1.355970188 0)
(-0.6309781891 1.458773198 0)
(-0.5824658515 1.533439552 0)
(-0.5304052608 1.561675394 0)
(-0.4930203652 1.520058609 0)
(-0.5096076756 1.40023198 0)
(-0.5514244086 1.222629288 0)
(-0.514454108 1.002178948 0)
(-0.4718352679 0.6448352807 0)
(-0.2857665696 0.4603613348 0)
(1.482457828 -0.2587043114 0)
(0.0914388377 0.3431655683 0)
(-0.1276648497 0.3378178189 0)
(-0.08394467805 0.04943928453 0)
(-0.2963500342 -0.09144804133 0)
(-0.2142185193 -0.1497400416 0)
(-0.1082337494 -0.1006093549 0)
(-0.1444245906 -0.05659172648 0)
(-0.09475251405 -0.0238698441 0)
(-0.08580139732 -0.05256172949 0)
(-0.08238975017 -0.1178456403 0)
(-0.07917531969 -0.1699956912 0)
(-0.02766362711 -0.1792715417 0)
(0.09537173719 -0.1776008662 0)
(0.1146826679 -0.2121847087 0)
(0.01600283324 -0.3477715238 0)
(-0.2310061166 -0.6486417248 0)
(-0.2754537116 -0.6138531613 0)
(-0.4399787342 -0.7170862822 0)
(-0.6212008675 -0.7523723386 0)
(-0.7498525805 -0.5804086852 0)
(-0.8715022073 -0.3144163099 0)
(-1.369336165 0.4256745778 0)
(-1.191133737 0.6572170173 0)
(-1.02772307 0.8647266144 0)
(-0.8657509048 1.004642877 0)
(-0.7097958019 1.023891908 0)
(-0.6139421628 0.9689831222 0)
(-0.5976037025 0.9881308864 0)
(-0.605091329 1.137647949 0)
(-0.5904537817 1.293147012 0)
(-0.563284601 1.423484475 0)
(-0.527769652 1.530096147 0)
(-0.4817259656 1.602403574 0)