/*--------------------------------*- C++ -*----------------------------------*\
  =========                 |
  \\      /  F ield         | OpenFOAM: The Open Source CFD Toolbox
   \\    /   O peration     | Website:  https://openfoam.org
    \\  /    A nd           | Version:  8
     \\/     M anipulation  |
\*---------------------------------------------------------------------------*/
FoamFile
{
    version     2.0;
    format      ascii;
    class       scalarField;
    location    "1.5/lagrangian/reactingCloud1";
    object      age;
}
// * * * * * * * * * * * * * * * * * * * * * * * * * * * * * * * * * * * * * //


151
(
0.3411935003
0.2690390579
0.2564821938
0.2460543033
0.2438570955
0.2340604875
0.2257632282
0.2107757124
0.1933535098
0.214119899
0.1852080723
0.1808711461
0.1720155375
0.1706534672
0.169449844
0.1684621246
0.166809514
0.1781056818
0.1641064468
0.1633564858
0.1631887649
0.1618194683
0.158481599
0.1571783996
0.1568706176
0.156246969
0.154098893
0.1941003379
0.1452941666
0.1417500022
0.1409318575
0.1383785222
0.1367090972
0.1352636185
0.1265044361
0.1260121951
0.1380554707
0.123637246
0.1205229133
0.1199697116
0.1184904737
0.1167589243
0.115089216
0.1139760771
0.1137287129
0.1136668718
0.1113382129
0.1107965617
0.1821420381
0.1067415682
0.1066991684
0.1053996392
0.1049842823
0.1046935325
0.10423664
0.1024090698
0.1011214635
0.1355752433
0.0997842348
0.0942926023
0.09255585183
0.09240424519
0.09225251408
0.09202491742
0.09134175093
0.09058246788
0.09050653957
0.0894435433
0.0894435433
0.08921575839
0.08913983008
0.138120081
0.08868426025
0.08853227352
0.1000830714
0.08820803989
0.08674394375
0.08550520995
0.08487695884
0.1360767387
0.08298160331
0.1122445277
0.08174461139
0.08116003111
0.1522014928
0.08031545965
0.0785936709
0.07660010361
0.1104384147
0.07564051183
0.07494084272
0.07424004951
0.07195904726
0.07134411903
0.06712673268
0.09141767923
0.06572093724
0.06273362191
0.1121208456
0.05860409778
0.1136050308
0.05385953814
0.05245374269
0.05227801826
0.1108489722
0.05104794724
0.04981787622
0.049730014
0.04832421856
0.04797276969
0.04788490748
0.04357965892
0.04217386347
0.1044858541
0.07011404801
0.0412073791
0.03883509928
0.09012689805
0.05614395574
0.03532061065
0.07081694574
0.03400267742
0.03356336634
0.03250901976
0.03057605101
0.02943384221
0.02872934693
0.02693128761
0.02594781454
0.04612766317
0.02468317272
0.02049039135
0.01892890859
0.04217386347
0.01668587472
0.06528162616
0.01443487235
0.01391992711
0.0128393393
0.06299720855
0.01195248792
0.01137114079
0.01000094669
0.03215757089
0.008696453076
0.008525181547
0.00661150192
0.005207289123
0.07213455713
0.06413941736
0.07616437948
)


// ************************************************************************* //
