/*--------------------------------*- C++ -*----------------------------------*\
  =========                 |
  \\      /  F ield         | OpenFOAM: The Open Source CFD Toolbox
   \\    /   O peration     | Website:  https://openfoam.org
    \\  /    A nd           | Version:  8
     \\/     M anipulation  |
\*---------------------------------------------------------------------------*/
FoamFile
{
    version     2.0;
    format      ascii;
    class       scalarField;
    location    "1.5/lagrangian/reactingCloud1";
    object      d;
}
// * * * * * * * * * * * * * * * * * * * * * * * * * * * * * * * * * * * * * //


151
(
0.0005220231593
0.0007822030247
0.0006293669549
0.001113413507
0.0005335381245
0.0005232250394
0.0006150789783
0.001015877236
0.0007556273251
0.0005662779457
0.0008900136257
0.001102857205
0.001091755882
0.0005762487121
0.0005310359174
0.0005496186597
0.0005030585665
0.00104433568
0.0007997817868
0.0005353255337
0.0009027816013
0.00110355266
0.0006748316842
0.0009118345705
0.0008253021823
0.000739235162
0.0007435036754
0.0006613584093
0.001017228777
0.0009339167853
0.0006020961889
0.0008879729604
0.0009650727307
0.0009100641606
0.0007350877718
0.0005124616566
0.000654767387
0.000564265487
0.0009390806485
0.0005077617031
0.000780769401
0.0006416952454
0.0009300251544
0.001183790247
0.0005992390148
0.001053226137
0.001060787511
0.000779943454
0.0005133546597
0.001172725626
0.0008854536592
0.0006658782366
0.0008139055021
0.000539642435
0.000986037755
0.0007683453592
0.000695938931
0.0005567505125
0.0007046598569
0.001031266436
0.0009668847712
0.0006727261644
0.0005988501972
0.0006552777017
0.0008534550535
0.0005592301062
0.001120110887
0.0009893398714
0.0006275063136
0.000532918081
0.0009083983413
0.0008064647163
0.0006566773251
0.0005133546597
0.001069276583
0.0007031527135
0.0005768353569
0.0005597324287
0.0008298895785
0.0005585282431
0.0006095798504
0.0005710412635
0.0005425666486
0.00104433568
0.001183463626
0.0005569937426
0.000987635826
0.0005844614387
0.0006519435849
0.001006347372
0.0005443388326
0.0007448373929
0.0008567922815
0.0005945488598
0.0008746650717
0.000580693825
0.0005606228368
0.001079304789
0.0005571696926
0.000896175518
0.0005639158575
0.0009140200781
0.0008046219538
0.0005172473998
0.0005890997639
0.0007668429094
0.0007536711687
0.0006918466607
0.0007957128903
0.000585036642
0.0005113229253
0.0007796077272
0.000596940665
0.0006456725642
0.0005761503261
0.0008320160871
0.000793884029
0.0009729157252
0.000873309568
0.000824430909
0.001011166399
0.000849254928
0.0008933080618
0.0006174105247
0.0006793349644
0.0008891440916
0.0008057331499
0.0006706856034
0.0008870750112
0.0007665042067
0.0005841098923
0.000907589442
0.0007228588445
0.0005130289226
0.000879745235
0.0008743428549
0.000946187772
0.0005715532529
0.0007582275222
0.00066816369
0.0007072745881
0.0006199344071
0.0008468186524
0.0008964058964
0.0009106255762
0.0008943482256
0.0009326540716
0.0005685702542
0.0005421420416
0.000743927162
0.0005756580314
)


// ************************************************************************* //
