/*--------------------------------*- C++ -*----------------------------------*\
  =========                 |
  \\      /  F ield         | OpenFOAM: The Open Source CFD Toolbox
   \\    /   O peration     | Website:  https://openfoam.org
    \\  /    A nd           | Version:  8
     \\/     M anipulation  |
\*---------------------------------------------------------------------------*/
FoamFile
{
    version     2.0;
    format      ascii;
    class       scalarField;
    location    "1.5/lagrangian/reactingCloud1";
    object      mass0;
}
// * * * * * * * * * * * * * * * * * * * * * * * * * * * * * * * * * * * * * //


151
(
7.407603541e-08
2.492108187e-07
1.298136101e-07
7.187500312e-07
7.908694357e-08
7.458886118e-08
1.211716642e-07
5.459238971e-07
2.24662912e-07
9.507964817e-08
3.671118353e-07
6.984997799e-07
6.776181655e-07
9.964105613e-08
7.79794392e-08
8.645553955e-08
6.629244945e-08
5.963743701e-07
2.663930862e-07
7.988445847e-08
3.831391383e-07
6.998220232e-07
1.60027571e-07
3.947813058e-07
2.927166314e-07
2.103566606e-07
2.140216849e-07
1.514639444e-07
5.481057162e-07
4.241631749e-07
1.136595815e-07
3.645924257e-07
4.680460145e-07
3.924862564e-07
2.068359443e-07
7.007975043e-08
1.461738e-07
9.355325041e-08
4.312380682e-07
6.816920733e-08
2.478430654e-07
1.375925382e-07
4.188827764e-07
8.638387678e-07
1.120491747e-07
6.083777224e-07
6.215751058e-07
2.470573453e-07
7.083553001e-08
8.398421436e-07
3.614980252e-07
1.537421253e-07
2.807568567e-07
8.183266558e-08
4.992166376e-07
2.361988809e-07
1.755180613e-07
8.98649412e-08
1.821994292e-07
5.711117142e-07
4.706874084e-07
1.585343502e-07
1.118312062e-07
1.465158427e-07
3.237057255e-07
9.107098821e-08
7.317984312e-07
5.042488946e-07
1.286656794e-07
7.881153476e-08
3.903349291e-07
2.746342743e-07
1.474566896e-07
7.044674701e-08
6.40130898e-07
1.810328506e-07
9.994568191e-08
9.131661952e-08
2.976249606e-07
9.122923629e-08
1.179506198e-07
9.696408256e-08
8.317019148e-08
5.931011507e-07
8.678873644e-07
8.99827718e-08
5.01647814e-07
1.039623305e-07
1.44290742e-07
5.307037658e-07
8.398783198e-08
2.151755057e-07
3.27517911e-07
1.094387364e-07
3.484446262e-07
1.01964746e-07
9.175310564e-08
6.546975724e-07
9.00680733e-08
3.747896989e-07
9.337945606e-08
3.976267796e-07
2.712589352e-07
7.206151159e-08
1.064571815e-07
2.348159738e-07
2.229226128e-07
1.724399809e-07
2.623479041e-07
1.042695795e-07
6.961361931e-08
2.467384449e-07
1.107648372e-07
1.401668833e-07
1.001396475e-07
2.999187302e-07
2.605431224e-07
4.821967635e-07
3.487412157e-07
2.917905451e-07
5.383643665e-07
3.189500284e-07
3.712035992e-07
1.225548502e-07
1.632526806e-07
3.660368918e-07
2.723843269e-07
1.57096088e-07
3.634874784e-07
2.357991582e-07
1.037748473e-07
3.89293116e-07
1.966839475e-07
7.070077448e-08
3.545513866e-07
3.480596782e-07
4.411034067e-07
9.722512736e-08
2.269901708e-07
1.553306042e-07
1.842351879e-07
1.240639605e-07
3.162129596e-07
3.771488051e-07
3.93213078e-07
3.72501794e-07
4.224450166e-07
9.571077315e-08
8.343300446e-08
2.155707684e-07
9.988317222e-08
)


// ************************************************************************* //
