/*--------------------------------*- C++ -*----------------------------------*\
  =========                 |
  \\      /  F ield         | OpenFOAM: The Open Source CFD Toolbox
   \\    /   O peration     | Website:  https://openfoam.org
    \\  /    A nd           | Version:  8
     \\/     M anipulation  |
\*---------------------------------------------------------------------------*/
FoamFile
{
    version     2.0;
    format      ascii;
    class       scalarField;
    location    "1.5/lagrangian/reactingCloud1";
    object      nParticle;
}
// * * * * * * * * * * * * * * * * * * * * * * * * * * * * * * * * * * * * * //


151
(
100.3740538
101.2497249
100.5499781
100.381677
777.581112
106.8568676
100.9087979
100.1485587
788.3534262
5275.871324
143.0172217
100.1978242
100.1585561
104.962286
101.8095484
329.9830245
997.5693386
845.9625531
101.3002833
109.6969234
100.0227835
101.44833
254.6109782
109.4228734
154.8681776
102.694714
100.4616857
3328.243926
100.3600607
100.6923857
103.8814622
101.3586482
104.972668
100.2931107
100.1660894
100.6607917
106.157656
100.2013676
100.0326363
100.5853406
219.521458
119.3608756
100.352691
100.7877439
190.9184654
308.5830985
100.2601908
268.71451
6864.5236
118.5518223
222.5075383
100.0375353
100.1464132
102.0140438
100.4028496
101.1608357
101.2037147
105.4029668
100.4786781
100.1530892
329.1757505
932.7474746
1061.296848
100.6104607
100.807937
100.2495312
109.0435129
100.6147281
100.7519188
100.5009299
162.5353651
1815.532555
180.468956
101.7222283
778.634864
100.1967803
100.3277332
103.8883018
317.672818
5589.832548
102.4172682
557.3439638
101.5159777
100.0179182
580.2613993
104.1396987
108.3351503
101.7421002
197.7798476
100.6261859
104.0409917
100.5870224
100.898498
100.1543431
101.0974218
108.5928476
106.0096649
100.3861699
200.7703137
100.575321
160.5767845
100.1313659
101.4787811
489.6668542
102.2283606
698.6898251
294.0420339
302.5440363
100.8392625
101.9221195
1750.811079
101.0884674
101.791436
100.1280916
5044.764307
100.2461379
100.9570007
1023.446536
1448.660831
100.0290135
100.2897451
100.1495684
100.4237234
103.4077464
104.2753569
121.1309951
101.3145405
102.1612803
320.6603256
2142.53411
103.1050184
101.813896
101.798639
6835.033832
102.7702418
101.1224536
101.5425029
108.7962051
100.8549949
102.347856
106.3351228
107.321729
103.5214827
1281.303769
105.1502948
451.4117242
100.0593405
100.1893718
6046.91901
2343.581847
5002.925443
)


// ************************************************************************* //
