/*--------------------------------*- C++ -*----------------------------------*\
  =========                 |
  \\      /  F ield         | OpenFOAM: The Open Source CFD Toolbox
   \\    /   O peration     | Website:  https://openfoam.org
    \\  /    A nd           | Version:  8
     \\/     M anipulation  |
\*---------------------------------------------------------------------------*/
FoamFile
{
    version     2.0;
    format      ascii;
    class       scalarField;
    location    "1.1/lagrangian/reactingCloud1";
    object      age;
}
// * * * * * * * * * * * * * * * * * * * * * * * * * * * * * * * * * * * * * //


175
(
0.2502188934
0.2392061394
0.2351552677
0.2265583499
0.2213257964
0.2206860225
0.2195344295
0.217487153
0.2163782116
0.2060138746
0.2147574511
0.2037039439
0.2138191161
0.2113026721
0.1957054039
0.1942758421
0.1914167184
0.1890090353
0.1884071145
0.1875794734
0.1869023125
0.1852470304
0.1844946294
0.1839679487
0.1836669884
0.1834412681
0.2001086775
0.2060565262
0.1805821444
0.1800554637
0.1797545033
0.1790773424
0.1787011419
0.1782497013
0.1774973004
0.1760677385
0.1738857757
0.1734343351
0.1721552534
0.167941808
0.1666627263
0.1634274021
0.1623740408
0.1616968799
0.1611701992
0.158687276
0.1577843948
0.1555271919
0.1542481103
0.174111496
0.1498841846
0.1661360457
0.1675656075
0.1311979617
0.1501099049
0.130327899
0.1735848153
0.1282148897
0.1257289963
0.1559786325
0.1220262755
0.1213784438
0.1541728702
0.1561291127
0.1183984183
0.1381467294
0.1516899469
0.1158070918
0.1150296938
0.126226175
0.1482289025
0.1076095483
0.1040184285
0.1780992211
0.1410810932
0.09825535289
0.09801744647
0.09064293284
0.1040972212
0.08603024567
0.09611290667
0.07910693819
0.07875485585
0.07875485585
0.07848808861
0.1021274033
0.07785799706
0.07776714759
0.07675657468
0.07572937265
0.07456100745
0.07370312038
0.07322452707
0.07284090069
0.07014025752
0.0669378024
0.06645133581
0.06625674917
0.09214801596
0.1081168515
0.06197202202
0.06119249973
0.05982833572
0.05953601487
0.058561612
0.1242374603
0.05700256742
0.05534608256
0.05446911998
0.05349471712
0.05183823226
0.04936070373
0.04920859063
0.06615945586
0.04796401887
0.04788286148
0.04771971715
0.04581404963
0.09595417354
0.1753905776
0.09365418848
0.09722403853
0.04181594759
0.04070751311
0.04010345235
0.03990318574
0.08608629144
0.03783596518
0.06216690259
0.1104351061
0.03531126856
0.03442152988
0.03381819381
0.03281041226
0.03271720086
0.04615076566
0.1149001275
0.03129625889
0.03106443475
0.03098792136
0.1026001596
0.03016659166
0.02951397447
0.02570676424
0.02535780593
0.02469167444
0.0241343091
0.0241343091
0.02371336184
0.06810362769
0.02315209884
0.02301178309
0.02188925709
0.02048609958
0.01908294208
0.01908294208
0.01753946882
0.01655725857
0.01599599556
0.01431220656
0.01417189081
0.01403157506
0.01262841755
0.05125359054
0.01080431279
0.008278629283
0.007717366281
0.05047200693
0.1745629366
0.03009319449
0.158687276
0.004978158802
0.003422484177
0.04943723196
0.0001555674626
)


// ************************************************************************* //
