/*--------------------------------*- C++ -*----------------------------------*\
  =========                 |
  \\      /  F ield         | OpenFOAM: The Open Source CFD Toolbox
   \\    /   O peration     | Website:  https://openfoam.org
    \\  /    A nd           | Version:  8
     \\/     M anipulation  |
\*---------------------------------------------------------------------------*/
FoamFile
{
    version     2.0;
    format      ascii;
    class       scalarField;
    location    "1.1/lagrangian/reactingCloud1";
    object      Cp;
}
// * * * * * * * * * * * * * * * * * * * * * * * * * * * * * * * * * * * * * //


175
(
4182.948109
4182.94811
4182.94811
4182.948101
4182.948101
4182.948099
4182.948099
4182.948099
4182.948099
4182.948103
4182.9481
4182.948103
4182.9481
4182.9481
4182.948102
4182.948115
4182.94811
4182.948103
4182.948103
4182.948103
4182.948103
4182.948103
4182.948103
4182.948103
4182.948103
4182.948103
4182.948099
4182.948099
4182.948102
4182.948102
4182.948102
4182.948102
4182.948102
4182.948102
4182.948102
4182.948102
4182.948101
4182.948101
4182.948101
4182.948101
4182.948112
4182.948111
4182.948111
4182.9481
4182.948111
4182.9481
4182.948111
4182.948111
4182.948111
4182.948099
4182.94811
4182.948099
4182.948099
4182.948103
4182.948099
4182.948106
4182.948099
4182.948108
4182.948108
4182.948099
4182.948108
4182.948108
4182.948099
4182.948099
4182.948106
4182.948099
4182.948099
4182.948107
4182.948107
4182.948099
4182.948099
4182.948104
4182.948102
4182.948099
4182.9481
4182.948104
4182.948102
4182.948102
4182.948099
4182.948102
4182.948099
4182.948112
4182.948109
4182.948113
4182.948114
4182.948099
4182.948116
4182.948113
4182.948113
4182.948115
4182.948112
4182.948113
4182.948113
4182.948109
4182.948109
4182.94811
4182.948101
4182.948106
4182.948099
4182.948099
4182.948106
4182.948104
4182.948106
4182.9481
4182.948106
4182.948099
4182.948106
4182.948105
4182.948105
4182.948099
4182.948107
4182.948105
4182.948101
4182.948099
4182.948106
4182.948101
4182.9481
4182.948106
4182.948112
4182.948099
4182.948113
4182.948111
4182.948106
4182.948106
4182.948106
4182.9481
4182.948099
4182.948106
4182.948099
4182.948106
4182.948105
4182.948105
4182.948105
4182.948102
4182.9481
4182.948099
4182.948117
4182.948103
4182.9481
4182.948104
4182.948121
4182.948101
4182.948102
4182.948101
4182.9481
4182.9481
4182.9481
4182.9481
4182.948102
4182.948099
4182.948105
4182.9481
4182.9481
4182.9481
4182.948102
4182.9481
4182.9481
4182.948102
4182.948102
4182.948102
4182.9481
4182.948104
4182.948102
4182.9481
4182.948105
4182.948102
4182.948102
4182.9481
4182.948099
4182.948099
4182.948111
4182.948102
4182.948102
4182.9481
4182.948102
)


// ************************************************************************* //
