/*--------------------------------*- C++ -*----------------------------------*\
  =========                 |
  \\      /  F ield         | OpenFOAM: The Open Source CFD Toolbox
   \\    /   O peration     | Website:  https://openfoam.org
    \\  /    A nd           | Version:  8
     \\/     M anipulation  |
\*---------------------------------------------------------------------------*/
FoamFile
{
    version     2.0;
    format      ascii;
    class       scalarField;
    location    "1.1/lagrangian/reactingCloud1";
    object      d;
}
// * * * * * * * * * * * * * * * * * * * * * * * * * * * * * * * * * * * * * //


175
(
0.0007110831754
0.0005102139482
0.0009780334435
0.0006406262183
0.0006106551005
0.0008926299027
0.0005871580081
0.0006858418814
0.0005723076285
0.000574389795
0.0006264512031
0.0009096577382
0.0005254453234
0.0006681723103
0.0006921005832
0.001097167604
0.0006772544039
0.0006252925562
0.0006636974702
0.0007738020408
0.0007294824224
0.0009922829024
0.000774122088
0.0006897391158
0.0005782033562
0.0005172737713
0.0005266957624
0.001017228777
0.001129194843
0.0006379241766
0.0005465724805
0.0006932016241
0.0005373821245
0.000590146818
0.0006888372024
0.0008108943631
0.0008555743904
0.0005080285274
0.0006962502281
0.0008615973383
0.001022269702
0.0007935733041
0.0005731777681
0.0008615467943
0.000593830857
0.0007523713841
0.0005446942051
0.0007191405978
0.000598470071
0.0009053201006
0.0008018479559
0.0009252746334
0.0009312015104
0.000532543926
0.0005684058509
0.0009891184582
0.0008132639271
0.001073959329
0.001147821696
0.00090143232
0.0009225920591
0.001142579085
0.0005235833362
0.0006264512031
0.0008701384309
0.0006252925562
0.000562513822
0.001189041234
0.0005557658393
0.001188910497
0.0005975559345
0.0009325595332
0.0006585863811
0.000920778852
0.0006852293262
0.001036340679
0.000675873034
0.0007875785814
0.0005815243739
0.00065548763
0.0005577349014
0.0008929890978
0.0008637586547
0.0005438605765
0.0005019196792
0.001062560247
0.0006998801458
0.0005118889032
0.001033669129
0.0009866155845
0.0007538282201
0.0008621459332
0.0005250709943
0.0007563249291
0.0008606794234
0.00109325975
0.0006854323469
0.000916239751
0.0005803368864
0.000593830857
0.0009177536598
0.0009440332603
0.0007503131061
0.000553351894
0.0006355019744
0.0008108943631
0.0006815387149
0.0007188564253
0.0007664892186
0.0005016996882
0.0007641491689
0.001129503681
0.0008522225518
0.0007399995816
0.0007316163649
0.0005262480079
0.0008679584242
0.0008912321838
0.000511434008
0.0007297220546
0.0006412645855
0.0008848342058
0.00104045259
0.0006630962915
0.0005280850394
0.001145533631
0.0005394687736
0.0008062033145
0.00065548763
0.0009177148359
0.0008044662196
0.0005768945275
0.0005246360811
0.0009830943845
0.0005684058509
0.0009586998557
0.00101979341
0.0009197758663
0.0008444018383
0.0008974439232
0.00103139407
0.001050944168
0.0006521361212
0.000907388557
0.0009748530079
0.0005093675108
0.0005270073815
0.0005105164778
0.0008150281658
0.0005653604479
0.00096705856
0.0006274044324
0.0005993054756
0.0006187923486
0.000916403387
0.0006038187384
0.0006073244648
0.0008178471679
0.0005061152528
0.0007454130723
0.0006783508475
0.0005209848778
0.0007865589636
0.001039158074
0.0008016362905
0.001144958224
0.0005556317784
0.0005278690562
0.0005583172327
0.001007906054
0.0007473893126
0.001010532677
0.0008161637573
0.0005826119758
0.001043555458
)


// ************************************************************************* //
