/*--------------------------------*- C++ -*----------------------------------*\
  =========                 |
  \\      /  F ield         | OpenFOAM: The Open Source CFD Toolbox
   \\    /   O peration     | Website:  https://openfoam.org
    \\  /    A nd           | Version:  8
     \\/     M anipulation  |
\*---------------------------------------------------------------------------*/
FoamFile
{
    version     2.0;
    format      ascii;
    class       scalarField;
    location    "1.1/lagrangian/reactingCloud1";
    object      mass0;
}
// * * * * * * * * * * * * * * * * * * * * * * * * * * * * * * * * * * * * * //


175
(
1.872274959e-07
6.916165882e-08
4.871576607e-07
1.369060197e-07
1.185758878e-07
3.703588376e-07
1.05407954e-07
1.679888373e-07
9.761060901e-08
9.867986906e-08
1.280177415e-07
3.919606538e-07
7.554244052e-08
1.553366162e-07
1.726299179e-07
6.877448502e-07
1.617573162e-07
1.273087326e-07
1.522365402e-07
2.412670594e-07
2.021403035e-07
5.08762325e-07
2.415665498e-07
1.708688854e-07
1.00658451e-07
7.207253401e-08
7.650293464e-08
5.511306139e-07
7.497475862e-07
1.351809841e-07
8.502599109e-08
1.734551237e-07
8.080868996e-08
1.070258357e-07
1.701994691e-07
2.776522919e-07
3.261232397e-07
6.82767308e-08
1.757536972e-07
3.330592227e-07
5.562946552e-07
2.602373146e-07
9.805650976e-08
3.330006112e-07
1.090427266e-07
2.217712403e-07
8.415243449e-08
1.936644202e-07
1.116183837e-07
3.885126029e-07
2.68463037e-07
4.147731076e-07
4.204742776e-07
7.86456535e-08
9.615552456e-08
5.039104191e-07
2.800934454e-07
6.450181333e-07
7.874658124e-07
3.814238045e-07
4.089192503e-07
7.767249029e-07
7.474219813e-08
1.287242486e-07
3.430626752e-07
1.280113266e-07
9.268469243e-08
8.753851304e-07
8.938897677e-08
8.799259106e-07
1.111076877e-07
4.223165652e-07
1.487464658e-07
4.087564611e-07
1.675391249e-07
5.795835565e-07
1.607695427e-07
2.543841855e-07
1.029680266e-07
1.466567037e-07
9.084103819e-08
3.708061172e-07
3.355719528e-07
8.376665169e-08
6.584322453e-08
6.281441416e-07
1.78516943e-07
6.984503912e-08
5.751128327e-07
5.000947946e-07
2.230620014e-07
3.33695824e-07
7.538110574e-08
2.252857205e-07
3.319958692e-07
6.804222357e-07
1.676880852e-07
4.005306985e-07
1.023385238e-07
1.096445136e-07
4.02519379e-07
4.380970268e-07
2.19956103e-07
8.82292567e-08
1.336469745e-07
2.791846052e-07
1.648466068e-07
1.934349278e-07
2.344912114e-07
6.575668505e-08
2.323500951e-07
7.503629309e-07
3.223053285e-07
2.121744303e-07
2.039194508e-07
7.58891717e-08
3.404906466e-07
3.68621789e-07
6.965899903e-08
2.023395756e-07
1.373156979e-07
3.607398574e-07
5.865098449e-07
1.518232263e-07
7.668669325e-08
7.827659939e-07
8.220487172e-08
2.728614338e-07
1.474660758e-07
4.024682978e-07
2.711014596e-07
9.997644192e-08
7.519394745e-08
4.94759412e-07
9.562777196e-08
4.613670857e-07
5.522618253e-07
4.051860164e-07
3.135132705e-07
3.763833317e-07
5.71323793e-07
6.044318643e-07
1.444186186e-07
3.890346754e-07
4.824205798e-07
6.881801478e-08
7.621816922e-08
6.928475905e-08
2.819202491e-07
9.461824522e-08
4.709412576e-07
1.286030195e-07
1.120864605e-07
1.233795617e-07
4.007453349e-07
1.146378883e-07
1.166462406e-07
2.848556781e-07
6.750822607e-08
2.156748142e-07
1.625442211e-07
7.363491188e-08
2.533974688e-07
5.843233842e-07
2.682504924e-07
7.815870251e-07
8.932430543e-08
7.659263858e-08
9.062572966e-08
5.361160191e-07
2.173947589e-07
5.373527847e-07
2.831003035e-07
1.029785187e-07
5.91772828e-07
)


// ************************************************************************* //
