/*--------------------------------*- C++ -*----------------------------------*\
  =========                 |
  \\      /  F ield         | OpenFOAM: The Open Source CFD Toolbox
   \\    /   O peration     | Website:  https://openfoam.org
    \\  /    A nd           | Version:  8
     \\/     M anipulation  |
\*---------------------------------------------------------------------------*/
FoamFile
{
    version     2.0;
    format      ascii;
    class       scalarField;
    location    "1.1/lagrangian/reactingCloud1";
    object      nParticle;
}
// * * * * * * * * * * * * * * * * * * * * * * * * * * * * * * * * * * * * * //


175
(
487.5320558
3204.483939
160.9937661
100.0379227
100.3631204
100.082286
102.7724684
101.1934125
101.1021528
156.9596291
100.8787865
100.4912521
100.9967123
100.5427864
100.1654274
100.3066177
844.6676567
109.9441688
111.9979639
102.3298209
104.8685501
101.7490353
103.8215296
104.2415504
102.0685119
106.9933033
6392.550521
909.3238564
100.2193423
110.7639212
100.1043725
102.8752846
121.0602348
105.3008758
101.7753528
100.1646482
100.606938
107.9552358
100.4006226
100.1271129
100.0038634
100.198379
100.8229894
100.3568008
103.7765485
101.2948732
102.443691
102.6366275
104.174375
1307.217974
100.2367551
1179.104008
149.502581
100.0582828
5281.762645
100.4421784
117.7769502
100.1779325
100.8049443
100.0554721
101.5274451
163.5104567
102.1707466
3799.289092
285.5021293
3820.448131
100.7885473
100.7439617
112.8289272
565.0233347
100.9989621
100.0892566
100.4614687
1242.477382
100.1406021
375.4489729
655.1921813
100.5356367
4891.896153
100.7213825
5460.006921
103.3539725
122.984916
113.0599229
121.161593
783.9832266
102.9213978
102.5912308
100.4877982
101.6855854
103.078366
101.0705067
104.7356435
131.7948226
101.2073326
100.4785311
101.0371396
100.8874434
4841.387017
4586.048882
101.1258335
100.2084643
102.3611338
152.1678818
104.2151612
1780.824096
105.507346
101.8634221
100.1067631
609.262596
100.2650587
100.4602991
101.6240884
2291.103423
103.1752821
103.6773453
164.7348183
103.3968156
103.2858959
283.3910507
101.8925678
100.6560156
101.9577186
101.4157603
106.2263391
100.6476226
6019.049291
100.6857251
3303.82041
100.0106119
103.0792897
108.5043658
106.5827279
100.3348394
148.6072306
1073.646084
100.2652349
116.3718353
100.004546
102.1802962
100.1471074
109.8229873
100.280878
100.3500562
100.4033022
117.1191359
102.8580613
102.9668582
103.5530955
5382.620506
100.0061642
102.0176341
107.7388978
108.6769295
103.6137881
107.7079629
107.0950718
101.5730819
106.5611026
108.0035385
100.0201321
100.7407715
104.2468523
106.6687292
100.1956166
102.365797
124.4944532
106.9317821
107.8117493
927.5844499
100.7157292
102.1451434
106.4458483
106.4378048
102.0789816
)


// ************************************************************************* //
