/*--------------------------------*- C++ -*----------------------------------*\
  =========                 |
  \\      /  F ield         | OpenFOAM: The Open Source CFD Toolbox
   \\    /   O peration     | Website:  https://openfoam.org
    \\  /    A nd           | Version:  8
     \\/     M anipulation  |
\*---------------------------------------------------------------------------*/
FoamFile
{
    version     2.0;
    format      ascii;
    class       Cloud<basicReactingMultiphaseParcel>;
    location    "1.1/lagrangian/reactingCloud1";
    object      positions;
}
// * * * * * * * * * * * * * * * * * * * * * * * * * * * * * * * * * * * * * //

175
(
(0.2105529918 0.1965779523 0.158263343 0.4346057129) 1032 623 1
(0.03633740029 0.4311545149 0.2145050972 0.3180029876) 3369 7386 1
(0.7385935951 0.2128348887 0.04183896007 0.006732556105) 2821 8273 2
(0.5375825327 0.02107702936 0.3412874995 0.1000529385) 4349 12745 1
(0.03547654779 0.533766694 0.0983620912 0.332394667) 5206 15256 1
(0.1780739535 0.2098932181 0.1594594959 0.4525733325) 5216 15286 1
(0.2041775826 0.2827290247 0.1659709775 0.3471224151) 6082 17735 2
(0.5681949957 0.04773484048 0.3474988783 0.03657128546) 6083 17825 1
(0.1044887692 0.03567974671 0.4988548876 0.3609765964) 6923 17739 2
(0.5974034456 0.2757502123 0.1119774097 0.01486893243) 8741 23000 2
(0.1657638868 0.0395669445 0.5489194058 0.2457497629) 6923 20283 1
(0.1640409809 0.233756682 0.1537987013 0.4484036358) 9485 27784 2
(0.7369873302 0.01041639964 0.2340382959 0.01855797421) 6923 20280 2
(0.1530310389 0.5773017599 0.06131604764 0.2083511535) 6924 20288 2
(0.6985727785 0.1139276839 0.1582654262 0.02923411139) 9672 28336 2
(0.01981045244 0.3315189268 0.2358748024 0.4127958183) 9707 28439 2
(0.09952570021 0.210785079 0.1365039839 0.5531852369) 10317 30213 2
(0.03478593176 0.3696957235 0.5350137489 0.06050459585) 11494 33583 2
(0.1718959579 0.1725107409 0.4508114015 0.2047818997) 10619 31110 1
(0.02073206238 0.2701726286 0.01402514144 0.6950701675) 11557 31199 1
(0.3209953819 0.4065172449 0.006418884774 0.2660684884) 11558 31202 2
(0.0240008078 0.4448280807 0.1980975431 0.3330735683) 11588 33949 1
(0.2014883898 0.05155221547 0.4796247438 0.2673346509) 11589 33953 2
(0.02273309097 0.2395566532 0.3899908344 0.3477194215) 11590 33956 1
(0.2121948126 0.1196491656 0.3746377806 0.2935182412) 11590 33957 2
(0.004445012077 0.4199640259 0.04613378006 0.529457182) 12498 33957 2
(0.2501817967 0.5787378446 0.03646453941 0.1346158193) 6482 19005 2
(0.1724075472 0.1910305682 0.06941910498 0.5671427796) 3917 11491 2
(0.3305980135 0.6013990647 0.06043200763 0.007570914209) 12559 34137 2
(0.1822351347 0.3220236234 0.4287829612 0.06695828072) 12530 36707 1
(0.2896391998 0.2070460367 0.3901813176 0.1131334459) 12530 36707 2
(0.2693582306 0.1479290737 0.5241366328 0.05857606288) 12531 36710 1
(0.1833312666 0.007105045938 0.05136243877 0.7582012486) 12530 36625 2
(0.2455063339 0.4217301486 0.2129803207 0.1197831967) 12531 36715 1
(0.119822026 0.4724134316 0.1760338499 0.2317306925) 12532 36718 2
(0.2332160671 0.3666515492 0.3719952493 0.02813713441) 13451 36721 2
(0.1620806467 0.1787486393 0.3369157988 0.3222549151) 13451 39324 2
(0.6508564361 0.06496591116 0.2818592534 0.002318399368) 13392 39231 1
(0.01297788333 0.3452647415 0.3532173257 0.2885400495) 13422 39238 1
(0.1482707493 0.02173749659 0.1694968354 0.6604949186) 14310 39236 1
(0.06893420838 0.5971991262 0.2999440458 0.03392261963) 14378 39430 1
(0.7480504245 0.08245854518 0.1400270312 0.02946399907) 14378 42120 2
(0.3862673032 0.1465125943 0.2217817544 0.2454383482) 14378 42038 1
(0.115777887 0.08079630896 0.6809917399 0.1224340642) 14247 41736 2
(0.2753728986 0.5225193104 0.1066684324 0.09543935865) 14378 42125 1
(0.01307878493 0.7089472759 0.1755098752 0.102464064) 15172 44345 1
(0.2121689265 0.01432362909 0.2735401622 0.4999672823) 15275 44734 1
(0.08136265477 0.1236046358 0.6995410632 0.09549164623) 15274 44735 2
(0.246834917 0.1886911205 0.1592744322 0.4051995303) 15274 44736 1
(0.4954857888 0.1817975198 0.1106723069 0.2120443845) 8777 25715 1
(0.1857890649 0.2024979051 0.4787010577 0.1330119722) 15951 46705 2
(0.04950956239 0.4088874306 0.4513483733 0.09025463369) 9790 28602 1
(0.09208850756 0.773719356 0.1167393058 0.01745283063) 14058 38491 1
(0.517713995 0.1262793263 0.2480522618 0.1079544169) 17885 52286 1
(0.06862098397 0.4262114548 0.339461633 0.1657059283) 18805 55064 2
(0.2905403733 0.1030133091 0.05896619023 0.5474801274) 18643 54589 2
(0.2998711114 0.2883066801 0.3169767469 0.09484546164) 13108 35717 1
(0.03687454145 0.2482633644 0.375083392 0.3397787022) 18704 54765 1
(0.5459231651 0.02061411001 0.1581762746 0.2752864503) 18731 54850 2
(0.0765161943 0.03797130704 0.7985319032 0.08698059549) 14917 43679 1
(0.2241677463 0.2841853999 0.1575204134 0.3341264404) 19616 57759 3
(0.2999643804 0.2792452599 0.1318431364 0.2889472234) 19556 57491 1
(0.2341537089 0.4089456652 0.1509246831 0.2059759429) 15833 46352 1
(0.2278730164 0.03337501309 0.04483990947 0.693912061) 17779 52063 1
(0.214701868 0.339633048 0.07525017667 0.3704149073) 19497 57241 2
(0.8779665453 0.04635775117 0.04437654332 0.03129916021) 19686 58075 2
(0.08856794249 0.3960325778 0.1524230428 0.3629764369) 15833 46352 2
(0.003014236906 0.1153860609 0.6198308319 0.2617688703) 19613 57741 1
(0.04925959216 0.1400433525 0.7181108207 0.09258623461) 52440 161166 2
(0.3377909624 0.1861426579 0.3254357904 0.1506305893) 54867 167277 1
(0.02356856032 0.2106220672 0.5329336189 0.2328757536) 15832 46354 1
(0.02578878367 0.6259765954 0.2125081268 0.1357264942) 52763 161986 2
(0.6571200189 0.04792729167 0.2477236993 0.0472289901) 54152 165469 2
(0.07778660037 0.3196235956 0.4866196623 0.1159701417) 13115 38324 1
(0.184708703 0.004070382021 0.683840462 0.127380453) 16718 48944 1
(0.114679408 0.0656235984 0.4566470381 0.3630499554) 53978 63431 2
(0.2812040161 0.545203465 0.02324903761 0.1503434812) 54191 165558 2
(0.06588423677 0.2410825617 0.5859805108 0.1070526907) 22291 67141 2
(0.2744492354 0.0908658693 0.2836915864 0.3509933089) 60835 181871 1
(0.318799894 0.01410717487 0.1496019557 0.5174909754) 55580 169053 1
(0.2674951894 0.0425117565 0.3847934454 0.3051996086) 62342 185609 2
(0.3823070208 0.128271217 0.08330068058 0.4061210817) 56445 167988 2
(0.09552668009 0.255648862 0.1967481857 0.4520762723) 56753 171726 1
(0.4221827629 0.2267345504 0.2344048553 0.1166778314) 23072 69827 1
(0.3569860741 0.1236793514 0.2233570182 0.2959775562) 56354 69827 1
(0.2279000117 0.2106772634 0.4166287118 0.1447940131) 60172 180056 2
(0.3898619939 0.3689419916 0.1101576225 0.131038392) 23086 69901 2
(0.01094340677 0.546975159 0.2997523945 0.1423290397) 56346 69821 1
(0.3230662128 0.05124303729 0.3532921488 0.2723986011) 56454 171224 1
(0.4909462786 0.09978805489 0.1124031593 0.2968625072) 56446 70007 2
(0.03598810619 0.6233551695 0.2175644524 0.1230922719) 56445 69903 2
(0.006902083598 0.2330322061 0.1404821298 0.6195835806) 56566 171509 1
(0.2808760496 0.08759652927 0.3482272633 0.2833001579) 56566 171512 1
(0.1974038902 0.4340067932 0.2531715713 0.1154177453) 56540 171436 2
(0.1105004268 0.3775117766 0.5091666724 0.002821124173) 56448 171196 1
(0.6952384953 0.02882906946 0.1834768576 0.09245557767) 56687 171819 2
(0.2300017651 0.5322656938 0.04305235954 0.1946801816) 57046 172729 2
(0.1956905307 0.4709960581 0.06257368492 0.2707397263) 56757 171998 2
(0.3993682753 0.1621471723 0.0481358878 0.3903486646) 29322 91951 1
(0.7282243377 0.01149644383 0.2543072295 0.005971988948) 61318 183067 2
(0.02859728095 0.2191923684 0.3647540585 0.3874562922) 58050 175093 2
(0.1173541378 0.1771404498 0.4489686358 0.2565367766) 57634 174153 2
(0.6632748039 0.04559835154 0.105644595 0.1854822496) 57945 174869 1
(0.06111090958 0.5577822262 0.3174895507 0.06361731359) 58154 73727 1
(0.368754206 0.1503416246 0.2480706684 0.232833501) 24049 73449 2
(0.1590499142 0.3943073668 0.1452142079 0.3014285111) 22202 66744 2
(0.02627305076 0.249788427 0.5007760942 0.223162428) 57837 174611 2
(0.2336326493 0.4243698433 0.2027667018 0.1392308056) 57724 174354 2
(0.2780769665 0.5488510823 0.01229170356 0.1607802476) 57929 174822 1
(0.6557835087 0.06446036028 0.08727791114 0.1924782199) 57940 174621 2
(0.534188544 0.02514840295 0.2118846189 0.2287784341) 57948 174875 1
(0.1206485722 0.5050436361 0.2528493458 0.121458446) 57592 174063 1
(0.2660757821 0.5709818702 0.1297176744 0.03322467327) 58401 175923 2
(0.2856263289 0.09022957247 0.1079504247 0.5161936739) 34233 106411 2
(0.1889521039 0.6442861982 0.09798555535 0.06877614253) 57724 174362 2
(0.06899512461 0.5906068599 0.0513167726 0.2890812429) 58421 175975 2
(0.07313147149 0.7742482086 0.02675200999 0.1258683099) 58401 175923 1
(0.07293569392 0.3772112782 0.3064547362 0.2433982917) 24959 76737 1
(0.5096783231 0.122882715 0.3085328731 0.05890608884) 53792 164544 1
(0.2335112441 0.1505262761 0.565767657 0.05019482268) 12139 35555 2
(0.7101588462 0.0259303155 0.1946966168 0.06921422157) 53798 164572 1
(0.5013831268 0.001794599147 0.4154238073 0.0813984667) 53785 164526 1
(0.3735536229 0.1776537774 0.3009285355 0.1478640642) 24958 76733 1
(0.1364274039 0.4283820576 0.1909579282 0.2442326104) 58948 177267 2
(0.4076861836 0.2204190871 0.07923509388 0.2926596355) 58948 177267 2
(0.9302695441 0.04620984045 0.01796945488 0.005551160599) 25051 77153 2
(0.2454248203 0.4738051383 0.0208054909 0.2599645504) 64677 191394 1
(0.6195767342 0.23138965 0.1368131019 0.01222051394) 58948 177265 2
(0.6840222722 0.154589427 0.09452882052 0.0668594803) 34148 108775 2
(0.3961415494 0.5365594269 0.01666137707 0.05063764665) 52485 161281 1
(0.2681768817 0.1566148861 0.3378922526 0.2373159797) 58947 177264 2
(0.1846322291 0.304041365 0.002513632106 0.5088127738) 51642 159065 1
(0.1911797292 0.4376583305 0.2145451959 0.1566167445) 51642 159065 1
(0.06977175672 0.1103236293 0.4637649988 0.3561396151) 58867 177057 1
(0.02715977703 0.1182961327 0.5161427533 0.3384013369) 51915 159763 2
(0.6003263101 0.3112018854 0.08367156838 0.004800236079) 38255 120766 1
(0.1127655478 0.02706741679 0.03341059821 0.8267564372) 19431 56917 2
(0.1541575606 0.04597944546 0.3853828401 0.4144801539) 51590 158921 2
(0.2240643588 0.07266320596 0.5498855917 0.1533868436) 51873 159659 1
(0.05669532523 0.06927281876 0.4197475934 0.4542842626) 58991 177273 2
(0.02510982995 0.07503352609 0.4662404184 0.4336162255) 53808 161384 1
(0.07044857271 0.01789218303 0.07373991172 0.8379193325) 51588 158927 1
(0.07533826558 0.1704289927 0.2704760638 0.4837566779) 59042 177488 1
(0.530844422 0.0008998717295 0.429217451 0.03903825525) 51646 159071 1
(0.2031033459 0.1870712716 0.2239610865 0.385864296) 51709 159233 2
(0.5135081239 0.1970825822 0.225278347 0.0641309469) 58951 177273 2
(0.4555721772 0.2615199069 0.1378290083 0.1450789076) 58909 177167 1
(0.6705963885 0.06266875305 0.1002986106 0.1664362479) 58951 177273 1
(0.1112722303 0.4530878621 0.2800895572 0.1555503504) 59035 177473 1
(0.1575367855 0.3197140627 0.3139200577 0.2088290941) 33418 106396 2
(0.16178381 0.176313478 0.4766132941 0.1852894179) 51643 159054 1
(0.5025292411 0.1289858955 0.140721626 0.2277632374) 58951 177273 1
(0.1364848906 0.3608001158 0.1220018788 0.3807131147) 58951 177273 1
(0.4015421601 0.3324153865 0.2090463837 0.05699606972) 58991 177273 1
(0.3519334655 0.1504219812 0.2574772771 0.2401672762) 58993 159238 1
(0.6640380813 0.1585555345 0.1427856797 0.03462070451) 58991 159234 2
(0.3025937422 0.1803708573 0.4972604391 0.01977496149) 58991 177371 1
(0.2402263586 0.5302848643 0.2267020423 0.002786734739) 58991 159234 1
(0.2608746096 0.5902657681 0.02408281729 0.124776805) 58991 159234 1
(0.09677914577 0.6638565443 0.2083233382 0.03104097165) 58991 177273 2
(0.2202610453 0.1189057598 0.4371414217 0.2236917732) 51769 159378 2
(0.5217278857 0.2806235271 0.07258322149 0.1250653657) 51911 203330 2
(0.05363766783 0.7118885555 0.07748370925 0.1569900675) 58991 159234 1
(0.5732874932 0.06839137495 0.1916379008 0.166683231) 57638 174162 1
(0.4946766764 0.1686778333 0.2759377777 0.06070771264) 51911 203330 2
(0.1145023105 0.6696626168 0.09532558311 0.1205094896) 51707 159075 1
(0.1849192313 0.7466462058 0.06815136314 0.0002831997284) 51707 159075 1
(0.350923575 0.2365048917 0.3294585353 0.08311299792) 57644 174175 1
(0.1184891319 0.607431638 0.09508102193 0.1789982082) 13043 206906 2
(0.1040120893 0.7446184313 0.02006271023 0.1313067692) 38925 122727 2
(0.3417705755 0.5102595235 0.1093771029 0.03859279816) 15304 44820 1
(0.1576186348 0.6328150267 0.1450440598 0.06452227862) 51646 159075 2
(0.329467274 0.4800535572 0.1375492973 0.05292987153) 51646 203086 1
(0.006443168977 0.1901851799 0.6287503913 0.1746212599) 57644 174175 1
(0.3961643126 0.2892563211 0.02050826711 0.2940710991) 51646 203086 1
)


// ************************************************************************* //
