/*--------------------------------*- C++ -*----------------------------------*\
  =========                 |
  \\      /  F ield         | OpenFOAM: The Open Source CFD Toolbox
   \\    /   O peration     | Website:  https://openfoam.org
    \\  /    A nd           | Version:  8
     \\/     M anipulation  |
\*---------------------------------------------------------------------------*/
FoamFile
{
    version     2.0;
    format      ascii;
    class       scalarField;
    location    "1.1/lagrangian/reactingCloud1";
    object      T;
}
// * * * * * * * * * * * * * * * * * * * * * * * * * * * * * * * * * * * * * //


175
(
299.999987
299.9999856
299.999986
299.9999967
299.9999968
299.9999993
299.9999993
299.9999992
299.9999992
299.999995
299.9999991
299.999995
299.9999991
299.9999989
299.9999955
299.9999804
299.999986
299.9999945
299.9999945
299.9999945
299.9999946
299.9999948
299.999995
299.9999951
299.9999951
299.9999952
300
300
299.9999957
299.9999958
299.9999959
299.999996
299.9999961
299.9999961
299.9999963
299.9999965
299.9999968
299.9999969
299.9999971
299.9999976
299.9999841
299.9999843
299.9999844
299.9999983
299.9999845
299.9999984
299.9999848
299.999985
299.9999851
300
299.9999863
300
299.9999998
299.9999949
300
299.9999913
299.9999999
299.9999881
299.9999888
299.9999996
299.9999891
299.9999885
299.9999995
300
299.9999915
300
299.9999995
299.9999897
299.9999893
300
299.9999993
299.9999938
299.9999955
300
299.9999991
299.9999938
299.999996
299.9999958
300
299.9999955
300
299.9999841
299.9999879
299.999982
299.9999807
300
299.9999788
299.9999827
299.9999821
299.9999797
299.999983
299.9999826
299.9999828
299.9999879
299.9999875
299.9999865
299.9999972
299.9999913
300
300
299.9999916
299.9999935
299.9999916
299.999998
299.9999915
300
299.9999916
299.9999917
299.9999926
299.9999997
299.9999893
299.9999917
299.9999977
300
299.9999914
299.9999969
299.9999983
299.9999911
299.9999836
299.9999998
299.9999823
299.9999842
299.9999913
299.9999913
299.9999914
299.999999
300
299.9999916
300
299.9999906
299.9999922
299.9999926
299.9999928
299.9999955
299.9999988
300
299.9999779
299.9999951
299.9999986
299.9999938
299.9999728
299.9999978
299.9999962
299.9999979
299.9999987
299.9999987
299.9999983
299.9999987
299.9999957
300
299.9999923
299.9999987
299.9999987
299.9999987
299.9999954
299.9999986
299.9999986
299.9999956
299.9999957
299.9999957
299.9999984
299.9999934
299.9999956
299.9999988
299.9999923
299.9999954
299.9999954
299.9999988
299.9999999
300
299.9999847
299.9999954
299.9999955
299.9999988
299.9999956
)


// ************************************************************************* //
