/*--------------------------------*- C++ -*----------------------------------*\
  =========                 |
  \\      /  F ield         | OpenFOAM: The Open Source CFD Toolbox
   \\    /   O peration     | Website:  https://openfoam.org
    \\  /    A nd           | Version:  8
     \\/     M anipulation  |
\*---------------------------------------------------------------------------*/
FoamFile
{
    version     2.0;
    format      ascii;
    class       vectorField;
    location    "1.1/lagrangian/reactingCloud1";
    object      U;
}
// * * * * * * * * * * * * * * * * * * * * * * * * * * * * * * * * * * * * * //


175
(
(0.1777056001 0.1930031381 -2.167026859)
(0.1310231411 -0.001013217263 -2.063763147)
(0.07883739795 0.4254968121 -2.198831527)
(0.6152153947 0.04609771764 -2.010767467)
(0.4516486071 0.04655836625 -1.942021089)
(0.7373183746 0.3625112042 -2.012297969)
(0.6585833058 0.3228573611 -1.902766794)
(0.7240488934 0.3466627667 -1.935758183)
(0.6995787118 0.3209281037 -1.886395332)
(0.2073675717 0.08593420235 -1.767209077)
(0.7311115304 0.3261674797 -1.8888959)
(-0.3043272282 0.1599674545 -1.677630378)
(0.693881011 0.2973524332 -1.838114619)
(0.7558842847 0.3119504371 -1.874982429)
(0.09563203984 0.1495899423 -1.820388482)
(0.1011958663 0.3670735028 -1.85389178)
(0.1549548133 0.0013407786 -1.71863239)
(0.1990441024 0.4082301289 -1.732278191)
(0.297976626 0.4810321649 -1.779493115)
(0.3374054054 0.5242865357 -1.755490867)
(0.361656167 0.5358706467 -1.725839104)
(0.4428736593 0.6168098912 -1.73841759)
(0.463913533 0.6131135577 -1.691624618)
(0.4727059376 0.6016011238 -1.656341066)
(0.4587186615 0.5676601683 -1.616831181)
(0.4468050439 0.5408439212 -1.588182965)
(0.4029760051 0.8858831738 -2.988136114)
(0.311195165 0.9759052657 -3.237601742)
(0.6456919592 0.7217766222 -1.682952877)
(0.5801523799 0.6276091794 -1.586179254)
(0.5593915967 0.5884920354 -1.546656047)
(0.6344875405 0.6431915737 -1.578274982)
(0.585755286 0.5750690322 -1.522198601)
(0.6256244278 0.5971829733 -1.535840843)
(0.6855229588 0.6312104286 -1.553271718)
(0.755950401 0.6580227014 -1.56602622)
(0.8035810384 0.6506235388 -1.559720549)
(0.6509287945 0.5047534928 -1.466331988)
(0.7649968072 0.5776456117 -1.525042762)
(0.805412696 0.586154612 -1.5522531)
(-0.2554309759 0.5807269953 -1.63515753)
(-0.2551448632 0.5878451619 -1.600520707)
(-0.2428934996 0.5616551161 -1.587568362)
(0.7052204894 0.5387501222 -1.535317449)
(-0.2508634235 0.570900462 -1.5762301)
(0.6242255176 0.5038326878 -1.514061959)
(-0.2653110565 0.5570478836 -1.544854721)
(-0.29535357 0.5850971318 -1.525264868)
(-0.2953335015 0.5503529145 -1.517858985)
(0.713002078 0.4191118327 -3.212670701)
(-0.02490045691 0.0579571399 -1.413938924)
(0.335566461 0.6342636667 -3.259956248)
(0.5930715446 0.2798300012 -1.611789823)
(0.2562512141 0.1887801751 -1.330860872)
(1.000063486 0.4383167181 -2.701755055)
(0.169355923 -0.02973889761 -1.255629363)
(0.6083928878 0.2508151785 -1.649245225)
(0.02140829728 0.1178662805 -1.246713544)
(-0.1679745713 0.2303952232 -1.217575289)
(0.4128218914 0.2237785353 -1.497583485)
(-0.1583323278 0.2107309235 -1.157219985)
(-0.08327636627 0.0264050438 -1.154561287)
(0.3547765882 0.1827135144 -1.430891721)
(1.106309328 0.2156605865 -2.682916696)
(0.1644359637 -0.07379014786 -1.144584789)
(0.9229408588 0.4465069321 -2.830466663)
(0.3598510968 0.1863839023 -1.423624088)
(-0.4791393887 0.2723686124 -1.104512528)
(-0.094157674 -0.397624988 -0.9698716066)
(0.6119881635 0.6574052599 -2.871320697)
(0.3553202143 0.1842852936 -1.403199746)
(-0.2585595257 0.02446985356 -0.9844553049)
(-0.199819897 0.1321965567 -0.9150327687)
(1.136180555 0.008803391329 -2.808259709)
(0.3340022567 0.1747723526 -1.364781334)
(0.1466626501 -0.09761976958 -0.959115032)
(0.1663029212 0.2110766341 -0.9602059346)
(0.1615560086 0.2829973855 -0.8917897742)
(0.7651267143 0.6020089295 -2.56907432)
(0.1355670773 0.3016080278 -0.8457627671)
(0.7032476316 0.642489523 -2.566983494)
(0.09272291568 -0.1793054551 -0.7746036735)
(0.09801505284 0.2230008172 -0.7697138131)
(0.04251296018 -0.2845059102 -0.7680614996)
(0.03465794599 -0.2626313119 -0.7596140231)
(0.3593780766 0.667726949 -2.747528994)
(0.03524146089 -0.2071439122 -0.7544170294)
(-0.03018383686 -0.2536779049 -0.7364273023)
(0.3908904443 0.2411434192 -0.757168516)
(0.05191137911 -0.1120483147 -0.7369112334)
(0.07971598941 -0.20437457 -0.7314846623)
(0.6372239298 0.3816583343 -0.741894473)
(0.67198082 0.3865052967 -0.7730048305)
(0.02287526011 0.06815122043 -0.7005995812)
(0.02976093618 -0.1331987005 -0.6823317413)
(0.9939091454 0.5177672144 -0.677764695)
(0.2212397903 0.01651621454 -0.6548634382)
(0.2035903778 0.4275065785 -0.6511186271)
(0.2939926614 0.8498866016 -2.492591881)
(1.110260915 0.203890253 -2.478308667)
(0.2477726557 0.5402268086 -0.6147834773)
(-0.01012549353 -0.1355549193 -0.5967399017)
(0.2870132798 0.4152868806 -0.5963087261)
(0.2690153693 0.07778077508 -0.6179492755)
(0.3154549165 0.3466800377 -0.5872587495)
(0.9333919416 -0.07201003417 -2.805289151)
(0.1822561487 0.2481937344 -0.5552246106)
(-0.06439864204 0.01058026866 -0.5255351413)
(-0.1158853883 0.1983790514 -0.5178383593)
(0.08852964579 -0.1066099143 -0.524641828)
(0.5383786454 0.4023717996 -0.5202559065)
(-0.3594340511 -0.3438113576 -0.4780433892)
(-0.391956887 0.148276909 -0.4892495212)
(0.4887466482 0.8403849987 -2.282841289)
(-0.1281230232 0.0480472984 -0.4585828481)
(0.2228165426 0.09501847727 -0.4811566498)
(-0.5043734352 0.1660391782 -0.4761023757)
(0.374579143 0.45213284 -0.4546114283)
(0.3664067143 0.1401597699 -0.9677558364)
(0.6298898645 0.1546186739 -1.670279472)
(0.4186735566 0.1475188899 -0.9470354341)
(0.2828769517 0.1429733143 -0.9510565274)
(0.2448864539 0.4482322849 -0.4102300612)
(0.3675989113 0.4271962526 -0.404710402)
(0.3686791781 0.4143132204 -0.4010926059)
(0.7795520116 -0.275087241 -0.3969606561)
(1.09743719 0.2043509966 -2.305828786)
(0.365114323 0.4116793335 -0.3747472061)
(0.7703611089 0.3898960727 -2.306178425)
(0.170410064 0.104616785 -1.066462693)
(0.2815204091 0.4018244077 -0.3464481958)
(0.1650543567 0.4218757939 -0.3329585592)
(0.1150003932 0.4454147254 -0.3230481206)
(0.1034369499 -0.1641361337 -0.3242364763)
(0.3210584319 0.01519584178 -0.3195906964)
(0.6375928777 1.13608333 -1.858476392)
(0.3267899002 0.1554726094 -1.117970134)
(0.04876963049 -0.3137680575 -0.3060208174)
(-0.03553759177 -0.05214790884 -0.3010089308)
(0.319720167 0.5768759646 -0.3043326975)
(0.648884087 0.1747900613 -1.028184847)
(0.06135545581 -0.2480934063 -0.2957811581)
(0.5068245722 1.059775664 -0.3112513203)
(0.05717160448 -0.2416578877 -0.2506976501)
(0.1959046369 -0.4882068634 -0.2468259456)
(0.3899379041 -0.7622936492 -0.2411310936)
(0.1310470919 -0.6598453934 -0.2371718097)
(0.4211607396 -0.7952482259 -0.2362389336)
(0.1267332417 0.745210745 -0.2356075377)
(0.1909861478 0.8326723703 -2.343154692)
(-0.07962709298 0.0135743487 -0.2256047186)
(0.4493603854 -0.8247868254 -0.2252323108)
(0.4628632851 -0.8265227455 -0.2138553363)
(0.472371476 -0.8202090209 -0.1995993901)
(0.1690544042 0.4889936596 -0.1882839139)
(0.472595493 -0.7978620512 -0.1852740142)
(0.4689640174 -0.7682644153 -0.1697522679)
(0.2013698741 0.2601895616 -0.1624964807)
(0.210853146 0.2061179821 -0.1562245372)
(0.2225821119 0.1952994581 -0.1404358259)
(0.2035404919 -0.2571724791 -0.136578572)
(-0.3364032051 0.0715215421 -0.1370641647)
(0.2334141362 0.2438541785 -0.1240670877)
(0.6273574 0.32644992 -0.5006265073)
(0.03509226031 0.008240207891 -0.1060117247)
(0.2463658306 0.3447179999 -0.08179265181)
(0.2537330529 0.3904106982 -0.07622050705)
(0.7174058467 0.2918265979 -0.4991275549)
(0.4095139228 0.1107325164 -1.61128107)
(0.6209262809 0.3951633695 -2.127122397)
(-0.2731656563 0.5979489783 -1.553690619)
(0.2602119703 0.4343998927 -0.04962816586)
(0.2655200039 0.4254619722 -0.03435474204)
(0.7514499807 0.278735257 -0.4900175249)
(0.2685543184 0.4120703703 -0.002186398374)
)


// ************************************************************************* //
