/*--------------------------------*- C++ -*----------------------------------*\
  =========                 |
  \\      /  F ield         | OpenFOAM: The Open Source CFD Toolbox
   \\    /   O peration     | Website:  https://openfoam.org
    \\  /    A nd           | Version:  8
     \\/     M anipulation  |
\*---------------------------------------------------------------------------*/
FoamFile
{
    version     2.0;
    format      ascii;
    class       scalarField;
    location    "1.1/lagrangian/reactingCloud1";
    object      rho;
}
// * * * * * * * * * * * * * * * * * * * * * * * * * * * * * * * * * * * * * //


197
(
994.5114718
994.511471
994.5114712
994.5114713
994.5114712
994.5114711
994.5114711
994.511471
994.5114709
994.5114709
994.5114709
994.5114709
994.5114709
994.5114709
994.5114708
994.5114702
994.5114708
994.5114708
994.5114708
994.5114708
994.5114707
994.5114708
994.5114708
994.5114707
994.5114706
994.5114706
994.5114706
994.5114706
994.5114705
994.5114704
994.5114705
1000
994.5114704
994.5114704
994.5114703
1000
994.5114708
994.5114703
994.5114707
994.5114725
994.511471
994.511471
994.5114704
994.5114698
994.5114699
994.5114699
994.5114699
994.5114699
994.5114724
994.5114699
994.5114726
994.5114706
994.5114698
994.5114698
994.5114698
994.5114699
994.5114698
994.5114698
994.5114698
994.5114698
1000
994.5114698
994.5114698
994.5114699
994.5114698
994.5114698
994.5114698
994.5114698
994.5114706
1000
994.5114724
994.5114698
994.51147
994.5114714
1000
994.5114707
1000
994.5114706
994.51147
994.5114715
994.5114697
994.5114696
994.5114716
994.5114707
994.5114703
994.5114704
994.5114703
994.5114704
994.5114703
994.5114703
994.5114719
1000
994.5114703
994.5114704
994.5114703
994.5114699
994.5114704
994.5114695
994.5114703
994.5114704
994.5114702
994.5114694
994.5114702
994.5114705
994.5114705
1000
994.5114699
994.51147
994.5114702
994.51147
994.5114702
994.5114704
994.5114699
994.5114702
994.5114704
994.5114704
994.5114699
994.51147
994.5114701
1000
994.5114701
994.5114699
994.5114703
994.5114684
994.5114702
994.5114684
994.5114701
994.5114699
994.5114703
994.5114684
994.5114701
994.5114684
994.5114684
994.5114702
994.5114684
994.5114684
994.5114705
1000
994.5114701
994.5114699
994.5114702
994.5114705
994.5114701
994.5114701
994.5114701
1000
994.5114702
994.5114701
994.51147
994.5114701
994.5114705
994.51147
1000
994.5114701
994.51147
1000
1000
994.5114703
1000
994.5114702
994.51147
994.5114701
994.5114701
994.5114701
994.51147
994.5114703
994.5114701
994.5114701
994.5114702
994.51147
994.5114699
1000
994.5114701
994.5114686
994.5114701
994.5114702
994.5114701
994.5114717
994.5114686
994.5114701
994.5114699
994.5114685
994.5114699
994.51147
994.5114699
994.5114713
1000
1000
994.5114701
1000
994.51147
994.5114685
994.5114727
994.5114685
1000
994.5114687
994.5114698
)


// ************************************************************************* //
