/*--------------------------------*- C++ -*----------------------------------*\
  =========                 |
  \\      /  F ield         | OpenFOAM: The Open Source CFD Toolbox
   \\    /   O peration     | Website:  https://openfoam.org
    \\  /    A nd           | Version:  8
     \\/     M anipulation  |
\*---------------------------------------------------------------------------*/
FoamFile
{
    version     2.0;
    format      ascii;
    class       scalarField;
    location    "1.1/lagrangian/reactingCloud1";
    object      T;
}
// * * * * * * * * * * * * * * * * * * * * * * * * * * * * * * * * * * * * * //


197
(
299.999987
299.9999901
299.9999893
299.9999892
299.9999894
299.9999897
299.9999899
299.9999901
299.9999904
299.9999904
299.9999905
299.9999904
299.9999904
299.9999905
299.9999907
299.9999931
299.9999908
299.9999908
299.9999909
299.999991
299.9999912
299.999991
299.9999911
299.9999912
299.9999918
299.9999915
299.9999916
299.9999917
299.9999919
299.9999925
299.9999919
300
299.9999924
299.9999925
299.9999927
300
299.9999911
299.9999927
299.9999915
299.999984
299.9999901
299.9999903
299.9999924
299.9999947
299.9999945
299.9999945
299.9999945
299.9999945
299.9999848
299.9999945
299.9999841
299.9999915
299.9999945
299.9999945
299.9999946
299.9999943
299.9999946
299.9999946
299.9999946
299.9999946
300
299.9999946
299.9999946
299.9999945
299.9999947
299.9999948
299.9999946
299.9999948
299.9999919
300
299.9999847
299.9999948
299.999994
299.9999886
300
299.9999913
300
299.9999916
299.999994
299.9999882
299.9999952
299.9999954
299.9999879
299.9999912
299.9999928
299.9999925
299.9999928
299.9999924
299.9999929
299.9999929
299.9999869
300
299.9999929
299.9999924
299.9999929
299.9999942
299.9999924
299.9999959
299.9999929
299.9999925
299.9999931
299.9999961
299.9999931
299.9999922
299.999992
300
299.9999944
299.999994
299.9999932
299.999994
299.9999933
299.9999926
299.9999945
299.9999933
299.9999924
299.9999926
299.9999943
299.9999939
299.9999937
300
299.9999935
299.9999943
299.9999927
299.9999999
299.9999933
299.9999999
299.9999934
299.9999942
299.9999928
299.9999999
299.9999934
299.9999999
299.9999999
299.9999934
299.9999999
299.9999999
299.9999918
300
299.9999934
299.9999943
299.9999933
299.9999919
299.9999935
299.9999936
299.9999935
300
299.9999932
299.9999935
299.9999941
299.9999935
299.9999919
299.9999941
300
299.9999935
299.9999941
300
300
299.999993
300
299.9999932
299.9999941
299.9999936
299.9999936
299.9999935
299.9999941
299.9999929
299.9999936
299.9999936
299.9999933
299.9999941
299.9999944
300
299.9999936
299.9999994
299.9999937
299.9999933
299.9999936
299.9999874
299.9999993
299.9999936
299.9999942
299.9999997
299.9999943
299.9999939
299.9999944
299.9999888
300
300
299.9999937
300
299.9999939
299.9999996
299.9999837
299.9999996
300
299.9999989
299.9999946
)


// ************************************************************************* //
