/*--------------------------------*- C++ -*----------------------------------*\
  =========                 |
  \\      /  F ield         | OpenFOAM: The Open Source CFD Toolbox
   \\    /   O peration     | Website:  https://openfoam.org
    \\  /    A nd           | Version:  8
     \\/     M anipulation  |
\*---------------------------------------------------------------------------*/
FoamFile
{
    version     2.0;
    format      ascii;
    class       volScalarField;
    location    "0.3/wallFilmRegion";
    object      delta;
}
// * * * * * * * * * * * * * * * * * * * * * * * * * * * * * * * * * * * * * //

dimensions      [0 1 0 0 0 0 0];

internalField   nonuniform List<scalar> 
1369
(
6.953269796e-24
3.533822735e-25
9.674235575e-24
3.070369594e-34
2.038397842e-49
3.728589641e-63
2.65204928e-81
2.754805362e-67
2.227326337e-53
1.452085809e-39
7.130447631e-26
2.073548281e-12
1.496815933e-07
2.438599345e-07
1.283900969e-20
1.269391417e-49
3.515435803e-66
3.257080316e-100
3.195436403e-87
2.404854183e-74
1.339716139e-61
5.343894132e-49
1.472512373e-36
2.509308604e-24
2.354952113e-12
6.999687121e-07
4.243868692e-05
0.0002906115548
0.0007115309685
0.0008507727795
0.0004392740514
0.0003931281465
0.0004723881472
0.0008066152909
0.0007690361727
0.001636714347
0.001249880196
0.0009372036421
0.0007179186328
0.0005606898972
0.0004454768109
0.0003550406871
0.0002770441114
0.0002056463133
0.0001118625322
5.94889044e-05
9.800328517e-05
0.0001974469773
0.0002920399782
0.0003499633012
0.0003590973378
0.0003118489223
0.0002034378025
6.057878115e-05
2.875724665e-06
4.476949283e-10
5.126009654e-23
1.493892725e-36
1.137117956e-50
2.941104496e-65
3.079250025e-10
1.322257202e-11
1.556226474e-10
4.200002088e-21
3.266849557e-35
2.352805799e-49
6.140701925e-68
5.581760585e-54
4.005564137e-40
2.159385197e-26
7.609275075e-13
5.641359994e-07
1.295368177e-05
1.335096608e-05
2.02636562e-13
5.264010109e-36
8.486422789e-52
4.976910629e-94
6.599145792e-81
7.079613116e-68
5.887659347e-55
3.655184582e-42
1.627692734e-29
4.310559978e-17
3.136878162e-08
8.192249036e-06
4.5369014e-05
4.349255623e-05
2.807768876e-05
2.653691125e-05
6.937405439e-05
0.0001078357209
0.0001475071921
0.0004249412604
6.413757044e-05
8.996338665e-05
7.91976733e-05
6.489825277e-05
5.448600206e-05
4.870465971e-05
4.688800703e-05
4.152931733e-05
1.738088617e-05
1.085305935e-06
1.726529173e-10
4.136194531e-07
1.20863599e-06
2.601759656e-06
4.664535472e-06
7.885130966e-06
1.426888023e-05
2.846622346e-05
5.243862943e-05
6.013666187e-05
1.713191567e-05
2.74757109e-07
1.022668823e-13
4.182531743e-27
6.899865716e-40
1.320110795e-51
2.297890165e-06
8.945609712e-07
1.709024364e-06
2.054135595e-09
2.365658116e-23
4.318460695e-36
2.560742086e-55
1.999364632e-41
1.204513176e-27
4.590274029e-14
2.597788868e-07
2.133997693e-05
6.206117333e-05
4.107779889e-05
1.564374514e-11
8.869560177e-23
8.815140569e-38
5.145417391e-82
7.099320402e-69
7.969405224e-56
6.89995809e-43
4.414345982e-30
1.660711868e-17
2.661793102e-08
7.680876915e-06
4.785263441e-05
6.236094271e-05
4.055989706e-05
2.556203854e-05
2.768402543e-05
7.543349027e-05
0.0001384417815
0.0001901377523
0.0005377014218
4.179113544e-05
6.078024951e-05
5.28881017e-05
4.068446815e-05
3.292120752e-05
3.0057118e-05
3.32105778e-05
3.526081756e-05
1.30619211e-05
2.87587946e-07
1.569464674e-11
3.459859967e-07
1.168387523e-06
2.552933072e-06
4.462290055e-06
7.040966111e-06
1.128332289e-05
2.030509048e-05
3.937448569e-05
6.549591189e-05
6.052137633e-05
1.33592415e-05
1.709624783e-07
9.051604009e-14
9.459154552e-26
5.763428296e-37
4.406784702e-05
2.140347816e-05
2.365876529e-05
3.020226201e-06
1.104658268e-15
1.942838928e-29
2.347234477e-44
1.631633399e-30
6.656186256e-17
3.672091086e-08
1.238433413e-05
7.659174777e-05
7.31893314e-05
3.233329888e-05
4.209729034e-11
4.666329885e-21
9.105430584e-34
2.96108474e-70
4.169398919e-57
4.847895883e-44
4.347661842e-31
2.290027084e-18
1.523123487e-08
7.368885037e-06
4.772807096e-05
6.191673273e-05
4.251623593e-05
2.679736437e-05
2.189428927e-05
3.918594962e-05
9.500060734e-05
0.0001626250227
0.000241472148
0.0006027459398
9.312970439e-06
4.988832877e-05
1.495577769e-05
4.428628712e-06
9.281071694e-08
9.352507827e-11
4.668837537e-11
1.439206443e-11
2.488232941e-13
6.396964262e-19
1.665975267e-11
3.509171437e-07
1.112022974e-06
2.355355181e-06
4.001421536e-06
6.016551062e-06
8.757855173e-06
1.362292278e-05
2.400870479e-05
4.402736129e-05
6.738572076e-05
5.772623077e-05
1.321981819e-05
2.671819319e-07
3.820194884e-12
3.774236302e-23
0.0001595510862
5.302390048e-05
3.995394001e-05
1.739258854e-05
2.706115884e-12
4.617652146e-24
6.149237405e-36
1.460745117e-22
6.938564386e-10
3.568536483e-06
5.725532209e-05
8.708680352e-05
5.135638801e-05
1.743260625e-05
4.91373045e-11
2.215244928e-20
1.533799705e-32
3.425216815e-59
4.026102295e-46
4.078062706e-33
2.419261513e-20
3.57852809e-09
5.083306752e-06
4.647950643e-05
6.197423793e-05
4.068558548e-05
2.478170118e-05
1.76695432e-05
2.131176385e-05
5.531437e-05
0.000118784568
0.0001825308931
0.000256799371
0.0004643441776
0.000573988672
0.000456830849
0.0002866570323
0.0001237547426
2.062773328e-05
3.871615969e-07
6.067359243e-13
1.753956977e-22
4.872607164e-24
1.304568303e-18
1.916386541e-11
3.692414749e-07
1.062898445e-06
2.168490889e-06
3.607815588e-06
5.273894372e-06
7.232182979e-06
1.001150467e-05
1.517470546e-05
2.595017066e-05
4.555365444e-05
6.754143716e-05
6.040454235e-05
1.739971268e-05
7.884168002e-07
6.419206732e-10
0.0002413235563
3.984236544e-05
2.41258454e-05
1.141619137e-05
1.018090038e-11
3.461027031e-22
4.72406902e-26
9.611775892e-13
5.135299224e-07
2.768650102e-05
8.627840624e-05
6.822402886e-05
3.398593964e-05
1.114703182e-05
4.936293099e-11
5.746283322e-20
8.299654901e-32
9.800915547e-49
9.28908264e-36
4.603548529e-23
1.097315276e-10
1.770084469e-06
3.399837162e-05
6.192480343e-05
3.856273474e-05
2.119926905e-05
1.370282521e-05
1.078262019e-05
9.537418601e-06
8.832173219e-06
9.023339167e-06
1.104563953e-05
1.645570459e-05
0.000182051728
9.808067026e-05
0.0001261299415
5.143116049e-05
3.942418676e-06
2.282661023e-09
7.962994336e-17
2.911077544e-13
5.595083886e-12
5.878223495e-12
9.945879218e-14
2.358268118e-11
4.028474727e-07
1.005089204e-06
1.954456498e-06
3.210119051e-06
4.649895363e-06
6.195682458e-06
7.980136373e-06
1.059882059e-05
1.556120479e-05
2.572797803e-05
4.396505494e-05
6.589906883e-05
6.688779831e-05
2.695030727e-05
3.419262264e-06
0.0002704020463
2.090825414e-05
1.071585125e-05
3.372764455e-06
1.100804862e-11
2.016416638e-21
2.446186473e-17
2.698281125e-08
9.887800541e-06
6.942990186e-05
7.983778816e-05
5.042621578e-05
2.583434101e-05
9.970533932e-06
5.129122359e-11
1.411712751e-19
3.427086616e-31
1.508706844e-40
1.812449896e-27
9.373526784e-15
1.29694523e-07
1.272970147e-05
5.256484799e-05
3.863617437e-05
1.79640327e-05
9.8817138e-06
7.128895443e-06
6.127146545e-06
5.63781252e-06
5.225252996e-06
5.178579941e-06
5.982780955e-06
8.31197419e-06
0.0001706379873
0.0001044481801
0.0002149068437
9.649449426e-05
1.06576676e-05
4.798947067e-08
4.455201618e-08
3.223625548e-07
6.883743852e-07
6.676948626e-07
2.130561321e-07
2.374312649e-10
4.569651131e-07
9.203840818e-07
1.6865054e-06
2.787922967e-06
4.123502399e-06
5.506526275e-06
6.835261368e-06
8.292018388e-06
1.048279166e-05
1.473705177e-05
2.351489798e-05
3.973500624e-05
6.198975276e-05
7.149361547e-05
6.047349355e-05
0.0002816005219
1.185594646e-05
6.050034019e-06
1.747654962e-06
1.128358822e-11
7.380200154e-21
7.64868758e-10
3.361569002e-06
4.63926719e-05
8.328100762e-05
6.406161072e-05
4.037794916e-05
2.429151643e-05
1.276013568e-05
1.414511541e-07
1.466180156e-18
2.218209461e-30
5.067589524e-36
2.196981016e-23
4.679976351e-11
1.255297137e-06
2.257479066e-05
3.790682829e-05
1.729047207e-05
6.929329116e-06
4.05569746e-06
3.183197297e-06
2.879466027e-06
2.714551344e-06
2.551812214e-06
2.491865375e-06
2.760430023e-06
3.478596225e-06
0.0001231821527
2.710435687e-05
3.507535306e-05
4.987593224e-05
1.809210345e-05
2.803771065e-06
9.038585371e-06
1.516133169e-05
1.674009717e-05
1.395130766e-05
8.5374017e-06
8.064494998e-07
5.439620667e-07
7.843172783e-07
1.35019262e-06
2.382586289e-06
3.833037978e-06
5.349040478e-06
6.545272604e-06
7.410708899e-06
8.291993389e-06
9.790982751e-06
1.300145083e-05
2.001531138e-05
3.392941757e-05
5.518760625e-05
0.0001673797175
0.0002970724351
8.560308191e-06
4.9813036e-06
1.783900878e-06
1.199125061e-11
6.208516314e-11
1.453509066e-06
3.081150701e-05
7.968051922e-05
7.329722628e-05
5.207062145e-05
3.732085427e-05
2.869628651e-05
2.256376007e-05
1.159073073e-05
8.392562551e-14
2.411693807e-26
4.278666747e-35
1.059101171e-22
1.285542422e-10
1.53600531e-06
1.790645125e-05
1.932796983e-05
6.068234138e-06
2.111095037e-06
1.283147214e-06
1.054424034e-06
9.890391933e-07
9.651373564e-07
9.049674849e-07
8.596940471e-07
9.21671542e-07
1.036953865e-06
1.581513045e-05
4.172061038e-06
8.017957627e-06
2.346488874e-05
2.580695121e-05
3.877764306e-05
4.748341068e-05
3.924295945e-05
2.806130247e-05
1.809683027e-05
9.814790153e-06
2.999370954e-06
5.229351073e-07
5.60246572e-07
9.582686984e-07
2.15988426e-06
4.233186482e-06
6.459318165e-06
7.810854367e-06
8.14916806e-06
8.059668464e-06
8.095663459e-06
8.749419158e-06
1.08556441e-05
1.623362761e-05
2.852801545e-05
0.0002162964885
0.0003227516679
7.763325758e-06
5.517719022e-06
2.772760717e-06
1.604074936e-10
1.294723222e-06
2.550216354e-05
7.504230226e-05
7.79186969e-05
5.997964007e-05
4.638605434e-05
4.018534499e-05
4.015068719e-05
4.397676425e-05
4.952914101e-05
1.382704255e-11
5.046965646e-23
1.945423111e-32
6.868301289e-27
9.244752861e-15
1.120862197e-07
6.876246288e-06
8.106353389e-06
1.509639976e-06
3.912440015e-07
2.307717349e-07
1.936743967e-07
1.922169201e-07
2.175510373e-07
1.837980425e-07
1.625711691e-07
1.668853884e-07
1.809331254e-07
2.404171108e-07
4.436333114e-07
2.591463606e-06
2.300412564e-05
6.507931885e-05
5.451817407e-05
3.189386878e-05
1.753928057e-05
9.654610464e-06
5.109176631e-06
2.362828406e-06
7.632669418e-07
1.022461812e-07
2.705945107e-07
5.754402518e-07
2.543103229e-06
6.563522381e-06
1.102520384e-05
1.286408545e-05
1.185122615e-05
1.003927191e-05
8.585587909e-06
7.696947878e-06
7.553145767e-06
8.786196936e-06
1.365563034e-05
0.0002007405486
0.0003589461141
8.568741626e-06
7.825363652e-06
5.741583886e-06
2.045716308e-06
2.92251667e-05
7.509720239e-05
7.934603833e-05
6.374625496e-05
5.116583409e-05
4.599666091e-05
4.796039001e-05
5.69066846e-05
6.617582973e-05
5.920501672e-05
1.319952651e-10
1.422937796e-13
3.904957137e-20
3.101807211e-28
2.892884952e-27
1.032366063e-19
1.822212171e-13
5.513071747e-12
7.205840865e-12
7.310768333e-12
8.796098317e-12
1.451239876e-11
8.730674407e-11
8.34190961e-08
1.865054178e-07
1.141995034e-10
3.067997925e-11
1.367556354e-11
8.442025177e-12
9.792980867e-09
5.312624665e-06
3.975257446e-05
4.635812993e-05
2.156760781e-05
8.747761151e-06
3.962273591e-06
1.952042824e-06
9.387906891e-07
3.850499329e-07
1.035434052e-07
3.581386688e-08
1.340663518e-07
3.076363945e-07
4.575996599e-06
1.441295404e-05
2.523822763e-05
2.81034294e-05
2.232466895e-05
1.534189955e-05
1.09622744e-05
8.451744601e-06
6.922940013e-06
6.269765462e-06
7.484612218e-06
0.0001402101984
0.0004033334118
1.157230915e-05
1.413483122e-05
1.67583384e-05
3.482641749e-05
8.105262241e-05
7.888495807e-05
6.344798219e-05
5.171621241e-05
4.692854237e-05
4.883222123e-05
5.813638956e-05
7.243706797e-05
7.561370325e-05
4.916898085e-05
1.183887438e-06
2.619101798e-07
2.521840175e-09
1.026407527e-15
3.722676886e-27
4.275165824e-31
5.494204939e-25
3.342189699e-22
4.687051927e-21
3.073326648e-20
2.397711562e-19
7.768390256e-18
4.792077149e-10
1.053840432e-06
1.195932618e-06
5.628445466e-11
4.662217328e-17
2.311564753e-18
9.339531245e-16
7.440063487e-08
8.86943785e-06
2.984330921e-05
1.962230615e-05
5.862055743e-06
1.807582747e-06
7.631921979e-07
3.640256187e-07
1.751841359e-07
7.39505211e-08
2.129442041e-08
1.50581419e-08
5.496116835e-08
1.361964852e-07
1.130395301e-05
3.496479134e-05
5.836436682e-05
6.416001669e-05
4.83485077e-05
2.708922837e-05
1.486479404e-05
9.714531959e-06
7.099202757e-06
5.484069956e-06
5.083736201e-06
7.489422306e-05
4.823929566e-05
4.353890819e-05
4.459601393e-05
5.218638939e-05
6.74430521e-05
8.291184105e-05
7.671250847e-05
4.138589548e-05
1.457128198e-05
1.409344874e-05
4.074398975e-06
7.449337907e-08
1.679580442e-14
6.700064462e-27
7.40408692e-37
2.479386743e-33
9.970825914e-32
1.514342086e-30
2.806692387e-29
9.939474337e-20
1.443504833e-10
1.077784885e-06
4.909273371e-06
7.647082627e-11
6.636786922e-19
6.658473319e-28
6.255751943e-27
4.02616752e-11
1.035566834e-06
1.165394699e-05
7.841105094e-06
1.282316317e-06
2.834603308e-07
2.345348228e-07
6.930334976e-08
2.174588811e-08
1.000217208e-08
3.343181349e-09
3.952170855e-09
1.326817267e-08
3.807041462e-08
2.8668615e-05
7.029825035e-05
0.0001055399248
0.0001146924299
9.28636911e-05
5.265920492e-05
2.103431486e-05
9.527096434e-06
5.960394801e-06
4.157602377e-06
3.205329274e-06
2.791375005e-05
7.451032294e-05
8.912119955e-05
7.527661152e-05
3.67631977e-05
1.562227773e-05
3.617985448e-05
3.949758421e-05
1.207419109e-05
1.804272823e-07
2.782795236e-14
5.173111303e-27
1.034404158e-40
2.158455112e-43
1.265423179e-41
3.163255397e-32
2.90811918e-21
4.711233058e-11
9.627479403e-07
1.61316087e-05
1.009258323e-10
4.680225268e-19
1.079007049e-29
2.02342309e-38
6.195734359e-22
3.779933946e-17
1.637275666e-12
9.609963645e-12
1.062285052e-11
9.821804192e-12
2.566105928e-06
6.974573994e-07
2.082211132e-11
3.83125256e-11
2.241294782e-11
3.067118036e-09
1.735979407e-08
3.5283624e-07
5.537688217e-05
0.0001033391094
0.000129826456
0.0001344706852
0.0001223773072
9.579654395e-05
4.196541945e-05
3.691411661e-06
2.093401495e-09
1.289949533e-11
1.372569131e-11
7.166278426e-11
7.487923386e-05
3.723301327e-05
4.5795949e-06
1.577282858e-05
3.687197313e-05
4.726799718e-05
1.20343402e-05
1.215162734e-07
7.755335133e-15
1.11671384e-27
2.324940684e-41
1.081445826e-46
1.855152964e-34
4.810163599e-23
5.817126574e-12
6.057009535e-07
3.814594092e-05
1.044297686e-10
1.376524769e-19
8.256800572e-31
1.211244732e-42
2.246148588e-33
2.179197508e-28
2.034387297e-23
1.397956743e-21
9.246068362e-21
4.331195986e-12
3.014567227e-05
2.37316427e-05
4.360669643e-07
1.832346009e-13
6.747943707e-11
9.896613893e-09
1.06154925e-06
6.115854547e-05
8.432580997e-05
9.876638411e-05
9.720461378e-05
9.230965779e-05
8.981680274e-05
9.125319523e-05
8.568898756e-05
3.88349727e-05
3.597672913e-06
6.564695243e-09
3.699259414e-15
8.106732743e-20
8.651931748e-06
2.248907216e-05
2.162857243e-05
2.233447535e-06
4.808003023e-10
1.49542042e-21
3.316366657e-34
7.874879897e-48
2.604866046e-38
4.483971282e-26
2.793685391e-14
1.397171029e-07
4.062808513e-05
2.952285447e-11
1.332412193e-21
1.938677239e-33
5.213462157e-46
3.713865226e-45
8.243876897e-40
8.876356121e-35
1.689436485e-32
3.96558865e-21
4.841454181e-11
4.953544979e-05
8.722568851e-05
1.717092656e-05
5.385260599e-08
3.705901606e-11
2.031211453e-08
1.751623349e-05
2.71924859e-05
3.756810406e-05
4.293085405e-05
4.395089083e-05
4.533177035e-05
5.054649577e-05
6.051748248e-05
7.407371727e-05
7.770012793e-05
4.206034928e-05
6.465792599e-06
1.146819331e-07
2.469025332e-11
5.066731128e-12
3.966730768e-16
5.167622597e-22
1.828266636e-34
5.602129358e-47
5.005846559e-60
9.571116886e-47
3.157431746e-33
8.128763766e-21
8.722997081e-10
8.725680627e-06
9.604159161e-14
8.723639366e-26
1.941435207e-38
5.890678991e-52
3.376618518e-57
1.880592154e-51
1.67835648e-44
9.947667957e-32
6.036658985e-20
8.50256457e-11
3.367729053e-05
0.0001067557951
7.76258784e-05
2.620473867e-06
1.652219829e-10
3.894388519e-08
1.709302561e-06
6.369861992e-06
1.300991065e-05
1.95435234e-05
2.473845598e-05
3.216444806e-05
4.236055427e-05
5.058679881e-05
5.892739861e-05
7.175413862e-05
8.108459488e-05
6.024063647e-05
1.701094669e-05
1.424223462e-06
1.07478698e-55
6.625493518e-69
3.333707987e-59
9.864941592e-46
9.378471724e-32
9.965041796e-19
5.326483258e-08
8.820523384e-19
5.868328917e-31
1.220147576e-50
4.344725388e-64
1.347182879e-68
7.96602019e-56
3.152179859e-43
7.620593398e-31
2.244069905e-19
9.371154172e-11
1.952126269e-05
8.770211261e-05
0.0001311223789
2.41933988e-05
9.83324997e-08
7.317323077e-08
1.584935974e-06
6.502953305e-06
1.366031358e-05
2.02960875e-05
2.535274609e-05
3.70583217e-05
5.318404734e-05
5.964744664e-05
5.669242976e-05
5.674250238e-05
6.617997508e-05
8.065758225e-05
7.941750911e-05
5.072110262e-05
5.597112874e-69
1.929297133e-58
1.68028647e-44
2.569609813e-31
4.794640392e-16
1.694403587e-29
6.049908001e-43
4.134408999e-63
1.865809576e-76
2.13870728e-67
9.605198318e-55
2.4034562e-42
3.671904952e-30
6.297763272e-19
9.814961849e-11
1.234200724e-05
5.655879355e-05
0.0001387591905
8.916123908e-05
6.873458432e-06
5.242707333e-07
2.453765195e-06
8.703840877e-06
1.622273365e-05
2.160700485e-05
2.549637522e-05
4.099584214e-05
6.200110987e-05
7.017250119e-05
5.977415966e-05
4.654108851e-05
4.364249269e-05
5.237325672e-05
7.064303489e-05
0.0001704502624
2.576591623e-69
3.236327885e-57
4.340877278e-44
3.368260228e-28
8.921865261e-42
2.478627478e-55
8.062954799e-76
1.329829617e-78
5.446619506e-66
1.423181717e-53
2.020713133e-41
1.512563418e-29
1.586654273e-18
1.063648516e-10
9.051641861e-06
3.239639744e-05
9.201908291e-05
0.0001224029802
5.118382564e-05
4.739456778e-06
5.694047532e-06
1.298772097e-05
1.729680466e-05
1.844549886e-05
2.002803868e-05
3.410623101e-05
5.428960101e-05
6.783052227e-05
6.045738888e-05
3.890391534e-05
2.683705616e-05
2.644737709e-05
3.6158848e-05
0.000197063352
7.273802803e-82
6.758062005e-70
7.406582853e-57
8.066343486e-41
1.858518168e-54
5.435550523e-68
9.746248745e-89
3.828732711e-77
1.19562063e-64
2.101456113e-52
1.677391927e-40
6.275372868e-29
3.790348871e-18
1.190726349e-10
7.561265421e-06
2.073780453e-05
4.354143977e-05
7.632106346e-05
9.586912946e-05
3.873622905e-05
1.407020877e-05
9.519914585e-06
7.772751198e-06
7.034573651e-06
8.189188492e-06
2.154618823e-05
3.91282467e-05
5.726057755e-05
6.312818864e-05
3.960696465e-05
1.661965553e-05
1.101075532e-05
1.261197002e-05
0.0001035109437
1.18991641e-82
8.523888456e-70
1.072229729e-53
1.783725121e-67
6.83681064e-81
3.115938365e-79
4.388834219e-66
3.565449166e-53
1.719114097e-46
1.209384661e-39
2.201180474e-28
8.051740916e-18
1.334523921e-10
6.898262188e-06
1.674651205e-05
2.714346465e-05
4.144188685e-05
6.572679369e-05
0.0001010309298
5.451509936e-05
1.64969467e-05
6.548640986e-06
5.11502551e-06
5.958232205e-06
1.66013218e-05
2.984213753e-05
4.646057396e-05
6.563628182e-05
6.218594139e-05
1.502343097e-05
1.720172005e-07
8.634262857e-11
4.945638403e-10
2.215893857e-74
6.607201763e-83
8.499152279e-67
1.06629736e-80
1.300192168e-77
8.791612914e-65
4.325987569e-52
2.225460254e-39
1.080286819e-33
3.187351823e-29
5.385906109e-26
2.704611877e-17
1.781445761e-10
6.599523308e-06
1.540844709e-05
2.327619313e-05
3.126627048e-05
4.315084988e-05
6.291337925e-05
6.597729458e-05
3.864879911e-05
1.607990883e-05
1.148573674e-05
1.346881238e-05
1.91190963e-05
2.695537325e-05
3.794529609e-05
5.483644282e-05
7.412770484e-05
5.6853301e-05
8.381215028e-06
2.572980671e-08
3.014633533e-17
5.959733014e-58
5.868084792e-72
4.340364275e-80
2.151478323e-72
5.743320695e-59
5.760217311e-46
8.008278966e-35
2.335936174e-26
1.503940976e-21
1.931747496e-17
9.10856848e-15
1.602471308e-13
2.595953434e-10
6.440057339e-06
1.455079433e-05
2.128040709e-05
2.704854044e-05
3.423004791e-05
4.47789317e-05
5.834673132e-05
5.879850372e-05
3.600463935e-05
2.411742891e-05
2.268048416e-05
2.328295789e-05
2.652171745e-05
3.320104778e-05
4.382507142e-05
6.016150447e-05
7.342260803e-05
4.434678558e-05
5.179621084e-06
1.492666296e-08
1.499763275e-57
1.058361551e-71
1.434167402e-57
6.775584577e-44
1.280644114e-30
2.172067832e-22
4.309975166e-14
3.179735685e-10
1.54722267e-08
1.055229863e-07
2.023060428e-07
6.311692115e-08
6.332170659e-06
1.365549871e-05
1.954022758e-05
2.419916696e-05
2.913009269e-05
3.631841498e-05
5.002124282e-05
6.665120698e-05
6.374961412e-05
4.953412829e-05
3.709173681e-05
2.753951201e-05
2.652098044e-05
3.094615107e-05
3.780598189e-05
4.786927409e-05
6.272524751e-05
7.259585909e-05
4.293898318e-05
8.478706274e-06
7.329778978e-56
4.362698888e-42
7.831054967e-29
1.278808703e-17
4.007099252e-10
2.156315785e-07
2.457334665e-06
7.036709477e-06
1.124160876e-05
1.11654781e-05
4.810845439e-06
6.28737955e-06
1.230364253e-05
1.746563011e-05
2.172553456e-05
2.60211346e-05
3.151142384e-05
4.26581247e-05
6.473922292e-05
8.276429476e-05
8.44431981e-05
5.796115333e-05
3.201446549e-05
2.687698401e-05
3.010726552e-05
3.513107609e-05
4.081464456e-05
4.910908904e-05
6.19025347e-05
6.878462317e-05
0.0001038848089
9.003528667e-43
1.022910594e-28
9.397222556e-16
2.326556621e-08
3.180006193e-06
2.217942191e-05
4.854336026e-05
5.353267488e-05
4.294388008e-05
2.625175065e-05
1.030774649e-05
4.381669906e-06
9.639806674e-06
1.417381922e-05
1.838244354e-05
2.31161983e-05
2.845896769e-05
3.704959278e-05
6.555831132e-05
0.0001288933905
0.0001762353071
0.0001238698049
5.908874934e-05
3.322275884e-05
3.097617851e-05
3.419509535e-05
3.751066594e-05
4.107833984e-05
4.681411424e-05
5.345994206e-05
0.0003173287494
5.108020357e-28
4.490749352e-15
1.045275341e-07
1.129021243e-05
5.451083592e-05
6.829058705e-05
5.304780186e-05
3.817207952e-05
2.650328094e-05
1.58651026e-05
6.555394667e-06
2.547033593e-06
5.717192377e-06
8.758473319e-06
1.241279384e-05
1.790684141e-05
2.497780505e-05
3.049954721e-05
4.48041645e-05
0.000300167906
0.0005148505867
4.692301e-05
1.181872834e-05
1.73521451e-05
2.513813577e-05
3.066074002e-05
3.354064741e-05
3.504019656e-05
3.704546501e-05
3.917318788e-05
0.0005328796319
2.266312282e-10
3.507371992e-10
4.221503147e-10
5.083755142e-10
6.619200905e-10
1.589531381e-09
2.861635793e-06
7.6575624e-06
1.510939733e-05
2.796303281e-05
4.744807237e-05
6.125686464e-05
3.810650408e-05
6.688710152e-06
4.130392356e-06
1.935218024e-07
6.78016665e-06
4.81505186e-06
1.222986761e-05
2.016750867e-05
2.655139289e-05
3.264460412e-05
4.219455891e-05
5.672807766e-05
5.120403179e-05
1.165646422e-05
3.773753343e-17
8.950947418e-17
1.99046151e-16
4.627227135e-16
3.429304644e-14
1.401298904e-09
4.295322196e-06
1.273815566e-05
2.688479989e-05
4.809594336e-05
6.788645903e-05
8.267546229e-05
8.811567676e-05
5.229790688e-05
7.054988482e-06
1.814984119e-08
6.096322536e-05
1.169515057e-05
1.281943321e-05
2.108307873e-05
2.98920877e-05
4.124544155e-05
5.84464215e-05
6.458156168e-05
2.228035855e-05
7.467421472e-07
)
;

boundaryField
{
    walls
    {
        type            zeroGradient;
    }
    wallFilmFace_top
    {
        type            zeroGradient;
    }
    region0_to_wallFilmRegion_wallFilmFace
    {
        type            zeroGradient;
    }
    mirrorFace_top
    {
        type            zeroGradient;
    }
    region0_to_wallFilmRegion_mirrorFace
    {
        type            zeroGradient;
    }
    procBoundary0to1
    {
        type            processor;
        value           nonuniform List<scalar> 
52
(
0.0004500055582
1.946891255e-05
3.14025648e-05
4.80006697e-05
7.599030922e-05
7.629499812e-05
5.954268161e-05
5.954268161e-05
3.647350824e-05
3.623458284e-05
4.118091094e-05
5.391272007e-05
5.391272007e-05
8.199809511e-05
9.430986719e-05
9.430986719e-05
8.034871481e-05
4.68166675e-05
7.005953087e-07
2.800244862e-06
2.800244862e-06
4.020728643e-08
1.247700556e-10
1.247700556e-10
6.58194374e-09
9.057152023e-18
5.131775461e-30
9.742382171e-43
9.742382171e-43
1.172691112e-42
1.012161393e-55
1.012161393e-55
5.352387782e-56
5.352387782e-56
1.085088607e-68
2.301704225e-88
2.301704225e-88
1.333637725e-60
3.225061872e-44
1.40510467e-43
1.40510467e-43
4.995237825e-71
4.995237825e-71
5.729491568e-70
2.867358888e-42
5.689260737e-42
6.493653476e-29
2.815530611e-21
2.171900907e-13
4.822810561e-11
4.822810561e-11
1.149220854e-17
)
;
    }
    procBoundary0to2
    {
        type            processor;
        value           nonuniform List<scalar> 
26
(
4.999720199e-10
5.344635181e-10
5.767585196e-10
6.369386052e-10
7.706010523e-10
1.34622988e-09
6.320338171e-06
2.015118685e-05
4.252349077e-05
6.638390781e-05
7.071153581e-05
6.305180849e-05
5.910879837e-05
5.770245205e-05
2.42453015e-05
1.221791743e-06
0.0001775459607
6.856582479e-05
2.479514951e-05
2.709637382e-05
3.615310947e-05
4.969159445e-05
6.029390972e-05
2.989409322e-05
1.83533827e-06
1.398602278e-10
)
;
    }
}


// ************************************************************************* //
