/*--------------------------------*- C++ -*----------------------------------*\
  =========                 |
  \\      /  F ield         | OpenFOAM: The Open Source CFD Toolbox
   \\    /   O peration     | Website:  https://openfoam.org
    \\  /    A nd           | Version:  8
     \\/     M anipulation  |
\*---------------------------------------------------------------------------*/
FoamFile
{
    version     2.0;
    format      ascii;
    class       volScalarField;
    location    "0.3/wallFilmRegion";
    object      kappa;
}
// * * * * * * * * * * * * * * * * * * * * * * * * * * * * * * * * * * * * * //

dimensions      [1 1 -3 -1 0 0 0];

internalField   nonuniform List<scalar> 
1369
(
0.60881
0.60881
0.60881
0.60881
0.60881
0.60881
0.60881
0.60881
0.60881
0.60881
0.60881
0.6088115755
0.6088100256
0.6088100211
0.60881
0.60881
0.60881
0.60881
0.60881
0.60881
0.60881
0.60881
0.60881
0.60881
0.6088141361
0.6088100297
0.6088100034
0.6088100017
0.6088100011
0.608810001
0.6088100013
0.6088100012
0.6088100007
0.6088100004
0.6088100002
0.6088100001
0.6088100002
0.6088100003
0.6088100007
0.6088100012
0.6088100017
0.6088100018
0.6088100016
0.6088100014
0.6088100016
0.6088100027
0.6088100023
0.6088100016
0.6088100013
0.6088100012
0.6088100012
0.6088100013
0.6088100015
0.6088100018
0.6088100043
0.6088118431
0.60881
0.60881
0.60881
0.60881
0.608811158
0.6088117563
0.6088121626
0.60881
0.60881
0.60881
0.60881
0.60881
0.60881
0.60881
0.6088114895
0.6088100087
0.6088100017
0.6088100019
0.6088130829
0.60881
0.60881
0.60881
0.60881
0.60881
0.60881
0.60881
0.60881
0.60881
0.608810209
0.6088100063
0.6088100032
0.6088100026
0.608810003
0.6088100033
0.6088100023
0.6088100015
0.6088100007
0.6088100002
0.6088100005
0.6088100002
0.6088100004
0.6088100006
0.6088100012
0.6088100024
0.6088100044
0.6088100065
0.6088100085
0.6088100277
0.6088140163
0.6088100504
0.6088100242
0.6088100135
0.6088100084
0.6088100054
0.6088100035
0.6088100023
0.6088100018
0.6088100018
0.6088100024
0.6088100175
0.6088111179
0.60881
0.60881
0.60881
0.6088100027
0.6088100065
0.6088100052
0.608811135
0.60881
0.60881
0.60881
0.60881
0.60881
0.6088110721
0.6088100165
0.6088100015
0.6088100011
0.6088100012
0.6088141842
0.60881
0.60881
0.60881
0.60881
0.60881
0.60881
0.60881
0.60881
0.6088102153
0.6088100061
0.6088100033
0.6088100027
0.6088100028
0.6088100035
0.6088100034
0.608810002
0.6088100012
0.6088100005
0.6088100002
0.6088100006
0.6088100003
0.6088100006
0.6088100009
0.6088100014
0.6088100027
0.608810005
0.6088100075
0.6088100102
0.6088100445
0.6088144603
0.6088100549
0.6088100267
0.6088100152
0.6088100097
0.6088100066
0.6088100044
0.6088100029
0.608810002
0.6088100017
0.6088100018
0.6088100024
0.6088100224
0.6088110026
0.60881
0.60881
0.6088100011
0.6088100016
0.6088100018
0.6088100055
0.6088115866
0.60881
0.60881
0.60881
0.60881
0.6088100888
0.6088100018
0.6088100011
0.608810001
0.6088100012
0.6088143741
0.60881
0.60881
0.60881
0.60881
0.60881
0.60881
0.60881
0.6088103129
0.6088100058
0.6088100033
0.6088100028
0.6088100029
0.6088100036
0.6088100043
0.6088100028
0.6088100013
0.6088100007
0.6088100003
0.6088100001
0.608810008
0.6088100007
0.6088100047
0.6088100113
0.6088101002
0.6088144796
0.6088145344
0.6088145533
0.6088143055
0.60881
0.6088144697
0.6088100586
0.6088100304
0.6088100177
0.6088100115
0.608810008
0.6088100056
0.6088100039
0.6088100026
0.6088100019
0.6088100017
0.6088100018
0.6088100024
0.6088100151
0.6088115538
0.60881
0.6088100009
0.6088100013
0.6088100015
0.6088100022
0.6088142714
0.60881
0.60881
0.60881
0.6088117286
0.6088100034
0.6088100012
0.6088100009
0.608810001
0.6088100014
0.6088144775
0.60881
0.60881
0.60881
0.60881
0.60881
0.60881
0.608810898
0.6088100067
0.6088100033
0.6088100028
0.6088100031
0.6088100039
0.6088100051
0.6088100049
0.6088100022
0.6088100009
0.6088100004
0.6088100002
0.60881
0.6088100002
0.6088100002
0.6088100005
0.608810001
0.6088100022
0.6088100234
0.6088124094
0.60881
0.60881
0.60881
0.6088144767
0.6088100632
0.6088100354
0.6088100211
0.6088100137
0.6088100096
0.608810007
0.6088100051
0.6088100036
0.6088100025
0.6088100019
0.6088100017
0.6088100017
0.6088100021
0.608810007
0.6088112723
0.6088100008
0.6088100013
0.6088100016
0.6088100023
0.6088143714
0.60881
0.60881
0.6088120441
0.6088100127
0.6088100015
0.608810001
0.6088100009
0.6088100012
0.6088100021
0.6088145131
0.60881
0.60881
0.60881
0.60881
0.60881
0.608813563
0.608810011
0.6088100037
0.608810003
0.6088100033
0.6088100044
0.6088100062
0.6088100078
0.6088100092
0.6088100096
0.6088100082
0.6088100074
0.6088100058
0.6088099997
0.6088100021
0.6088100014
0.6088100028
0.6088100121
0.6088116841
0.60881
0.6088145727
0.6088146935
0.6088146066
0.6088145304
0.6088144765
0.6088100687
0.6088100424
0.6088100258
0.6088100168
0.6088100117
0.6088100086
0.6088100065
0.6088100049
0.6088100035
0.6088100025
0.6088100019
0.6088100016
0.6088100016
0.6088100019
0.6088100031
0.6088100007
0.6088100016
0.6088100024
0.6088100045
0.6088143827
0.60881
0.60881
0.6088101349
0.6088100024
0.6088100012
0.608810001
0.608810001
0.6088100016
0.608810003
0.6088145329
0.60881
0.60881
0.60881
0.60881
0.6088119151
0.6088100652
0.608810005
0.6088100033
0.6088100034
0.608810005
0.6088100079
0.6088100108
0.6088100132
0.6088100151
0.6088100148
0.6088100118
0.6088100108
0.6088100095
0.60881
0.6088100023
0.6088100023
0.6088100036
0.608810009
0.6088102862
0.6088103252
0.6088100779
0.6088100455
0.6088100498
0.6088101459
0.6088142585
0.6088100742
0.6088100522
0.6088100329
0.6088100209
0.6088100141
0.6088100102
0.6088100078
0.6088100061
0.6088100048
0.6088100035
0.6088100025
0.6088100019
0.6088100016
0.6088100015
0.6088100016
0.6088100006
0.6088100022
0.6088100037
0.6088100075
0.6088143853
0.60881
0.6088117659
0.608810004
0.6088100014
0.608810001
0.608810001
0.6088100013
0.6088100021
0.6088100039
0.6088100451
0.60881
0.60881
0.60881
0.60881
0.6088139662
0.6088100152
0.6088100045
0.6088100038
0.6088100052
0.6088100101
0.6088100162
0.6088100213
0.6088100254
0.6088100289
0.6088100263
0.6088100241
0.6088100201
0.6088100172
0.6088100007
0.6088100038
0.6088100049
0.6088100047
0.6088100075
0.6088100163
0.6088100082
0.6088100066
0.6088100069
0.608810009
0.6088100148
0.6088100739
0.6088100779
0.6088100666
0.6088100438
0.6088100261
0.6088100161
0.608810011
0.6088100084
0.6088100069
0.6088100058
0.6088100048
0.6088100037
0.6088100027
0.6088100019
0.6088100016
0.6088100014
0.6088100006
0.608810003
0.6088100046
0.6088100076
0.6088143861
0.6088126374
0.6088100066
0.6088100016
0.6088100011
0.608810001
0.6088100011
0.6088100016
0.6088100028
0.6088100045
0.6088100072
0.6088131013
0.60881
0.60881
0.60881
0.6088138833
0.6088100156
0.6088100052
0.6088100051
0.6088100103
0.6088100245
0.6088100392
0.6088100503
0.6088100593
0.6088100697
0.6088100567
0.608810056
0.6088100492
0.6088100388
0.608810005
0.6088100162
0.6088100105
0.6088100061
0.6088100064
0.6088100043
0.608810004
0.6088100046
0.608810006
0.6088100085
0.608810013
0.6088100287
0.6088100815
0.6088100941
0.6088100629
0.6088100298
0.6088100154
0.6088100097
0.6088100074
0.6088100064
0.6088100059
0.6088100055
0.6088100049
0.608810004
0.6088100029
0.608810002
0.6088100013
0.6088100005
0.6088100035
0.6088100047
0.6088100058
0.6088137518
0.6088100073
0.6088100017
0.6088100012
0.608810001
0.608810001
0.6088100014
0.6088100021
0.6088100032
0.6088100046
0.608810006
0.6088144188
0.60881
0.60881
0.60881
0.6088136444
0.6088101246
0.6088100094
0.6088100078
0.608810024
0.6088100755
0.6088101249
0.608810158
0.6088101843
0.6088102424
0.6088101648
0.6088101722
0.6088101608
0.60881014
0.6088101156
0.6088100784
0.6088100217
0.6088100065
0.6088100037
0.6088100033
0.6088100042
0.6088100064
0.6088100105
0.6088100182
0.6088100342
0.6088100745
0.6088103311
0.608810184
0.6088101024
0.6088100257
0.6088100107
0.6088100064
0.6088100049
0.6088100046
0.6088100047
0.6088100049
0.6088100051
0.608810005
0.6088100044
0.6088100032
0.6088100014
0.6088100005
0.6088100036
0.6088100041
0.6088100039
0.6088100068
0.6088100017
0.6088100012
0.608810001
0.608810001
0.6088100012
0.6088100017
0.6088100024
0.6088100033
0.6088100043
0.6088100052
0.6088142381
0.6088139832
0.60881
0.60881
0.60881
0.60881
0.6088144794
0.6088144766
0.6088144358
0.6088144217
0.60881452
0.608814705
0.608814847
0.6088108479
0.6088102167
0.6088149646
0.6088149063
0.6088148606
0.6088146316
0.608810978
0.6088100099
0.6088100039
0.6088100033
0.6088100046
0.6088100086
0.6088100172
0.6088100336
0.6088100665
0.6088101431
0.6088103542
0.6088107811
0.6088103333
0.6088101768
0.6088100147
0.6088100058
0.6088100036
0.6088100029
0.6088100028
0.608810003
0.6088100035
0.6088100041
0.6088100048
0.6088100052
0.6088100047
0.6088100016
0.6088100005
0.6088100033
0.6088100031
0.6088100024
0.6088100018
0.6088100012
0.608810001
0.608810001
0.6088100011
0.6088100014
0.6088100019
0.6088100025
0.6088100031
0.6088100037
0.6088100043
0.6088100289
0.6088100717
0.6088114803
0.6088112012
0.60881
0.60881
0.60881
0.60881
0.60881
0.60881
0.60881
0.60881
0.6088146053
0.6088101925
0.608810067
0.6088148821
0.60881
0.60881
0.6088124267
0.6088102698
0.6088100091
0.6088100043
0.6088100046
0.6088100099
0.6088100265
0.6088100606
0.6088101249
0.6088102506
0.6088105123
0.6088111692
0.6088114472
0.608810646
0.6088103345
0.6088100066
0.6088100031
0.6088100021
0.6088100018
0.6088100018
0.608810002
0.6088100024
0.608810003
0.6088100038
0.6088100049
0.6088100056
0.608810002
0.6088100011
0.6088100014
0.6088100017
0.6088100021
0.6088100025
0.6088100027
0.608810003
0.6088100033
0.6088100074
0.6088100072
0.6088100106
0.6088101276
0.608812415
0.60881
0.60881
0.60881
0.60881
0.60881
0.60881
0.60881
0.6088144575
0.6088101368
0.6088100254
0.6088146806
0.60881
0.60881
0.60881
0.6088144159
0.6088100443
0.6088100073
0.6088100071
0.6088100249
0.6088100939
0.6088101148
0.6088103686
0.6088110579
0.608811878
0.6088133614
0.6088130042
0.6088115514
0.6088107482
0.6088100031
0.6088100019
0.6088100015
0.6088100014
0.6088100014
0.6088100015
0.6088100018
0.6088100024
0.6088100031
0.6088100043
0.608810006
0.6088100028
0.6088100022
0.6088100022
0.6088100022
0.6088100023
0.608810006
0.6088100043
0.608810004
0.6088100057
0.6088100621
0.6088125213
0.60881
0.60881
0.60881
0.60881
0.60881
0.60881
0.608814325
0.6088101053
0.6088100117
0.6088144583
0.60881
0.60881
0.60881
0.60881
0.60881
0.6088143991
0.6088143689
0.6088143788
0.6088143585
0.6088100077
0.6088100182
0.6088146979
0.6088148484
0.6088149433
0.6088134487
0.6088112885
0.608810149
0.6088100022
0.6088100015
0.6088100013
0.6088100012
0.6088100012
0.6088100013
0.6088100017
0.6088100042
0.6088112184
0.6088143358
0.6088143319
0.608814296
0.6088100015
0.6088100015
0.6088100103
0.6088100051
0.6088100032
0.6088100031
0.6088100052
0.6088100823
0.6088121023
0.60881
0.60881
0.60881
0.60881
0.60881
0.6088142992
0.6088101047
0.6088100078
0.6088142999
0.60881
0.60881
0.60881
0.60881
0.60881
0.60881
0.60881
0.60881
0.6088142548
0.6088100021
0.6088100023
0.6088100253
0.6088137325
0.608814826
0.6088118875
0.6088100623
0.6088100029
0.608810002
0.6088100016
0.6088100013
0.6088100012
0.6088100012
0.6088100013
0.6088100015
0.6088100019
0.6088100046
0.608810459
0.6088109379
0.60881
0.6088100053
0.6088100031
0.6088100039
0.6088100136
0.6088130571
0.60881
0.60881
0.60881
0.60881
0.60881
0.6088142697
0.6088102013
0.6088100082
0.6088142667
0.60881
0.60881
0.60881
0.60881
0.60881
0.60881
0.60881
0.60881
0.608814239
0.6088100014
0.6088100015
0.6088100029
0.608810145
0.6088146946
0.6088110519
0.6088100051
0.6088100035
0.6088100026
0.6088100021
0.6088100018
0.6088100017
0.6088100016
0.6088100015
0.6088100014
0.6088100015
0.6088100019
0.6088100035
0.6088100472
0.6088129628
0.608814493
0.6088113623
0.60881
0.60881
0.60881
0.60881
0.60881
0.60881
0.60881
0.6088126743
0.6088100135
0.6088142338
0.60881
0.60881
0.60881
0.60881
0.60881
0.60881
0.60881
0.60881
0.608814272
0.6088100013
0.6088100013
0.608810002
0.6088100099
0.6088139373
0.6088105576
0.6088100242
0.6088100093
0.6088100053
0.6088100037
0.6088100029
0.6088100025
0.6088100025
0.6088100022
0.6088100018
0.6088100015
0.6088100015
0.6088100016
0.6088100023
0.6088100072
0.60881
0.60881
0.60881
0.60881
0.60881
0.60881
0.6088102305
0.60881
0.60881
0.60881
0.60881
0.60881
0.60881
0.60881
0.60881
0.60881
0.6088143182
0.6088100015
0.6088100012
0.6088100017
0.6088100051
0.6088101085
0.608810303
0.6088100285
0.6088100101
0.6088100057
0.608810004
0.6088100032
0.6088100031
0.6088100033
0.6088100032
0.6088100027
0.6088100021
0.6088100016
0.6088100014
0.6088100014
0.6088100016
0.60881
0.60881
0.60881
0.60881
0.6088109331
0.60881
0.60881
0.60881
0.60881
0.60881
0.60881
0.60881
0.60881
0.60881
0.6088143194
0.608810002
0.6088100013
0.6088100015
0.6088100028
0.608810011
0.608810067
0.6088100237
0.6088100092
0.6088100057
0.6088100043
0.6088100036
0.6088100038
0.6088100041
0.6088100039
0.6088100036
0.6088100031
0.6088100023
0.6088100017
0.6088100013
0.6088100013
0.60881
0.60881
0.60881
0.60881
0.60881
0.60881
0.60881
0.60881
0.60881
0.60881
0.60881
0.60881
0.60881
0.6088143049
0.6088100027
0.6088100016
0.6088100014
0.6088100018
0.608810003
0.608810014
0.6088100136
0.6088100076
0.608810006
0.6088100052
0.6088100045
0.6088100047
0.6088100044
0.6088100041
0.6088100038
0.6088100037
0.6088100034
0.6088100026
0.6088100018
0.6088100012
0.60881
0.60881
0.60881
0.60881
0.60881
0.60881
0.60881
0.60881
0.60881
0.60881
0.60881
0.60881
0.60881
0.6088142777
0.6088100035
0.6088100021
0.6088100015
0.6088100015
0.6088100019
0.608810005
0.6088100088
0.6088100094
0.6088100093
0.6088100089
0.6088100077
0.6088100051
0.6088100041
0.6088100035
0.6088100032
0.6088100032
0.6088100038
0.6088100038
0.608810003
0.6088100014
0.60881
0.60881
0.60881
0.60881
0.60881
0.60881
0.60881
0.60881
0.60881
0.60881
0.60881
0.60881
0.6088142419
0.6088100043
0.6088100026
0.6088100018
0.6088100015
0.6088100014
0.6088100024
0.6088100038
0.6088100066
0.6088100104
0.6088100106
0.608810008
0.6088100043
0.6088100032
0.6088100027
0.6088100024
0.6088100024
0.6088100032
0.6088100372
0.6088143771
0.6088138048
0.60881
0.60881
0.60881
0.60881
0.60881
0.60881
0.60881
0.60881
0.60881
0.60881
0.60881
0.60881
0.6088143073
0.6088100054
0.6088100031
0.6088100022
0.6088100017
0.6088100014
0.6088100015
0.6088100022
0.6088100037
0.6088100062
0.6088100069
0.6088100054
0.6088100037
0.6088100027
0.6088100021
0.6088100018
0.6088100017
0.6088100019
0.6088100033
0.6088101423
0.60881
0.60881
0.60881
0.60881
0.60881
0.60881
0.60881
0.60881
0.60881
0.60881
0.60881
0.608814163
0.6088143029
0.6088145092
0.6088100068
0.6088100038
0.6088100026
0.608810002
0.6088100016
0.6088100014
0.6088100016
0.6088100022
0.6088100035
0.6088100043
0.6088100039
0.6088100032
0.6088100024
0.6088100018
0.6088100014
0.6088100013
0.6088100013
0.6088100016
0.6088100033
0.6088102151
0.60881
0.60881
0.60881
0.60881
0.60881
0.60881
0.6088134449
0.6088134329
0.6088107807
0.6088102861
0.6088102609
0.6088108227
0.6088100088
0.6088100045
0.6088100031
0.6088100023
0.6088100019
0.6088100015
0.6088100014
0.6088100015
0.608810002
0.6088100027
0.608810003
0.608810003
0.6088100024
0.6088100017
0.6088100013
0.6088100011
0.6088100009
0.608810001
0.6088100013
0.6088100024
0.60881
0.60881
0.60881
0.60881
0.6088130684
0.6088100809
0.6088100196
0.6088100124
0.6088100111
0.608810014
0.6088100248
0.6088100099
0.6088100053
0.6088100036
0.6088100027
0.6088100021
0.6088100017
0.6088100014
0.6088100013
0.6088100014
0.6088100018
0.6088100025
0.6088100029
0.6088100025
0.6088100018
0.6088100013
0.6088100011
0.6088100009
0.6088100008
0.6088100008
0.6088100009
0.60881
0.60881
0.6088105775
0.608810243
0.6088100108
0.608810005
0.6088100038
0.6088100034
0.6088100038
0.608810005
0.6088100078
0.6088100099
0.6088100061
0.6088100043
0.6088100032
0.6088100025
0.6088100019
0.6088100015
0.6088100012
0.6088100011
0.6088100013
0.6088100018
0.6088100024
0.6088100024
0.6088100019
0.6088100014
0.6088100011
0.6088100009
0.6088100008
0.6088100007
0.6088100005
0.60881
0.6088112411
0.6088100804
0.6088100054
0.6088100028
0.6088100022
0.6088100022
0.6088100026
0.6088100036
0.6088100052
0.608810009
0.6088100151
0.6088100089
0.6088100061
0.6088100043
0.6088100031
0.6088100023
0.6088100019
0.6088100015
0.608810001
0.608810001
0.6088100025
0.6088100041
0.6088100028
0.608810002
0.6088100015
0.6088100013
0.6088100011
0.6088100009
0.6088100007
0.6088100004
0.6088140769
0.6088141936
0.6088144142
0.6088146961
0.6088148981
0.6088148958
0.6088100126
0.6088100058
0.6088100033
0.6088100021
0.6088100018
0.6088100019
0.6088100029
0.6088100087
0.6088100139
0.6088102388
0.6088100224
0.6088100079
0.6088100035
0.6088100021
0.6088100015
0.6088100011
0.6088100009
0.6088100008
0.608810001
0.6088100022
0.60881
0.60881
0.60881
0.6088144862
0.6088147334
0.6088148625
0.6088100081
0.608810004
0.6088100024
0.6088100017
0.6088100016
0.6088100017
0.608810002
0.6088100029
0.6088100084
0.608810599
0.6088100115
0.6088100152
0.6088100043
0.6088100019
0.6088100013
0.608810001
0.6088100009
0.6088100011
0.6088100018
0.6088100118
)
;

boundaryField
{
    walls
    {
        type            zeroGradient;
    }
    wallFilmFace_top
    {
        type            zeroGradient;
    }
    region0_to_wallFilmRegion_wallFilmFace
    {
        type            zeroGradient;
    }
    mirrorFace_top
    {
        type            zeroGradient;
    }
    region0_to_wallFilmRegion_mirrorFace
    {
        type            zeroGradient;
    }
    procBoundary0to1
    {
        type            processor;
        value           nonuniform List<scalar> 
52
(
0.6088100005
0.6088100028
0.6088100023
0.6088100017
0.6088100013
0.608810001
0.608810001
0.608810001
0.6088100014
0.6088100017
0.608810002
0.6088100022
0.6088100022
0.6088100018
0.6088100016
0.6088100016
0.6088100009
0.6088100009
0.6088100368
0.6088100128
0.6088100128
0.6088103027
0.6088141847
0.6088141847
0.6088107722
0.60881
0.60881
0.60881
0.60881
0.60881
0.60881
0.60881
0.60881
0.60881
0.60881
0.60881
0.60881
0.60881
0.60881
0.60881
0.60881
0.60881
0.60881
0.60881
0.60881
0.60881
0.60881
0.60881
0.6088138395
0.6088141505
0.6088141505
0.60881
)
;
    }
    procBoundary0to2
    {
        type            processor;
        value           nonuniform List<scalar> 
26
(
0.60881419
0.6088142293
0.6088142636
0.6088143664
0.6088145379
0.6088146999
0.6088100062
0.608810003
0.6088100019
0.6088100015
0.6088100014
0.6088100015
0.6088100018
0.6088100023
0.6088100042
0.6088100367
0.6088100002
0.6088100011
0.6088100028
0.6088100021
0.6088100015
0.6088100012
0.6088100013
0.6088100019
0.6088100073
0.6088127761
)
;
    }
}


// ************************************************************************* //
