/*--------------------------------*- C++ -*----------------------------------*\
  =========                 |
  \\      /  F ield         | OpenFOAM: The Open Source CFD Toolbox
   \\    /   O peration     | Website:  https://openfoam.org
    \\  /    A nd           | Version:  8
     \\/     M anipulation  |
\*---------------------------------------------------------------------------*/
FoamFile
{
    version     2.0;
    format      ascii;
    class       volScalarField;
    location    "0.3/wallFilmRegion";
    object      mu;
}
// * * * * * * * * * * * * * * * * * * * * * * * * * * * * * * * * * * * * * //

dimensions      [1 -1 -1 0 0 0 0];

internalField   nonuniform List<scalar> 
1369
(
0.0008861474103
0.0008861474103
0.0008861474103
0.0008861474103
0.0008861474103
0.0008861474103
0.0008861474103
0.0008861474103
0.0008861474103
0.0008861474103
0.0008861474103
0.0008861254155
0.0008861470536
0.0008861471164
0.0008861474103
0.0008861474103
0.0008861474103
0.0008861474103
0.0008861474103
0.0008861474103
0.0008861474103
0.0008861474103
0.0008861474103
0.0008861474103
0.0008860896712
0.0008861469963
0.0008861473629
0.0008861473867
0.0008861473949
0.0008861473967
0.0008861473915
0.0008861473937
0.0008861473999
0.000886147405
0.0008861474069
0.0008861474084
0.0008861474072
0.0008861474057
0.0008861474009
0.0008861473932
0.0008861473863
0.0008861473846
0.0008861473883
0.0008861473903
0.0008861473886
0.0008861473732
0.0008861473778
0.0008861473873
0.0008861473915
0.0008861473931
0.0008861473932
0.0008861473921
0.00088614739
0.0008861473854
0.0008861473505
0.0008861216809
0.0008861474103
0.0008861474103
0.0008861474103
0.0008861474103
0.0008861312446
0.0008861228917
0.0008861172196
0.0008861474103
0.0008861474103
0.0008861474103
0.0008861474103
0.0008861474103
0.0008861474103
0.0008861474103
0.0008861266159
0.0008861472894
0.0008861473863
0.0008861473834
0.0008861043729
0.0008861474103
0.0008861474103
0.0008861474103
0.0008861474103
0.0008861474103
0.0008861474103
0.0008861474103
0.0008861474103
0.0008861474103
0.0008861444928
0.0008861473224
0.000886147365
0.000886147374
0.0008861473687
0.0008861473646
0.0008861473782
0.0008861473891
0.0008861474003
0.000886147407
0.0008861474033
0.0008861474069
0.0008861474047
0.0008861474021
0.0008861473941
0.0008861473762
0.0008861473486
0.0008861473202
0.0008861472922
0.0008861470238
0.0008860913435
0.0008861467073
0.0008861470728
0.0008861472222
0.0008861472931
0.0008861473344
0.0008861473622
0.0008861473789
0.0008861473853
0.0008861473851
0.0008861473769
0.0008861471662
0.0008861318037
0.0008861474103
0.0008861474103
0.0008861474103
0.0008861473724
0.0008861473192
0.000886147338
0.0008861315658
0.0008861474103
0.0008861474103
0.0008861474103
0.0008861474103
0.0008861474103
0.0008861324438
0.00088614718
0.00088614739
0.0008861473949
0.000886147393
0.000886088999
0.0008861474103
0.0008861474103
0.0008861474103
0.0008861474103
0.0008861474103
0.0008861474103
0.0008861474103
0.0008861474103
0.0008861444045
0.0008861473256
0.0008861473647
0.0008861473728
0.0008861473718
0.0008861473615
0.0008861473627
0.0008861473826
0.0008861473933
0.0008861474027
0.0008861474082
0.0008861474018
0.0008861474061
0.0008861474023
0.0008861473982
0.0008861473912
0.0008861473722
0.00088614734
0.0008861473061
0.0008861472686
0.000886146789
0.0008860851449
0.0008861466434
0.0008861470375
0.0008861471978
0.0008861472747
0.0008861473186
0.0008861473486
0.0008861473701
0.0008861473821
0.0008861473861
0.000886147385
0.0008861473762
0.0008861470981
0.0008861334136
0.0008861474103
0.0008861474103
0.000886147395
0.0008861473875
0.0008861473857
0.0008861473341
0.000886125261
0.0008861474103
0.0008861474103
0.0008861474103
0.0008861474103
0.0008861461702
0.0008861473849
0.0008861473957
0.0008861473969
0.0008861473942
0.0008860863479
0.0008861474103
0.0008861474103
0.0008861474103
0.0008861474103
0.0008861474103
0.0008861474103
0.0008861474103
0.0008861430427
0.0008861473287
0.0008861473647
0.0008861473717
0.00088614737
0.0008861473607
0.0008861473505
0.0008861473714
0.0008861473926
0.0008861474008
0.0008861474056
0.0008861474091
0.0008861472992
0.0008861474008
0.0008861473445
0.0008861472524
0.0008861460114
0.000886084876
0.0008860841106
0.0008860838469
0.0008860873063
0.0008861474103
0.0008860850132
0.0008861465923
0.0008861469862
0.000886147163
0.0008861472501
0.0008861472991
0.0008861473315
0.0008861473561
0.0008861473738
0.0008861473833
0.0008861473864
0.0008861473853
0.0008861473775
0.0008861471995
0.0008861257191
0.0008861474103
0.000886147398
0.0008861473927
0.00088614739
0.000886147379
0.0008860877826
0.0008861474103
0.0008861474103
0.0008861474103
0.0008861232794
0.000886147363
0.0008861473938
0.0008861473973
0.0008861473966
0.0008861473902
0.0008860849053
0.0008861474103
0.0008861474103
0.0008861474103
0.0008861474103
0.0008861474103
0.0008861474103
0.0008861348744
0.0008861473173
0.0008861473641
0.0008861473706
0.0008861473676
0.0008861473557
0.0008861473397
0.0008861473422
0.0008861473803
0.0008861473984
0.0008861474041
0.0008861474069
0.00088614741
0.000886147408
0.0008861474071
0.0008861474037
0.0008861473965
0.0008861473797
0.000886147084
0.0008861137753
0.0008861474103
0.0008861474103
0.0008861474103
0.0008860849157
0.0008861465285
0.0008861469164
0.000886147116
0.0008861472185
0.0008861472761
0.0008861473124
0.0008861473388
0.0008861473601
0.0008861473756
0.000886147384
0.0008861473868
0.0008861473862
0.0008861473807
0.0008861473131
0.0008861296487
0.0008861473997
0.0008861473929
0.0008861473879
0.0008861473782
0.0008860863866
0.0008861474103
0.0008861474103
0.0008861188747
0.0008861472333
0.0008861473888
0.0008861473962
0.0008861473974
0.000886147394
0.0008861473808
0.0008860844078
0.0008861474103
0.0008861474103
0.0008861474103
0.0008861474103
0.0008861474103
0.000886097671
0.0008861472571
0.000886147359
0.0008861473689
0.0008861473649
0.0008861473482
0.0008861473239
0.000886147301
0.000886147282
0.0008861472769
0.0008861472964
0.0008861473075
0.0008861473288
0.000886147414
0.0008861473807
0.0008861473909
0.0008861473706
0.0008861472417
0.0008861239004
0.0008861474103
0.0008860835763
0.0008860818895
0.0008860831029
0.0008860841668
0.0008860849185
0.0008861464511
0.000886146819
0.0008861470495
0.000886147176
0.0008861472474
0.0008861472907
0.0008861473199
0.0008861473425
0.0008861473616
0.000886147376
0.0008861473842
0.0008861473874
0.0008861473875
0.0008861473842
0.0008861473667
0.000886147401
0.0008861473884
0.0008861473767
0.0008861473476
0.0008860862277
0.0008861474103
0.0008861474103
0.000886145527
0.0008861473775
0.000886147394
0.0008861473971
0.0008861473959
0.0008861473886
0.0008861473678
0.0008860841311
0.0008861474103
0.0008861474103
0.0008861474103
0.0008861474103
0.0008861206748
0.0008861464997
0.0008861473409
0.0008861473637
0.0008861473626
0.0008861473399
0.0008861472998
0.0008861472593
0.0008861472263
0.0008861471999
0.0008861472037
0.0008861472451
0.0008861472589
0.0008861472778
0.0008861474103
0.0008861473778
0.000886147378
0.0008861473597
0.0008861472848
0.0008861434144
0.0008861428707
0.0008861463231
0.0008861467757
0.0008861467145
0.0008861453735
0.0008860879613
0.0008861463743
0.0008861466823
0.0008861469515
0.0008861471181
0.0008861472136
0.0008861472685
0.0008861473017
0.0008861473247
0.0008861473438
0.0008861473611
0.0008861473752
0.000886147384
0.000886147388
0.0008861473888
0.0008861473883
0.0008861474019
0.0008861473792
0.000886147359
0.0008861473058
0.0008860861921
0.0008861474103
0.0008861227585
0.0008861473547
0.0008861473909
0.000886147396
0.0008861473966
0.0008861473925
0.0008861473807
0.0008861473553
0.0008861467802
0.0008861474103
0.0008861474103
0.0008861474103
0.0008861474103
0.0008860920428
0.000886147198
0.0008861473478
0.0008861473577
0.0008861473371
0.0008861472698
0.0008861471842
0.0008861471128
0.0008861470554
0.0008861470066
0.0008861470435
0.0008861470738
0.0008861471302
0.0008861471696
0.0008861474009
0.0008861473572
0.0008861473422
0.0008861473449
0.0008861473052
0.0008861471828
0.0008861472964
0.0008861473176
0.0008861473134
0.0008861472848
0.0008861472044
0.0008861463793
0.0008861463226
0.0008861464804
0.0008861467993
0.0008861470463
0.0008861471854
0.0008861472562
0.0008861472926
0.0008861473136
0.0008861473288
0.0008861473433
0.0008861473588
0.0008861473732
0.0008861473832
0.0008861473883
0.0008861473911
0.0008861474024
0.000886147369
0.0008861473466
0.0008861473038
0.0008860861814
0.0008861105925
0.0008861473176
0.0008861473881
0.0008861473948
0.0008861473966
0.0008861473946
0.0008861473874
0.0008861473719
0.0008861473477
0.0008861473098
0.0008861041157
0.0008861474103
0.0008861474103
0.0008861474103
0.000886093199
0.0008861471928
0.0008861473371
0.0008861473388
0.0008861472665
0.0008861470686
0.0008861468629
0.0008861467076
0.0008861465826
0.0008861464377
0.0008861466183
0.0008861466292
0.0008861467241
0.0008861468689
0.0008861473405
0.0008861471843
0.0008861472634
0.0008861473249
0.0008861473203
0.0008861473507
0.0008861473544
0.0008861473457
0.0008861473261
0.0008861472918
0.0008861472288
0.0008861470096
0.0008861462724
0.0008861460964
0.0008861465318
0.000886146994
0.0008861471955
0.0008861472748
0.000886147307
0.0008861473208
0.0008861473278
0.0008861473337
0.000886147342
0.0008861473548
0.0008861473698
0.0008861473818
0.0008861473917
0.0008861474028
0.0008861473618
0.0008861473451
0.0008861473288
0.0008860950359
0.0008861473091
0.0008861473861
0.0008861473943
0.0008861473964
0.0008861473957
0.0008861473912
0.0008861473815
0.0008861473655
0.0008861473463
0.0008861473269
0.0008860857244
0.0008861474103
0.0008861474103
0.0008861474103
0.0008860965349
0.0008861456708
0.0008861472795
0.0008861473016
0.0008861470749
0.0008861463558
0.0008861456671
0.0008861452041
0.000886144837
0.0008861440261
0.0008861451095
0.0008861450061
0.0008861451656
0.0008861454565
0.000886145796
0.0008861463154
0.000886147108
0.00088614732
0.0008861473593
0.0008861473638
0.0008861473511
0.0008861473213
0.0008861472642
0.0008861471569
0.0008861469327
0.0008861463701
0.0008861427879
0.0008861448409
0.0008861459806
0.000886147051
0.000886147261
0.0008861473212
0.0008861473412
0.0008861473464
0.0008861473453
0.0008861473419
0.0008861473391
0.0008861473403
0.0008861473495
0.0008861473662
0.0008861473907
0.000886147403
0.0008861473597
0.0008861473535
0.0008861473555
0.0008861473155
0.0008861473864
0.000886147394
0.0008861473966
0.0008861473963
0.0008861473935
0.0008861473872
0.0008861473769
0.0008861473638
0.0008861473506
0.0008861473373
0.0008860882462
0.0008860918046
0.0008861474103
0.0008861474103
0.0008861474103
0.0008861474103
0.0008860848783
0.0008860849168
0.0008860854877
0.0008860856836
0.0008860843117
0.0008860817286
0.0008860797463
0.0008861355729
0.000886144385
0.0008860781054
0.0008860789194
0.0008860795577
0.0008860827541
0.0008861337577
0.0008861472716
0.0008861473559
0.0008861473637
0.0008861473464
0.0008861472904
0.0008861471702
0.0008861469408
0.0008861464815
0.0008861454122
0.0008861424649
0.0008861365053
0.0008861427573
0.0008861449418
0.0008861472049
0.0008861473296
0.0008861473604
0.0008861473703
0.0008861473716
0.000886147368
0.0008861473613
0.0008861473526
0.0008861473434
0.0008861473375
0.0008861473447
0.0008861473878
0.0008861474031
0.0008861473636
0.0008861473669
0.0008861473764
0.0008861473854
0.000886147394
0.0008861473966
0.0008861473968
0.0008861473945
0.0008861473903
0.0008861473835
0.0008861473749
0.0008861473664
0.0008861473587
0.00088614735
0.0008861470071
0.0008861464095
0.0008861267452
0.0008861306414
0.0008861474103
0.0008861474103
0.0008861474103
0.0008861474103
0.0008861474103
0.0008861474103
0.0008861474103
0.0008861474103
0.0008860831206
0.0008861447227
0.0008861464754
0.0008860792568
0.0008861474103
0.0008861474103
0.0008861135332
0.0008861436442
0.000886147284
0.0008861473499
0.0008861473457
0.0008861472726
0.0008861470406
0.0008861465638
0.0008861456673
0.0008861439115
0.0008861402588
0.0008861310884
0.0008861272078
0.000886138392
0.0008861427403
0.0008861473186
0.0008861473677
0.0008861473806
0.000886147385
0.0008861473855
0.0008861473829
0.0008861473771
0.0008861473685
0.000886147357
0.0008861473423
0.0008861473315
0.0008861473819
0.0008861473949
0.0008861473915
0.0008861473867
0.000886147381
0.0008861473757
0.000886147372
0.000886147369
0.0008861473641
0.0008861473074
0.0008861473104
0.0008861472619
0.0008861456291
0.0008861136963
0.0008861474103
0.0008861474103
0.0008861474103
0.0008861474103
0.0008861474103
0.0008861474103
0.0008861474103
0.0008860851842
0.0008861454999
0.0008861470555
0.0008860820696
0.0008861474103
0.0008861474103
0.0008861474103
0.0008860857642
0.0008861467913
0.0008861473088
0.0008861473109
0.0008861470629
0.000886146099
0.0008861458072
0.0008861422643
0.0008861326422
0.0008861211926
0.0008861004857
0.0008861054719
0.000886125753
0.0008861369646
0.0008861473664
0.0008861473837
0.0008861473894
0.0008861473914
0.0008861473914
0.0008861473895
0.0008861473849
0.0008861473773
0.0008861473667
0.0008861473502
0.0008861473271
0.0008861473712
0.0008861473792
0.0008861473797
0.0008861473799
0.000886147378
0.0008861473267
0.0008861473497
0.0008861473545
0.0008861473306
0.0008861465429
0.0008861122132
0.0008861474103
0.0008861474103
0.0008861474103
0.0008861474103
0.0008861474103
0.0008861474103
0.0008860870334
0.0008861459401
0.0008861472467
0.000886085173
0.0008861474103
0.0008861474103
0.0008861474103
0.0008861474103
0.0008861474103
0.0008860859988
0.0008860864215
0.0008860862833
0.0008860865663
0.0008861473033
0.0008861471568
0.0008860818287
0.0008860797268
0.0008860784028
0.000886099266
0.0008861294228
0.0008861453301
0.0008861473792
0.0008861473889
0.0008861473926
0.0008861473939
0.0008861473937
0.0008861473918
0.0008861473866
0.0008861473521
0.0008861304006
0.0008860868825
0.0008860869378
0.0008860874379
0.0008861473899
0.0008861473892
0.0008861472659
0.0008861473395
0.0008861473653
0.0008861473672
0.0008861473371
0.000886146262
0.0008861180621
0.0008861474103
0.0008861474103
0.0008861474103
0.0008861474103
0.0008861474103
0.0008860873942
0.0008861459483
0.000886147301
0.0008860873843
0.0008861474103
0.0008861474103
0.0008861474103
0.0008861474103
0.0008861474103
0.0008861474103
0.0008861474103
0.0008861474103
0.0008860880139
0.0008861473812
0.0008861473777
0.0008861470569
0.0008860953049
0.0008860800394
0.0008861210601
0.0008861465409
0.0008861473702
0.0008861473824
0.0008861473886
0.0008861473916
0.0008861473929
0.0008861473931
0.0008861473924
0.0008861473901
0.0008861473839
0.0008861473467
0.0008861410026
0.0008861343168
0.0008861474103
0.0008861473359
0.0008861473666
0.0008861473565
0.0008861472207
0.0008861047333
0.0008861474103
0.0008861474103
0.0008861474103
0.0008861474103
0.0008861474103
0.0008860878055
0.0008861446
0.0008861472964
0.0008860878482
0.0008861474103
0.0008861474103
0.0008861474103
0.0008861474103
0.0008861474103
0.0008861474103
0.0008861474103
0.0008861474103
0.0008860882348
0.000886147391
0.0008861473898
0.00088614737
0.0008861453856
0.0008860818746
0.000886132726
0.0008861473395
0.0008861473622
0.0008861473747
0.0008861473809
0.0008861473845
0.0008861473864
0.0008861473874
0.0008861473891
0.0008861473902
0.0008861473892
0.0008861473844
0.0008861473616
0.0008861467509
0.0008861060496
0.0008860846891
0.0008861283926
0.0008861474103
0.0008861474103
0.0008861474103
0.0008861474103
0.0008861474103
0.0008861474103
0.0008861474103
0.0008861100773
0.0008861472218
0.000886088307
0.0008861474103
0.0008861474103
0.0008861474103
0.0008861474103
0.0008861474103
0.0008861474103
0.0008861474103
0.0008861474103
0.0008860877733
0.0008861473923
0.0008861473929
0.0008861473821
0.0008861472728
0.0008860924463
0.0008861396265
0.0008861470725
0.0008861472809
0.0008861473363
0.0008861473588
0.0008861473704
0.0008861473751
0.0008861473761
0.0008861473794
0.0008861473848
0.0008861473889
0.0008861473898
0.0008861473875
0.0008861473779
0.0008861473103
0.0008861474103
0.0008861474103
0.0008861474103
0.0008861474103
0.0008861474103
0.0008861474103
0.0008861441927
0.0008861474103
0.0008861474103
0.0008861474103
0.0008861474103
0.0008861474103
0.0008861474103
0.0008861474103
0.0008861474103
0.0008861474103
0.0008860871281
0.0008861473891
0.0008861473936
0.0008861473861
0.0008861473397
0.0008861458954
0.0008861431807
0.0008861470121
0.0008861472696
0.0008861473305
0.0008861473539
0.0008861473658
0.0008861473671
0.0008861473643
0.0008861473659
0.0008861473723
0.0008861473811
0.0008861473881
0.000886147391
0.0008861473906
0.0008861473874
0.0008861474103
0.0008861474103
0.0008861474103
0.0008861474103
0.0008861343845
0.0008861474103
0.0008861474103
0.0008861474103
0.0008861474103
0.0008861474103
0.0008861474103
0.0008861474103
0.0008861474103
0.0008861474103
0.0008860871122
0.0008861473819
0.0008861473924
0.0008861473889
0.0008861473716
0.0008861472569
0.0008861464756
0.0008861470802
0.0008861472825
0.0008861473305
0.0008861473497
0.0008861473604
0.0008861473568
0.0008861473534
0.0008861473552
0.0008861473596
0.000886147367
0.0008861473777
0.000886147387
0.0008861473916
0.0008861473928
0.0008861474103
0.0008861474103
0.0008861474103
0.0008861474103
0.0008861474103
0.0008861474103
0.0008861474103
0.0008861474103
0.0008861474103
0.0008861474103
0.0008861474103
0.0008861474103
0.0008861474103
0.000886087314
0.0008861473724
0.0008861473881
0.0008861473908
0.0008861473851
0.0008861473683
0.0008861472151
0.0008861472208
0.000886147304
0.0008861473265
0.0008861473375
0.0008861473469
0.0008861473451
0.0008861473485
0.0008861473536
0.0008861473573
0.0008861473586
0.0008861473633
0.0008861473744
0.0008861473854
0.0008861473936
0.0008861474103
0.0008861474103
0.0008861474103
0.0008861474103
0.0008861474103
0.0008861474103
0.0008861474103
0.0008861474103
0.0008861474103
0.0008861474103
0.0008861474103
0.0008861474103
0.0008861474103
0.0008860876933
0.0008861473618
0.0008861473813
0.0008861473892
0.00088614739
0.0008861473838
0.0008861473402
0.0008861472873
0.0008861472792
0.0008861472801
0.0008861472857
0.0008861473033
0.0008861473384
0.0008861473535
0.0008861473615
0.000886147366
0.0008861473653
0.0008861473579
0.000886147357
0.0008861473691
0.000886147391
0.0008861474103
0.0008861474103
0.0008861474103
0.0008861474103
0.0008861474103
0.0008861474103
0.0008861474103
0.0008861474103
0.0008861474103
0.0008861474103
0.0008861474103
0.0008861474103
0.0008860881936
0.0008861473501
0.0008861473747
0.0008861473849
0.0008861473899
0.0008861473902
0.0008861473769
0.0008861473578
0.0008861473184
0.0008861472655
0.000886147262
0.0008861472988
0.0008861473502
0.0008861473654
0.0008861473727
0.0008861473764
0.0008861473769
0.0008861473663
0.0008861468911
0.0008860863062
0.0008860942958
0.0008861474103
0.0008861474103
0.0008861474103
0.0008861474103
0.0008861474103
0.0008861474103
0.0008861474103
0.0008861474103
0.0008861474103
0.0008861474103
0.0008861474103
0.0008861474103
0.0008860872801
0.0008861473346
0.0008861473665
0.0008861473794
0.0008861473866
0.0008861473907
0.000886147389
0.0008861473802
0.0008861473591
0.0008861473237
0.0008861473138
0.0008861473352
0.0008861473592
0.0008861473729
0.0008861473809
0.000886147385
0.000886147386
0.0008861473836
0.0008861473648
0.0008861454242
0.0008861474103
0.0008861474103
0.0008861474103
0.0008861474103
0.0008861474103
0.0008861474103
0.0008861474103
0.0008861474103
0.0008861474103
0.0008861474103
0.0008861474103
0.0008860892957
0.0008860873419
0.000886084462
0.0008861473154
0.0008861473578
0.0008861473738
0.0008861473823
0.0008861473877
0.0008861473905
0.000886147388
0.0008861473796
0.0008861473615
0.0008861473501
0.0008861473554
0.0008861473654
0.0008861473764
0.0008861473851
0.0008861473904
0.0008861473928
0.0008861473925
0.0008861473886
0.0008861473642
0.0008861444069
0.0008861474103
0.0008861474103
0.0008861474103
0.0008861474103
0.0008861474103
0.0008861474103
0.0008860993193
0.0008860994873
0.0008861365122
0.0008861434156
0.0008861437678
0.0008861359256
0.0008861472875
0.0008861473473
0.0008861473675
0.0008861473776
0.0008861473842
0.000886147389
0.0008861473908
0.0008861473891
0.0008861473818
0.0008861473733
0.0008861473679
0.0008861473679
0.0008861473767
0.000886147386
0.0008861473921
0.0008861473956
0.0008861473971
0.0008861473962
0.0008861473921
0.0008861473771
0.0008861474103
0.0008861474103
0.0008861474103
0.0008861474103
0.0008861045755
0.0008861462814
0.0008861471372
0.0008861472372
0.0008861472548
0.0008861472151
0.0008861470642
0.000886147272
0.0008861473367
0.0008861473601
0.0008861473725
0.0008861473804
0.0008861473864
0.0008861473907
0.0008861473928
0.0008861473907
0.000886147385
0.000886147376
0.0008861473694
0.0008861473755
0.0008861473851
0.0008861473916
0.0008861473957
0.0008861473983
0.0008861473994
0.000886147399
0.0008861473984
0.0008861474103
0.0008861474103
0.000886139348
0.0008861440186
0.0008861472601
0.0008861473402
0.0008861473579
0.0008861473623
0.0008861473573
0.0008861473405
0.0008861473008
0.0008861472717
0.0008861473257
0.0008861473501
0.0008861473651
0.0008861473758
0.0008861473833
0.0008861473891
0.0008861473939
0.0008861473949
0.0008861473915
0.0008861473848
0.0008861473775
0.0008861473767
0.0008861473838
0.0008861473902
0.0008861473944
0.0008861473973
0.0008861473995
0.000886147401
0.0008861474032
0.0008861474103
0.0008861300843
0.0008861462879
0.0008861473348
0.0008861473708
0.00088614738
0.00088614738
0.0008861473734
0.0008861473607
0.0008861473377
0.0008861472845
0.0008861471997
0.0008861472867
0.0008861473251
0.0008861473498
0.0008861473673
0.0008861473784
0.0008861473841
0.0008861473892
0.0008861473966
0.000886147396
0.0008861473752
0.0008861473529
0.0008861473708
0.0008861473827
0.0008861473888
0.0008861473925
0.0008861473953
0.0008861473978
0.0008861474001
0.0008861474053
0.0008860904966
0.0008860888682
0.0008860857886
0.000886081854
0.0008860790331
0.0008860790657
0.000886147234
0.0008861473297
0.0008861473644
0.0008861473804
0.0008861473859
0.0008861473837
0.00088614737
0.0008861472882
0.0008861472168
0.0008861440763
0.0008861470973
0.0008861473004
0.0008861473619
0.0008861473804
0.0008861473893
0.0008861473944
0.0008861473977
0.0008861473986
0.0008861473959
0.0008861473803
0.0008861474103
0.0008861474103
0.0008861474103
0.0008860847832
0.0008860813328
0.0008860795311
0.0008861472979
0.0008861473543
0.0008861473767
0.0008861473863
0.0008861473886
0.0008861473869
0.0008861473818
0.0008861473697
0.0008861472925
0.0008861390482
0.0008861472494
0.0008861471982
0.0008861473504
0.0008861473836
0.0008861473918
0.0008861473959
0.0008861473973
0.000886147395
0.0008861473845
0.0008861472455
)
;

boundaryField
{
    walls
    {
        type            zeroGradient;
    }
    wallFilmFace_top
    {
        type            zeroGradient;
    }
    region0_to_wallFilmRegion_wallFilmFace
    {
        type            zeroGradient;
    }
    mirrorFace_top
    {
        type            zeroGradient;
    }
    region0_to_wallFilmRegion_mirrorFace
    {
        type            zeroGradient;
    }
    procBoundary0to1
    {
        type            processor;
        value           nonuniform List<scalar> 
52
(
0.0008861474028
0.0008861473711
0.0008861473783
0.0008861473866
0.0008861473922
0.0008861473961
0.0008861473964
0.0008861473964
0.0008861473909
0.000886147387
0.000886147383
0.00088614738
0.00088614738
0.0008861473854
0.0008861473884
0.0008861473884
0.0008861473978
0.0008861473974
0.0008861468967
0.000886147231
0.000886147231
0.0008861431851
0.0008860889917
0.0008860889917
0.0008861366308
0.0008861474103
0.0008861474103
0.0008861474103
0.0008861474103
0.0008861474103
0.0008861474103
0.0008861474103
0.0008861474103
0.0008861474103
0.0008861474103
0.0008861474103
0.0008861474103
0.0008861474103
0.0008861474103
0.0008861474103
0.0008861474103
0.0008861474103
0.0008861474103
0.0008861474103
0.0008861474103
0.0008861474103
0.0008861474103
0.0008861474103
0.0008860938113
0.0008860894699
0.0008860894699
0.0008861474103
)
;
    }
    procBoundary0to2
    {
        type            processor;
        value           nonuniform List<scalar> 
26
(
0.0008860889184
0.0008860883693
0.0008860878906
0.000886086456
0.0008860840619
0.0008860818005
0.0008861473231
0.0008861473685
0.0008861473842
0.0008861473896
0.0008861473902
0.0008861473888
0.0008861473856
0.0008861473787
0.0008861473511
0.0008861468975
0.000886147408
0.0008861473952
0.0008861473707
0.0008861473811
0.0008861473898
0.0008861473934
0.0008861473927
0.0008861473841
0.0008861473081
0.0008861086562
)
;
    }
}


// ************************************************************************* //
