/*--------------------------------*- C++ -*----------------------------------*\
  =========                 |
  \\      /  F ield         | OpenFOAM: The Open Source CFD Toolbox
   \\    /   O peration     | Website:  https://openfoam.org
    \\  /    A nd           | Version:  8
     \\/     M anipulation  |
\*---------------------------------------------------------------------------*/
FoamFile
{
    version     2.0;
    format      ascii;
    class       volScalarField;
    location    "0.3/wallFilmRegion";
    object      sigma;
}
// * * * * * * * * * * * * * * * * * * * * * * * * * * * * * * * * * * * * * //

dimensions      [1 0 -2 0 0 0 0];

internalField   nonuniform List<scalar> 
1369
(
0.07244713482
0.07244713482
0.07244713482
0.07244713482
0.07244713482
0.07244713482
0.07244713482
0.07244713482
0.07244713482
0.07244713482
0.07244713482
0.07244690644
0.07244713112
0.07244713177
0.07244713482
0.07244713482
0.07244713482
0.07244713482
0.07244713482
0.07244713482
0.07244713482
0.07244713482
0.07244713482
0.07244713482
0.07244653526
0.07244713052
0.07244713433
0.07244713458
0.07244713466
0.07244713468
0.07244713463
0.07244713465
0.07244713472
0.07244713477
0.07244713479
0.0724471348
0.07244713479
0.07244713478
0.07244713473
0.07244713465
0.07244713457
0.07244713456
0.0724471346
0.07244713462
0.0724471346
0.07244713444
0.07244713449
0.07244713458
0.07244713463
0.07244713464
0.07244713465
0.07244713463
0.07244713461
0.07244713456
0.0724471342
0.07244686766
0.07244713482
0.07244713482
0.07244713482
0.07244713482
0.07244696696
0.07244688023
0.07244682133
0.07244713482
0.07244713482
0.07244713482
0.07244713482
0.07244713482
0.07244713482
0.07244713482
0.0724469189
0.07244713357
0.07244713457
0.07244713454
0.07244668793
0.07244713482
0.07244713482
0.07244713482
0.07244713482
0.07244713482
0.07244713482
0.07244713482
0.07244713482
0.07244713482
0.07244710453
0.07244713391
0.07244713435
0.07244713445
0.07244713439
0.07244713435
0.07244713449
0.0724471346
0.07244713472
0.07244713479
0.07244713475
0.07244713479
0.07244713476
0.07244713474
0.07244713466
0.07244713447
0.07244713418
0.07244713389
0.0724471336
0.07244713081
0.07244655263
0.07244712752
0.07244713132
0.07244713287
0.07244713361
0.07244713403
0.07244713432
0.0724471345
0.07244713456
0.07244713456
0.07244713448
0.07244713229
0.07244697277
0.07244713482
0.07244713482
0.07244713482
0.07244713443
0.07244713388
0.07244713407
0.0724469703
0.07244713482
0.07244713482
0.07244713482
0.07244713482
0.07244713482
0.07244697942
0.07244713243
0.07244713461
0.07244713466
0.07244713464
0.07244652828
0.07244713482
0.07244713482
0.07244713482
0.07244713482
0.07244713482
0.07244713482
0.07244713482
0.07244713482
0.07244710361
0.07244713394
0.07244713435
0.07244713443
0.07244713442
0.07244713432
0.07244713433
0.07244713454
0.07244713465
0.07244713474
0.0724471348
0.07244713473
0.07244713478
0.07244713474
0.0724471347
0.07244713462
0.07244713443
0.07244713409
0.07244713374
0.07244713335
0.07244712837
0.07244648826
0.07244712686
0.07244713095
0.07244713262
0.07244713341
0.07244713387
0.07244713418
0.07244713441
0.07244713453
0.07244713457
0.07244713456
0.07244713447
0.07244713158
0.07244698949
0.07244713482
0.07244713482
0.07244713466
0.07244713459
0.07244713457
0.07244713403
0.07244690483
0.07244713482
0.07244713482
0.07244713482
0.07244713482
0.07244712195
0.07244713456
0.07244713467
0.07244713468
0.07244713466
0.07244650075
0.07244713482
0.07244713482
0.07244713482
0.07244713482
0.07244713482
0.07244713482
0.07244713482
0.07244708947
0.07244713398
0.07244713435
0.07244713442
0.0724471344
0.07244713431
0.0724471342
0.07244713442
0.07244713464
0.07244713472
0.07244713477
0.07244713481
0.07244713367
0.07244713472
0.07244713414
0.07244713318
0.0724471203
0.07244648546
0.07244647752
0.07244647478
0.0724465107
0.07244713482
0.07244648689
0.07244712633
0.07244713042
0.07244713226
0.07244713316
0.07244713367
0.07244713401
0.07244713426
0.07244713444
0.07244713454
0.07244713457
0.07244713456
0.07244713448
0.07244713263
0.07244690959
0.07244713482
0.0724471347
0.07244713464
0.07244713461
0.0724471345
0.07244651565
0.07244713482
0.07244713482
0.07244713482
0.07244688425
0.07244713433
0.07244713465
0.07244713469
0.07244713468
0.07244713461
0.07244648577
0.07244713482
0.07244713482
0.07244713482
0.07244713482
0.07244713482
0.07244713482
0.07244700465
0.07244713386
0.07244713434
0.07244713441
0.07244713438
0.07244713426
0.07244713409
0.07244713412
0.07244713451
0.0724471347
0.07244713476
0.07244713479
0.07244713482
0.0724471348
0.07244713479
0.07244713475
0.07244713468
0.07244713451
0.07244713144
0.07244678556
0.07244713482
0.07244713482
0.07244713482
0.07244648588
0.07244712567
0.0724471297
0.07244713177
0.07244713283
0.07244713343
0.07244713381
0.07244713408
0.0724471343
0.07244713446
0.07244713455
0.07244713458
0.07244713457
0.07244713452
0.07244713381
0.07244695039
0.07244713471
0.07244713464
0.07244713459
0.07244713449
0.07244650115
0.07244713482
0.07244713482
0.07244683852
0.07244713299
0.0724471346
0.07244713468
0.07244713469
0.07244713465
0.07244713452
0.0724464806
0.07244713482
0.07244713482
0.07244713482
0.07244713482
0.07244713482
0.07244661833
0.07244713323
0.07244713429
0.07244713439
0.07244713435
0.07244713418
0.07244713393
0.07244713369
0.07244713349
0.07244713344
0.07244713364
0.07244713376
0.07244713398
0.07244713486
0.07244713452
0.07244713462
0.07244713441
0.07244713307
0.0724468907
0.07244713482
0.07244647197
0.07244645445
0.07244646705
0.0724464781
0.07244648591
0.07244712486
0.07244712868
0.07244713108
0.07244713239
0.07244713313
0.07244713358
0.07244713388
0.07244713412
0.07244713432
0.07244713447
0.07244713455
0.07244713459
0.07244713459
0.07244713455
0.07244713437
0.07244713473
0.0724471346
0.07244713447
0.07244713417
0.0724464995
0.07244713482
0.07244713482
0.07244711527
0.07244713448
0.07244713465
0.07244713469
0.07244713467
0.0724471346
0.07244713438
0.07244647773
0.07244713482
0.07244713482
0.07244713482
0.07244713482
0.07244685721
0.07244712537
0.0724471341
0.07244713434
0.07244713433
0.07244713409
0.07244713368
0.07244713326
0.07244713291
0.07244713264
0.07244713268
0.07244713311
0.07244713325
0.07244713345
0.07244713482
0.07244713449
0.07244713449
0.0724471343
0.07244713352
0.07244709333
0.07244708769
0.07244712353
0.07244712823
0.0724471276
0.07244711367
0.0724465175
0.07244712407
0.07244712726
0.07244713006
0.07244713179
0.07244713278
0.07244713335
0.0724471337
0.07244713393
0.07244713413
0.07244713431
0.07244713446
0.07244713455
0.07244713459
0.0724471346
0.07244713459
0.07244713474
0.0724471345
0.07244713429
0.07244713374
0.07244649913
0.07244713482
0.07244687885
0.07244713425
0.07244713462
0.07244713468
0.07244713468
0.07244713464
0.07244713452
0.07244713425
0.07244712828
0.07244713482
0.07244713482
0.07244713482
0.07244713482
0.07244655989
0.07244713262
0.07244713417
0.07244713428
0.07244713406
0.07244713336
0.07244713248
0.07244713173
0.07244713114
0.07244713063
0.07244713101
0.07244713133
0.07244713191
0.07244713232
0.07244713473
0.07244713427
0.07244713412
0.07244713414
0.07244713373
0.07244713246
0.07244713364
0.07244713386
0.07244713382
0.07244713352
0.07244713269
0.07244712412
0.07244712353
0.07244712517
0.07244712848
0.07244713104
0.07244713249
0.07244713322
0.0724471336
0.07244713382
0.07244713398
0.07244713413
0.07244713429
0.07244713444
0.07244713454
0.07244713459
0.07244713462
0.07244713474
0.07244713439
0.07244713416
0.07244713372
0.07244649902
0.07244675251
0.07244713386
0.07244713459
0.07244713466
0.07244713468
0.07244713466
0.07244713459
0.07244713442
0.07244713417
0.07244713378
0.07244668526
0.07244713482
0.07244713482
0.07244713482
0.07244657189
0.07244713256
0.07244713406
0.07244713408
0.07244713333
0.07244713128
0.07244712914
0.07244712753
0.07244712623
0.07244712472
0.0724471266
0.07244712671
0.0724471277
0.0724471292
0.0724471341
0.07244713248
0.0724471333
0.07244713394
0.07244713389
0.0724471342
0.07244713424
0.07244713415
0.07244713395
0.07244713359
0.07244713294
0.07244713066
0.07244712301
0.07244712118
0.0724471257
0.0724471305
0.07244713259
0.07244713342
0.07244713375
0.07244713389
0.07244713397
0.07244713403
0.07244713411
0.07244713425
0.0724471344
0.07244713453
0.07244713463
0.07244713475
0.07244713432
0.07244713415
0.07244713398
0.07244659097
0.07244713377
0.07244713457
0.07244713466
0.07244713468
0.07244713467
0.07244713463
0.07244713452
0.07244713436
0.07244713416
0.07244713396
0.07244649427
0.07244713482
0.07244713482
0.07244713482
0.07244660654
0.07244711676
0.07244713347
0.07244713369
0.07244713134
0.07244712387
0.07244711672
0.07244711191
0.0724471081
0.07244709968
0.07244711093
0.07244710986
0.07244711152
0.07244711454
0.07244711806
0.07244712345
0.07244713168
0.07244713389
0.07244713429
0.07244713434
0.07244713421
0.0724471339
0.07244713331
0.07244713219
0.07244712986
0.07244712402
0.07244708683
0.07244710814
0.07244711998
0.07244713109
0.07244713327
0.0724471339
0.07244713411
0.07244713416
0.07244713415
0.07244713411
0.07244713408
0.0724471341
0.07244713419
0.07244713437
0.07244713462
0.07244713475
0.0724471343
0.07244713423
0.07244713425
0.07244713384
0.07244713458
0.07244713465
0.07244713468
0.07244713468
0.07244713465
0.07244713458
0.07244713448
0.07244713434
0.0724471342
0.07244713407
0.07244652046
0.07244655741
0.07244713482
0.07244713482
0.07244713482
0.07244713482
0.07244648549
0.07244648589
0.07244649182
0.07244649385
0.0724464796
0.07244645278
0.07244643219
0.07244701191
0.07244710341
0.07244641515
0.07244642361
0.07244643024
0.07244646343
0.07244699306
0.07244713338
0.07244713426
0.07244713434
0.07244713416
0.07244713358
0.07244713233
0.07244712995
0.07244712518
0.07244711408
0.07244708347
0.07244702159
0.07244708651
0.07244710919
0.07244713269
0.07244713399
0.07244713431
0.07244713441
0.07244713442
0.07244713438
0.07244713431
0.07244713422
0.07244713413
0.07244713407
0.07244713414
0.07244713459
0.07244713475
0.07244713434
0.07244713437
0.07244713447
0.07244713456
0.07244713465
0.07244713468
0.07244713468
0.07244713466
0.07244713462
0.07244713454
0.07244713446
0.07244713437
0.07244713429
0.0724471342
0.07244713064
0.07244712443
0.07244692024
0.0724469607
0.07244713482
0.07244713482
0.07244713482
0.07244713482
0.07244713482
0.07244713482
0.07244713482
0.07244713482
0.07244646724
0.07244710692
0.07244712512
0.07244642711
0.07244713482
0.07244713482
0.07244678305
0.07244709572
0.07244713351
0.0724471342
0.07244713415
0.07244713339
0.07244713098
0.07244712603
0.07244711672
0.07244709849
0.07244706056
0.07244696534
0.07244692505
0.07244704118
0.07244708633
0.07244713387
0.07244713438
0.07244713451
0.07244713456
0.07244713457
0.07244713454
0.07244713448
0.07244713439
0.07244713427
0.07244713412
0.07244713401
0.07244713453
0.07244713466
0.07244713463
0.07244713458
0.07244713452
0.07244713446
0.07244713443
0.07244713439
0.07244713434
0.07244713375
0.07244713379
0.07244713328
0.07244711633
0.07244678474
0.07244713482
0.07244713482
0.07244713482
0.07244713482
0.07244713482
0.07244713482
0.07244713482
0.07244648867
0.07244711499
0.07244713114
0.07244645632
0.07244713482
0.07244713482
0.07244713482
0.07244649469
0.0724471284
0.07244713377
0.07244713379
0.07244713122
0.07244712121
0.07244711818
0.07244708139
0.07244698148
0.07244686259
0.07244664756
0.07244669934
0.07244690994
0.07244702636
0.07244713437
0.07244713455
0.07244713461
0.07244713463
0.07244713463
0.07244713461
0.07244713456
0.07244713448
0.07244713437
0.0724471342
0.07244713396
0.07244713442
0.0724471345
0.07244713451
0.07244713451
0.07244713449
0.07244713396
0.07244713419
0.07244713424
0.072447134
0.07244712582
0.07244676934
0.07244713482
0.07244713482
0.07244713482
0.07244713482
0.07244713482
0.07244713482
0.07244650787
0.07244711956
0.07244713312
0.07244648855
0.07244713482
0.07244713482
0.07244713482
0.07244713482
0.07244713482
0.07244649712
0.07244650151
0.07244650008
0.07244650302
0.07244713371
0.07244713219
0.07244645382
0.07244643199
0.07244641824
0.0724466349
0.07244694805
0.07244711322
0.0724471345
0.0724471346
0.07244713464
0.07244713465
0.07244713465
0.07244713463
0.07244713458
0.07244713422
0.0724469582
0.0724465063
0.07244650688
0.07244651207
0.07244713461
0.0724471346
0.07244713332
0.07244713409
0.07244713436
0.07244713438
0.07244713406
0.0724471229
0.07244683008
0.07244713482
0.07244713482
0.07244713482
0.07244713482
0.07244713482
0.07244651161
0.07244711964
0.07244713369
0.07244651151
0.07244713482
0.07244713482
0.07244713482
0.07244713482
0.07244713482
0.07244713482
0.07244713482
0.07244713482
0.07244651805
0.07244713452
0.07244713448
0.07244713115
0.07244659376
0.07244643524
0.07244686121
0.0724471258
0.07244713441
0.07244713453
0.0724471346
0.07244713463
0.07244713464
0.07244713464
0.07244713464
0.07244713461
0.07244713455
0.07244713416
0.07244706829
0.07244699886
0.07244713482
0.07244713405
0.07244713437
0.07244713426
0.07244713285
0.07244669167
0.07244713482
0.07244713482
0.07244713482
0.07244713482
0.07244713482
0.07244651589
0.07244710564
0.07244713364
0.07244651633
0.07244713482
0.07244713482
0.07244713482
0.07244713482
0.07244713482
0.07244713482
0.07244713482
0.07244713482
0.07244652034
0.07244713462
0.07244713461
0.0724471344
0.0724471138
0.0724464543
0.07244698235
0.07244713409
0.07244713432
0.07244713445
0.07244713452
0.07244713456
0.07244713457
0.07244713459
0.0724471346
0.07244713461
0.0724471346
0.07244713455
0.07244713432
0.07244712798
0.07244670534
0.07244648352
0.07244693735
0.07244713482
0.07244713482
0.07244713482
0.07244713482
0.07244713482
0.07244713482
0.07244713482
0.07244674716
0.07244713287
0.07244652109
0.07244713482
0.07244713482
0.07244713482
0.07244713482
0.07244713482
0.07244713482
0.07244713482
0.07244713482
0.07244651555
0.07244713464
0.07244713464
0.07244713453
0.0724471334
0.07244656408
0.072447054
0.07244713132
0.07244713348
0.07244713405
0.07244713429
0.07244713441
0.07244713446
0.07244713447
0.0724471345
0.07244713456
0.0724471346
0.07244713461
0.07244713459
0.07244713449
0.07244713378
0.07244713482
0.07244713482
0.07244713482
0.07244713482
0.07244713482
0.07244713482
0.07244710141
0.07244713482
0.07244713482
0.07244713482
0.07244713482
0.07244713482
0.07244713482
0.07244713482
0.07244713482
0.07244713482
0.07244650885
0.0724471346
0.07244713465
0.07244713457
0.07244713409
0.07244711909
0.0724470909
0.07244713069
0.07244713336
0.07244713399
0.07244713424
0.07244713436
0.07244713437
0.07244713435
0.07244713436
0.07244713443
0.07244713452
0.07244713459
0.07244713462
0.07244713462
0.07244713458
0.07244713482
0.07244713482
0.07244713482
0.07244713482
0.07244699957
0.07244713482
0.07244713482
0.07244713482
0.07244713482
0.07244713482
0.07244713482
0.07244713482
0.07244713482
0.07244713482
0.07244650869
0.07244713453
0.07244713464
0.0724471346
0.07244713442
0.07244713323
0.07244712512
0.0724471314
0.0724471335
0.07244713399
0.07244713419
0.0724471343
0.07244713427
0.07244713423
0.07244713425
0.0724471343
0.07244713437
0.07244713448
0.07244713458
0.07244713463
0.07244713464
0.07244713482
0.07244713482
0.07244713482
0.07244713482
0.07244713482
0.07244713482
0.07244713482
0.07244713482
0.07244713482
0.07244713482
0.07244713482
0.07244713482
0.07244713482
0.07244651078
0.07244713443
0.07244713459
0.07244713462
0.07244713456
0.07244713439
0.0724471328
0.07244713286
0.07244713372
0.07244713395
0.07244713407
0.07244713416
0.07244713415
0.07244713418
0.07244713423
0.07244713427
0.07244713429
0.07244713434
0.07244713445
0.07244713456
0.07244713465
0.07244713482
0.07244713482
0.07244713482
0.07244713482
0.07244713482
0.07244713482
0.07244713482
0.07244713482
0.07244713482
0.07244713482
0.07244713482
0.07244713482
0.07244713482
0.07244651472
0.07244713432
0.07244713452
0.0724471346
0.07244713461
0.07244713455
0.0724471341
0.07244713355
0.07244713346
0.07244713347
0.07244713353
0.07244713371
0.07244713408
0.07244713423
0.07244713432
0.07244713436
0.07244713436
0.07244713428
0.07244713427
0.0724471344
0.07244713462
0.07244713482
0.07244713482
0.07244713482
0.07244713482
0.07244713482
0.07244713482
0.07244713482
0.07244713482
0.07244713482
0.07244713482
0.07244713482
0.07244713482
0.07244651992
0.0724471342
0.07244713445
0.07244713456
0.07244713461
0.07244713461
0.07244713448
0.07244713428
0.07244713387
0.07244713332
0.07244713328
0.07244713367
0.0724471342
0.07244713436
0.07244713443
0.07244713447
0.07244713448
0.07244713437
0.07244712943
0.07244650032
0.07244658328
0.07244713482
0.07244713482
0.07244713482
0.07244713482
0.07244713482
0.07244713482
0.07244713482
0.07244713482
0.07244713482
0.07244713482
0.07244713482
0.07244713482
0.07244651043
0.07244713404
0.07244713437
0.0724471345
0.07244713458
0.07244713462
0.0724471346
0.07244713451
0.07244713429
0.07244713392
0.07244713382
0.07244713404
0.07244713429
0.07244713443
0.07244713452
0.07244713456
0.07244713457
0.07244713455
0.07244713435
0.0724471142
0.07244713482
0.07244713482
0.07244713482
0.07244713482
0.07244713482
0.07244713482
0.07244713482
0.07244713482
0.07244713482
0.07244713482
0.07244713482
0.07244653136
0.07244651107
0.07244648116
0.07244713384
0.07244713428
0.07244713444
0.07244713453
0.07244713459
0.07244713462
0.07244713459
0.0724471345
0.07244713432
0.0724471342
0.07244713425
0.07244713436
0.07244713447
0.07244713456
0.07244713462
0.07244713464
0.07244713464
0.0724471346
0.07244713434
0.07244710364
0.07244713482
0.07244713482
0.07244713482
0.07244713482
0.07244713482
0.07244713482
0.07244663545
0.07244663719
0.07244702166
0.07244709334
0.072447097
0.07244701557
0.07244713355
0.07244713417
0.07244713438
0.07244713448
0.07244713455
0.0724471346
0.07244713462
0.0724471346
0.07244713453
0.07244713444
0.07244713438
0.07244713438
0.07244713447
0.07244713457
0.07244713463
0.07244713467
0.07244713469
0.07244713468
0.07244713463
0.07244713448
0.07244713482
0.07244713482
0.07244713482
0.07244713482
0.07244669003
0.0724471231
0.07244713199
0.07244713303
0.07244713321
0.0724471328
0.07244713123
0.07244713339
0.07244713406
0.0724471343
0.07244713443
0.07244713451
0.07244713458
0.07244713462
0.07244713464
0.07244713462
0.07244713456
0.07244713447
0.0724471344
0.07244713446
0.07244713456
0.07244713463
0.07244713467
0.0724471347
0.07244713471
0.07244713471
0.0724471347
0.07244713482
0.07244713482
0.07244705111
0.07244709961
0.07244713326
0.0724471341
0.07244713428
0.07244713432
0.07244713427
0.0724471341
0.07244713369
0.07244713338
0.07244713394
0.0724471342
0.07244713435
0.07244713446
0.07244713454
0.0724471346
0.07244713465
0.07244713466
0.07244713463
0.07244713456
0.07244713448
0.07244713447
0.07244713455
0.07244713461
0.07244713466
0.07244713469
0.07244713471
0.07244713473
0.07244713475
0.07244713482
0.07244695492
0.07244712317
0.07244713404
0.07244713441
0.07244713451
0.07244713451
0.07244713444
0.07244713431
0.07244713407
0.07244713352
0.07244713264
0.07244713354
0.07244713394
0.07244713419
0.07244713438
0.07244713449
0.07244713455
0.0724471346
0.07244713468
0.07244713467
0.07244713446
0.07244713423
0.07244713441
0.07244713454
0.0724471346
0.07244713464
0.07244713467
0.07244713469
0.07244713472
0.07244713477
0.07244654383
0.07244652692
0.07244649494
0.07244645408
0.07244642479
0.07244642513
0.07244713299
0.07244713399
0.07244713435
0.07244713451
0.07244713457
0.07244713455
0.0724471344
0.07244713356
0.07244713281
0.0724471002
0.07244713157
0.07244713368
0.07244713432
0.07244713451
0.07244713461
0.07244713466
0.07244713469
0.0724471347
0.07244713467
0.07244713451
0.07244713482
0.07244713482
0.07244713482
0.0724464845
0.07244644867
0.07244642996
0.07244713366
0.07244713424
0.07244713447
0.07244713457
0.0724471346
0.07244713458
0.07244713453
0.0724471344
0.0724471336
0.07244704799
0.07244713315
0.07244713262
0.0724471342
0.07244713455
0.07244713463
0.07244713467
0.07244713469
0.07244713466
0.07244713456
0.07244713311
)
;

boundaryField
{
    walls
    {
        type            zeroGradient;
    }
    wallFilmFace_top
    {
        type            zeroGradient;
    }
    region0_to_wallFilmRegion_wallFilmFace
    {
        type            zeroGradient;
    }
    mirrorFace_top
    {
        type            zeroGradient;
    }
    region0_to_wallFilmRegion_mirrorFace
    {
        type            zeroGradient;
    }
    procBoundary0to1
    {
        type            processor;
        value           nonuniform List<scalar> 
52
(
0.07244713475
0.07244713442
0.07244713449
0.07244713458
0.07244713464
0.07244713468
0.07244713468
0.07244713468
0.07244713462
0.07244713458
0.07244713454
0.07244713451
0.07244713451
0.07244713456
0.0724471346
0.0724471346
0.07244713469
0.07244713469
0.07244712949
0.07244713296
0.07244713296
0.07244709095
0.0724465282
0.0724465282
0.07244702289
0.07244713482
0.07244713482
0.07244713482
0.07244713482
0.07244713482
0.07244713482
0.07244713482
0.07244713482
0.07244713482
0.07244713482
0.07244713482
0.07244713482
0.07244713482
0.07244713482
0.07244713482
0.07244713482
0.07244713482
0.07244713482
0.07244713482
0.07244713482
0.07244713482
0.07244713482
0.07244713482
0.07244657825
0.07244653317
0.07244653317
0.07244713482
)
;
    }
    procBoundary0to2
    {
        type            processor;
        value           nonuniform List<scalar> 
26
(
0.07244652744
0.07244652174
0.07244651677
0.07244650187
0.07244647701
0.07244645353
0.07244713392
0.07244713439
0.07244713455
0.07244713461
0.07244713461
0.0724471346
0.07244713457
0.07244713449
0.07244713421
0.0724471295
0.0724471348
0.07244713467
0.07244713441
0.07244713452
0.07244713461
0.07244713465
0.07244713464
0.07244713455
0.07244713376
0.07244673241
)
;
    }
}


// ************************************************************************* //
