/*--------------------------------*- C++ -*----------------------------------*\
  =========                 |
  \\      /  F ield         | OpenFOAM: The Open Source CFD Toolbox
   \\    /   O peration     | Website:  https://openfoam.org
    \\  /    A nd           | Version:  8
     \\/     M anipulation  |
\*---------------------------------------------------------------------------*/
FoamFile
{
    version     2.0;
    format      ascii;
    class       volScalarField;
    location    "0.3/wallFilmRegion";
    object      T;
}
// * * * * * * * * * * * * * * * * * * * * * * * * * * * * * * * * * * * * * //

dimensions      [0 0 0 1 0 0 0];

internalField   nonuniform List<scalar> 
1369
(
300
300
300
300
300
300
300
300
300
300
300
300.0011446
300.0000186
300.0000153
300
300
300
300
300
300
300
300
300
300
300.0030049
300.0000215
300.0000025
300.0000012
300.0000008
300.0000007
300.000001
300.0000009
300.0000005
300.0000003
300.0000002
300.0000001
300.0000002
300.0000002
300.0000005
300.0000009
300.0000013
300.0000013
300.0000011
300.000001
300.0000011
300.0000019
300.0000017
300.0000012
300.000001
300.0000009
300.0000009
300.0000009
300.0000011
300.0000013
300.0000031
300.001339
300
300
300
300
300.0008413
300.001276
300.0015712
300
300
300
300
300
300
300
300.0010822
300.0000063
300.0000013
300.0000014
300.0022398
300
300
300
300
300
300
300
300
300
300.0001518
300.0000046
300.0000024
300.0000019
300.0000022
300.0000024
300.0000017
300.0000011
300.0000005
300.0000002
300.0000004
300.0000002
300.0000003
300.0000004
300.0000008
300.0000018
300.0000032
300.0000047
300.0000061
300.0000201
300.0029179
300.0000366
300.0000176
300.0000098
300.0000061
300.000004
300.0000025
300.0000016
300.0000013
300.0000013
300.0000017
300.0000127
300.0008122
300
300
300
300.000002
300.0000047
300.0000038
300.0008246
300
300
300
300
300
300.0007789
300.000012
300.0000011
300.0000008
300.0000009
300.0030399
300
300
300
300
300
300
300
300
300.0001564
300.0000044
300.0000024
300.000002
300.000002
300.0000025
300.0000025
300.0000014
300.0000009
300.0000004
300.0000001
300.0000004
300.0000002
300.0000004
300.0000006
300.000001
300.000002
300.0000037
300.0000054
300.0000074
300.0000323
300.0032405
300.0000399
300.0000194
300.0000111
300.0000071
300.0000048
300.0000032
300.0000021
300.0000015
300.0000013
300.0000013
300.0000018
300.0000162
300.0007284
300
300
300.0000008
300.0000012
300.0000013
300.000004
300.0011527
300
300
300
300
300.0000645
300.0000013
300.0000008
300.0000007
300.0000008
300.0031779
300
300
300
300
300
300
300
300.0002273
300.0000042
300.0000024
300.000002
300.0000021
300.0000026
300.0000031
300.000002
300.0000009
300.0000005
300.0000002
300.0000001
300.0000058
300.0000005
300.0000034
300.0000082
300.0000728
300.0032545
300.0032943
300.003308
300.003128
300
300.0032473
300.0000426
300.0000221
300.0000129
300.0000083
300.0000058
300.0000041
300.0000028
300.0000019
300.0000014
300.0000012
300.0000013
300.0000017
300.000011
300.0011288
300
300.0000006
300.0000009
300.0000011
300.0000016
300.0031032
300
300
300
300.0012558
300.0000025
300.0000009
300.0000007
300.0000007
300.000001
300.003253
300
300
300
300
300
300
300.0006524
300.0000048
300.0000024
300.0000021
300.0000022
300.0000028
300.0000037
300.0000035
300.0000016
300.0000006
300.0000003
300.0000002
300
300.0000001
300.0000002
300.0000003
300.0000007
300.0000016
300.000017
300.0017504
300
300
300
300.0032524
300.0000459
300.0000257
300.0000153
300.00001
300.000007
300.0000051
300.0000037
300.0000026
300.0000018
300.0000014
300.0000012
300.0000013
300.0000015
300.0000051
300.0009243
300.0000006
300.0000009
300.0000012
300.0000017
300.0031759
300
300
300.001485
300.0000092
300.0000011
300.0000007
300.0000007
300.0000009
300.0000015
300.0032789
300
300
300
300
300
300.0025886
300.000008
300.0000027
300.0000022
300.0000024
300.0000032
300.0000045
300.0000057
300.0000067
300.0000069
300.0000059
300.0000054
300.0000042
299.9999998
300.0000015
300.000001
300.0000021
300.0000088
300.0012235
300
300.0033221
300.0034099
300.0033468
300.0032914
300.0032523
300.0000499
300.0000308
300.0000188
300.0000122
300.0000085
300.0000062
300.0000047
300.0000035
300.0000025
300.0000018
300.0000014
300.0000012
300.0000012
300.0000014
300.0000023
300.0000005
300.0000011
300.0000017
300.0000033
300.0031841
300
300
300.000098
300.0000017
300.0000009
300.0000007
300.0000008
300.0000011
300.0000022
300.0032933
300
300
300
300
300.0013914
300.0000474
300.0000036
300.0000024
300.0000025
300.0000037
300.0000058
300.0000079
300.0000096
300.000011
300.0000108
300.0000086
300.0000079
300.0000069
300
300.0000017
300.0000017
300.0000026
300.0000065
300.000208
300.0002362
300.0000566
300.000033
300.0000362
300.000106
300.0030939
300.0000539
300.0000379
300.0000239
300.0000152
300.0000102
300.0000074
300.0000057
300.0000045
300.0000035
300.0000026
300.0000018
300.0000014
300.0000012
300.0000011
300.0000011
300.0000004
300.0000016
300.0000027
300.0000054
300.003186
300
300.0012829
300.0000029
300.000001
300.0000007
300.0000007
300.0000009
300.0000015
300.0000029
300.0000328
300
300
300
300
300.0028815
300.0000111
300.0000033
300.0000027
300.0000038
300.0000073
300.0000118
300.0000155
300.0000185
300.000021
300.0000191
300.0000175
300.0000146
300.0000125
300.0000005
300.0000028
300.0000035
300.0000034
300.0000055
300.0000118
300.0000059
300.0000048
300.000005
300.0000065
300.0000107
300.0000537
300.0000566
300.0000484
300.0000318
300.0000189
300.0000117
300.000008
300.0000061
300.000005
300.0000042
300.0000035
300.0000027
300.0000019
300.0000014
300.0000011
300.000001
300.0000004
300.0000022
300.0000033
300.0000055
300.0031865
300.0019161
300.0000048
300.0000012
300.0000008
300.0000007
300.0000008
300.0000012
300.000002
300.0000033
300.0000052
300.0022532
300
300
300
300.0028213
300.0000113
300.0000038
300.0000037
300.0000075
300.0000178
300.0000285
300.0000366
300.0000431
300.0000506
300.0000412
300.0000407
300.0000357
300.0000282
300.0000036
300.0000118
300.0000076
300.0000044
300.0000047
300.0000031
300.0000029
300.0000034
300.0000044
300.0000062
300.0000094
300.0000209
300.0000592
300.0000684
300.0000457
300.0000217
300.0000112
300.0000071
300.0000054
300.0000047
300.0000043
300.000004
300.0000036
300.0000029
300.0000021
300.0000015
300.000001
300.0000004
300.0000025
300.0000034
300.0000042
300.0027257
300.0000053
300.0000013
300.0000008
300.0000007
300.0000008
300.000001
300.0000015
300.0000023
300.0000033
300.0000043
300.0032103
300
300
300
300.0026477
300.0000905
300.0000068
300.0000057
300.0000175
300.0000549
300.0000907
300.0001148
300.0001339
300.0001761
300.0001197
300.0001251
300.0001168
300.0001017
300.000084
300.000057
300.0000157
300.0000047
300.0000027
300.0000024
300.0000031
300.0000046
300.0000076
300.0000132
300.0000249
300.0000541
300.0002406
300.0001337
300.0000744
300.0000187
300.0000078
300.0000046
300.0000036
300.0000033
300.0000034
300.0000036
300.0000037
300.0000036
300.0000032
300.0000023
300.000001
300.0000004
300.0000026
300.000003
300.0000029
300.0000049
300.0000012
300.0000009
300.0000007
300.0000007
300.0000009
300.0000012
300.0000017
300.0000024
300.0000031
300.0000038
300.0030791
300.0028939
300
300
300
300
300.0032544
300.0032524
300.0032227
300.0032125
300.0032839
300.0034183
300.0035215
300.000616
300.0001574
300.0036069
300.0035645
300.0035313
300.0033649
300.0007105
300.0000072
300.0000028
300.0000024
300.0000033
300.0000062
300.0000125
300.0000244
300.0000483
300.000104
300.0002574
300.0005675
300.0002421
300.0001285
300.0000107
300.0000042
300.0000026
300.0000021
300.000002
300.0000022
300.0000026
300.000003
300.0000035
300.0000038
300.0000034
300.0000012
300.0000004
300.0000024
300.0000023
300.0000018
300.0000013
300.0000008
300.0000007
300.0000007
300.0000008
300.000001
300.0000014
300.0000018
300.0000023
300.0000027
300.0000031
300.000021
300.0000521
300.0010754
300.0008727
300
300
300
300
300
300
300
300
300.0033458
300.0001399
300.0000487
300.0035469
300
300
300.001763
300.000196
300.0000066
300.0000031
300.0000034
300.0000072
300.0000192
300.0000441
300.0000907
300.0001821
300.0003722
300.0008494
300.0010514
300.0004693
300.000243
300.0000048
300.0000022
300.0000015
300.0000013
300.0000013
300.0000014
300.0000017
300.0000022
300.0000028
300.0000035
300.0000041
300.0000015
300.0000008
300.000001
300.0000012
300.0000015
300.0000018
300.000002
300.0000022
300.0000024
300.0000054
300.0000052
300.0000077
300.0000927
300.0017545
300
300
300
300
300
300
300
300.0032384
300.0000994
300.0000185
300.0034006
300
300
300
300.0032083
300.0000322
300.0000053
300.0000052
300.0000181
300.0000682
300.0000834
300.0002678
300.0007686
300.0013644
300.0024421
300.0021826
300.0011271
300.0005436
300.0000023
300.0000014
300.0000011
300.000001
300.000001
300.0000011
300.0000013
300.0000017
300.0000023
300.0000031
300.0000043
300.000002
300.0000016
300.0000016
300.0000016
300.0000017
300.0000044
300.0000032
300.0000029
300.0000042
300.0000451
300.0018317
300
300
300
300
300
300
300.0031422
300.0000765
300.0000085
300.003239
300
300
300
300
300
300.003196
300.0031741
300.0031812
300.0031665
300.0000056
300.0000132
300.0034131
300.0035225
300.0035914
300.0025056
300.0009361
300.0001083
300.0000016
300.0000011
300.0000009
300.0000009
300.0000009
300.000001
300.0000012
300.000003
300.0008852
300.0031501
300.0031472
300.0031211
300.0000011
300.0000011
300.0000075
300.0000037
300.0000023
300.0000022
300.0000038
300.0000598
300.0015273
300
300
300
300
300
300.0031234
300.0000761
300.0000057
300.0031239
300
300
300
300
300
300
300
300
300.0030912
300.0000015
300.0000017
300.0000184
300.0027117
300.0035062
300.0013713
300.0000452
300.0000021
300.0000015
300.0000011
300.000001
300.0000009
300.0000009
300.0000009
300.0000011
300.0000014
300.0000033
300.0003335
300.0006814
300
300.0000039
300.0000023
300.0000028
300.0000099
300.002221
300
300
300
300
300
300.003102
300.0001462
300.0000059
300.0030998
300
300
300
300
300
300
300
300
300.0030797
300.000001
300.0000011
300.0000021
300.0001054
300.0034107
300.0007642
300.0000037
300.0000025
300.0000019
300.0000015
300.0000013
300.0000012
300.0000012
300.0000011
300.000001
300.0000011
300.0000013
300.0000025
300.0000343
300.0021525
300.0032642
300.0009897
300
300
300
300
300
300
300
300.0019429
300.0000098
300.0030759
300
300
300
300
300
300
300
300
300.0031037
300.0000009
300.0000009
300.0000015
300.0000072
300.0028605
300.0004051
300.0000176
300.0000067
300.0000039
300.0000027
300.0000021
300.0000018
300.0000018
300.0000016
300.0000013
300.0000011
300.0000011
300.0000012
300.0000017
300.0000052
300
300
300
300
300
300
300.0001674
300
300
300
300
300
300
300
300
300
300.0031373
300.0000011
300.0000009
300.0000013
300.0000037
300.0000788
300.0002201
300.0000207
300.0000073
300.0000042
300.0000029
300.0000023
300.0000022
300.0000024
300.0000023
300.000002
300.0000015
300.0000012
300.000001
300.000001
300.0000012
300
300
300
300
300.0006779
300
300
300
300
300
300
300
300
300
300.0031381
300.0000015
300.0000009
300.0000011
300.000002
300.000008
300.0000486
300.0000172
300.0000067
300.0000042
300.0000032
300.0000026
300.0000028
300.000003
300.0000029
300.0000026
300.0000023
300.0000017
300.0000012
300.000001
300.0000009
300
300
300
300
300
300
300
300
300
300
300
300
300
300.0031276
300.000002
300.0000012
300.000001
300.0000013
300.0000022
300.0000102
300.0000099
300.0000055
300.0000044
300.0000038
300.0000033
300.0000034
300.0000032
300.000003
300.0000028
300.0000027
300.0000024
300.0000019
300.0000013
300.0000009
300
300
300
300
300
300
300
300
300
300
300
300
300
300.0031079
300.0000025
300.0000015
300.0000011
300.0000011
300.0000014
300.0000036
300.0000064
300.0000068
300.0000068
300.0000065
300.0000056
300.0000037
300.000003
300.0000025
300.0000023
300.0000023
300.0000027
300.0000028
300.0000021
300.000001
300
300
300
300
300
300
300
300
300
300
300
300
300.0030818
300.0000031
300.0000019
300.0000013
300.0000011
300.000001
300.0000017
300.0000027
300.0000048
300.0000075
300.0000077
300.0000058
300.0000031
300.0000023
300.000002
300.0000018
300.0000017
300.0000023
300.000027
300.0031801
300.0027642
300
300
300
300
300
300
300
300
300
300
300
300
300.0031294
300.0000039
300.0000023
300.0000016
300.0000012
300.000001
300.0000011
300.0000016
300.0000027
300.0000045
300.000005
300.0000039
300.0000027
300.0000019
300.0000015
300.0000013
300.0000013
300.0000014
300.0000024
300.0001034
300
300
300
300
300
300
300
300
300
300
300
300.0030245
300.0031261
300.003276
300.0000049
300.0000027
300.0000019
300.0000015
300.0000012
300.000001
300.0000012
300.0000016
300.0000025
300.0000031
300.0000029
300.0000023
300.0000018
300.0000013
300.000001
300.0000009
300.0000009
300.0000011
300.0000024
300.0001563
300
300
300
300
300
300
300.0025028
300.002494
300.0005672
300.0002079
300.0001896
300.0005977
300.0000064
300.0000033
300.0000022
300.0000017
300.0000014
300.0000011
300.000001
300.0000011
300.0000015
300.0000019
300.0000022
300.0000022
300.0000017
300.0000013
300.000001
300.0000008
300.0000007
300.0000007
300.0000009
300.0000017
300
300
300
300
300.0022292
300.0000588
300.0000142
300.000009
300.0000081
300.0000102
300.000018
300.0000072
300.0000038
300.0000026
300.000002
300.0000016
300.0000012
300.000001
300.0000009
300.000001
300.0000013
300.0000018
300.0000021
300.0000018
300.0000013
300.000001
300.0000008
300.0000006
300.0000006
300.0000006
300.0000006
300
300
300.0004196
300.0001765
300.0000078
300.0000036
300.0000027
300.0000025
300.0000028
300.0000036
300.0000057
300.0000072
300.0000044
300.0000031
300.0000024
300.0000018
300.0000014
300.0000011
300.0000009
300.0000008
300.000001
300.0000013
300.0000017
300.0000017
300.0000014
300.000001
300.0000008
300.0000007
300.0000006
300.0000005
300.0000004
300
300.0009017
300.0000584
300.0000039
300.0000021
300.0000016
300.0000016
300.0000019
300.0000026
300.0000038
300.0000065
300.000011
300.0000064
300.0000044
300.0000032
300.0000022
300.0000017
300.0000014
300.0000011
300.0000007
300.0000007
300.0000018
300.000003
300.0000021
300.0000014
300.0000011
300.0000009
300.0000008
300.0000007
300.0000005
300.0000003
300.002962
300.0030467
300.003207
300.0034118
300.0035586
300.0035569
300.0000092
300.0000042
300.0000024
300.0000016
300.0000013
300.0000014
300.0000021
300.0000064
300.0000101
300.0001735
300.0000163
300.0000057
300.0000025
300.0000016
300.0000011
300.0000008
300.0000007
300.0000006
300.0000008
300.0000016
300
300
300
300.0032593
300.0034389
300.0035327
300.0000059
300.0000029
300.0000017
300.0000013
300.0000011
300.0000012
300.0000015
300.0000021
300.0000061
300.0004352
300.0000084
300.000011
300.0000031
300.0000014
300.000001
300.0000008
300.0000007
300.0000008
300.0000013
300.0000086
)
;

boundaryField
{
    walls
    {
        type            zeroGradient;
    }
    wallFilmFace_top
    {
        type            zeroGradient;
    }
    region0_to_wallFilmRegion_wallFilmFace
    {
        type            zeroGradient;
    }
    mirrorFace_top
    {
        type            zeroGradient;
    }
    region0_to_wallFilmRegion_mirrorFace
    {
        type            zeroGradient;
    }
    procBoundary0to1
    {
        type            processor;
        value           nonuniform List<scalar> 
52
(
300.0000004
300.000002
300.0000017
300.0000012
300.0000009
300.0000007
300.0000007
300.0000007
300.000001
300.0000012
300.0000014
300.0000016
300.0000016
300.0000013
300.0000011
300.0000011
300.0000007
300.0000007
300.0000267
300.0000093
300.0000093
300.0002199
300.0030403
300.0030403
300.000561
300
300
300
300
300
300
300
300
300
300
300
300
300
300
300
300
300
300
300
300
300
300
300
300.0027894
300.0030154
300.0030154
300
)
;
    }
    procBoundary0to2
    {
        type            processor;
        value           nonuniform List<scalar> 
26
(
300.0030441
300.0030727
300.0030976
300.0031723
300.0032969
300.0034146
300.0000045
300.0000022
300.0000014
300.0000011
300.000001
300.0000011
300.0000013
300.0000016
300.0000031
300.0000267
300.0000001
300.0000008
300.0000021
300.0000015
300.0000011
300.0000009
300.0000009
300.0000014
300.0000053
300.0020169
)
;
    }
}


// ************************************************************************* //
