/*--------------------------------*- C++ -*----------------------------------*\
  =========                 |
  \\      /  F ield         | OpenFOAM: The Open Source CFD Toolbox
   \\    /   O peration     | Website:  https://openfoam.org
    \\  /    A nd           | Version:  8
     \\/     M anipulation  |
\*---------------------------------------------------------------------------*/
FoamFile
{
    version     2.0;
    format      ascii;
    class       volScalarField;
    location    "1.7/wallFilmRegion";
    object      alpha;
}
// * * * * * * * * * * * * * * * * * * * * * * * * * * * * * * * * * * * * * //

dimensions      [0 0 0 0 0 0 0];

internalField   nonuniform List<scalar> 
1369
(
8.168438708
8.071338443
6.62900438
5.385884189
5.165494376
5.528008361
5.915297661
6.060204091
6.30263537
6.535641472
6.797409293
7.292244794
8.200654054
8.541834414
6.285427409
5.12539406
4.409139508
3.594031463
2.716135493
1.904501552
1.294937743
0.8890230896
0.6198834594
0.4041492948
0.2113215516
0.1806376817
2.479784134
4.752352334
3.546748812
2.503768976
1.352480988
0.7008291935
0.7004896208
1.742778362
4.176799887
5.902793201
6.732495793
4.997033167
3.604518825
3.043277329
2.705782308
2.615684475
2.763757409
3.038063127
3.39910655
4.072219157
5.994001289
10.1753129
8.889398445
8.612513105
8.221791483
8.231722401
8.432837846
7.185895431
6.014650595
5.525471315
5.90873719
7.057957844
8.502215643
9.542097416
8.783994783
7.563272459
6.317645148
5.126581501
3.85697738
2.849485351
2.064671375
1.294237961
0.8394976728
0.6222828225
0.5336832016
0.5578395368
0.9663112083
2.54347787
0.7553540747
0.5785128718
0.4359788295
0.2550741142
0.1091290002
0.0363264032
0.01075150942
0.005195326204
0.008196802721
0.00695061693
0.004726472429
0.0005915933203
0.6981453809
0.8401674957
0.1311375826
0.02246721909
0.002769974737
0.01257331265
0.01242218077
0.07586373056
0.2913790225
0.3772929963
1.039566378
0.3979443161
0.2910788672
0.173020897
0.1068632645
0.09657783223
0.1086865705
0.1485381635
0.1691033273
0.2124701293
0.4618861449
3.088831016
0.8645959518
0.7042267654
1.057006579
2.216438294
3.231305459
2.246073225
2.872679207
5.024758149
6.179083412
7.337682969
8.579755303
9.260925899
8.506119083
6.065987376
6.245754371
5.116082712
4.355192199
4.017714481
4.045816387
4.405418157
4.126085029
3.301588605
2.451483687
2.22653974
3.100215403
2.283657632
0.06097024006
0.02056247454
0.0189615394
0.02545885348
0.03774200675
0.05110785466
0.04877410558
0.0438942295
0.03416035913
0.02379375363
0.1306209252
0.1007182945
0.5125017152
0.652653722
0.3094735134
0.01938380105
0.003294149217
0.0293523235
0.01180495434
0.04906143965
0.3550605287
0.4385485953
1.199213849
0.09108451674
0.01853545571
0.004719896461
0.001354645565
0.03195584937
0.1018652764
0.1402119358
0.127996698
0.140498435
0.5067627304
6.786151055
7.317967967
9.038023529
6.929297641
6.938108566
5.752689561
5.367097566
5.380610111
6.117309116
6.868282284
7.90184837
9.131370521
9.193569903
7.797943825
5.028648504
5.841791901
4.909441118
4.237907804
3.459079629
2.562676404
2.033541832
2.157875299
2.241480452
1.990609717
1.451492161
2.075766403
1.610575732
0.0174803733
0.004631303785
0.00329028737
0.003136647895
0.004439547737
0.008347883575
0.0133168054
0.0169377091
0.01911681039
0.02088927556
0.02813161397
0.2633653481
0.2594034445
0.1819945997
0.06779659591
0.01993629066
0.002353951463
0.04371107321
0.00884447255
0.007623018063
0.08051209467
0.2691928567
0.721946606
0.02665123938
0.005522001466
0.002562289448
0.0004190695181
0.02462797816
0.09492203196
0.1414356774
0.1103539461
0.08052771231
0.09126200552
3.83062888
4.993730017
6.015098591
4.314375347
4.86374076
3.54123928
4.067253288
4.741910401
5.760110094
6.721977931
7.725671455
8.203501339
7.641504996
6.402370049
6.580421564
6.44137692
4.853089543
4.339207471
3.657786942
3.106726067
2.826088571
2.785122246
2.753354795
2.969483265
2.606215512
4.799014862
2.224170647
0.01542526808
0.004225422839
0.002738757301
0.001876174554
0.001743368966
0.003177368854
0.006018947119
0.006986720006
0.006557874886
0.006264999532
0.008655017903
0.01832849679
0.03598604371
0.001274946152
0.001435834652
0.004227684905
0.0001773801328
0.05291740982
0.009620452472
0.006436627144
0.03983299832
0.09542192493
0.4133309805
0.02290454528
0.006185423637
0.003782522981
0.000286237145
0.03729471564
0.1239086273
0.1811506715
0.1394407736
0.08632118675
0.07176265172
1.214213801
3.353095071
5.453194735
8.531765577
9.046608571
6.860139572
5.085307798
5.135468089
5.728106353
6.464158785
6.971450367
6.640037106
6.713604344
5.035710951
3.127745987
6.811675411
4.470398031
4.190022033
3.666986218
3.267043588
3.022686163
2.88207051
2.718823313
2.706832917
2.832201171
4.664307965
1.430768424
0.01209258034
0.004141547002
0.002898852645
0.001754558289
0.001078100584
0.001221825452
0.002230261231
0.003118477131
0.002330564276
0.001350455376
0.0007991609602
0.0004362734494
0.0002474022027
0.0002369861617
0.0008340742568
0.002231886525
0.0001709444344
0.0737434741
0.01965925799
0.01189393267
0.1441002691
0.1114668014
0.2193858887
0.01712707145
0.007560843165
0.006243619874
0.0002318354573
0.04775305496
0.1379039373
0.195507554
0.1563954098
0.0955335408
0.06367336727
0.0627554556
0.1601172295
2.33835189
6.007367297
6.463639661
9.019653197
5.697269762
5.046398428
5.317704859
5.813403967
6.039929455
5.593706775
5.532557126
4.745660389
1.942215404
3.801230133
3.740086979
3.67956803
3.439617568
3.266573841
3.141164517
3.037609571
2.887617753
3.055061716
3.83461522
5.121128335
0.9395310842
0.009948133534
0.004659907689
0.00347615933
0.002090913064
0.001259118528
0.002028436478
0.003941629168
0.005234179617
0.003668094738
0.001677069459
0.000508925743
9.236629553e-05
2.724954238e-05
3.806486626e-05
0.0001516724307
0.001502333131
0.002394275793
0.1918819562
0.1145230987
0.1600479827
0.2864717349
0.2857682102
0.1592682707
0.01256890312
0.009371322479
0.01127158223
0.004809246428
0.05162113758
0.1294601587
0.1812329868
0.1537472831
0.09920764873
0.06866777583
0.05333036759
0.05420217302
0.121558256
2.576800715
4.027247725
9.145700039
6.547598239
5.805200753
4.963905016
5.240414444
5.67055927
4.948407708
4.580686981
5.042384576
1.802846176
2.891167371
2.788732054
3.685983772
3.335948918
3.413854187
3.377571
3.244112533
3.224789602
2.992902059
5.75335834
1.195136928
0.04249115161
0.008330035896
0.005934434048
0.005087425448
0.003316784479
0.003787741217
0.005239723139
0.007499215621
0.008041991283
0.005566708148
0.002569489806
0.0007467681109
0.0001250303208
2.726130219e-05
3.560434768e-05
0.0001549959126
0.001514425436
0.2131142311
0.2311340305
0.06526838876
0.6095008247
0.05191258221
0.06920443676
0.01604957181
0.008682421863
0.01113715161
0.01955786043
0.04493828848
0.04692751844
0.1053910116
0.1480948807
0.1347981916
0.09478572244
0.0704321865
0.05816748906
0.05019680967
0.05023354922
0.140980194
0.4365561946
4.784779894
7.605936081
5.971172419
5.142881373
5.233237112
5.671121012
4.405302607
4.225826361
5.557599592
1.821387457
2.176744581
1.413993939
2.928724887
3.060180827
3.472597166
3.485250175
3.307436408
3.365114615
3.017876712
4.510120404
1.243988634
0.0386786693
0.01218064705
0.008822824554
0.01153641043
0.01668713983
0.01740872903
0.01870223669
0.02256044719
0.02122846678
0.01503418415
0.00901471509
0.007663199127
0.008840544978
0.001057383968
0.0006523953554
0.001215442709
0.004496665516
0.009713816639
0.01865768583
0.07258645099
0.2103298436
0.2347157537
0.08576810667
0.01278840055
0.008160532298
0.01108674156
0.01756094265
0.01833235256
0.03575363658
0.07630491235
0.1075878108
0.1061570431
0.08390240709
0.06922704619
0.06448344898
0.06094588315
0.05416980832
0.05421752609
0.08758559488
1.419901468
4.129287793
5.861290488
6.543174063
6.118423656
5.255989164
4.229518317
4.379504385
6.43064703
2.25243163
2.319815735
1.46580688
2.132659086
2.64662453
3.058368378
3.054605632
3.061233868
3.711953414
4.250602019
4.996396849
1.336498012
0.04477877061
0.02089040575
0.01140420422
0.01452971523
0.04374643248
0.1185745047
0.271680332
0.3590004601
0.1168202644
0.1043616851
0.06936202194
0.03274321428
0.04132343559
0.08121469529
0.2595354341
0.2775045677
0.01990878187
0.01018454428
0.07874978471
0.3947710152
0.8981556101
0.816455598
0.1537734085
0.01566529493
0.008230961606
0.01216713728
0.02064155919
0.01969258318
0.02780578467
0.05327762604
0.07255741656
0.07743213027
0.07070832447
0.06616990937
0.07278589084
0.08184138763
0.07746271074
0.06898856545
0.07654404107
0.2677699139
2.168617212
4.413928465
5.942764225
5.115445289
4.361407069
4.19608371
4.890702102
6.434434725
2.142481356
2.686658359
2.269039079
3.006471668
3.663025499
4.235933559
4.457925054
4.466653407
4.787907769
3.171327414
1.337623478
0.08669405939
0.04943274588
0.04048462713
0.02012472846
0.005727319539
0.006791886118
1.018667204e-05
7.077319749e-07
0.001212266537
0.3278653998
0.3624017838
0.5165255184
0.2503509343
0.1116732448
0.04773242668
0.02441958873
0.04606980521
0.03645836723
0.05118434801
0.2025248988
0.4706127585
0.565586615
0.5020987518
0.2244135312
0.02290893743
0.008990222998
0.01536735868
0.02696555429
0.02224794943
0.02257112938
0.03930638479
0.05059690875
0.05700857984
0.05919960968
0.06298043578
0.08441840992
0.1242380631
0.1383460702
0.1364830339
0.1710203196
0.365115394
2.550948486
4.933105355
6.321717825
5.235016863
4.481155292
3.823338249
5.452284317
4.641866884
0.7271890468
0.8525973872
0.6170942742
0.5891727792
0.4891838243
0.3744008865
0.2855704647
0.2356316372
0.2010455243
0.09910606435
0.08921972812
0.07074785096
0.07190028113
0.07235032296
0.05842465951
0.01485302456
0.016525542
1.860829165e-06
2.110561702e-08
0.0002459299011
0.2693342416
0.3609247787
1.577750778
1.267044405
0.3710391458
0.1008321259
0.01352263608
0.02200946294
0.04111316847
0.1369393227
0.3722745144
0.4732382506
0.4160942963
0.3931670308
0.2659022283
0.03845751684
0.01162249625
0.0247934888
0.03667469615
0.02325081071
0.02016730497
0.03286076618
0.04036396286
0.04638561731
0.05204547591
0.06144642745
0.1014506865
0.1977522333
0.273433063
0.3125300808
0.3539691007
0.4285745149
0.8808564055
4.118062269
6.749906361
6.507367151
5.900285293
3.260578606
5.747872635
0.04927594126
0.04531246507
0.05339242859
0.06333078829
0.07314159702
0.08269691612
0.08676262127
0.1086794187
0.1591367866
0.03830527836
0.03420678205
1.711564919e-06
2.482167339e-06
0.0002594893886
0.09026624077
0.2908603418
1.729966041
1.173449397
0.8147372419
0.3986260717
0.01321607469
0.01838499772
0.04975218546
0.05426886315
0.121874382
0.256135608
0.2431414107
0.3152435705
0.3292968661
0.1026701079
0.03155276267
0.07536377621
0.0547885988
0.02327764537
0.02019696858
0.03169235257
0.03784533144
0.04326986716
0.05003879244
0.06334901844
0.1163822414
0.2772793567
0.4819043662
0.5853353816
0.5253531807
0.4092841404
0.3666020182
0.4510447088
0.6061143648
0.6764719283
0.6732442936
1.187385794
5.448888378
0.08284763119
0.08644318332
0.09129923123
0.1301609932
0.2455043532
0.09252400458
0.04997990903
2.331336886e-08
7.130216916e-05
0.0002156017753
0.04305714141
0.491749782
1.985260638
1.529421292
1.187115592
0.9903555922
0.3658335908
0.03031088121
0.06835898429
0.03009215254
0.03165971381
0.1872930525
0.02964073424
0.1383140383
0.5217530905
0.7251469041
0.6469402236
0.5038086062
0.1010544372
0.02254439664
0.02182976198
0.03367358864
0.03999536093
0.04541229092
0.05271180778
0.0675644676
0.1183750596
0.300442481
0.5935874259
0.6996807199
0.5575766293
0.3755379063
0.2606407649
0.2070966101
0.1718131823
0.1251593927
0.1667566767
0.5419904051
4.861029962
0.08435475432
0.1197924183
0.2128419593
0.222427447
0.05544028529
5.67547716e-08
1.717683071e-06
0.0002380966143
0.08568500756
0.8986861306
1.394879814
1.667730571
1.433489118
1.144152618
0.9373615181
0.07856260746
0.115474097
0.03319077444
0.06435126843
0.25150936
0.01734213936
0.08685808522
0.1901602298
0.2646254786
0.3868854617
0.6706801643
0.7975313451
0.02069505818
0.02351955487
0.03650099709
0.04414541226
0.05039343304
0.05823122762
0.07108366279
0.1032929678
0.2123132562
0.3881474183
0.4548457557
0.3849215793
0.2847295503
0.214167662
0.1698732427
0.1246802074
0.08135217257
0.1111665275
0.3450226745
4.443993634
0.0490483204
1.471505275e-06
9.462989809e-06
0.008302274972
0.07892212116
0.5250434364
1.608365081
2.426914124
2.156891761
1.730953209
1.394912013
0.6272315468
0.278634237
0.122212136
0.1748346702
0.2440468834
0.05222365493
0.1016732629
0.1408857084
0.104597797
0.07693085963
0.06719342622
0.04852884687
0.01401502999
0.02140319174
0.03624706269
0.04566085077
0.05303912367
0.06023676436
0.06707075514
0.07532688667
0.09699184595
0.1363337167
0.1744507374
0.1901214066
0.1856912402
0.1761308313
0.1643405665
0.1391113243
0.1041678874
0.1451269975
0.2373352899
4.110033674
7.165044719e-05
0.03819032018
0.396408018
0.5802060476
0.8704659446
1.919001302
2.025493529
1.622012157
1.630808151
1.573866164
1.009704825
0.4714799658
0.311794528
0.2916812575
0.2041433659
0.08429706539
0.1668328396
0.06879139217
0.02877088975
0.02037911284
0.01660760187
0.01091573275
0.01472936094
0.02512572492
0.03378153323
0.04132548845
0.04555732821
0.04652789478
0.046752116
0.04967633181
0.0587802283
0.07620194557
0.1030357943
0.1342270246
0.1640493855
0.1860616895
0.1882291629
0.1635388595
0.2276877343
0.1810259131
3.80193732
0.5898496892
1.192407925
2.57596547
2.495388693
2.036086685
2.086310773
2.206039513
1.517930464
0.5408301873
0.1824487496
0.1061380321
0.1211450442
0.4531215458
0.09484122239
0.01559574021
0.006754783275
0.004163435961
0.001941176801
0.01576297955
0.02309136674
0.02264593326
0.01994267851
0.01747336097
0.01630919772
0.01831180129
0.02513882779
0.03817692848
0.05976045223
0.09904918031
0.155821331
0.2178940485
0.2656018133
0.2796302092
0.2528685287
0.3149722362
0.1813377708
3.498285523
2.084965623
1.653497273
1.679104302
1.840475019
2.236338623
2.079878469
1.545114178
0.475038535
0.1992811434
0.3410666603
1.344181986
0.2525715565
0.01712828216
0.006677305577
0.004603129159
0.003641311498
0.02445324069
0.03443807579
0.031348264
0.02208279976
0.01455599569
0.01142311587
0.01358311917
0.02466499728
0.04955231307
0.0979282515
0.1764635214
0.2747670938
0.3676567981
0.4172253263
0.4014340255
0.3309195072
0.3276239252
0.1845497191
3.210068777
2.100295974
1.671780296
1.444191288
1.244858462
1.192838494
1.075634324
0.9496046082
0.4293153202
0.9690148117
1.406563345
0.6313891079
0.02822264761
0.01012511834
0.005943982316
0.005201913007
0.02806815899
0.0389439804
0.03362860429
0.02222884858
0.01372589686
0.01007190703
0.01548780363
0.0447364992
0.1164537588
0.2329085587
0.3631354618
0.483994817
0.5559225318
0.5465539176
0.4595909758
0.3337938324
0.2587453088
0.1573209917
2.927935389
1.201545401
1.052961422
0.7078059949
0.8430713139
1.076060274
0.8298536324
1.154359982
0.6116598812
0.3433265359
0.4971616257
0.9260228633
0.06633010132
0.02196202405
0.009649860368
0.01422680483
0.2033756039
0.07256198412
0.03742251167
0.0181654357
0.009163514085
0.007278756487
0.03340318244
0.1399779766
0.3074042759
0.4600903184
0.5647286695
0.6015159846
0.5654451427
0.4722873464
0.3519965343
0.2366508756
0.1672722294
0.1185106527
2.664173796
0.3094023085
0.3367989676
0.5499660628
1.073262291
0.6084432052
0.7879880644
0.7233109422
0.1170899527
0.1285727867
0.7028807363
0.3438680742
0.07410550033
0.0005430068834
2.206859533e-05
6.002698005e-05
0.05220269694
0.0295003992
0.01402715907
0.01155187676
0.03771731555
0.1485471932
0.288716735
0.3753112252
0.4001833963
0.3748039552
0.31855422
0.2548080475
0.1975463478
0.1490952174
0.1103346662
0.09332862841
0.09058898653
2.478785123
0.1994808456
0.3722157687
0.7661111296
1.480430508
0.4419897154
1.036778666
0.4829645297
0.1121329963
0.3183363524
0.6509846295
1.761894083
0.9569542006
0.0003044158882
4.099579662e-06
3.634481634e-07
0.02719052499
0.01720364314
0.01033692628
0.01633443896
0.03857005324
0.08140146787
0.1099257463
0.1142115487
0.1058453269
0.09335449102
0.08264913345
0.07619204119
0.07259718002
0.06981930628
0.06664171425
0.07359065624
0.09360255409
2.544514694
0.3732164984
0.7909419697
0.8347309121
1.550755035
0.730099899
0.4839163999
0.3626098492
0.2769757198
1.092436816
1.886423481
1.432399633
1.162957611
0.0001110798888
1.856540076e-06
1.025090042e-07
0.01038945667
0.008562329667
0.01429134903
0.1051315943
0.06277953988
0.06123617902
0.05574408998
0.05016138665
0.0461459792
0.04372379004
0.0438235712
0.04668074029
0.05201472478
0.05843723511
0.06345903478
0.0839398214
0.137430223
2.92829693
0.9443610091
0.9850539582
1.154239358
0.8953746396
0.5280370216
0.4686359341
0.2007338969
0.5811892704
1.115284924
1.672686266
1.836642666
6.588395243e-05
2.021771615e-06
8.07463567e-07
0.003893509013
0.004761160786
0.2833353643
0.3521082189
0.121391396
0.05289365071
0.03896011654
0.03524695545
0.0345596928
0.03496088883
0.03679181874
0.0411387092
0.04853749654
0.05802000907
0.06665847271
0.1067481396
0.2276352872
4.408717141
1.042048014
0.8593758301
0.1793911601
0.2950129608
0.2052095735
0.700021874
0.159381646
0.4127907257
1.781213516
1.954829815
8.345060419e-05
1.964214659e-05
2.820262308e-05
0.002442978405
0.005717852564
0.3834792274
0.2689259871
0.06114815177
0.02136576753
0.02349138098
0.02630657377
0.02854169115
0.03029355251
0.03282433848
0.03788898036
0.04662048593
0.0582460442
0.06989378214
0.127287566
0.3105239222
6.463129032
0.3898731316
0.6043343568
0.4230763904
0.550802182
0.1197623065
0.7577047215
0.3354370265
0.7500117939
2.233225159
1.435594018
0.1331206496
0.3130338154
0.7684574368
0.1381276228
0.1865834899
0.2976396216
0.1195248155
0.04323374886
0.02175162045
0.02074901969
0.02258749292
0.0244778961
0.02608373543
0.02870238576
0.03443043106
0.04479021061
0.05849034322
0.07160164409
0.1365673833
0.3115929118
6.48863713
0.4354489632
0.5811169293
0.7266527469
0.6372372851
0.2116478493
0.5593451857
0.601154995
1.393016032
2.324308101
1.488805243
0.3098796567
0.1815831547
0.1279717373
0.07962648697
0.1608700545
0.1712079435
0.1038704066
0.06438055136
0.04559823751
0.03289765148
0.02532933967
0.02183567263
0.020753704
0.02211566179
0.02768469466
0.03912772556
0.05356643441
0.06446990321
0.1361720836
0.2471383683
7.197002616
0.6131777158
0.8726424376
2.284654648
1.296483267
1.678741584
0.9519043871
0.2922903819
0.1161973201
0.0792504536
0.06494189204
0.09957352274
0.092209811
0.07029804103
0.05881833095
0.04678046485
0.03796481898
0.03257195438
0.03180119543
0.03629774674
0.04427107238
0.05080181968
0.05246875989
0.04889306639
0.1032346231
0.2000448806
8.206014846
1.153320532
1.304503069
1.774817126
1.089045964
1.214129696
1.516713274
0.5448155476
0.0716644841
0.02633274963
0.03105643559
0.1162542207
0.1010684357
0.0729435124
0.07643550964
0.07575101548
0.08711283941
0.09766785185
0.1129815423
0.1328046045
0.1414424435
0.1239327515
0.09188807806
0.06053579483
0.08227500105
0.08241976396
6.440140062
)
;

boundaryField
{
    walls
    {
        type            zeroGradient;
    }
    wallFilmFace_top
    {
        type            zeroGradient;
    }
    region0_to_wallFilmRegion_wallFilmFace
    {
        type            zeroGradient;
    }
    mirrorFace_top
    {
        type            zeroGradient;
    }
    region0_to_wallFilmRegion_mirrorFace
    {
        type            zeroGradient;
    }
    procBoundary0to1
    {
        type            processor;
        value           nonuniform List<scalar> 
52
(
3.498740902
0.4138873696
0.3715886074
0.2447519453
0.1872576601
0.1166270586
0.06422246941
0.06422246941
0.0448108273
0.04140067075
0.05101267055
0.06958816763
0.06958816763
0.08669905321
0.08005560702
0.08005560702
0.07529632092
0.1120857371
0.209443386
0.4292769257
0.4292769257
0.03786893785
2.025487998e-05
2.025487998e-05
0.0008240580269
0.1758988081
1.593947457
0.7144244465
0.7144244465
0.8306920058
1.450775687
1.450775687
2.171758739
2.171758739
1.898759472
0.3275458119
0.3275458119
0.1454461503
0.2253724408
0.7711716583
0.7711716583
0.6468961071
0.6468961071
0.436057282
0.5405462152
0.611276591
0.4868672925
0.4972090567
0.5123005174
0.6163387787
0.6163387787
1.262648903
)
;
    }
    procBoundary0to2
    {
        type            processor;
        value           nonuniform List<scalar> 
26
(
1.301786007
1.74759801
1.924410384
1.781304307
1.09329296
1.207794298
0.4653989175
0.03017711887
0.007414352263
0.02306555109
0.2489172176
0.1455651829
0.08588684966
0.2000918012
0.3774822278
0.5131801591
0.5494407295
0.5325790353
0.4396752429
0.2824939219
0.1529380909
0.08642266661
0.04446029173
0.04097330976
0.02601742563
3.499452539
)
;
    }
}


// ************************************************************************* //
