/*--------------------------------*- C++ -*----------------------------------*\
  =========                 |
  \\      /  F ield         | OpenFOAM: The Open Source CFD Toolbox
   \\    /   O peration     | Website:  https://openfoam.org
    \\  /    A nd           | Version:  8
     \\/     M anipulation  |
\*---------------------------------------------------------------------------*/
FoamFile
{
    version     2.0;
    format      ascii;
    class       volScalarField;
    location    "1.7/wallFilmRegion";
    object      kappa;
}
// * * * * * * * * * * * * * * * * * * * * * * * * * * * * * * * * * * * * * //

dimensions      [1 1 -3 -1 0 0 0];

internalField   nonuniform List<scalar> 
1369
(
0.6088100031
0.6088100032
0.608810003
0.6088100028
0.6088100027
0.6088100025
0.6088100024
0.6088100022
0.608810002
0.6088100018
0.6088100016
0.6088100014
0.6088100013
0.6088100011
0.6088100006
0.6088100005
0.6088100004
0.6088100004
0.6088100004
0.6088100004
0.6088100005
0.6088100006
0.6088100008
0.6088100009
0.6088100011
0.6088100012
0.6088100012
0.6088100008
0.6088100006
0.6088100006
0.6088100008
0.608810001
0.6088100013
0.6088100012
0.6088100008
0.6088100009
0.608810001
0.6088100011
0.608810001
0.6088100009
0.6088100009
0.6088100009
0.608810001
0.608810001
0.608810001
0.6088100011
0.6088100011
0.6088100014
0.6088100013
0.6088100013
0.6088100013
0.6088100012
0.6088100012
0.6088100012
0.6088100011
0.6088100011
0.6088100009
0.6088100007
0.6088100005
0.6088100004
0.6088100029
0.6088100031
0.6088100032
0.6088100031
0.6088100031
0.6088100031
0.6088100032
0.6088100028
0.6088100025
0.6088100022
0.6088100021
0.6088100024
0.6088100033
0.6088100028
0.6088100024
0.6088100022
0.6088100023
0.6088100026
0.6088100028
0.6088100033
0.6088100067
0.6088100116
0.608810008
0.6088100074
0.6088100077
0.6088100404
0.6088100016
0.6088100014
0.6088100014
0.6088100022
0.6088100122
0.6088099987
0.6088100009
0.608809999
0.6088099984
0.6088100003
0.6088100007
0.6088100033
0.6088100021
0.6088100023
0.6088100025
0.6088100028
0.6088100028
0.6088100023
0.6088100022
0.6088100023
0.6088100024
0.6088100019
0.6088100017
0.6088100016
0.6088100015
0.6088100013
0.6088100009
0.6088100008
0.6088100009
0.6088100007
0.6088100006
0.6088100005
0.6088100005
0.6088100006
0.6088100029
0.6088100031
0.6088100032
0.6088100032
0.6088100032
0.6088100032
0.6088100034
0.6088100035
0.6088100033
0.6088100032
0.6088100031
0.6088100033
0.6088100035
0.6088100029
0.6088100088
0.6088100172
0.6088100182
0.6088100159
0.6088100123
0.6088100087
0.6088100074
0.6088100067
0.6088100057
0.6088100054
0.6088100026
0.6088100021
0.6088100017
0.6088100017
0.608810002
0.6088100069
0.6088100063
0.6088099977
0.6088100005
0.6088100006
0.608809999
0.6088100002
0.6088100003
0.6088100067
0.6088100096
0.6088100179
0.6088100533
0.6088100064
0.6088100024
0.6088100017
0.6088100018
0.6088100021
0.6088100021
0.6088100018
0.6088100017
0.6088100016
0.6088100016
0.6088100013
0.608810001
0.6088100007
0.6088100006
0.6088100006
0.6088100006
0.6088100006
0.6088100008
0.6088100012
0.6088100028
0.6088100031
0.6088100031
0.6088100032
0.6088100032
0.6088100032
0.6088100033
0.6088100034
0.6088100034
0.6088100034
0.6088100034
0.6088100035
0.6088100037
0.608810003
0.6088100116
0.6088100246
0.6088100296
0.6088100316
0.608810026
0.6088100169
0.6088100112
0.6088100085
0.6088100073
0.6088100064
0.608810005
0.6088100019
0.6088100018
0.6088100022
0.6088100028
0.6088100064
0.6088100064
0.6088099976
0.6088100008
0.6088100036
0.6088099999
0.6088099992
0.6088100002
0.6088100085
0.6088100137
0.6088100176
0.6088100692
0.608810004
0.6088100014
0.608810001
0.6088100012
0.6088100017
0.6088100023
0.6088100018
0.6088100017
0.6088100014
0.6088100012
0.608810001
0.6088100009
0.6088100007
0.6088100006
0.6088100006
0.6088100007
0.6088100008
0.6088100012
0.6088100016
0.6088100028
0.6088100031
0.6088100032
0.6088100032
0.6088100032
0.6088100032
0.6088100033
0.6088100034
0.6088100034
0.6088100035
0.6088100035
0.6088100035
0.6088100036
0.6088100033
0.6088100125
0.6088100234
0.6088100276
0.6088100342
0.6088100373
0.6088100251
0.6088100162
0.6088100133
0.6088100135
0.6088100139
0.6088100129
0.6088100104
0.6088100072
0.608810059
0.6088100381
0.6088100113
0.6088100973
0.6088099978
0.6088100011
0.6088100042
0.60881
0.6088100007
0.608810001
0.6088100088
0.6088100129
0.6088100142
0.6088100762
0.6088100028
0.608810001
0.6088100007
0.6088100009
0.6088100014
0.608810002
0.6088100018
0.6088100016
0.6088100013
0.6088100012
0.6088100011
0.6088100008
0.6088100007
0.6088100007
0.6088100007
0.6088100008
0.6088100011
0.6088100015
0.6088100018
0.6088100027
0.6088100031
0.6088100034
0.6088100033
0.6088100033
0.6088100033
0.6088100033
0.6088100034
0.6088100034
0.6088100035
0.6088100035
0.6088100035
0.6088100034
0.6088100033
0.608810014
0.6088100217
0.6088100237
0.60881003
0.6088100423
0.608810038
0.6088100281
0.6088100245
0.6088100335
0.6088100594
0.6088101065
0.6088101737
0.6088102025
0.6088101342
0.6088100531
0.6088100192
0.6088101519
0.6088099985
0.6088100005
0.6088100029
0.608809999
0.6088100006
0.6088100019
0.6088100098
0.6088100118
0.6088100108
0.6088101003
0.6088100022
0.6088100007
0.6088100005
0.6088100007
0.6088100011
0.6088100017
0.6088100024
0.6088100024
0.6088100015
0.6088100014
0.6088100013
0.6088100009
0.6088100008
0.6088100008
0.6088100009
0.6088100011
0.6088100015
0.6088100019
0.6088100019
0.6088100027
0.6088100032
0.6088100036
0.6088100035
0.6088100034
0.6088100033
0.6088100033
0.6088100034
0.6088100034
0.6088100035
0.6088100035
0.6088100036
0.6088100031
0.6088100032
0.6088100147
0.6088100198
0.6088100199
0.6088100236
0.6088100331
0.6088100258
0.6088100204
0.6088100196
0.6088100264
0.6088100498
0.6088101209
0.6088104082
0.6088107613
0.6088104264
0.6088101574
0.6088100292
0.608810034
0.6088099984
0.6088099998
0.6088100006
0.6088099996
0.6088100006
0.6088100023
0.6088100108
0.6088100101
0.6088100079
0.6088100217
0.6088100019
0.6088100006
0.6088100004
0.6088100005
0.6088100009
0.6088100015
0.6088100021
0.6088100027
0.6088100025
0.6088100015
0.6088100013
0.6088100012
0.6088100009
0.6088100009
0.608810001
0.6088100013
0.6088100017
0.608810002
0.608810002
0.6088100027
0.6088100033
0.6088100037
0.6088100038
0.6088100035
0.6088100034
0.6088100034
0.6088100034
0.6088100035
0.6088100035
0.6088100036
0.6088100036
0.6088100019
0.6088100057
0.6088100137
0.6088100177
0.6088100164
0.608810017
0.608810016
0.6088100154
0.608810014
0.6088100145
0.6088100194
0.6088100356
0.6088100868
0.6088103221
0.6088108548
0.6088104931
0.6088101639
0.6088100391
0.6088100004
0.608809998
0.6088099988
0.608809998
0.6088100018
0.6088100022
0.6088100087
0.6088100108
0.6088100081
0.6088100058
0.6088100048
0.6088100015
0.6088100005
0.6088100003
0.6088100005
0.6088100008
0.6088100013
0.6088100019
0.6088100025
0.608810003
0.6088100024
0.6088100019
0.6088100013
0.6088100011
0.608810001
0.6088100011
0.6088100014
0.6088100018
0.6088100021
0.608810002
0.6088100027
0.6088100034
0.6088100038
0.6088100039
0.6088100036
0.6088100035
0.6088100035
0.6088100035
0.6088100035
0.6088100036
0.6088100036
0.6088100038
0.6088100032
0.608810005
0.6088100102
0.6088100152
0.6088100129
0.6088100091
0.6088100081
0.6088100078
0.6088100074
0.6088100078
0.6088100098
0.6088100141
0.6088100168
0.6088100169
0.6088100787
0.6088101007
0.6088100597
0.6088100225
0.6088100027
0.6088099999
0.6088099983
0.6088099984
0.6088099989
0.6088100002
0.6088100078
0.6088100095
0.6088100064
0.6088100043
0.6088100035
0.608810001
0.6088100005
0.6088100004
0.6088100004
0.6088100007
0.6088100011
0.6088100016
0.6088100023
0.6088100029
0.6088100034
0.6088100035
0.6088100015
0.6088100012
0.6088100012
0.6088100012
0.6088100016
0.608810002
0.6088100022
0.608810002
0.6088100026
0.6088100037
0.6088100038
0.6088100038
0.6088100037
0.6088100037
0.6088100036
0.6088100037
0.6088100037
0.6088100037
0.6088100039
0.6088100036
0.6088100033
0.6088100038
0.6088100061
0.6088100128
0.6088100144
0.6088100083
0.6088100059
0.6088100045
0.608810004
0.608810004
0.6088100041
0.6088100047
0.6088100061
0.6088100049
0.6088100047
0.6088100048
0.6088100053
0.6088100094
0.6088100025
0.6088099977
0.608809997
0.6088099969
0.6088099973
0.6088099986
0.6088100054
0.6088100077
0.6088100046
0.6088100028
0.6088100025
0.6088100009
0.6088100005
0.6088100004
0.6088100005
0.6088100007
0.6088100009
0.6088100014
0.6088100021
0.6088100027
0.6088100034
0.6088100038
0.6088100028
0.6088100016
0.6088100014
0.6088100013
0.6088100017
0.6088100021
0.6088100022
0.608810002
0.6088100024
0.6088100037
0.6088100034
0.6088100033
0.6088100033
0.6088100034
0.6088100034
0.6088100034
0.6088100034
0.6088100031
0.6088100024
0.6088100027
0.6088100024
0.6088100026
0.6088100031
0.6088100071
0.6088100177
0.6088100101
0.6088125021
0.608813294
0.6088100848
0.6088100037
0.6088100033
0.608810003
0.608810003
0.60881
0.6088100008
0.6088100038
0.6088100053
0.6088100065
0.6088100001
0.6088099972
0.6088099966
0.6088099966
0.608809997
0.6088099976
0.6088100026
0.6088100058
0.6088100029
0.6088100018
0.6088100019
0.6088100008
0.6088100006
0.6088100005
0.6088100005
0.6088100006
0.6088100008
0.6088100012
0.6088100019
0.6088100026
0.6088100032
0.6088100036
0.6088100032
0.6088100019
0.6088100017
0.6088100016
0.6088100018
0.6088100024
0.6088100023
0.608810002
0.608810002
0.6088100027
0.6088100014
0.608810001
0.6088100008
0.6088100008
0.6088100008
0.608810001
0.6088100015
0.6088100021
0.6088100023
0.6088100024
0.6088100022
0.608810002
0.6088100019
0.6088100029
0.6088100055
0.6088100036
0.6088134924
0.6088135062
0.6088101786
0.6088100039
0.6088100029
0.6088099996
0.6088099989
0.6088099983
0.6088099989
0.6088100071
0.6088100072
0.6088100054
0.6088099983
0.6088099968
0.6088099964
0.6088099963
0.6088099966
0.6088099969
0.6088099999
0.6088100033
0.6088100008
0.6088100009
0.6088100017
0.608810001
0.6088100007
0.6088100006
0.6088100006
0.6088100006
0.6088100007
0.6088100011
0.6088100018
0.6088100025
0.6088100031
0.6088100035
0.6088100036
0.6088100033
0.6088100022
0.608810002
0.6088100021
0.6088100026
0.6088100025
0.608810002
0.6088100036
0.608810004
0.6088100035
0.6088100029
0.6088100024
0.608810002
0.6088100018
0.6088100014
0.6088100013
0.6088100026
0.6088100024
0.6088134359
0.6088133291
0.6088101907
0.608810005
0.6088100004
0.6088099985
0.608809998
0.6088099979
0.6088099981
0.6088100096
0.6088100091
0.6088100045
0.60881
0.608809997
0.608809996
0.6088099959
0.6088099964
0.6088099963
0.6088099975
0.6088099997
0.6088099985
0.60881
0.6088100015
0.6088100011
0.6088100007
0.6088100006
0.6088100006
0.6088100006
0.6088100006
0.6088100009
0.6088100018
0.6088100025
0.608810003
0.6088100033
0.6088100035
0.6088100037
0.6088100038
0.6088100034
0.6088100032
0.6088100037
0.6088100027
0.6088100019
0.6088100021
0.608810002
0.6088100017
0.6088100013
0.6088100009
0.6088100014
0.608810002
0.6088134371
0.6088104181
0.6088102298
0.6088100042
0.6088099991
0.6088099982
0.6088099979
0.6088099978
0.608809998
0.6088100003
0.6088100051
0.6088100037
0.6088100033
0.60881
0.6088099976
0.6088099993
0.6088099981
0.6088099967
0.6088099966
0.608809997
0.6088099971
0.608809999
0.6088100015
0.6088100011
0.6088100007
0.6088100006
0.6088100006
0.6088100005
0.6088100006
0.6088100008
0.6088100016
0.6088100024
0.6088100028
0.6088100031
0.6088100033
0.6088100035
0.6088100037
0.6088100039
0.6088100041
0.6088100043
0.6088100025
0.6088100018
0.6088100018
0.6088100014
0.608810001
0.6088100008
0.6088100019
0.6088133836
0.6088132415
0.6088102218
0.6088100011
0.6088099983
0.6088099976
0.6088099978
0.6088099978
0.608809998
0.6088099991
0.6088100042
0.6088100031
0.6088100051
0.6088100007
0.6088099982
0.6088100053
0.6088100012
0.6088099998
0.6088099986
0.6088099974
0.6088099969
0.6088099977
0.6088100016
0.608810001
0.6088100006
0.6088100005
0.6088100005
0.6088100005
0.6088100005
0.6088100007
0.6088100013
0.608810002
0.6088100024
0.6088100026
0.6088100029
0.6088100031
0.6088100033
0.6088100035
0.6088100038
0.6088100042
0.6088100026
0.6088100018
0.6088100019
0.6088131855
0.6088122572
0.6088100188
0.6088100019
0.6088099991
0.6088099967
0.6088099975
0.6088099976
0.6088099976
0.6088099984
0.6088100013
0.6088100025
0.6088100025
0.6088100001
0.6088099989
0.6088100038
0.6088100013
0.6088100003
0.6088100007
0.6088100007
0.6088100004
0.6088100005
0.6088100021
0.608810001
0.6088100005
0.6088100004
0.6088100004
0.6088100005
0.6088100007
0.6088100008
0.6088100011
0.6088100014
0.6088100017
0.6088100019
0.6088100021
0.6088100023
0.6088100025
0.6088100027
0.6088100031
0.6088100036
0.608810003
0.6088100017
0.6088106654
0.6088100066
0.6088100002
0.6088099972
0.6088099964
0.6088099962
0.6088099971
0.6088099973
0.608809998
0.6088099996
0.6088100013
0.6088100012
0.6088100002
0.6088099996
0.6088100004
0.6088100005
0.6088099988
0.608810001
0.6088100039
0.6088100039
0.6088100032
0.6088100026
0.6088100012
0.6088100007
0.6088100005
0.6088100006
0.6088100009
0.6088100013
0.6088100017
0.6088100018
0.6088100017
0.6088100016
0.6088100015
0.6088100015
0.6088100015
0.6088100017
0.608810002
0.6088100023
0.6088100029
0.6088100034
0.6088100016
0.6088099965
0.6088099963
0.6088099965
0.6088099969
0.6088099977
0.6088099987
0.6088099997
0.6088099996
0.6088099999
0.6088099996
0.6088099995
0.6088100002
0.6088099968
0.6088099987
0.6088100081
0.6088100137
0.6088100163
0.6088100211
0.6088100012
0.608810001
0.6088100016
0.6088100026
0.6088100038
0.6088100048
0.6088100047
0.6088100037
0.6088100025
0.6088100017
0.6088100012
0.608810001
0.6088100011
0.6088100012
0.6088100015
0.6088100018
0.6088100025
0.6088100033
0.6088100015
0.6088099967
0.6088099968
0.6088099973
0.6088099978
0.6088099979
0.608809997
0.6088099971
0.6088099977
0.6088099989
0.6088099985
0.6088099957
0.6088099959
0.6088100057
0.6088100121
0.6088100144
0.6088100137
0.6088100007
0.6088100007
0.6088100014
0.6088100027
0.6088100047
0.6088100065
0.608810006
0.6088100037
0.608810002
0.6088100011
0.6088100008
0.6088100007
0.6088100008
0.608810001
0.6088100013
0.6088100016
0.6088100023
0.6088100032
0.6088100015
0.6088099963
0.6088099961
0.6088099962
0.6088099957
0.6088099956
0.6088099964
0.608809997
0.6088099976
0.608809996
0.6088099951
0.6088099939
0.6088100017
0.608810008
0.6088100127
0.6088100103
0.6088100006
0.6088100007
0.6088100014
0.608810003
0.6088100053
0.6088100076
0.6088100055
0.6088100023
0.6088100011
0.6088100007
0.6088100005
0.6088100006
0.6088100007
0.608810001
0.6088100013
0.6088100016
0.6088100023
0.6088100032
0.6088100015
0.6088099932
0.6088099941
0.608809994
0.6088099942
0.6088099945
0.6088099948
0.6088099966
0.6088099972
0.6088099942
0.6088099937
0.6088099928
0.6088099968
0.6088100018
0.6088100127
0.6088100068
0.6088099999
0.6088100003
0.6088100013
0.6088100032
0.6088100062
0.6088100091
0.6088100029
0.6088100011
0.6088100007
0.6088100006
0.6088100006
0.6088100007
0.6088100009
0.6088100011
0.6088100015
0.6088100019
0.6088100026
0.6088100035
0.6088100015
0.6088099965
0.6088099961
0.6088099945
0.6088099945
0.6088099937
0.6088099934
0.608809997
0.6088099954
0.6088099934
0.6088099919
0.6088099929
0.6088099953
0.6088101818
0.6088114917
0.6088109259
0.608810001
0.608810002
0.6088100043
0.6088100057
0.6088100022
0.6088100011
0.6088100009
0.6088100009
0.6088100009
0.608810001
0.6088100012
0.6088100015
0.6088100019
0.6088100023
0.6088100029
0.6088100035
0.6088100042
0.6088100016
0.6088099944
0.6088099946
0.6088099946
0.6088099952
0.6088099892
0.6088099935
0.6088099961
0.6088099945
0.6088099939
0.6088099934
0.608809992
0.6088099929
0.6088102442
0.6088130108
0.6088138629
0.6088100018
0.6088100034
0.6088100066
0.6088100062
0.6088100034
0.6088100024
0.608810002
0.6088100018
0.6088100018
0.6088100019
0.6088100021
0.6088100024
0.6088100027
0.608810003
0.6088100034
0.6088100038
0.6088100042
0.6088100017
0.6088099953
0.6088099959
0.6088099955
0.6088099933
0.6088099873
0.6088099931
0.6088099905
0.6088099913
0.6088099943
0.6088099945
0.6088099957
0.6088099959
0.6088106173
0.6088136221
0.608813874
0.6088100034
0.6088100062
0.6088100089
0.6088100025
0.6088100033
0.6088100028
0.6088100024
0.6088100021
0.608810002
0.6088100021
0.6088100022
0.6088100023
0.6088100025
0.6088100027
0.608810003
0.6088100034
0.6088100038
0.6088100019
0.6088099961
0.6088099954
0.6088099938
0.6088099921
0.6088099901
0.6088099917
0.6088099958
0.6088099952
0.6088099949
0.6088099946
0.6088099954
0.6088110953
0.6088130752
0.6088137223
0.6088100071
0.6088100126
0.6088100017
0.6088100013
0.6088100021
0.6088100023
0.6088100022
0.6088100021
0.6088100021
0.6088100021
0.6088100022
0.6088100022
0.6088100023
0.6088100024
0.6088100026
0.608810003
0.6088100035
0.6088100019
0.6088099938
0.6088099926
0.6088099926
0.6088099898
0.6088099874
0.6088099942
0.6088099943
0.6088099939
0.6088099942
0.6088099954
0.6088106425
0.6088116085
0.6088116739
0.608810028
0.6088100253
0.6088100011
0.608810001
0.6088100017
0.6088100025
0.6088100024
0.6088100023
0.6088100022
0.6088100022
0.6088100022
0.6088100021
0.6088100021
0.6088100021
0.6088100023
0.6088100027
0.6088100032
0.6088100021
0.6088099922
0.6088099913
0.6088099912
0.6088099939
0.6088099928
0.6088099929
0.6088099925
0.6088099922
0.6088099947
0.6088099963
0.6088099988
0.60881
0.6088099994
0.608810001
0.6088100018
0.6088100007
0.6088100007
0.6088100014
0.6088100022
0.6088100025
0.6088100024
0.6088100023
0.6088100023
0.6088100022
0.6088100021
0.608810002
0.608810002
0.6088100021
0.6088100026
0.608810003
0.6088100025
0.6088099909
0.6088099907
0.608809991
0.6088099911
0.6088099903
0.6088099916
0.6088099914
0.6088099917
0.6088099959
0.6088099972
0.6088099999
0.6088099993
0.6088099996
0.6088100002
0.6088100008
0.6088100003
0.6088100002
0.6088100008
0.6088100014
0.6088100019
0.6088100022
0.6088100024
0.6088100025
0.6088100024
0.6088100022
0.608810002
0.608810002
0.6088100022
0.6088100027
0.6088100029
0.6088100025
0.6088099936
0.6088099919
0.6088099927
0.6088099967
0.6088099973
0.6088099976
0.6088099987
0.6088099997
0.6088099999
0.6088100006
0.6088099979
0.6088099984
0.6088099997
0.6088100005
0.6088100013
0.6088100016
0.6088100018
0.6088100019
0.6088100019
0.608810002
0.6088100022
0.6088100025
0.6088100029
0.6088100032
0.6088100026
0.6088100024
0.6088099917
0.608809991
0.6088099932
0.6088099961
0.6088099967
0.6088099957
0.608809998
0.60881
0.6088100005
0.6088100009
0.6088099926
0.6088099951
0.6088099977
0.608809998
0.6088100001
0.6088100008
0.608810001
0.6088100011
0.6088100012
0.6088100014
0.6088100016
0.6088100021
0.6088100026
0.6088100031
0.6088100026
0.6088100024
)
;

boundaryField
{
    walls
    {
        type            zeroGradient;
    }
    wallFilmFace_top
    {
        type            zeroGradient;
    }
    region0_to_wallFilmRegion_wallFilmFace
    {
        type            zeroGradient;
    }
    mirrorFace_top
    {
        type            zeroGradient;
    }
    region0_to_wallFilmRegion_mirrorFace
    {
        type            zeroGradient;
    }
    procBoundary0to1
    {
        type            processor;
        value           nonuniform List<scalar> 
52
(
0.608810002
0.6088100024
0.6088100015
0.6088100012
0.6088100013
0.6088100018
0.6088100028
0.6088100028
0.6088100037
0.6088100038
0.608810003
0.6088100024
0.6088100024
0.608810002
0.608810002
0.608810002
0.608810002
0.6088100015
0.608810001
0.6088100005
0.6088100005
0.6088100021
0.6088111701
0.6088111701
0.6088101185
0.6088100032
0.6088099973
0.6088099961
0.6088099961
0.6088099959
0.6088099965
0.6088099965
0.6088099966
0.6088099966
0.6088099959
0.6088099942
0.6088099942
0.6088099949
0.6088099961
0.608809996
0.608809996
0.6088099937
0.6088099937
0.6088099923
0.6088099909
0.608809991
0.6088099908
0.6088099908
0.6088099902
0.6088099904
0.6088099904
0.6088099899
)
;
    }
    procBoundary0to2
    {
        type            processor;
        value           nonuniform List<scalar> 
26
(
0.608809994
0.6088099926
0.6088099935
0.6088099948
0.6088099958
0.6088099963
0.6088099979
0.6088100012
0.6088100039
0.6088100012
0.608809989
0.6088099923
0.6088099963
0.6088099945
0.6088099953
0.6088099972
0.6088099987
0.6088099996
0.6088100002
0.6088100006
0.6088100011
0.6088100019
0.6088100027
0.6088100033
0.6088100032
0.6088100022
)
;
    }
}


// ************************************************************************* //
