/*--------------------------------*- C++ -*----------------------------------*\
  =========                 |
  \\      /  F ield         | OpenFOAM: The Open Source CFD Toolbox
   \\    /   O peration     | Website:  https://openfoam.org
    \\  /    A nd           | Version:  8
     \\/     M anipulation  |
\*---------------------------------------------------------------------------*/
FoamFile
{
    version     2.0;
    format      ascii;
    class       volVectorField;
    location    "1.7/wallFilmRegion";
    object      U;
}
// * * * * * * * * * * * * * * * * * * * * * * * * * * * * * * * * * * * * * //

dimensions      [0 1 -1 0 0 0 0];

internalField   nonuniform List<vector> 
1369
(
(0.03115991936 0.08237582807 0)
(0.05366977506 -0.009076521982 0)
(0.009965238825 -0.1084984718 0)
(0.003233618651 -0.192303154 0)
(-0.008475775673 -0.2465741232 0)
(-0.04731098367 -0.2690592435 0)
(-0.1178920103 -0.2810213698 0)
(-0.2017156891 -0.2989619257 0)
(-0.2635136904 -0.3164541678 0)
(-0.2923186307 -0.3389471866 0)
(-0.2921384635 -0.3747957694 0)
(-0.2757341005 -0.4120341168 0)
(-0.2602182675 -0.4265408581 0)
(-0.2552483605 -0.4291693973 0)
(-0.2471083807 -0.5009326946 0)
(-0.2541797087 -0.5201236028 0)
(-0.3006981846 -0.5246226476 0)
(-0.3889922145 -0.5192359408 0)
(-0.5148124876 -0.5080693819 0)
(-0.6689038328 -0.4869729036 0)
(-0.8238343125 -0.4510388226 0)
(-0.9504779589 -0.3980709256 0)
(-1.02790261 -0.3330055087 0)
(-1.067433869 -0.2623134097 0)
(-1.051877973 -0.1697533004 0)
(-0.6500438256 0.001026663693 0)
(-0.3099735694 0.03348964292 0)
(-0.3784922829 0.06173939493 0)
(-0.6169563051 0.1766867513 0)
(-0.8340880938 0.2152120282 0)
(-1.044553375 0.2154406234 0)
(-1.19641342 0.2035356191 0)
(-1.174520927 0.2233049401 0)
(-0.9416064323 0.1615099705 0)
(-0.7585783569 0.1239364767 0)
(-0.5516063092 0.1361459045 0)
(-0.3902740028 0.1631299406 0)
(-0.3266178357 0.1788275844 0)
(-0.3106477916 0.1642814475 0)
(-0.3592068471 0.1447315386 0)
(-0.4667396024 0.1583307813 0)
(-0.5734700175 0.1882017184 0)
(-0.6198814077 0.2327345386 0)
(-0.6474134167 0.2808077095 0)
(-0.6638298285 0.3205757358 0)
(-0.6697183481 0.3353261579 0)
(-0.6382823189 0.26887913 0)
(-0.4351623904 0.1574250655 0)
(-0.3896461354 0.2274525581 0)
(-0.3286782797 0.2692290426 0)
(-0.2723320892 0.2955757654 0)
(-0.2098803425 0.2950429547 0)
(-0.1309488343 0.2643678218 0)
(-0.05952432767 0.2581934377 0)
(-0.006987523529 0.2529221292 0)
(0.009444271459 0.2343667483 0)
(0.0113702709 0.1934705709 0)
(0.01348666093 0.1253648299 0)
(0.02740173786 0.06117929592 0)
(0.03462853912 0.017004106 0)
(-0.0489042549 0.07343526451 0)
(0.0839066907 0.07903231408 0)
(0.07169436254 0.06955600064 0)
(0.06407021565 0.03078488588 0)
(0.05425450974 0.007583139273 0)
(0.05708250646 0.01307946464 0)
(0.1318720126 -0.02898355873 0)
(0.2402042673 -0.1593079641 0)
(0.3043590941 -0.2599357598 0)
(0.3409783721 -0.3017369241 0)
(0.3490243799 -0.3045330555 0)
(0.3344830824 -0.2436958549 0)
(0.2109457942 -0.06483106262 0)
(-0.15838136 -0.149740016 0)
(0.2904851055 -0.6435319994 0)
(0.2988129722 -0.6539113517 0)
(0.3330750662 -0.656916694 0)
(0.4071784395 -0.6755489493 0)
(0.5241721103 -0.722910341 0)
(0.6772142911 -0.6052793651 0)
(0.8283966785 -0.5174834208 0)
(0.7509939742 -0.4007768595 0)
(0.02316727794 -0.2974463533 0)
(-0.08193981027 -0.2118422789 0)
(-0.02438034007 0.07407599792 0)
(-0.3676292707 -0.1739929823 0)
(-0.2377721837 0.2127684472 0)
(-0.2156638427 0.02711195776 0)
(0.6232891196 0.06540291256 0)
(0.8443814544 0.1275009418 0)
(-0.7541860419 -0.1016319706 0)
(-0.3897288529 -0.000718921848 0)
(0.03649027007 0.0381607846 0)
(0.7336849616 -0.1818643955 0)
(0.7016669516 0.06969516687 0)
(0.5836743286 0.1952032247 0)
(0.09606585577 0.1281905293 0)
(0.2355943449 -0.2465739287 0)
(0.3347301281 -0.04970598409 0)
(0.3795670068 -0.0250529341 0)
(0.4797182223 0.05081290771 0)
(0.5809805809 0.2353540863 0)
(-0.09578164361 0.460864859 0)
(-0.4765439892 0.4839519125 0)
(-0.5722707061 0.5112183737 0)
(-0.5571690566 0.5614843959 0)
(-0.4533715668 0.319481181 0)
(-0.07623229218 -0.1010192445 0)
(0.4105466387 0.1294727924 0)
(0.3256653708 0.170611281 0)
(0.3025845428 0.206113155 0)
(0.2358690923 -0.02427470777 0)
(0.1343639022 -0.1169711998 0)
(0.1210426573 -0.003878701376 0)
(0.08721156785 0.02386794483 0)
(0.06006150224 -0.0343973778 0)
(0.04279213379 -0.06172087022 0)
(0.02974256508 -0.08511803078 0)
(0.01539105677 -0.08555531357 0)
(-0.009012863378 -0.06703212289 0)
(-0.1027002003 0.02553218422 0)
(0.1030647432 0.1031012448 0)
(0.1082540094 0.07001131859 0)
(0.09575169303 0.08133276766 0)
(0.07485192428 0.06764688706 0)
(0.03725267733 0.05118995797 0)
(-0.04431874261 -0.007129137583 0)
(-0.08091015431 -0.02290024815 0)
(-0.025335892 -0.02390644556 0)
(0.03015604666 -0.03577553713 0)
(0.04309973776 -0.0467885136 0)
(-0.04321772036 -0.003573625395 0)
(-0.1178478679 0.1049309783 0)
(-0.3687260453 0.005033561027 0)
(-1.187993115 -0.4073658946 0)
(-1.234990554 -0.7262681261 0)
(-1.113173006 -0.6715755434 0)
(-0.8707695257 -0.626305213 0)
(-0.5709797021 -0.5824284685 0)
(-0.2514107506 -0.5352056011 0)
(-0.1889233192 -0.4559312345 0)
(-0.2420857014 -0.3792489357 0)
(-0.2468394592 -0.3163349861 0)
(-0.2191181249 -0.2545156101 0)
(-0.005509560061 0.3919052579 0)
(0.4636923394 -0.1704735216 0)
(-0.2427027197 0.2135640455 0)
(-0.3943333589 0.09146605044 0)
(-0.6212405839 -0.2518069397 0)
(0.5835763634 0.09063167805 0)
(-0.9023483412 -0.1028935407 0)
(-0.3961424228 -0.0362895938 0)
(-0.4685607712 0.1695874448 0)
(0.201298866 0.0267507128 0)
(0.4906639385 0.1347640867 0)
(0.1782941465 0.1882033526 0)
(-0.3336865899 0.20090373 0)
(-0.8742745334 -0.4695231822 0)
(-0.8390148542 -0.4195355431 0)
(-1.030514992 -0.292376956 0)
(-1.136388522 0.4164458995 0)
(-0.9845185721 0.4130725578 0)
(-1.086160218 0.4218639738 0)
(-1.103989709 0.3998903201 0)
(-1.108704331 0.4133622349 0)
(-1.124137401 0.5004561442 0)
(-0.6532869466 -0.1221588023 0)
(-0.2371909457 -0.1823168607 0)
(-0.1177327492 -0.1360281165 0)
(-0.1645998549 -0.01580027169 0)
(-0.08704444265 -0.006768100616 0)
(-0.08113408268 -0.02259304634 0)
(-0.03827588495 -0.0489202928 0)
(-0.01170044211 -0.05981471259 0)
(0.0260118235 -0.07665883627 0)
(0.07112381771 -0.1128230272 0)
(0.07541064135 -0.133057278 0)
(0.0550313409 -0.1431876286 0)
(0.0133519194 -0.1090316254 0)
(-0.1012960611 -0.03757741367 0)
(-0.181220401 -0.02352071861 0)
(0.09474696514 0.09974984194 0)
(0.1038843041 0.06954559395 0)
(0.1190836717 0.1055459248 0)
(0.116254861 0.1139127604 0)
(0.1098403812 0.1244783914 0)
(0.1121637015 0.1319733928 0)
(0.1425509964 0.1140642022 0)
(0.135239547 0.06560674863 0)
(0.1080369801 0.04009707999 0)
(0.07258738468 0.0504240455 0)
(0.08608406532 0.0920031341 0)
(-0.006933944209 0.1366156366 0)
(-0.2844440723 0.06023971228 0)
(-1.071848407 -0.4154725875 0)
(-1.240357988 -0.7566931338 0)
(-1.332512504 -0.687563506 0)
(-1.325223058 -0.6187367422 0)
(-1.076393194 -0.5749260593 0)
(-0.63401766 -0.5188201083 0)
(-0.3479756232 -0.4695844999 0)
(-0.2654638586 -0.4402623465 0)
(-0.2503811289 -0.3879541691 0)
(-0.2340898958 -0.287953244 0)
(-0.1823079033 -0.1499020505 0)
(-0.03441575707 0.1295413286 0)
(-0.1779142921 0.2217557615 0)
(-0.2849230826 0.1808851824 0)
(-0.2973349989 0.1913571338 0)
(-0.02430116889 0.1135756024 0)
(-0.5997182615 -0.02547523027 0)
(-0.3527932927 -0.05077856117 0)
(-0.3702114613 0.1259192078 0)
(-0.3680475763 0.3743931724 0)
(0.2863438268 0.2086170258 0)
(0.08589612977 0.2596366691 0)
(-0.3056210634 0.2402716589 0)
(-0.8093383408 -0.4829219395 0)
(-0.861570277 -0.444995368 0)
(-0.9279130509 -0.2407102469 0)
(-1.022182712 0.4406035072 0)
(-1.025532349 0.3457234081 0)
(-1.115840268 0.3829602939 0)
(-1.126697532 0.3133728003 0)
(-1.090201777 0.2883467848 0)
(-1.081783811 0.3831882713 0)
(-1.084333552 0.1861458823 0)
(-0.1957113209 -0.1496170127 0)
(-0.1269476059 -0.1335600846 0)
(-0.1619944942 -0.02379244149 0)
(0.01608620729 -0.07780905432 0)
(-0.04215286578 -0.1251438699 0)
(0.09948089917 -0.1434943671 0)
(0.108109721 -0.1497650761 0)
(0.1047720121 -0.1537159718 0)
(0.1081486429 -0.1617204225 0)
(0.08639561218 -0.1618206438 0)
(0.03302675888 -0.1441978618 0)
(-0.05901240228 -0.08874237202 0)
(-0.1548695705 0.005011421297 0)
(-0.245679215 -0.05583820814 0)
(0.1290696664 0.02830512724 0)
(0.1113211666 0.05431613151 0)
(0.1380457123 0.1285372638 0)
(0.1451562222 0.1336881424 0)
(0.141474699 0.1449224025 0)
(0.1285641318 0.1499111889 0)
(0.1196023509 0.1438400789 0)
(0.1058245777 0.1276088708 0)
(0.07779486393 0.1149789245 0)
(0.04500733918 0.126846289 0)
(0.02216400883 0.05053266051 0)
(-0.05293036632 0.1688415916 0)
(-0.1706533045 0.1837894092 0)
(-1.014597765 -0.381039158 0)
(-1.160617566 -0.7624623927 0)
(-1.234670561 -0.6884428128 0)
(-1.255671714 -0.6044545688 0)
(-1.212167896 -0.5281894147 0)
(-0.8566023647 -0.4771347592 0)
(-0.3592357064 -0.493587231 0)
(-0.2433944983 -0.5502623839 0)
(-0.2239100834 -0.5610578192 0)
(-0.1880890184 -0.4982586476 0)
(-0.06168050112 -0.3397084843 0)
(0.06799664475 -0.1320183538 0)
(0.1852183565 0.01695560162 0)
(-0.6962846087 -0.2563959684 0)
(-0.4209883529 -0.1052233151 0)
(0.5026235066 -0.007686001136 0)
(0.07836014573 0.1190456947 0)
(-0.298668183 -0.04194818614 0)
(-0.2881380361 0.1162326574 0)
(-0.2582713897 0.3445699438 0)
(-0.3211546958 0.224707055 0)
(-0.3148049623 0.5317636702 0)
(-0.4285484869 0.2385544424 0)
(-0.7867434739 -0.5419414827 0)
(-0.807315127 -0.4455001447 0)
(-0.8058250856 -0.2662109801 0)
(-0.8501763762 0.4120126941 0)
(-1.087256247 0.3267525211 0)
(-1.149275804 0.3903483354 0)
(-1.169173194 0.3147877657 0)
(-1.114727414 0.2543170135 0)
(-1.094351141 0.3364873136 0)
(-1.070991048 0.420614609 0)
(-0.3641376258 -0.05244624722 0)
(-0.2220458234 -0.09520738337 0)
(-0.1970952242 -0.118025072 0)
(-0.1073528248 -0.1712008983 0)
(-0.1468883326 -0.01558044313 0)
(0.03081621218 -0.07225577021 0)
(0.1032931003 -0.1461274483 0)
(0.1153770444 -0.1669663424 0)
(0.1111158175 -0.1732032617 0)
(0.07667998005 -0.1642187617 0)
(0.007095964695 -0.1311541063 0)
(-0.1058765992 -0.0588786553 0)
(-0.1869921522 0.03575043338 0)
(-0.305894389 -0.04774605046 0)
(-0.1398483613 0.08691902743 0)
(0.05789178241 0.002729656776 0)
(0.1391692036 0.1164631073 0)
(0.1703328698 0.1247523514 0)
(0.173777372 0.1413413436 0)
(0.1633602239 0.1490117356 0)
(0.1482195545 0.150904663 0)
(0.1284736976 0.1514421243 0)
(0.1048102882 0.1554739909 0)
(0.08572448429 0.1654528611 0)
(0.06439601235 0.1022738314 0)
(-0.02015558797 0.1329238826 0)
(-0.1193870047 0.1842764382 0)
(-0.9496506499 -0.6932054721 0)
(-1.060766194 -0.7601907645 0)
(-1.074777366 -0.6766984764 0)
(-1.012721993 -0.5869616551 0)
(-0.9157707084 -0.5197453223 0)
(-0.6140568095 -0.4764307772 0)
(-0.03462769919 -0.4299407172 0)
(0.3065465147 -0.4656178609 0)
(0.2581489691 -0.5039069635 0)
(0.2354371799 -0.5369503298 0)
(0.03443146762 -0.5952604931 0)
(-0.7097155659 -0.6869289107 0)
(-0.8009208947 -0.5781475193 0)
(-0.6699397899 -0.2921616358 0)
(-0.1832399764 -0.08847825971 0)
(0.8953346105 -0.04444281039 0)
(0.9361181236 0.1286857713 0)
(-0.235262221 0.003221576515 0)
(-0.1333051146 0.1832923894 0)
(-0.1011107674 0.3134846496 0)
(-0.2962779906 0.161195966 0)
(-0.1692277702 0.3752952883 0)
(-0.3821803127 0.08715141635 0)
(-0.7683347913 -0.5788768696 0)
(-0.7730929504 -0.465236637 0)
(-0.7304325404 -0.3340307955 0)
(0.4419178154 0.4155972233 0)
(-1.139705263 0.318719033 0)
(-1.224547524 0.3711328519 0)
(-1.21420826 0.3160968357 0)
(-1.163523693 0.2538591165 0)
(-1.118646377 0.3233914991 0)
(-1.076129947 0.4199316906 0)
(-0.979058061 0.549668997 0)
(-0.5851528079 0.6117868701 0)
(-0.2142298789 -0.05450646762 0)
(0.001181750447 -0.1510659003 0)
(-0.1184744745 0.01629331697 0)
(-0.06949600875 -0.07244190253 0)
(0.1223670919 -0.108326312 0)
(0.1255636696 -0.1590819608 0)
(0.1155964747 -0.168760005 0)
(0.05735595369 -0.158042525 0)
(-0.04796545233 -0.121574396 0)
(-0.1401669456 -0.04586278814 0)
(-0.1985758842 0.05322005825 0)
(-0.303280554 -0.06284325997 0)
(-0.2383178628 0.1563197144 0)
(-0.07632815137 -0.003667348069 0)
(0.1293620064 0.06531808016 0)
(0.1671194542 0.0971156772 0)
(0.1858357996 0.119828366 0)
(0.178183467 0.1324537552 0)
(0.1594112256 0.1404756748 0)
(0.1352070186 0.1485530484 0)
(0.1064198903 0.1546598417 0)
(0.0884998346 0.1612051947 0)
(-0.02889692944 0.06340099814 0)
(-0.04308042847 0.05029936347 0)
(-0.143756506 0.1517044231 0)
(-0.8648665886 -0.7382847968 0)
(-0.9227096153 -0.7429458824 0)
(-0.8316910187 -0.6437497113 0)
(-0.6373771032 -0.5474375452 0)
(-0.3627695046 -0.4958888472 0)
(0.3305296848 -0.470817579 0)
(0.484398501 -0.4462412994 0)
(0.4422101968 -0.4646624988 0)
(0.4089268747 -0.4926430227 0)
(0.4063818367 -0.5175522819 0)
(0.3441170894 -0.5471899252 0)
(-0.4276609758 -0.5491202278 0)
(-0.6409022245 -0.72797928 0)
(-0.8321222533 -0.4391174884 0)
(-0.3066816836 -0.09355797351 0)
(1.099415691 -0.0337729979 0)
(0.7837461253 0.3779985953 0)
(-0.296476627 -0.005645211663 0)
(-0.09895253505 0.2556272707 0)
(-0.1275228037 0.3551512772 0)
(-0.2096376909 0.2281906473 0)
(-0.1503924957 0.3224283059 0)
(-0.3640498473 0.04388978994 0)
(-0.755296814 -0.6019454213 0)
(-0.7637267404 -0.4634672658 0)
(-0.721235693 -0.3082785716 0)
(0.3691350107 0.3121145619 0)
(-1.173467005 0.3130403711 0)
(-1.261039905 0.3714226392 0)
(-1.240712768 0.3283149319 0)
(-1.191648216 0.2690735724 0)
(-1.135981239 0.3354508509 0)
(-1.080192113 0.4251188878 0)
(-1.006564105 0.5218483488 0)
(-0.9370783167 0.6304912784 0)
(-0.7973699519 0.5772445522 0)
(-0.1022073964 0.1181645918 0)
(-0.08411159427 -0.1379004063 0)
(0.02604920953 -0.03966662834 0)
(0.06150106275 0.05384086449 0)
(0.1409140848 -0.1315203444 0)
(0.1258343039 -0.1384315775 0)
(0.05481468354 -0.1412688716 0)
(-0.06475062627 -0.08821775422 0)
(-0.1604964193 -0.0365748624 0)
(-0.2178598344 0.04643320075 0)
(-0.2729258337 -0.08051123569 0)
(-0.2072205347 0.1734047653 0)
(-0.1049665771 -0.02848604917 0)
(0.08120251294 -0.004134142849 0)
(0.1616063099 0.03757333576 0)
(0.188953704 0.09420785974 0)
(0.1811831922 0.1046481661 0)
(0.1618402651 0.1183361553 0)
(0.1399787558 0.1320648572 0)
(0.1161947958 0.1499696633 0)
(0.1079010948 0.08942781998 0)
(-0.003422566736 0.1342048507 0)
(-0.1443806207 0.04002189104 0)
(-0.6615560087 -0.7090457324 0)
(-0.7316126268 -0.70307372 0)
(-0.7279054057 -0.6920860311 0)
(-0.4854937669 -0.5793762119 0)
(-0.1597411086 -0.4896678531 0)
(0.3220345995 -0.45403963 0)
(0.5863939733 -0.4463159503 0)
(0.5947059751 -0.4484521666 0)
(0.5490800898 -0.4647462671 0)
(0.5275049467 -0.4873156743 0)
(0.5287499553 -0.5060748211 0)
(0.5112389812 -0.4992359561 0)
(-0.03812456445 -0.1574668344 0)
(0.3688574332 -0.5761787959 0)
(0.8183948449 -0.3549970354 0)
(0.8030343872 -0.09141447911 0)
(1.121016001 -0.0355935041 0)
(-0.1457438206 0.3407769979 0)
(-0.4906054262 -0.1298678182 0)
(-0.3197265934 -0.2968534995 0)
(-0.4377839967 -0.03616385441 0)
(-0.2722332676 0.008440627056 0)
(-0.3064353145 -0.4660200985 0)
(-0.5797924147 -0.6730678022 0)
(-0.7467724336 -0.6349589333 0)
(-0.7827364476 -0.4612839031 0)
(-0.7525428701 -0.2851585757 0)
(-0.6877275499 -0.1711621982 0)
(-1.207034996 0.303350032 0)
(-1.294265507 0.3848957969 0)
(-1.25469563 0.3551314376 0)
(-1.207491318 0.2986649771 0)
(-1.13897494 0.369212824 0)
(-1.072193003 0.4555481472 0)
(-0.9744615951 0.5399297673 0)
(-0.866272112 0.6007552539 0)
(-0.7899995101 0.6575537937 0)
(-0.54541337 0.6764352104 0)
(-0.3026888104 0.2388724429 0)
(0.1397102075 0.02788533892 0)
(0.1023304611 -0.008762918489 0)
(0.1254056961 -0.02884187011 0)
(0.09917040693 -0.1112095544 0)
(0.0220605102 -0.1336297704 0)
(-0.07759544357 -0.08254244326 0)
(-0.1847017246 -0.03162574478 0)
(-0.2289956978 0.03676168795 0)
(-0.226823396 -0.102282217 0)
(-0.145872559 0.175202686 0)
(-0.07769824992 -0.08334107291 0)
(-0.01933857652 -0.05163633022 0)
(0.1155323991 -0.03410826245 0)
(0.1724264111 0.04895679827 0)
(0.1704714252 0.06120455835 0)
(0.1555348234 0.0875583625 0)
(0.1398236305 0.108212899 0)
(0.1228534852 0.135240696 0)
(0.09460541887 0.07403806678 0)
(0.009427858925 0.1276777547 0)
(-0.1314887156 0.155756841 0)
(-0.6090569676 -0.5685520768 0)
(-0.5897855237 -0.544597785 0)
(-0.5108399661 -0.5890491322 0)
(-0.1176586651 -0.4905634877 0)
(0.2716426786 -0.4062929941 0)
(0.5223891533 -0.3896008118 0)
(0.6733258681 -0.3972283818 0)
(0.6811947477 -0.4128839686 0)
(0.6658655405 -0.4362777764 0)
(0.6206122326 -0.455553871 0)
(0.5437735145 -0.4263089498 0)
(0.4184882384 -0.3435137577 0)
(0.3673500863 -0.3044258857 0)
(0.7520999507 -0.4906428758 0)
(0.8482180385 -0.2960201915 0)
(0.9145440947 -0.07542898323 0)
(0.742198516 -0.04643495246 0)
(-0.4310530404 -0.1347364844 0)
(-0.1618625362 -0.1199167356 0)
(-0.01318315888 -0.1176789495 0)
(0.3346238591 -0.06686284049 0)
(0.3126110993 -0.2135284648 0)
(-0.1933658854 -0.4958197981 0)
(-0.4802439546 -0.7105897637 0)
(-0.7239046609 -0.672681004 0)
(-0.8034911972 -0.4889415246 0)
(-0.8381395816 -0.3505844438 0)
(-0.9323134204 -0.3132335888 0)
(-1.215529581 0.3161118692 0)
(-1.261944099 0.378745038 0)
(-1.256551243 0.404091797 0)
(-1.215334814 0.3460201843 0)
(-1.119727385 0.4247274828 0)
(-1.042598945 0.510330686 0)
(-0.9216808644 0.583405791 0)
(-0.7768294807 0.6068976476 0)
(-0.6711466124 0.6152463819 0)
(-0.6033922682 0.6316243575 0)
(-0.5734425695 0.6489385538 0)
(0.1339155128 0.148028395 0)
(0.2011678958 0.05264931782 0)
(0.1235181025 0.09341371639 0)
(0.1259046736 0.03592092907 0)
(0.03723844582 -0.08148747026 0)
(-0.0819139267 -0.08134088406 0)
(-0.2169531215 -0.04422126833 0)
(-0.2443156403 0.03748737486 0)
(-0.1602159805 -0.1311850249 0)
(-0.02200298919 0.07399977571 0)
(0.03873408908 -0.1785922835 0)
(0.05155508307 -0.119606669 0)
(0.08706829794 -0.09349848726 0)
(0.115097216 -0.02581738584 0)
(0.1247516024 0.009156506446 0)
(0.1086993846 0.05016534666 0)
(0.1003987681 0.07092557582 0)
(0.08570672237 0.09096593265 0)
(0.07805623196 -0.02730406689 0)
(0.07707570184 0.07226706164 0)
(-0.03515026829 0.1629253108 0)
(-0.5631446731 -0.41753853 0)
(-0.4996807394 -0.3408728153 0)
(-0.456812312 -0.430567656 0)
(-0.1870278914 -0.4527227848 0)
(0.2375906474 -0.2772959497 0)
(0.4518402016 -0.1463924061 0)
(0.5305302274 -0.1625608838 0)
(0.5465259619 -0.2422228855 0)
(0.6451310153 -0.2844786527 0)
(0.6284987337 -0.3164363994 0)
(0.5764732918 -0.3143044633 0)
(0.4276676832 -0.2396597196 0)
(-0.004734718655 0.0482804961 0)
(-0.07819481256 0.392587093 0)
(-0.1701443418 0.3798416029 0)
(-0.04620614807 0.04476494498 0)
(0.459412703 0.01796303242 0)
(0.2598427165 -0.1694113462 0)
(-0.08050807213 -0.1680008521 0)
(-0.1309154234 -0.1768581714 0)
(-0.1825760942 -0.2137395122 0)
(-0.1556936518 -0.2346719339 0)
(-0.1642180844 -0.4355981382 0)
(-0.3398385187 -0.6812142296 0)
(-0.6262906345 -0.6427906033 0)
(-0.6982128032 -0.4282274849 0)
(-0.7462855659 -0.3190995035 0)
(-0.8948642507 -0.3058019181 0)
(-1.140293951 0.3011834497 0)
(-1.171176192 0.3716673131 0)
(-1.173275234 0.4263749228 0)
(-1.135410382 0.4352675228 0)
(-1.060007091 0.5028339572 0)
(-0.9834526441 0.5857671073 0)
(-0.8460795169 0.6481620248 0)
(-0.6652388152 0.6298788462 0)
(-0.5368100707 0.5824895449 0)
(-0.4389033256 0.5497240195 0)
(-0.3615323968 0.5229396283 0)
(-0.1819680067 0.5538559695 0)
(0.1312585023 0.1937356102 0)
(0.1395212404 0.1332416642 0)
(0.1587408016 0.06425702914 0)
(0.05394703202 -0.07781076081 0)
(-0.08531302452 -0.08424133667 0)
(-0.2563621433 -0.04501496785 0)
(-0.281739141 0.04508554062 0)
(-0.106353908 -0.1981629253 0)
(-0.04400424935 -0.08118638761 0)
(-0.00550552486 -0.3584181567 0)
(0.0022932574 -0.2975720432 0)
(0.0351735314 -0.2536100261 0)
(0.07253294573 -0.1901364332 0)
(0.0951914049 -0.1335849217 0)
(0.0868890645 -0.09095017168 0)
(0.06881363079 -0.07056594544 0)
(0.03025168575 -0.05259583137 0)
(-0.05724929374 -0.1192583001 0)
(0.1401093316 -0.08041852656 0)
(-0.5768985069 -0.4344941682 0)
(-0.5584483718 -0.3115324187 0)
(-0.4530538851 -0.1952266473 0)
(-0.3140440469 -0.1927937932 0)
(-0.9465560976 -0.8620072798 0)
(-1.120914686 -0.7082021943 0)
(-1.165240829 -0.5458971034 0)
(-0.9419704007 -0.4789146974 0)
(-0.5843119789 0.690333188 0)
(0.5110023614 -0.1621649934 0)
(0.4570263123 -0.1458962097 0)
(0.3843976823 -0.1089235959 0)
(0.336746856 -0.1411453709 0)
(0.006868374556 -0.1114062718 0)
(-0.1170705241 0.02332616552 0)
(-0.1497087537 0.1805681544 0)
(-0.03584269437 0.2723211512 0)
(0.4439991239 0.1140437896 0)
(0.06768734336 -0.1573127476 0)
(-0.04827742077 -0.1477218301 0)
(-0.1555323642 -0.2112498581 0)
(-0.209168297 -0.2233559298 0)
(-0.2171237362 -0.2352876351 0)
(-0.1697133848 -0.3708989064 0)
(-0.2020925963 -0.6198196606 0)
(-0.4935092388 -0.5646050712 0)
(-0.5425593302 -0.3505582576 0)
(-0.6274201351 -0.2979167735 0)
(-0.8402267985 -0.3005924489 0)
(-1.016474972 0.2881762341 0)
(-1.03048101 0.3731227038 0)
(-1.031158001 0.4538035885 0)
(-1.004377985 0.515999726 0)
(-0.9531741799 0.5913356443 0)
(-0.8915881963 0.6730043112 0)
(-0.7515466716 0.7278353903 0)
(-0.5458968875 0.6632967495 0)
(-0.41235582 0.5498316319 0)
(-0.3104244476 0.4728395356 0)
(-0.2705505353 0.4171463298 0)
(-0.2128398801 0.3697246598 0)
(0.1458489468 0.2908183804 0)
(0.1879836392 0.1930030477 0)
(0.1881742126 0.1342429197 0)
(0.1093092928 0.0006629256763 0)
(-0.02491814003 -0.04778357838 0)
(-0.3021932541 -0.01411046463 0)
(-0.3292398668 0.05202842799 0)
(-0.1618790619 -0.2948463416 0)
(-0.4965288853 -0.2992419215 0)
(-0.5692820949 -0.7686379981 0)
(-0.6182739777 -0.7740772824 0)
(-0.5540018137 -0.761076903 0)
(-0.4105171997 -0.7431469229 0)
(-0.2332468975 -0.7240437824 0)
(-0.1196978307 -0.7045029259 0)
(0.0109849056 -0.6114986239 0)
(0.06268854789 -0.5089106487 0)
(-0.3277920946 -0.5986370544 0)
(-0.6461151306 -0.4747602942 0)
(-0.6526564826 -0.3710215337 0)
(-0.5914898217 -0.2629488854 0)
(-0.4419625253 -0.1256520406 0)
(-0.2359375764 -0.1175069862 0)
(-0.8931192776 -0.6772830933 0)
(-1.282876427 -0.6261717814 0)
(-1.000307794 -0.5413519813 0)
(-0.7754447205 -0.4812035937 0)
(-0.4779499881 0.8993064308 0)
(0.427198134 -0.08956748423 0)
(0.297373522 0.007887356828 0)
(-0.09085858804 0.06956979287 0)
(-0.09436572908 -0.03747706777 0)
(-0.08913372527 -0.1118746904 0)
(-0.02562843969 -0.1315884287 0)
(-0.09322564334 0.105484073 0)
(0.0782919502 0.2211236182 0)
(0.6043020732 0.09853789386 0)
(0.02371611624 -0.06435803673 0)
(-0.05636684723 -0.1719233302 0)
(-0.1216297522 -0.230286608 0)
(-0.1795818128 -0.2243089625 0)
(-0.1707297797 -0.2214304909 0)
(-0.1155609909 -0.3317926793 0)
(-0.06145473598 -0.5547430233 0)
(-0.2721580257 -0.4264095636 0)
(-0.3164438579 -0.2624669367 0)
(-0.4740472692 -0.2848075059 0)
(-0.7611150587 -0.2944551996 0)
(-0.8567842669 0.2800906771 0)
(-0.8578553413 0.3783783247 0)
(-0.8566716587 0.4814557865 0)
(-0.8432738762 0.5784233629 0)
(-0.8149868149 0.6707910398 0)
(-0.7753525114 0.7582361371 0)
(-0.6459574043 0.8197870611 0)
(-0.510574261 0.6427023211 0)
(-0.3730811201 0.5070932954 0)
(-0.2842475054 0.412872045 0)
(-0.2907468813 0.3384441525 0)
(-0.336573958 0.3130969802 0)
(-0.2201285455 0.2866233031 0)
(0.1523819653 0.213908105 0)
(0.1930180394 0.1754083581 0)
(0.1699929891 0.1072285483 0)
(0.08592751564 0.1593585248 0)
(-0.3117367515 0.03339743479 0)
(-0.3593265737 0.06487351242 0)
(-0.5977558058 -0.6749068058 0)
(-0.6191547978 -0.6409986272 0)
(-0.6420019298 -0.5691815208 0)
(-0.6700097899 -0.5131599076 0)
(-0.700597423 -0.4581675356 0)
(-0.7020670976 -0.379921187 0)
(-0.6310768663 -0.2619196308 0)
(-0.425143976 -0.07989674922 0)
(-0.1929433998 -0.1135928595 0)
(-0.8363699423 -0.4194532012 0)
(-1.420994779 -0.5793010283 0)
(-0.7894816224 -0.5329055898 0)
(0.7626100433 -0.4444399179 0)
(-0.4946097913 0.8843708115 0)
(0.3041265965 -0.001622572962 0)
(-0.09641006413 0.1667999499 0)
(-0.1428593801 -0.0001036009082 0)
(-0.1204726282 -0.07792857136 0)
(-0.1108931472 -0.0805361388 0)
(-0.05466073753 -0.1055541018 0)
(-0.1187276942 0.1117944714 0)
(0.1803169559 0.1747936686 0)
(0.7858530778 0.07620047843 0)
(0.08711408506 -0.1057512867 0)
(-0.109795925 -0.03880483092 0)
(-0.07957285557 -0.1754889393 0)
(-0.1880358826 -0.2194658699 0)
(-0.1509484906 -0.1904100538 0)
(-0.06165328613 -0.2728392534 0)
(0.1043399137 -0.4515490864 0)
(-0.05874181586 -0.249632776 0)
(-0.11864674 -0.1857817707 0)
(-0.298370501 -0.2823311891 0)
(-0.6621590544 -0.2817093657 0)
(-0.6934383493 0.2757689022 0)
(-0.6868358224 0.3847291867 0)
(-0.6830356108 0.501503902 0)
(-0.6781636599 0.6197499476 0)
(-0.6682232715 0.7293842626 0)
(-0.6526833592 0.8282373717 0)
(-0.616327555 0.8602608255 0)
(-0.4843157676 0.641415967 0)
(-0.3577849545 0.479637635 0)
(-0.2949103575 0.3852345246 0)
(-0.2996574237 0.3301692141 0)
(-0.3428656486 0.3040912704 0)
(-0.3916047474 0.2998628604 0)
(-0.2999417175 0.3074090477 0)
(-0.03297034756 0.2972591682 0)
(0.04461844395 0.2789446069 0)
(-0.2605798594 0.432495548 0)
(-0.5570206564 -0.05827419605 0)
(-0.3670985648 0.09017781132 0)
(-0.7238361022 -0.5111761641 0)
(-0.7425342069 -0.4296322142 0)
(-0.6720629539 -0.3010016887 0)
(-0.5206939649 -0.1294818347 0)
(-0.3507921756 -0.1114593458 0)
(-0.6986077304 -0.2467598782 0)
(-1.465731584 -0.5663793397 0)
(-0.6560721482 -0.5255611096 0)
(-0.5688124602 0.7698682614 0)
(-0.5238656384 0.804262315 0)
(-0.09565608015 0.1415629253 0)
(-0.1085458352 -0.008693286606 0)
(-0.08280091875 -0.05828359382 0)
(-0.08821004933 -0.07033512584 0)
(-0.08215610721 -0.07442542126 0)
(-0.06098839456 -0.04442130201 0)
(0.1153257365 -0.04022909314 0)
(0.2755406431 0.07478640573 0)
(0.9737190967 0.04240587524 0)
(0.2253555535 -0.09686333948 0)
(0.1423131251 -0.07475959769 0)
(0.1331853174 0.1212057885 0)
(-0.265161044 -0.05615018456 0)
(-0.3675073169 -0.04134179793 0)
(-0.1343289705 -0.2148330915 0)
(-0.04549959123 -0.2331895394 0)
(-0.005007203223 -0.2011222144 0)
(-0.04844596526 -0.1584541575 0)
(-0.08633662143 -0.3108422828 0)
(-0.5540181311 -0.2500979704 0)
(-0.5466606476 0.27109853 0)
(-0.5372808241 0.3910264329 0)
(-0.5320409105 0.5150556158 0)
(-0.5313987902 0.6432808601 0)
(-0.534402712 0.7644961328 0)
(-0.5423919696 0.8742587262 0)
(-0.5587667764 0.9109029565 0)
(-0.4719629199 0.6755554339 0)
(-0.3674196649 0.4934050319 0)
(-0.3211860783 0.4100363502 0)
(-0.3217232925 0.3763164856 0)
(-0.3496234515 0.3711576277 0)
(-0.3874128921 0.3853797311 0)
(-0.4315266507 0.4048264886 0)
(-0.4962612427 0.413096198 0)
(-0.593000816 0.4504355648 0)
(-0.6858215759 0.5671456237 0)
(-0.6053778192 -0.2004616912 0)
(-0.3547626523 0.1410338692 0)
(-0.7150389408 -0.3811999273 0)
(-0.6161529227 -0.2284447869 0)
(-0.4640164003 -0.1530323537 0)
(-0.5791175923 -0.1569705069 0)
(-1.460901042 -0.5603665954 0)
(0.7250402135 -0.5397919026 0)
(0.5780614571 0.551430815 0)
(0.3829170274 0.1435900902 0)
(-0.0571589187 0.09908537918 0)
(-0.02779946618 -0.06964222405 0)
(-0.01732437605 -0.07114316561 0)
(-0.06747386599 -0.0755050529 0)
(-0.04800661036 -0.08723031946 0)
(-0.02252696839 -0.08014108273 0)
(0.02493684895 -0.04902777495 0)
(0.4931076689 0.07283380758 0)
(1.115222973 -0.002924698977 0)
(0.3650331287 -0.07166476808 0)
(0.371735613 0.02029053795 0)
(0.1997762759 -0.02118457591 0)
(-0.05383746139 -0.2491472263 0)
(-0.3296121563 -0.3891431416 0)
(-0.3864531389 -0.4076957331 0)
(-0.3877488286 -0.420325153 0)
(-0.3014490124 -0.3050556597 0)
(-0.1552972921 -0.2122536649 0)
(0.05158144586 -0.2052198752 0)
(-0.4470281552 -0.1742614154 0)
(-0.4215996686 0.2646548785 0)
(-0.4123023894 0.3979796069 0)
(-0.4079114447 0.5258005778 0)
(-0.4113963038 0.6556954339 0)
(-0.4265966485 0.7794540486 0)
(-0.4591175562 0.888936166 0)
(-0.5361907409 0.9601797756 0)
(-0.4951828233 0.7875680255 0)
(-0.4274380033 0.6100736946 0)
(-0.3904629652 0.5278717929 0)
(-0.3774087024 0.5027509106 0)
(-0.3779867671 0.5106164692 0)
(-0.3857226256 0.5353680549 0)
(-0.4011670645 0.5556842008 0)
(-0.4315715449 0.5320463 0)
(-0.4582969886 0.5756520102 0)
(-0.5242077289 0.6983778135 0)
(-0.5400687947 -0.2417796064 0)
(-0.3404366015 0.2039342244 0)
(-1.397332792 -0.5501935501 0)
(0.9772570914 -0.4738470465 0)
(0.7843608805 0.2942697615 0)
(0.2089434599 0.005209804328 0)
(-0.02498283313 -0.05072614216 0)
(-0.03398143297 0.008044828016 0)
(-0.06570783338 -0.01078730068 0)
(-0.06214056936 -0.02714567243 0)
(-0.03012131144 -0.06673884819 0)
(0.00855395713 -0.08679371086 0)
(0.05735928956 -0.06339052128 0)
(0.2923164587 -0.005217283823 0)
(0.9401090095 -0.02047973477 0)
(0.4292249659 -0.08518256374 0)
(0.3502997547 -0.0536924892 0)
(0.2077756181 -0.1297447184 0)
(-0.1472509862 -0.3452557826 0)
(-0.314131244 -0.4302188756 0)
(-0.3863101756 -0.4987246599 0)
(-0.5064696088 -0.7124115815 0)
(-0.4655303423 -0.6807678361 0)
(-0.4071996118 -0.6172065168 0)
(-0.3417144984 -0.5368601027 0)
(-0.3193191159 -0.3125472919 0)
(-0.308486575 0.2812640103 0)
(-0.309892184 0.4079267169 0)
(-0.3099834284 0.5348030107 0)
(-0.3197158651 0.6587905021 0)
(-0.3489798186 0.7736852639 0)
(-0.3998040041 0.866789014 0)
(-0.4643777399 0.9366403877 0)
(-0.5322929518 0.9663926769 0)
(-0.5233749755 0.8892500534 0)
(-0.4821455277 0.8122307013 0)
(-0.4294802226 0.7660931882 0)
(-0.3941199491 0.7479490959 0)
(-0.3717437446 0.7496178559 0)
(-0.3617751926 0.7500611293 0)
(-0.3571851327 0.7261669821 0)
(-0.352099435 0.7347347075 0)
(-0.3918684975 0.7909824033 0)
(-0.5041950003 -0.2800949071 0)
(-0.323261829 0.2751426782 0)
(0.6815043072 0.0520697995 0)
(0.3735902404 0.07929868148 0)
(0.124733208 -0.02910135055 0)
(-0.06713008572 0.03914275557 0)
(-0.02933232922 0.05674887851 0)
(-0.03525701222 0.05364682389 0)
(-0.0375271588 -0.04067919567 0)
(0.01726726254 -0.08488023264 0)
(0.05947367343 -0.08722699237 0)
(0.1570934901 -0.03897683079 0)
(0.482446001 -0.008718499451 0)
(0.249809875 -0.09020318365 0)
(0.2487395467 -0.1045362907 0)
(0.1161765106 -0.1387265007 0)
(-0.003054106714 -0.2183424399 0)
(-0.2215068588 -0.3253233774 0)
(-0.2370396666 -0.265945522 0)
(-0.3613128148 -0.6044599018 0)
(-0.3946292649 -0.6988198586 0)
(-0.3224195431 -0.5943971357 0)