/*--------------------------------*- C++ -*----------------------------------*\
  =========                 |
  \\      /  F ield         | OpenFOAM: The Open Source CFD Toolbox
   \\    /   O peration     | Website:  https://openfoam.org
    \\  /    A nd           | Version:  8
     \\/     M anipulation  |
\*---------------------------------------------------------------------------*/
FoamFile
{
    version     2.0;
    format      ascii;
    class       scalarField;
    location    "1.7/lagrangian/reactingCloud1";
    object      d;
}
// * * * * * * * * * * * * * * * * * * * * * * * * * * * * * * * * * * * * * //


130
(
0.0005600880268
0.0008552576017
0.000562520157
0.0006467477976
0.0005318828872
0.0005372050577
0.00055385879
0.001089998394
0.0009524226152
0.001042045238
0.0005642614651
0.0008253479671
0.0009671414814
0.0008117261007
0.0005112002949
0.00102541882
0.0007659497292
0.0006415548581
0.0008795747892
0.0005529971443
0.0005637748035
0.0008929692839
0.0006075623728
0.0007591865787
0.0006613988538
0.0005063355962
0.0009101089505
0.0007316455987
0.0005280516515
0.0005151958035
0.0007940959236
0.0006855429825
0.0008152325116
0.00098843301
0.0005599482459
0.0007766928132
0.0005701707177
0.0007677139732
0.001088070239
0.0006532976282
0.0007005168229
0.0006329695004
0.0006819192539
0.0006501770777
0.0007983696265
0.0006850986111
0.0006326076717
0.0005322388684
0.0006012222707
0.001095608298
0.0005076926026
0.0008369074052
0.001056081987
0.0005148438807
0.0005113215736
0.001101941221
0.0006269311173
0.000774625838
0.0006248613444
0.00059870943
0.0009987472802
0.0005106728316
0.000574495509
0.0006735200017
0.0005897284902
0.001186826396
0.000579216514
0.001013159963
0.0005229638781
0.0005400637143
0.001079517179
0.0006039352735
0.0005046288517
0.0009051639926
0.0005263981898
0.0005939307351
0.0010238286
0.001158983206
0.0006269447177
0.0008360779192
0.0009958626345
0.0006286463945
0.0007536054643
0.0009911550274
0.0005262765102
0.0006339923465
0.000743927162
0.0008821999386
0.001002573067
0.0009235295513
0.0007175182902
0.0005870379264
0.0005116837568
0.0006280635183
0.0005445437915
0.0007190552656
0.0007703243993
0.001048705356
0.0009036278942
0.0005574192115
0.0009917001797
0.0008628293842
0.0005398100285
0.0005024124484
0.0005303089386
0.0007682525413
0.0007745705433
0.0008477283458
0.0008283353735
0.000548452688
0.000925234262
0.001140592818
0.001004951516
0.0008907809922
0.0005895893902
0.0005441147299
0.000618010942
0.0005466720825
0.0006227745678
0.0008982024474
0.000576447648
0.0006288177801
0.0005006475466
0.0006855429825
0.001035868636
0.0007445044238
0.0006248934187
0.0006328282245
0.0005232357339
0.0006189195734
)


// ************************************************************************* //
