/*--------------------------------*- C++ -*----------------------------------*\
  =========                 |
  \\      /  F ield         | OpenFOAM: The Open Source CFD Toolbox
   \\    /   O peration     | Website:  https://openfoam.org
    \\  /    A nd           | Version:  8
     \\/     M anipulation  |
\*---------------------------------------------------------------------------*/
FoamFile
{
    version     2.0;
    format      ascii;
    class       scalarField;
    location    "1.7/lagrangian/reactingCloud1";
    object      nParticle;
}
// * * * * * * * * * * * * * * * * * * * * * * * * * * * * * * * * * * * * * //


130
(
3667.153918
105.4848585
112.7532189
106.1765787
126.6535966
120.5910022
107.518219
100.2165603
102.7219648
100.5758255
106.9363042
100.7206514
100.6664375
101.9240576
106.1904483
191.8538855
100.2869355
100.027931
100.1758225
138.6224777
161.8368113
166.4989779
408.561926
2167.656694
100.1994796
100.7269005
100.2782087
100.1491205
6471.978802
6980.786637
100.0107497
2987.866444
640.8918036
101.2010534
107.8339019
104.315013
115.9251763
108.9870045
103.5959957
118.0717218
115.4973213
3763.190326
106.1907445
3467.786585
276.5182558
320.8707544
766.0355922
103.0050527
102.1865444
146.0410601
102.187624
102.9879571
100.0044549
100.7898861
640.1452003
100.9765689
3838.078359
101.5057908
4070.148655
102.5655224
100.1430965
105.1569631
101.9224436
100.3504428
107.2093259
140.4954413
100.5018243
950.8274692
103.4448266
100.8120135
784.6531236
4125.737667
100.7764126
100.5704274
106.1995492
4582.774842
882.9614043
100.49723
102.9400785
100.18874
963.855491
104.4625458
100.6188444
100.1324005
118.4837139
100.9957752
103.942079
1370.930479
100.4158067
100.5209935
2570.04907
105.5956412
101.657853
100.9833435
100.1403481
2576.892791
2120.038035
122.508081
1298.417252
100.0447514
100.2755793
776.8282899
104.3311057
108.0594235
116.109346
102.7383887
104.474725
277.1664872
101.0562929
102.0043107
100.3685802
100.0048201
100.1928332
101.1910475
103.9493341
105.6170439
104.4492321
100.1317178
3966.345631
101.1640279
103.1316962
164.0592482
7534.046945
100.3015321
100.8592729
100.2883343
102.2595537
101.3918755
104.1454226
101.5144017
)


// ************************************************************************* //
