/*--------------------------------*- C++ -*----------------------------------*\
  =========                 |
  \\      /  F ield         | OpenFOAM: The Open Source CFD Toolbox
   \\    /   O peration     | Website:  https://openfoam.org
    \\  /    A nd           | Version:  8
     \\/     M anipulation  |
\*---------------------------------------------------------------------------*/
FoamFile
{
    version     2.0;
    format      ascii;
    class       volScalarField;
    location    "0.7";
    object      alphat;
}
// * * * * * * * * * * * * * * * * * * * * * * * * * * * * * * * * * * * * * //

dimensions      [1 -1 -1 0 0 0 0];

internalField   nonuniform List<scalar> 
67410
(
2.645111698e-05
3.714824371e-05
8.840545765e-05
0.0001917261682
0.0003156156094
9.480450264e-05
0.0001050043573
0.0001111606773
0.0001143384283
0.0001159197443
0.0001172773728
0.0001195289425
0.0001229538832
0.0001264735624
0.0001278838057
0.000124772995
0.0001169318229
0.0001114825775
0.00011255804
0.0001152317009
0.0001204546013
0.0001288127564
0.0001397176392
0.0001509006201
0.0001601930091
0.0001669367825
0.0001431882073
0.0001723006209
0.0002308090918
0.0003470674663
0.0001016449586
0.0001163573677
0.0001258466305
0.0001308132251
0.0001329193451
0.0001340988778
0.0001364111644
0.0001413472406
0.0001485123845
0.0001552625323
0.0001580661923
0.0001534992977
0.0001391838339
0.0001228433694
0.0001210128952
0.0001217890193
0.0001257626491
0.0001333691338
0.0001444815455
0.000155933039
0.0001640577188
0.0001680547571
0.0001338405719
8.969802115e-05
9.77317012e-05
0.00011005757
0.0001236952492
0.0001343447216
0.0001407397893
0.0001435354531
0.0001443645512
0.0001454077795
0.0001490340015
0.0001564672408
0.000166177953
0.0001745720666
0.0001782756146
0.000174550869
0.0001600696759
0.0001375758104
0.0001329135055
0.0001320626539
0.0001348783297
0.0001429406002
0.000156617574
0.0001702067682
0.000176941732
0.0001737317526
9.880338036e-05
0.0001099056594
0.0001185372545
0.0001293245797
0.0001398064808
0.0001474220342
0.0001514204209
0.000152537096
0.0001523915134
0.0001533095023
0.000157733246
0.0001664414494
0.000177150561
0.000186015056
0.000190224733
0.0001880030221
0.0001760027487
0.0001520657477
0.0001465803726
0.000146614746
0.0001507851612
0.0001615109951
0.0001779534864
0.0001929816661
0.0001998607775
0.0001923336415
0.0001092803134
0.0001222843057
0.0001308930846
0.0001411152801
0.0001502660434
0.0001562940611
0.0001589219136
0.0001589520991
0.0001579762782
0.0001583900143
0.0001626283288
0.0001712898191
0.0001820143377
0.0001912229369
0.0001964980347
0.0001955814235
0.0001852587849
0.0001632053806
0.0001592727776
0.0001618952316
0.0001690629061
0.0001826836907
0.0001997159707
0.0002138659122
0.0002222045279
0.0002180603486
0.0001147503476
0.0001291461782
0.0001383046106
0.0001485167274
0.0001570497012
0.0001623180388
0.0001642670316
0.0001636187743
0.0001618248756
0.0001612462257
0.0001642987927
0.0001717249731
0.0001818099982
0.0001915329537
0.0001978921291
0.0001979084702
0.0001885118783
0.0001710746441
0.0001705872787
0.000175974384
0.0001857670639
0.0002006446553
0.000216262937
0.0002281097193
0.0002383898485
0.0002409015877
0.0001177556468
0.0001332389323
0.0001428494486
0.000153059934
0.0001613303169
0.0001663780911
0.00016817306
0.000167274768
0.0001647886661
0.0001630865654
0.0001644229222
0.0001696754105
0.0001779199483
0.0001868770552
0.0001935060621
0.0001942042379
0.0001866460398
0.0001772930253
0.0001807557107
0.0001880971404
0.0001991776483
0.0002137581648
0.0002274327468
0.0002392256908
0.0002525920159
0.0002581374483
0.0001194599432
0.0001356343406
0.0001453516832
0.0001554701486
0.0001637259512
0.0001689494433
0.0001710581365
0.000170197117
0.0001676130174
0.0001654964673
0.0001657479102
0.0001690587063
0.0001747523209
0.0001811255322
0.0001848276916
0.0001855996468
0.0001827210465
0.0001831935494
0.0001899430273
0.0001985819377
0.0002100274874
0.0002237368025
0.0002363051438
0.0002491924783
0.0002662190913
0.0002726971359
0.000120477835
0.000136893474
0.0001463264628
0.0001562380314
0.0001646362403
0.0001703033409
0.0001729433435
0.0001725962702
0.000170701457
0.0001693408923
0.0001702607837
0.0001741736159
0.0001805791147
0.0001876384753
0.0001824484325
0.0001802609583
0.0001815602512
0.0001891620033
0.0001988680871
0.0002093964078
0.0002216571992
0.0002347032789
0.0002443224384
0.0002552672703
0.0002758642028
0.0002828854051
0.0001213401176
0.000137536752
0.0001462925137
0.000155816523
0.0001644076605
0.0001706982491
0.0001740771514
0.0001747577683
0.0001743269647
0.0001749335959
0.0001785606739
0.0001867848578
0.0002010563366
0.0002187914252
0.0001957231501
0.000186863568
0.0001853368183
0.0001954002298
0.000209007378
0.0002235353483
0.0002385167785
0.0002517548432
0.0002546900221
0.0002533124997
0.0002764934425
0.0002857420099
0.0001227123533
0.0001382458648
0.0001459097173
0.0001547168426
0.000163366471
0.0001703195701
0.0001748253702
0.0001771381087
0.000179057529
0.0001830594614
0.000192191627
0.0002111222014
0.0002436412363
0.0002789713817
0.0002264360475
0.000202658929
0.0001925518474
0.0002019617152
0.0002213308469
0.0002424830792
0.0002626176469
0.0002783790188
0.0002752323866
0.0002445868783
0.0002633524665
0.0002812890606
0.0001253228325
0.0001399317334
0.0001461623935
0.0001537475971
0.0001620131644
0.0001695513785
0.0001756076935
0.0001804798316
0.0001861216812
0.0001960454388
0.0002168723941
0.0002571748829
0.0003132598539
0.0003642792928
0.0002910677102
0.0002319513988
0.0002038264488
0.0002084289169
0.0002353209545
0.0002650800708
0.0002919019862
0.0003117720594
0.0003089092941
0.0002546371521
0.000240299589
0.0002742010244
0.0001295510392
0.0001436595133
0.0001487417029
0.0001548019749
0.0001617512306
0.0001693809374
0.0001776034914
0.0001863332969
0.0001977161648
0.0002183409877
0.0002599651687
0.0003255506436
0.000401766959
0.0004735225985
0.0003953818386
0.0002911717661
0.0002256184952
0.0002138963152
0.0002479732348
0.0002878819549
0.0003221089629
0.0003460722365
0.0003419973361
0.0002968964848
0.000243946595
0.0002648800327
0.0001351882323
0.0001505884256
0.0001566403904
0.000162358032
0.0001666056634
0.0001718899327
0.0001822835658
0.0001961365931
0.0002156950847
0.0002526183318
0.0003172335433
0.0004010638068
0.0004951163828
0.0005764885841
0.0005046051954
0.0003716096214
0.0002645206088
0.0002191265753
0.0002523628226
0.0003043876138
0.0003455489647
0.0003710217777
0.0003691604549
0.000330342803
0.0002828460114
0.0002325899734
0.0001419290077
0.0001619812669
0.0001732200932
0.0001819204078
0.0001830983037
0.0001798200559
0.0001875635994
0.0002062904317
0.0002340828407
0.0002829052308
0.0003562693098
0.0004437193415
0.0005446918002
0.0006236247354
0.0005174146094
0.0003824287768
0.0002750746084
0.0002251965638
0.0002417301364
0.0003007616116
0.0003495506911
0.0003792125315
0.0003810766931
0.0003418304251
0.0002895388701
0.0002239597703
0.000149886161
0.0001781867442
0.0001974924441
0.0002117307093
0.0002135878498
0.0001986938153
0.0001863512081
0.0001992473111
0.0002191008918
0.0002398912164
0.0002706197331
0.0003242377968
0.0004013284648
0.0004573037924
0.0003968979215
0.0002986375856
0.000258011054
0.0002402038132
0.0002710467495
0.0002277066926
0.0002914866779
0.0003509702364
0.0003600739128
0.0002845814882
0.0002026727307
0.0001990305811
0.0001593525877
0.0001976308107
0.0002239113495
0.0002427856889
0.0002500264282
0.0002375783092
0.0001998524452
0.0001863838766
0.0002050919017
0.0002314058469
0.0002524374452
0.0002774343511
0.0003141041671
0.0003435701927
0.000306061552
0.0002788433236
0.0002656056459
0.0002956587593
0.0003748749154
0.0002093452109
0.0002122616376
0.0002755170183
0.0003005623114
0.0002100890669
0.0001717104037
0.0001948628082
0.0001691752487
0.0002165656252
0.0002471598448
0.0002705079745
0.0002835667657
0.0002790903521
0.0002425210055
0.0001871007135
0.0001757420692
0.0002010887048
0.0002317202416
0.0002525315585
0.0002708452671
0.0002845043462
0.0002771315512
0.0002758790953
0.000310395363
0.0004053895127
0.0005008626884
0.0003047785763
0.0002096515728
0.0002118742877
0.0002384252361
0.000166873448
0.0001466981457
0.0001708450295
0.000174671259
0.0002289125226
0.000262743311
0.0002905706368
0.0003094096388
0.0003098707068
0.0002756046827
0.0002069736704
0.0001690825788
0.0001706484665
0.0001936615718
0.0002244023342
0.0002425714045
0.0002544099799
0.0002699495164
0.000322301581
0.0004164440712
0.000514100835
0.000554014764
0.0004512043855
0.0003219377884
0.0002253372011
0.0001993523955
0.0001582028692
0.0001376662168
0.0001540479573
0.000166913413
0.0002229920078
0.0002629533736
0.0002941914058
0.0003153997507
0.0003180232627
0.0002825585832
0.000204981688
0.0001811906389
0.0001743836582
0.0001614273257
0.0001793804367
0.0002074428836
0.0002216653831
0.0002300049952
0.0002523350172
0.0003077440006
0.0003855583173
0.0004379389378
0.0003180847818
0.0002332082995
0.0001932127102
0.0001768827861
0.0001514919599
0.0001349123829
0.0001485362409
0.0001538185738
0.0001789264324
0.0002094534918
0.000239620318
0.0002613952665
0.0002616923977
0.0002238952876
0.0001955170156
0.00019651392
0.0001942015809
0.0001700090891
0.0001571880997
0.000162687409
0.000184298277
0.0001945268889
0.0002020653953
0.0002263751891
0.0002770143842
0.0003272521514
0.0002288713152
0.0001959845582
0.0001819004356
0.0001660734044
0.0001446138815
0.0001328351148
0.0001443172755
0.0001528436086
0.0001640319176
0.0001792027417
0.00019585006
0.0002043385006
0.000198601236
0.0001989929696
0.0002103465586
0.0002144079358
0.0002112829771
0.0001875948386
0.0001722415711
0.000156554705
0.0001499771861
0.0001619790442
0.0001684100611
0.0001778337439
0.0002022016751
0.0002395949872
0.0001911813173
0.0001831057898
0.0001741535494
0.0001566893202
0.0001363585629
0.0001298718514
0.0001411490358
0.000153308509
0.0001552732693
0.0001622906748
0.0001741700525
0.000188277099
0.0002034657196
0.0002176065763
0.0002269284829
0.00022987534
0.0002262001669
0.0002046116775
0.0001892641403
0.0001716343535
0.0001544827314
0.0001430005074
0.0001439808338
0.0001509291371
0.0001637557811
0.0001845917168
0.0001743393683
0.0001739959026
0.0001654502513
0.0001461710042
0.0001283969517
0.0001247125555
0.0001369695458
0.0001554586899
0.0001597587099
0.0001717898619
0.0001897297643
0.0002072380646
0.0002222487634
0.0002338213792
0.0002420928109
0.0002464058497
0.0002434422706
0.0002238630069
0.0002052964229
0.0001857632285
0.0001658996861
0.0001490343957
0.0001370471179
0.0001347108083
0.0001422655523
0.0001566817076
0.0001623299163
0.0001640328704
0.0001546677454
0.0001352717481
0.0001204519696
0.0001169405987
0.0001283781029
0.0001569666201
0.0001686913315
0.0001861021016
0.000205626574
0.0002216785788
0.0002353940912
0.0002479523512
0.0002590566422
0.0002660578481
0.0002629601477
0.0002436566554
0.0002203561864
0.000196583136
0.0001732665934
0.0001539931402
0.0001396225449
0.0001302026714
0.0001293693661
0.0001389274923
0.0001487061586
0.0001522441132
0.0001407043166
0.0001232126801
0.0001117501615
0.0001075619047
0.0001580529962
0.0001780911763
0.0001980454714
0.0002163119881
0.0002317169292
0.0002455030967
0.0002601527307
0.000274101778
0.0002820944936
0.0002772469961
0.0002599477669
0.0002335295621
0.0002031180406
0.0001719268137
0.000151275049
0.0001367841823
0.0001285182395
0.0001255464587
0.0001261946448
0.0001345658935
0.0001390396229
0.0001268094267
0.0001146349644
0.0001049761657
9.885043748e-05
0.0001557943944
0.0001616668176
0.0001670802214
0.0001879709022
0.0002133952318
0.0002326215393
0.0002531021039
0.0002721947181
0.000282090252
0.0002771446337
0.0002611177036
0.0002354039746
0.0002025702442
0.0001729714102
0.0001480273107
0.0001305083703
0.0001254898283
0.0001433705691
0.0001492481658
0.0001300554743
0.0001321991245
0.0001729491497
0.0001204823735
9.986823314e-05
9.357951498e-05
0.0001434460891
0.0001504138983
0.0001583090191
0.0001766509891
0.0001990412534
0.0002184203776
0.0002343147661
0.0002501009698
0.0002623926471
0.0002632592747
0.0002468975716
0.0002162533656
0.000188005518
0.0001636852952
0.0001431740586
0.0001286379278
0.0001329704882
0.0001361414443
0.0001291402928
0.0001272307598
0.0001636731259
0.0002414393802
0.0001824899807
0.0001329053059
9.93850011e-05
0.0001412883186
0.0001521151907
0.0001539646143
0.0001604180368
0.0001758467858
0.0001961691263
0.0002145375439
0.0002282876429
0.0002375087901
0.0002389356049
0.000223734413
0.0001959195929
0.0001728691361
0.0001534502838
0.0001367406227
0.0001233369544
0.0001260182674
0.0001268848193
0.0001232254103
0.0001549896797
0.0002235478631
0.0002928270907
0.0002630669803
0.0002072457389
0.0001445287463
9.910440582e-05
0.0001483319928
0.0001629608994
0.0001647060511
0.0001657899622
0.0001665623119
0.0001714967656
0.0001861316795
0.0002025474626
0.0002135205003
0.0002145932216
0.0001993839616
0.0001771933332
0.00015989641
0.0001468336116
0.0001362482098
0.0001229674616
0.0001246623621
0.0001241164248
0.0001218576662
0.000165123229
0.0002284076982
0.0002863229437
0.0002534159897
0.0002016355694
0.000145863524
9.935797523e-05
1.8685978e-05
2.405445406e-05
6.411606371e-05
0.0001503759828
0.0002567912288
0.0003542696632
9.494802097e-05
0.0001014449277
0.0001052958976
0.00010760291
0.0001093142838
0.0001110746871
0.0001130559873
0.0001147642103
0.0001152202615
0.0001137582899
0.000111225908
0.0001103555071
0.0001117971969
0.0001141296316
0.0001180283725
0.0001241682947
0.0001327430916
0.0001426811199
0.000152233808
0.0001601911607
0.0001039030584
7.129398162e-05
9.206714928e-05
0.000115944517
0.000110521602
0.0001212740886
0.0001328832669
0.0001416372552
0.0001469037738
0.0001499250071
0.0001522916955
0.0001553554632
0.0001595067912
0.000163104254
0.0001629833604
0.0001578548775
0.0001512130122
0.0001485194753
0.0001503837414
0.0001531961687
0.0001570122153
0.0001631365519
0.0001728913022
0.0001862148988
0.0002024659457
0.0002215358806
0.0002471717049
0.0001093747884
0.0001008359374
0.0001084056198
0.0001255480266
0.000144164528
0.0001595243176
0.000168907127
0.0001722186866
0.0001722803743
0.0001728181596
0.0001770797458
0.0001859153656
0.0001953181344
0.0001973583442
0.0001880204574
0.0001729778067
0.000162258316
0.0001596346432
0.0001606206272
0.0001622967982
0.0001659917976
0.0001735222804
0.0001851496405
0.0001995045799
0.0002152244762
8.861362041e-05
0.0001155759796
0.0001207243374
0.0001359519831
0.0001564995278
0.0001780324475
0.0001958809003
0.0002038430414
0.0002016266999
0.0001958657466
0.0001937794243
0.0002002805075
0.000215536764
0.0002315264841
0.0002363439685
0.0002273522234
0.0002086417366
0.0001872020171
0.0001778196181
0.000177282116
0.0001754325486
0.000175710858
0.0001805424546
0.0001904440077
0.0002032018745
0.0002115522091
9.913956384e-05
0.0001355166954
0.0001465428287
0.000164681922
0.0001897704052
0.0002181999073
0.0002403955017
0.0002445114827
0.0002328562075
0.0002190262569
0.000213920616
0.0002223041541
0.0002412890918
0.0002591427226
0.0002669563074
0.0002626759173
0.0002476439908
0.0002213843946
0.0002064761719
0.0002079917961
0.0002036771113
0.0002003915715
0.0002006707765
0.0002071130521
0.0002212970219
0.0002233794878
0.0001052695145
0.0001530210873
0.0001685281551
0.0001911036706
0.0002237900087
0.0002611138041
0.0002852781017
0.0002807321877
0.0002569871187
0.0002356658085
0.0002286132797
0.0002381315697
0.0002582363151
0.0002782139062
0.0002894271014
0.0002899756041
0.0002818830017
0.0002594696906
0.000244340852
0.0002502372491
0.0002460878
0.0002394586685
0.0002305635041
0.0002309792858
0.000252407033
0.000253471241
0.0001087042766
0.0001673792105
0.0001882269736
0.0002165862353
0.0002575848154
0.0003012800821
0.0003217744896
0.0003050265801
0.0002726286789
0.000246387925
0.0002383453725
0.0002490908697
0.0002704885456
0.00029233333
0.0003060797437
0.0003110532799
0.0003105748953
0.0002986110924
0.0002923129617
0.0003021140243
0.0002972441656
0.0002831324309
0.0002606082471
0.0002683202738
0.0003059541591
0.0003070303839
0.0001108845569
0.0001806794117
0.0002075837697
0.0002419302442
0.0002893304229
0.0003342847817
0.0003462008536
0.0003248636896
0.0002897051933
0.0002604489765
0.000249902314
0.0002596286163
0.0002791373842
0.0003002285127
0.0003165731252
0.0003262235595
0.0003323034908
0.0003354965658
0.0003475852185
0.0003591752869
0.0003476005139
0.0003188630809
0.000293292568
0.0003219922814
0.0003778872281
0.0003817803917
0.0001125496557
0.0001940127418
0.000227809982
0.0002673248731
0.0003174640783
0.0003584241259
0.0003641972121
0.0003434894782
0.0003096216301
0.0002794451522
0.0002663513925
0.0002730259864
0.0002880034303
0.000302301757
0.0003141959438
0.0003272119674
0.0003425092832
0.0003684301061
0.0004034671967
0.000412945962
0.0003958160126
0.0003603262729
0.0003370879918
0.0003788301081
0.0004466770267
0.0004611709047
0.0001141759112
0.000206979637
0.0002478882223
0.0002907322561
0.000339390234
0.0003735856142
0.0003784819535
0.0003613082194
0.0003309082844
0.0003021207358
0.0002885129857
0.0002928281339
0.0003070390336
0.0003171282907
0.000318573258
0.0003303340269
0.0003529095233
0.0003970133262
0.0004544098304
0.0004715770611
0.0004597658594
0.0004239779509
0.0003915028814
0.0004226364175
0.0004897829884
0.0005208596118
0.0001161786835
0.0002180518609
0.0002642974182
0.0003074195956
0.0003517048116
0.0003829519622
0.0003902276345
0.00037859349
0.0003540161985
0.0003296046525
0.0003174045809
0.0003216980641
0.0003385611354
0.0003524383764
0.0003410370275
0.0003592529127
0.0003775116882
0.0004217206643
0.0005024650212
0.0005426824445
0.000551911392
0.0005247223694
0.0004645591403
0.0004460875191
0.0004849795479
0.000534699517
0.0001189789591
0.0002259486818
0.0002734726227
0.0003129549172
0.0003507993372
0.0003819739651
0.0003967444252
0.0003941833903
0.000379036777
0.0003605950126
0.0003517628956
0.0003573339974
0.0003781281346
0.0004335433505
0.00043965848
0.0004113405373
0.0004142353307
0.000442025613
0.0005406873322
0.0006265888135
0.0006794449791
0.0006784403814
0.0005859431064
0.0004510761934
0.000392681653
0.0004799294415
0.0001228219386
0.0002309049398
0.0002747069071
0.000306643051
0.0003351087391
0.0003616276552
0.0003837828513
0.000396203404
0.0003977677531
0.0003914002681
0.0003878919173
0.0003981187321
0.0005301328868
0.0007663212704
0.0007179813152
0.0005351712612
0.000465067235
0.0004595781788
0.000562716611
0.0007188691807
0.0008344874744
0.0008726638887
0.0007720358271
0.000578096226
0.0003253829183
0.000346850117
0.0001274751968
0.0002344997759
0.0002709346044
0.0002924559975
0.0003084042288
0.0003241326002
0.0003448847635
0.000371468453
0.0003982167781
0.0004109067851
0.0004154461303
0.0005086592702
0.0008509298541
0.001132420319
0.001079979784
0.0007587848247
0.0005341226105
0.0004811377752
0.00056216807
0.0007953413813
0.0009653832588
0.001024282944
0.0009372961457
0.0007285176744
0.0004303656108
0.0002718776233
0.0001322813505
0.0002384658777
0.0002682308159
0.000279109374
0.0002799277269
0.0002794317354
0.0002905965898
0.0003200423662
0.0003617848166
0.0004001806243
0.0004346845174
0.0005792804587
0.0009884022022
0.001255321629
0.001182984714
0.0008642736974
0.0006208529452
0.0005181413959
0.0005295208419
0.0007994668343
0.001003389674
0.001082749379
0.001009370133
0.0008009541318
0.0004819788025
0.0002532112657
0.0001366813195
0.0002437629499
0.0002745488661
0.0002805469263
0.0002654892277
0.0002431881981
0.0002391213643
0.0002623351828
0.0003102295391
0.0003755727409
0.0004416798307
0.0005407466095
0.000813683112
0.001079397346
0.00108215505
0.0008514098744
0.0007114773106
0.0006148392684
0.0005270548445
0.000668617659
0.0009504210623
0.001048401983
0.0009937012746
0.0008069360186
0.0004630177875
0.0002868247022
0.0001409569237
0.0002521687873
0.0003013303637
0.0003124439102
0.0002941948817
0.0002534601469
0.0002212870399
0.0002201374743
0.000250098419
0.0003156188511
0.0004111108631
0.0005182439173
0.0006414739508
0.0007831573203
0.0008245623962
0.0008088718759
0.000773004963
0.0007362641359
0.0006619616739
0.000578041163
0.0005970900968
0.0008278892353
0.0007805470748
0.0005604962968
0.0003266942621
0.0002587320425
0.0001455711656
0.00026146893
0.0003333348361
0.0003804082762
0.0004001531385
0.0003624513967
0.0002848736768
0.0002232362592
0.0002123281626
0.0002479652558
0.0003287559217
0.0004456532032
0.0005572924681
0.0006515220523
0.0007206325411
0.000779038865
0.0008487208584
0.001010677657
0.001152654453
0.0008625783767
0.0006080641334
0.0006697050338
0.0005072018394
0.000392886335
0.0002962068538
0.0002555567918
0.0001488265384
0.0002645059635
0.0003526927357
0.0004470608883
0.0005228978366
0.0005186080228
0.0004310007868
0.0002917518029
0.0002175543857
0.0002077604441
0.0002363713583
0.000309594966
0.0004151356122
0.000518372189
0.0006071878207
0.0006881827262
0.00087637647
0.001223794341
0.001275974435
0.001044604147
0.0006303277361
0.000542754219
0.0004233643597
0.0003542030924
0.0002795881241
0.0002443003037
0.0001481320097
0.0002577372241
0.0003544467682
0.0004690076023
0.0005629128363
0.0005933039771
0.0005492012441
0.0004062951068
0.0002650704535
0.0002224498493
0.0002064753315
0.0002212295251
0.0002844108718
0.00037329094
0.0004622065331
0.0005400070806
0.0006444534039
0.0008719168848
0.0009986476808
0.0008284764029
0.000572443115
0.0004702721765
0.0003878912945
0.0003230459036
0.0002597276049
0.0002297824466
0.0001449441449
0.0002258436403
0.0002947098384
0.0004021198934
0.0005167790313
0.000585732909
0.0005785077741
0.0004827233824
0.0003358375237
0.0002697619595
0.0002353315733
0.0002099252743
0.0002134805655
0.0002643060407
0.0003350021885
0.0003960824866
0.0004498349319
0.0005192407974
0.0005485545314
0.0005221510682
0.0004632526342
0.0004015355819
0.0003385094787
0.0002816832087
0.0002309586739
0.0002081598881
0.0001445149306
0.0002111262427
0.0002484758303
0.0003028918206
0.0003730427519
0.0004443104115
0.00049171569
0.0004540505502
0.0003729524483
0.0003125962328
0.0002825763312
0.0002467112196
0.0002165709338
0.0002093674254
0.0002501839609
0.0003059074614
0.0003554997945
0.0003984119216
0.0004250787424
0.0004147221378
0.0003948820085
0.0003431754527
0.0002899889388
0.0002387676343
0.000198510422
0.0001786158548
0.0001438469227
0.0002007477011
0.0002247304516
0.0002575105318
0.0003034251131
0.0003616545165
0.0004129068878
0.0004081176999
0.000372412217
0.0003360582096
0.0003075680373
0.000285409251
0.0002524210027
0.0002155464543
0.000203237807
0.0002338079507
0.0002798385469
0.0003209418914
0.0003453931199
0.0003624570856
0.0003388735921
0.0002944198776
0.0002425821825
0.0002002602012
0.0001671669612
0.0001488893204
0.0001439293698
0.000195692995
0.000217023283
0.0002535840207
0.0002985155733
0.0003456356511
0.000375418045
0.0003834335226
0.000387527017
0.0003797062577
0.0003472209503
0.0003081606448
0.0002777247519
0.000246119853
0.0002024768394
0.0001932587161
0.0002162016593
0.0002514232985
0.0002750164888
0.0002880794135
0.0002724109117
0.0002366785729
0.0002001373853
0.0001695377646
0.0001453878077
0.0001288948314
0.0001437484758
0.000196449708
0.0002177758482
0.0002666512532
0.0003169989831
0.0003411535392
0.000366651354
0.0004078326692
0.0004497935382
0.0004451757943
0.0003994102114
0.0003357720176
0.0002898439131
0.0002557869036
0.0002221084769
0.0001931605321
0.0001856003898
0.0001971931456
0.0002168542843
0.0002250067127
0.0002169393358
0.0001915093528
0.0001678645135
0.000147670496
0.0001399559326
0.0001421728072
0.000195328482
0.0002156130033
0.0002638092102
0.0002970994659
0.0003181009023
0.0003680320652
0.000440447203
0.0004921714426
0.0004825999889
0.00043283961
0.0003581307845
0.0002841386993
0.0002265008045
0.0001994564697
0.0001930061883
0.0001926405097
0.0001953407569
0.0002034538603
0.0001846016681
0.0001839533541
0.0001778043226
0.0001555360763
0.000131443364
0.0001496800613
0.0001378968338
0.0001878211292
0.0001972644037
0.0002238024764
0.0002453817679
0.0002696825106
0.0003401843189
0.0004269716752
0.0004761735359
0.0004587636826
0.000402162472
0.0003162758815
0.0002201562475
0.0001806678118
0.0001635707121
0.0001643545891
0.0002022100068
0.0002580967648
0.0002578390849
0.0001783478233
0.0001665079913
0.0002166792506
0.0001518600424
0.0001197070397
0.0001478433396
0.0001323281608
0.0001784388131
0.000186385387
0.0001975687588
0.0002164949227
0.0002520157453
0.0002975441841
0.0003629323489
0.0004287632599
0.0004365125612
0.0003834419732
0.0002955208056
0.0002276277641
0.0001905273364
0.0001688906341
0.0001735859163
0.0002155056745
0.0002222068023
0.0002005732783
0.0002214667704
0.0002421188566
0.0004855737661
0.0003465647068
0.0001665946689
0.0001266269892
0.0001320351775
0.0001908147362
0.0002048314176
0.0002147082035
0.0002250566738
0.0002372499704
0.0002663038499
0.0003169650169
0.0003566739256
0.0003674145587
0.000338649426
0.0002956924475
0.0002494880024
0.0002085973067
0.0001961727892
0.0001522023966
0.0001690938032
0.000182561177
0.0001516317086
0.0001842958239
0.0004669690132
0.0007631432588
0.0006682125924
0.0002932802823
0.0001482838553
0.0001412140738
0.0001382004819
0.0002209188362
0.0002540777833
0.0002748780052
0.0002831901228
0.000281001342
0.0002738214612
0.0002681631827
0.0003015374216
0.0003235102683
0.0003087524382
0.0002847063186
0.0002481904948
0.000213282604
0.0002010548388
0.0001399913186
0.0001528832615
0.0001512524302
0.0001442831442
0.0002182677875
0.000530010215
0.0007570330425
0.0006636601512
0.0002972735874
0.0001363363067
0.0001484101724
1.163931324e-05
1.388257975e-05
4.392523306e-05
0.0001161998464
0.0002118171682
0.0003017029725
8.827784932e-05
9.52380828e-05
9.995544805e-05
0.0001030792387
0.0001054267157
0.000107458072
0.0001093102065
0.0001108144518
0.000111674929
0.0001118784806
0.0001120194799
0.0001129879951
0.0001147458947
0.0001168326745
0.0001196646091
0.0001239125892
0.0001301420265
0.000138198702
0.0001470423013
0.0001553114387
7.615945924e-05
4.129887257e-05
5.868468819e-05
8.554415491e-05
0.0001019977099
0.0001131433403
0.000124349832
0.0001331308752
0.00014027064
0.0001458200066
0.0001501934342
0.0001536597779
0.0001563309521
0.0001578507189
0.0001578285718
0.0001574122166
0.0001593076453
0.0001644650241
0.0001708858603
0.0001772075941
0.0001831271665
0.000190074728
0.0001993083979
0.0002117213621
0.0002274765768
0.0002459766899
0.0002070162348
8.257849996e-05
8.014200356e-05
8.783038274e-05
0.0001051996345
0.0001254886472
0.0001427003236
0.0001539656933
0.0001600600432
0.0001634550148
0.0001658622408
0.0001685278643
0.0001721643433
0.0001752708279
0.0001750928575
0.0001719701934
0.0001701620505
0.0001725808515
0.000178049307
0.0001845575208
0.0001903828197
0.000196454231
0.0002035616786
0.000214217587
0.0002309001405
0.0002543892722
0.0003445061969
0.0001046419045
9.810903446e-05
0.0001106620836
0.0001327536187
0.000156446983
0.0001749956594
0.0001835154941
0.0001831656656
0.0001799848357
0.0001787868408
0.0001821853691
0.0001904081069
0.0001990096116
0.0002022596247
0.000199790371
0.0001957391267
0.0001925085621
0.0001932470778
0.0001954990022
0.0001974651127
0.0001999399746
0.0002022738655
0.0002090571017
0.0002245359235
0.0002492070406
9.638495312e-05
0.0001251907405
0.0001250691684
0.0001403616687
0.0001665980319
0.0001946758058
0.000215332025
0.0002201838327
0.0002102627391
0.0001965693627
0.0001904228146
0.000196674349
0.0002123621641
0.0002284081721
0.0002368934172
0.0002378559683
0.0002361336076
0.0002301714044
0.0002262511043
0.0002209411228
0.0002126776294
0.0002065306341
0.0002029903084
0.0002087834109
0.0002261203539
0.0002486910056
0.00010339722
0.0001474117765
0.0001508822089
0.0001681660268
0.0001994221858
0.0002334978027
0.000257069469
0.0002588426432
0.0002395658801
0.0002138755254
0.0002019168702
0.0002117717118
0.0002341346654
0.0002540439185
0.0002623032467
0.0002669690049
0.0002744864227
0.0002749972312
0.0002724143877
0.0002597304607
0.0002364017643
0.0002150347632
0.0002066272645
0.0002206198625
0.0002467230123
0.0002624204173
0.0001072605563
0.0001677667276
0.0001764359326
0.0001954671548
0.0002310438401
0.000269905154
0.0002954022047
0.0002957847837
0.0002709435727
0.0002358387224
0.0002177531161
0.0002278569942
0.0002518394509
0.0002710537446
0.0002810753938
0.0002884093766
0.0003030536467
0.0003176554033
0.0003248260657
0.0003056257852
0.0002663362091
0.0002293310515
0.0002243815654
0.0002610860354
0.0003041750883
0.0003100712611
0.0001098176771
0.0001883921771
0.0002050352505
0.0002262434333
0.0002636012862
0.0003034450429
0.0003288162804
0.0003292835662
0.0003017790415
0.0002611421432
0.0002369917025
0.0002430052543
0.0002669454631
0.0002910310283
0.0003075714582
0.0003186405216
0.0003348386834
0.0003575197042
0.0003782984306
0.0003541643797
0.0003033532679
0.0002598667097
0.0002656609824
0.0003275973974
0.0003919802358
0.0003985184133
0.0001119295726
0.0002103992316
0.0002378040835
0.0002623815876
0.0002984079431
0.0003346740663
0.0003574761215
0.0003565142639
0.000326959016
0.0002834553853
0.0002539970896
0.0002564738307
0.0002837245792
0.0003161908542
0.0003422538419
0.0003621190373
0.000381157791
0.0004077858435
0.0004314064317
0.0004076131499
0.0003542339122
0.0003101238415
0.000321391699
0.0003989021107
0.000485736709
0.0005117041334
0.0001140118154
0.0002322484504
0.0002711986008
0.0002995670106
0.0003322213158
0.0003620926933
0.0003802364821
0.0003773152143
0.0003476845171
0.0003031147916
0.0002702487701
0.0002700021354
0.000299278025
0.0003352894559
0.0003667184414
0.0004107218499
0.0004413179804
0.000471667628
0.0004907624165
0.0004769656868
0.0004342387989
0.0003899430743
0.0003874813481
0.0004583312346
0.0005612059446
0.00062046616
0.0001162981132
0.0002510859056
0.0002998702655
0.0003314127522
0.0003609325808
0.0003850734809
0.0003993479502
0.0003965801073
0.0003689648962
0.0003256836748
0.0002921523448
0.0002873359667
0.0003061677823
0.0003356161678
0.000364210158
0.0004465968145
0.0004955394597
0.0005353818444
0.0005655239456
0.0005756820236
0.000559194717
0.0005190654564
0.0004794080379
0.0005046098802
0.0005963656634
0.0006913500458
0.0001190556142
0.0002649687148
0.0003208800619
0.0003556804293
0.0003849357879
0.0004079256538
0.0004219133088