/*--------------------------------*- C++ -*----------------------------------*\
  =========                 |
  \\      /  F ield         | OpenFOAM: The Open Source CFD Toolbox
   \\    /   O peration     | Website:  https://openfoam.org
    \\  /    A nd           | Version:  8
     \\/     M anipulation  |
\*---------------------------------------------------------------------------*/
FoamFile
{
    version     2.0;
    format      ascii;
    class       volScalarField;
    location    "0.7";
    object      htcConv;
}
// * * * * * * * * * * * * * * * * * * * * * * * * * * * * * * * * * * * * * //

dimensions      [1 0 -1 1 0 0 0];

internalField   uniform 0;

boundaryField
{
    walls
    {
        type            calculated;
        value           uniform 0;
    }
    region0_to_wallFilmRegion_wallFilmFace
    {
        type            convectiveHeatTransfer;
        L               1;
        value           nonuniform List<scalar> 
776
(
0.9618377767
1.344188036
1.714006423
1.969453608
2.120558035
2.200536194
2.250094925
2.275291197
2.287003053
2.299754494
2.330568311
2.387446084
2.457371475
2.516427737
2.559434129
2.592005649
2.587313261
2.483589198
2.268305041
2.005237017
2.038225393
2.086821983
2.015823526
1.927678379
1.804167384
1.440763954
0.9557502494
1.59780514
1.629484108
1.828032097
1.08240119
1.288939477
1.650374542
1.925580251
2.119094396
2.24307279
2.316469928
2.348482264
2.350250724
2.33527542
2.323476756
2.3400629
2.403602758
2.504534706
2.606933161
2.681307737
2.720275916
2.716397808
2.657000835
2.324905903
2.009240504
2.184067283
2.217900663
2.213910307
2.271712438
2.241085207
1.706586146
2.078488264
2.202580066
2.229114268
1.404003607
1.470626328
1.792933171
2.083324563
2.292409132
2.423924953
2.496828389
2.522036809
2.510944422
2.476986976
2.442253935
2.441933419
2.514185421
2.651638008
2.783451547
2.883578091
2.987243586
3.020966315
2.983872605
2.764007079
2.374845196
2.43099206
2.528176267
2.580285303
2.693439616
2.751253601
2.249842124
2.331018734
2.334215402
2.277869102
1.715688385
1.72144098
2.005347331
2.282215076
2.485957635
2.609893499
2.671615563
2.684028125
2.658842895
2.608897935
2.555831218
2.536920181
2.599385765
2.735576222
2.847612888
2.941433732
3.059720629
3.071549425
3.012554869
2.864862349
2.530701124
2.499001802
2.673386328
2.779799951
2.90198137
2.959850159
2.515412672
2.56395394
2.389076493
2.253743602
1.983456318
1.995150562
2.251588625
2.496263755
2.677212724
2.780856591
2.825992584
2.825737419
2.791377821
2.734696104
2.676678097
2.651129495
2.699332653
2.809301905
2.852917763
2.842479088
2.969128684
2.98292004
2.908969466
2.801529028
2.421603741
2.392823705
2.693286134
2.899938602
3.005992397
3.066485351
2.908814541
2.816154689
2.510061773
2.221896669
2.182622126
2.220608057
2.458199493
2.668876795
2.818965028
2.90006819
2.929598977
2.919841217
2.880923226
2.824855593
2.776118486
2.766370679
2.825719599
2.936017774
2.943052142
2.693805315
2.649040658
2.816782649
2.780369673
2.617976025
1.932026498
2.203827856
2.661006119
2.94893029
3.040754723
3.09842831
3.076931406
3.000433466
2.654014341
2.22170314
2.310276172
2.37459354
2.609379118
2.78794794
2.910866641
2.972175635
2.988111723
2.970328277
2.934020197
2.891774984
2.866147824
2.892883758
2.995587637
3.143090771
3.191826027
2.872778695
2.447643222
2.356203844
2.435963886
2.170652422
1.700088377
2.27075077
2.667375868
2.936153075
3.023301083
3.085686463
3.141972585
3.079873212
2.834530192
2.347343774
2.375900643
2.475673818
2.706537681
2.861654353
2.964000302
3.008258554
3.010291145
2.994134102
2.968994038
2.949266679
2.959117867
3.033044308
3.185948311
3.368831871
3.437858292
3.095884007
2.849947251
2.508686987
2.333661142
2.325821437
2.343385341
2.434543764
2.689090064
2.895317027
2.943570449
3.018541322
3.107810424
3.075574186
2.933884327
2.529894197
2.416661972
2.545250575
2.773151776
2.914504695
3.001678176
3.029661652
3.021395208
3.005792143
2.996015524
3.008370628
3.067730045
3.204943083
3.415506083
3.643210535
3.71479472
3.221154558
3.00998872
2.631775283
2.494353827
2.467317147
2.556808727
2.613077536
2.720595185
2.816052631
2.806931279
2.884312037
2.98698493
2.978975962
2.911010759
2.708929563
2.453743588
2.605819758
2.837828224
2.974198832
3.0492115
3.060708096
3.037888406
3.021115314
3.031919853
3.088189759
3.215785506
3.43583774
3.721585567
4.024786303
4.076761273
3.340385389
3.206452266
2.775609246
2.459875936
2.333507873
2.505573075
2.626470705
2.690565816
2.718987907
2.678519883
2.730190778
2.815399532
2.804555961
2.790203537
2.673305302
2.49323825
2.671633961
2.918068252
3.055135817
3.118064092
3.110401082
3.070338651
3.053162919
3.094731281
3.212534852
3.428198668
3.744928688
4.126219474
4.503368434
4.493547355
3.49924061
3.350555652
3.01682016
2.6208148
2.153323338
2.117174569
2.347416706
2.482342785
2.547497578
2.535404693
2.532939192
2.605055585
2.554755153
2.54233883
2.474521991
2.525056968
2.737308502
3.004907985
3.143394815
3.193259544
3.164897026
3.108288409
3.097187149
3.187193319
3.388667196
3.710851086
4.137396734
4.612238377
4.916659059
4.868555662
3.753899448
3.451010079
3.195166653
2.878474029
2.389200418
1.969485
2.101026989
2.364415358
2.451356286
2.442371136
2.340918071
2.407454837
2.333787407
2.340885191
2.34195148
2.527696269
2.779270993
3.068422199
3.205727063
3.238777766
3.189929954
3.119819577
3.123887717
3.286101472
3.600281244
4.047622309
4.58643993
5.010090293
5.072046797
5.027580132
4.038094907
3.470417097
3.244590493
3.059086645
2.64971055
2.124637787
1.810093042
2.112009458
2.333754507
2.34732238
2.16595724
2.238608905
2.170273027
2.20046777
2.268039626
2.479940171
2.772597767
3.080740473
3.209967191
3.221226361
3.15831561
3.074483361
3.085868549
3.304353477
3.699239202
4.26474962
4.908326669
5.292647678
5.254364536
5.279921675
3.902813753
3.21593986
3.043032135
3.134516802
2.847048289
2.403770571
1.929874697
1.770432533
2.09628809
2.222797595
2.085895961
2.021524589
1.993666228
2.076579228
2.288682144
2.375568451
2.702663627
3.025125973
3.144087761
3.148085373
3.074031552
2.959109145
2.878268474
2.916927052
3.005569713
3.101689917
3.346100734
3.73330265
4.047193648
3.733097668
2.440340539
2.286523516
2.636194353
3.196689151
2.999613408
2.620879414
2.279097152
1.840334113
1.785417768
1.98898953
2.003828483
1.559474989
1.671369065
1.881977255
2.225255216
2.228402974
2.558370746
2.890258979
3.027740409
3.050858921
2.998735045
2.91073722
2.858576582
2.923088834
3.046046898
3.129000427
3.142144078
3.106775998
3.222356984
2.554276653
1.344491216
2.042873501
2.63073443
3.438361062
3.151321196
2.80299475
2.452237533
2.089572031
1.781001353
1.672411575
1.790523319
1.124960848
0.93423965
2.019537674
2.42493702
2.106026503
2.367853057
2.687183605
2.876940138
2.964875609
2.974813736
2.943000653
2.919300737
2.925785492
2.937059537
2.924150648
2.901710716
2.86783924
2.726369741
2.201673497
1.60552705
2.03980822
2.981594592
3.851205179
3.339812469
2.949779527
2.631967692
2.296870508
2.017979959
1.692645783
1.597556509
1.300464575
2.252131483
2.488767249
2.534125888
2.121760314
2.285652213
2.567889896
2.771879608
2.909219734
2.983320052
3.023870656
3.043345412
3.044794838
3.033135803
2.999699494
2.906111252
2.708502862
2.411020079
2.039710419
2.140067856
2.812459527
3.624847017
4.161770176
3.609191831
3.169708822
2.828323632
2.477564242
2.095658772
1.922413917
1.741083473
2.620011663
2.621730744
2.576291326
2.480829071
2.196623424
2.307635117
2.578564591
2.793624823
2.942696254
3.030005654
3.082659614
3.105257431
3.096510441
3.074746591
3.045076179
2.978159147
2.83021545
2.556052319
2.357874196
2.685080018
3.670316141
4.253861795
4.552789225
3.858406635
3.403218845
3.021456032
2.695775383
2.310955609
2.208594792
1.770716872
3.527727578
2.631152256
2.406657942
2.37928878
2.268051425
2.300447851
2.519012526
2.744625777
2.938127401
3.067822409
3.139562034
3.156699729
3.13163412
3.099040156
3.066365216
3.012955494
2.888073353
2.593503557
1.996842809
1.755031443
1.872456079
2.80654417
3.575005288
2.547348814
2.336538081
2.375407433
2.383439451
2.293234927
2.158716206
2.051025526
2.340636077
2.054138182
2.252371786
2.104273798
2.37509118
2.371136101
2.556302699
2.779975276
2.988506383
3.128696146
3.20081454
3.209849491
3.174817181
3.134187713
3.110623589
3.091427917
3.019561482
2.730109933
2.350751444
1.894862537
2.057091535
1.59019664
2.818034943
2.438079411
2.332788854
2.426991528
2.426673663
2.346507072
2.251756972
1.981986039
1.957086372
1.646235571
1.709261884
1.954298436
2.484890323
2.455152168
2.623400807
2.842812289
3.053045538
3.189856273
3.25183162
3.242058338
3.185732911
3.121598169
3.10200577
3.127247383
3.145179633
2.77743562
2.506451968
2.04845573
1.754606742
1.679707823
2.400780264
2.267912195
2.251546448
2.294253125
2.279458318
2.199435299
1.866185576
1.378296781
1.152292189
1.772867773
2.120446694
2.25730784
2.585554518
2.544436409
2.720681153
2.926666586
3.114340106
3.226931616
3.253903969
3.206216714
3.081503565
2.901943781
2.75262646
2.733777791
2.720766529
2.705063919
2.969675865
2.330191372
2.119006818
2.142147384
2.302284155
2.242944951
2.188617659
2.25078436
2.233492441
2.161730428
1.891640788
1.649267693
1.595678047
1.785454131
2.262457968
2.231898804
2.645491303
2.590010372
2.773728961
2.968060564
3.137825276
3.211624588
3.208122493
3.125397636
2.947791476
2.660294424
2.325962052
2.117314614
2.134495516
2.327694691
2.4056631
1.65880982
1.81804905
1.828517084
1.948620422
1.980992967
2.094063048
2.200631231
2.21081696
2.136470193
1.870321892
1.592179596
1.550604062
1.384930694
2.121296583
2.155876204
2.657787103
2.575530426
2.739888563
2.918130883
3.086620717
3.1474805
3.128783932
3.043576561
2.880880467
2.619199678
2.312763061
2.189063674
1.620553682
2.022311095
1.909559016
1.71823892
1.985096033
1.88998964
1.846751667
1.9599482
2.099337272
2.226809976
2.246954681
2.153868538
1.853836574
1.408752356
1.175881193
1.267887905
1.701184402
1.946833161
2.643472768
2.528176134
2.62709893
2.749155124
2.909299886
3.041650041
3.083789657
3.047370431
2.924886331
2.733412828
2.608251972
2.712000005
2.076484914
1.727165641
1.837389181
2.049877931
2.073521846
1.926714188
1.905067205
2.011147558
2.14039508
2.272794302
2.305652171
2.219789082
1.357294459
1.659476845
)
;
    }
    region0_to_wallFilmRegion_mirrorFace
    {
        type            convectiveHeatTransfer;
        L               1;
        value           nonuniform List<scalar> 
703
(
4.023684564
4.179213844
4.356681962
4.638821728
4.974337144
4.879621061
4.753346078
4.704567339
4.639557367
4.555574356
4.199281656
4.13780899
4.261740531
4.475960804
4.652604227
4.603982307
4.478118617
4.397374088
4.329312075
4.266671819
4.159395196
3.959143741
4.023078693
4.142115496
4.219721837
4.125298325
4.021911333
3.947075407
3.901420018
3.885897377
1.665051536
2.318411575
1.735842123
1.384230296
1.407893311
1.645715768
1.134323669
0.8179615306
1.33882913
1.318686607
1.088596044
1.350384861
1.48274811
1.348695171
1.501617596
1.678261471
1.61453061
1.724526508
1.870676043
2.677212392
2.203743263
2.582416277
2.993068427
3.523852862
3.386598258
3.86595922
3.737264144
4.081712713
3.180574069
4.138914371
3.782630862
3.974546366
3.830417834
3.997569905
1.501716007
1.390594984
1.315824228
1.259845728
1.203973657
1.068622776
1.09724594
1.007417659
1.02749857
0.9705452235
0.994611969
0.8106427995
0.9540078044
0.69374042
0.9082212274
1.060904717
1.013572543
1.043306951
1.147891882
1.113728911
1.16308529
1.16646834
1.197320715
1.233344873
1.228840087
1.271485134
1.318147757
1.371834742
1.374928632
1.440376837
1.634046225
1.532462775
1.614352947
1.040992591
1.140258505
1.01130324
1.262540345
1.306479678
1.420685773
1.417553597
1.536413834
1.560418614
1.23588027
1.49396982
1.272465497
0.6302455379
0.855085252
0.5253391817
0.6327587251
0.615026518
0.6450150705
0.671125402
0.6262289711
0.6010156434
0.7872708693
0.6246022845
0.7154209579
0.9767924361
0.8291944577
0.9332468452
1.145288378
1.019943316
1.091711698
1.11694366
1.343763536
1.157657235
1.47301201
1.890291259
1.259508457
1.60594997
1.383200104
1.465796564
1.338584731
1.478010389
1.264856432
0.6658440952
0.8111534782
0.5826933368
0.6974236242
0.6593989209
0.6661820029
0.6069247576
0.5992086289
0.4910419947
0.6722081054
0.5048681208
0.6735347599
0.9086320854
0.8299334639
1.247530445
1.865399366
1.662905875
0.9041789918
1.423889593
1.217361162
1.391570088
1.322147889
1.366701399
1.263483924
1.389386815
1.241218234
0.6085915194
0.9299548195
0.7157255792
0.6793263109
0.723319242
0.7089813854
0.6205278473
0.6639931959
0.6576771766
0.8140396434
0.7450420291
0.8753016445
1.708215081
1.638076364
2.291247437
1.376521217
2.4158974
1.815077211
1.450677032
1.71328635
1.620050938
1.293858988
1.547225487
1.392239351
0.9408634867
1.222573893
1.145564903
0.8773939924
1.100448841
1.047919048
0.8314702452
0.9996570425
0.9783943315
3.803586372
3.783669803
3.939108626
3.954928925
4.049331537
4.128765446
4.109452081
4.214154713
4.310278911
4.331429608
4.427924816
4.573328145
4.580134522
4.733436242
4.82697229
4.588404006
4.741406747
4.746192006
4.647105617
4.765945159
4.777887358
4.598492174
4.767230836
4.736746756
4.482087225
4.690169908
4.634915199
4.348180345
4.574930166
4.512755887
4.246585142
4.450450615
4.397010556
1.598403412
1.288581488
1.145648156
1.446162346
1.12800917
1.405849955
1.35996102
1.333115569
1.299890652
1.494347238
1.281038064
1.486121671
1.730135966
1.625428293
1.783537711
3.995909129
4.18995897
4.386177397
4.681910705
4.926211988
4.785216097
4.79146989
4.751929372
4.661237141
4.546710598
3.929473995
4.385353844
4.541818774
4.736366112
4.912882427
4.705452076
4.689871888
4.662395099
4.627713626
1.951102591
2.487807234
2.868745201
1.431084578
2.760681956
1.529647946
1.238161162
1.575188381
1.21346162
1.471750362
1.257689413
1.466014567
1.833116157
1.678549938
1.881608851
4.08429203
4.105818889
4.076291755
4.260309638
4.14603165
4.209611166
4.478042006
4.824574651
5.001970411
4.793140248
4.761549002
4.676431734
4.727314181
4.619962378
4.674144358
4.599341849
4.481764108
4.445366418
4.507342219
4.407795078
4.367496774
1.895595212
3.573077474
2.750775636
1.158281179
1.857234657
1.362205634
1.419550323
1.108239982
1.325158094
1.877409122
1.628224421
1.929776353
4.188789148
4.020631303
4.186202881
4.056378991
4.095836215
4.360024079
4.157999079
4.584248345
4.311890104
4.433303516
4.260120797
4.122693317
4.099158277
4.234914081
4.078676393
4.060231223
1.980594031
3.338036271
2.892157961
1.445945686
2.321287439
2.112846399
2.247757833
2.330438901
2.706546751
3.176567592
3.778163839
3.99508316
3.826470713
3.693286156
2.11756339
1.920462782
3.204941438
1.438384437
3.360141395
1.3261893
3.404771719
1.786691943
3.57642432
1.584373319
3.759622443
1.749932078
3.955041179
2.044574291
4.164827366
2.032352266
4.176514096
1.757521492
4.022413291
1.740963693
3.851775242
1.968567173
3.674605027
1.419319088
1.590722579
1.398070531
1.15078721
1.058152625
0.9165012545
1.0391547
1.114808916
1.154141457
1.18651571
1.282784498
1.45681992
0.5921433058
1.080437081
1.132183615
1.370999615
1.382881257
0.960955195
0.5924715601
0.6493019582
0.711786443
0.8811508268
1.064662726
1.068253663
1.200756215
1.547000985
1.58422257
1.557892447
0.9507029266
0.6786266961
0.6656996549
0.5844318847
0.799077943
1.377650949
1.559751295
1.252313734
1.289715253
1.427282863
0.8903861652
0.6614875804
0.6451526324
0.6854636517
1.609318331
2.180809106
1.752833272
1.488425478
1.451746554
1.063217492
0.9136238499
0.8369329405
2.449262559
3.636995778
3.891152919
4.025571281
4.209981449
4.471656304
4.544974985
4.625991562
4.634277176
4.544784257
4.414325566
4.27974357
1.164684018
1.171157117
1.216022767
1.321676927
1.605419284
3.30514804
3.856567557
4.104810105
4.09005854
4.281622747
4.269117572
4.517640097
4.851365804
4.812933858
4.822957394
4.789336619
4.72029271
4.779727279
4.711176034
4.605324822
4.538988193
1.8125126
1.592058683
1.485419135
1.256129005
1.646290558
3.226084579
3.318156861
1.673863348
1.18634907
1.659408252
3.815567162
2.412567434
1.313448171
1.858066068
2.634530879
4.122289946
4.140666249
4.014537994
3.684173008
3.698914653
3.992048657
3.798706576
3.837712752
3.556282146
3.400646171
3.711850981
3.339273873
3.690730379
3.340315964
3.389474008
3.853132703
4.013069297
3.4959451
3.53165952
3.583158496
3.362728239
2.692947068
2.355502142
2.34829448
2.460144062
3.896297238
4.014015114
3.368987482
3.377681609
3.415260482
3.119287832
2.295542005
1.788679078
1.631519727
1.55763998
4.149848844
3.998967668
1.685468825
3.378375768
1.896262653
1.851247448
3.438498619
3.608301459
1.312103841
3.379181292
1.783670153
1.699738291
3.647900472
3.688542777
1.761926332
3.484890962
1.641797775
1.606389604
3.737829873
3.814346148
1.692139778
3.662934724
1.625884954
1.64328095
3.90194846
4.003064552
1.659034975
3.873220741
1.711076974
1.762452606
4.120322749
4.235028627
1.848998171
4.066473459
1.929273423
1.850161404
4.25729267
4.336855577
2.16179921
4.209727052
1.946583095
1.976092921
4.398822893
4.430030173
1.879636414
4.107603183
1.933674807
1.880463208
4.4095031
4.360473759
1.705610369
3.936660441
1.832720522
1.808908344
4.293426383
4.220707806
1.856508049
3.724959528
1.822283977
1.864522292
4.144902869
4.071204712
1.595264257
3.799501696
2.058511567
2.19524184
3.979050471
3.986424415
3.99433794
4.172977446
4.961620451
4.745787896
4.586322663
4.486686086
4.298171651
4.415168532
4.564959535
4.72165405
4.830847657
4.846209432
4.579106953
4.548687021
4.51610885
4.092440456
4.659426142
4.537028025
4.362257762
4.297792553
4.233012217
4.311688577
4.379053169
4.416658088
4.41066901
4.361223348
4.218886405
4.182087741
4.150351168
3.956114592
3.976744945
3.796084144
3.819820435
4.081472783
3.873080134
3.933914202
4.193625079
4.035329041
4.199050712
4.045595979
4.075629664
3.876577942
3.982180832
3.771009101
3.739160411
3.92069146
3.697097653
3.890404628
3.885859491
3.702254438
3.714001112
3.734126915
4.018677174
3.632885859
3.669761638
3.566377102
3.546936913
3.747196698
3.586227845
3.642222674
3.837031342
3.683124627
3.685998595
3.757192372
3.632572661
3.490305012
3.469416538
3.166931831
3.037836297
3.363416205
2.952643825
2.922811586
3.333135402
2.915271656
2.931538952
3.359754919
2.964566227
3.011244104
3.426325585
3.068987682
3.130456849
3.571385561
4.02232575
3.546321903
3.479998572
3.485180344
3.498746201
3.58304079
3.572055139
3.607044789
3.509375357
3.550999656
3.40002789
3.15719361
3.168977529
2.939352232
2.464044357
2.38673426
1.911023713
2.330461626
1.565420297
1.420627687
2.392404541
1.5563117
1.704342169
2.541454448
1.827351538
1.952633961
3.476727783
4.000953303
3.455226415
3.329773712
3.340199677
3.289216321
3.428777024
3.324556111
3.381126433
3.309902832
3.408983045
3.377521586
2.875932786
3.282641952
3.108195999
1.980367049
2.730577156
2.624524441
1.695175245
2.51376261
2.454223034
1.589323729
2.393256654
2.34659322
1.587792534
2.305437303
2.28273744
3.498277535
)
;
    }
    procBoundary2to0
    {
        type            processor;
        value           uniform 0;
    }
    procBoundary2to1
    {
        type            processor;
        value           uniform 0;
    }
    procBoundary2to3
    {
        type            processor;
        value           uniform 0;
    }
}


// ************************************************************************* //
