/*--------------------------------*- C++ -*----------------------------------*\
  =========                 |
  \\      /  F ield         | OpenFOAM: The Open Source CFD Toolbox
   \\    /   O peration     | Website:  https://openfoam.org
    \\  /    A nd           | Version:  8
     \\/     M anipulation  |
\*---------------------------------------------------------------------------*/
FoamFile
{
    version     2.0;
    format      ascii;
    class       volScalarField;
    location    "0.7";
    object      N2;
}
// * * * * * * * * * * * * * * * * * * * * * * * * * * * * * * * * * * * * * //

dimensions      [0 0 0 0 0 0 0];

internalField   nonuniform List<scalar> 
67410
(
0.7899927644
0.7899927951
0.7899929691
0.7899933178
0.7899937288
0.7899941368
0.789994481
0.7899946961
0.7899947995
0.7899948358
0.7899948384
0.7899948316
0.7899948341
0.7899948537
0.7899948786
0.7899948793
0.7899948345
0.789994804
0.7899948847
0.7899949944
0.7899951248
0.7899952502
0.7899953669
0.7899954823
0.7899955971
0.789995695
0.7899931784
0.7899932135
0.7899933932
0.7899937604
0.7899942632
0.7899947418
0.7899950326
0.7899951512
0.789995173
0.7899951514
0.7899951179
0.789995103
0.7899951326
0.7899952005
0.7899952666
0.7899952785
0.7899951804
0.7899950482
0.7899951111
0.7899951892
0.789995286
0.7899953687
0.7899954434
0.7899955189
0.789995587
0.7899956185
0.7899938143
0.7899938814
0.7899940981
0.7899944517
0.7899948579
0.7899951482
0.7899952765
0.7899952976
0.7899952724
0.7899952358
0.789995216
0.7899952483
0.7899953459
0.7899954711
0.7899955711
0.7899956122
0.789995524
0.7899953423
0.7899953851
0.7899954076
0.7899954496
0.7899954909
0.7899955676
0.7899956686
0.7899957342
0.7899956829
0.7899943658
0.7899944569
0.7899946501
0.7899949154
0.7899951704
0.7899953221
0.7899953643
0.789995348
0.7899953163
0.7899952953
0.7899953134
0.7899953989
0.7899955382
0.7899956671
0.7899957491
0.7899958012
0.7899957596
0.789995626
0.789995666
0.7899956366
0.7899956378
0.7899956682
0.7899957871
0.7899959386
0.7899960302
0.7899959313
0.7899946591
0.7899947273
0.7899948854
0.7899951113
0.7899953057
0.7899953978
0.7899954057
0.7899953807
0.7899953597
0.7899953655
0.7899954212
0.789995539
0.7899956824
0.7899957832
0.7899958459
0.7899958954
0.7899958876
0.7899958704
0.7899959164
0.7899958541
0.7899958474
0.7899959015
0.78999605
0.7899961896
0.7899962832
0.7899962374
0.7899947505
0.7899948202
0.7899949956
0.7899952218
0.7899953879
0.7899954479
0.7899954393
0.7899954145
0.7899954066
0.7899954356
0.7899955153
0.7899956456
0.7899957866
0.7899958845
0.7899959475
0.7899959882
0.7899960088
0.7899960699
0.7899961158
0.789996058
0.7899960702
0.7899961482
0.7899962669
0.7899963017
0.7899963375
0.7899963723
0.7899947721
0.7899948704
0.7899950763
0.7899953048
0.7899954504
0.7899954908
0.7899954738
0.7899954498
0.7899954513
0.7899954909
0.7899955794
0.7899957156
0.7899958702
0.7899959854
0.789996078
0.7899961062
0.7899961547
0.7899962302
0.7899962681
0.7899962503
0.7899962828
0.7899963538
0.7899963986
0.7899963291
0.7899963023
0.7899963067
0.7899947703
0.789994908
0.7899951402
0.7899953684
0.7899955016
0.7899955329
0.7899955136
0.7899954968
0.7899955032
0.789995545
0.7899956337
0.7899957724
0.7899959401
0.7899960719
0.7899962535
0.7899962564
0.7899963108
0.7899963612
0.7899963924
0.7899964224
0.7899964606
0.7899965085
0.789996508
0.7899963712
0.7899962941
0.7899962507
0.7899947504
0.7899949301
0.7899951833
0.7899954136
0.7899955447
0.7899955768
0.7899955638
0.7899955545
0.7899955658
0.7899956122
0.789995705
0.7899958409
0.7899959838
0.7899960873
0.7899964569
0.7899964063
0.7899964368
0.7899964631
0.7899964984
0.789996566
0.7899966058
0.7899966523
0.7899966517
0.7899964548
0.789996332
0.7899962586
0.7899947109
0.7899949326
0.7899952033
0.7899954409
0.7899955799
0.7899956215
0.7899956197
0.7899956188
0.7899956397
0.7899956988
0.7899957979
0.7899958831
0.7899958474
0.7899958755
0.7899966491
0.7899965389
0.7899965333
0.7899965484
0.7899966186
0.7899966948
0.7899967482
0.7899968184
0.7899968572
0.7899965714
0.7899963965
0.7899962964
0.7899946641
0.7899949217
0.7899952035
0.7899954507
0.7899956058
0.7899956642
0.7899956746
0.7899956856
0.7899957226
0.7899957946
0.7899958364
0.7899957044
0.7899953262
0.789995645
0.7899967345
0.7899966827
0.7899966117
0.7899965923
0.7899966897
0.7899968018
0.7899968887
0.7899970171
0.7899971088
0.7899967115
0.789996475
0.7899963154
0.7899946449
0.789994917
0.7899951929
0.7899954425
0.7899956174
0.7899956997
0.789995728
0.7899957609
0.7899958126
0.7899958376
0.7899956745
0.7899952225
0.7899951563
0.7899966967
0.7899966277
0.7899968099
0.7899966693
0.7899966173
0.7899967331
0.7899969043
0.7899970505
0.7899972863
0.7899973444
0.7899968737
0.7899964802
0.7899960847
0.7899946888
0.7899949376
0.789995177
0.7899954113
0.7899956095
0.7899957331
0.7899957977
0.7899958592
0.7899958898
0.7899957462
0.7899952907
0.789995101
0.7899964739
0.7899990523
0.7899968445
0.7899969035
0.7899967341
0.7899966447
0.7899967547
0.7899970122
0.7899972632
0.7899976462
0.7899975204
0.7899972693
0.7899968264
0.7899964941
0.7899947806
0.7899949585
0.7899951268
0.7899953354
0.7899955803
0.7899957934
0.7899959346
0.7899960199
0.7899959413
0.7899955424
0.7899951184
0.7899958859
0.7899984221
0.7900013904
0.789998008
0.7899973026
0.7899969402
0.7899967268
0.7899967295
0.7899971015
0.7899974468
0.7899977798
0.7899976097
0.7899973636
0.7899970941
0.789996597
0.789994845
0.7899949066
0.7899949979
0.7899952023
0.7899955055
0.7899958134
0.7899960392
0.7899961579
0.7899960363
0.789995668
0.7899956296
0.7899968892
0.789999574
0.7900018014
0.7899977369
0.789997448
0.7899971198
0.7899968942
0.7899965717
0.789997044
0.7899974263
0.7899976377
0.7899976497
0.7899972761
0.789997086
0.7899965241
0.7899948223
0.7899947833
0.7899948821
0.7899951432
0.7899954627
0.7899957153
0.7899959531
0.7899962951
0.7899965131
0.7899965663
0.789996412
0.789996201
0.7899965039
0.7899973003
0.7899974783
0.7899974546
0.7899973194
0.7899968255
0.7899966073
0.7899964745
0.7899968485
0.7899972392
0.7899973659
0.7899968124
0.7899964084
0.7899961525
0.7899947578
0.789994718
0.7899949282
0.7899952573
0.789995558
0.789995623
0.7899955407
0.7899959602
0.7899963282
0.7899965753
0.7899966372
0.7899966111
0.7899966815
0.7899971529
0.7899974411
0.7899975016
0.7899972126
0.7899968104
0.7899978155
0.7899962185
0.7899964595
0.7899966961
0.7899969493
0.789996421
0.7899961659
0.7899959804
0.7899947615
0.7899947775
0.7899950528
0.7899953724
0.7899956561
0.7899956752
0.7899953775
0.7899956588
0.7899960288
0.7899964275
0.7899966753
0.7899967454
0.7899968138
0.789997048
0.7899972544
0.7899970871
0.7899970089
0.7899979217
0.7899997688
0.7899967583
0.7899964563
0.7899961153
0.7899965833
0.789996205
0.789996117
0.7899959268
0.7899948816
0.7899948437
0.7899950845
0.789995382
0.7899956722
0.7899957351
0.7899954823
0.789995575
0.7899958494
0.7899961472
0.7899964587
0.7899967469
0.7899968581
0.7899969381
0.7899969311
0.7899969955
0.7899977444
0.7899991856
0.7899999064
0.7899978848
0.7899970753
0.789996578
0.7899964757
0.7899962394
0.7899961275
0.7899958643
0.7899951223
0.7899948188
0.7899950613
0.7899953749
0.789995666
0.789995763
0.7899955794
0.7899957138
0.7899959458
0.7899961564
0.7899962168
0.7899964404
0.7899967189
0.7899968306
0.7899968129
0.789996676
0.7899966916
0.7899971277
0.7899976309
0.7899970171
0.7899968116
0.7899966708
0.7899964611
0.7899962651
0.7899960315
0.7899957116
0.7899955864
0.7899948965
0.7899948723
0.789995052
0.7899952516
0.7899953869
0.7899955699
0.7899959169
0.7899961442
0.7899963126
0.7899963106
0.7899963105
0.789996378
0.7899966198
0.7899967281
0.7899967116
0.7899966617
0.7899966509
0.7899969877
0.7899969258
0.7899969302
0.7899966929
0.7899964348
0.789996196
0.7899958895
0.7899955544
0.7899959542
0.7899952975
0.7899951733
0.7899952322
0.78999545
0.7899957655
0.789996045
0.7899962009
0.7899963297
0.7899964338
0.7899964426
0.7899964951
0.7899964183
0.7899963346
0.7899964557
0.7899965383
0.7899965511
0.7899965011
0.7899965964
0.7899967496
0.7899967087
0.7899965185
0.7899962537
0.7899960473
0.7899957525
0.7899954162
0.7899962322
0.7899956738
0.7899956411
0.7899957282
0.7899959093
0.7899961274
0.7899962891
0.7899964128
0.7899965447
0.7899966087
0.789996535
0.7899966133
0.7899965923
0.7899964519
0.7899962866
0.7899962669
0.7899963485
0.7899963717
0.7899963988
0.7899964893
0.7899964399
0.7899962446
0.7899960145
0.7899958703
0.7899956233
0.7899953074
0.7899963127
0.7899957911
0.7899957753
0.7899959207
0.7899961314
0.7899963135
0.7899964603
0.7899966426
0.7899968252
0.789996907
0.7899967619
0.7899967281
0.7899966829
0.7899965723
0.7899964189
0.7899961933
0.789996124
0.7899961329
0.7899961927
0.7899962022
0.7899961582
0.7899959492
0.7899957636
0.7899956759
0.7899954846
0.7899951864
0.7899963083
0.7899959044
0.789995926
0.7899960693
0.7899962141
0.7899963743
0.7899965875
0.7899968398
0.7899970943
0.7899972258
0.7899970476
0.7899968903
0.7899967343
0.7899965393
0.789996413
0.7899962051
0.7899960193
0.7899958752
0.7899958865
0.7899958672
0.7899958451
0.7899955549
0.7899954433
0.7899953836
0.7899952543
0.7899963567
0.7899961004
0.7899961555
0.789996223
0.7899962787
0.7899964031
0.7899966288
0.7899969427
0.7899972744
0.7899974596
0.7899973064
0.7899970114
0.7899967321
0.7899963886
0.7899962159
0.7899960675
0.7899959868
0.7899957599
0.7899957215
0.7899953228
0.7899955151
0.7899950352
0.7899951287
0.7899950072
0.7899948628
0.7899965662
0.7899963099
0.7899962845
0.7899962743
0.7899962938
0.7899964055
0.7899966889
0.7899971132
0.789997537
0.789997756
0.7899976172
0.7899971868
0.7899968304
0.7899965361
0.789996342
0.7899959702
0.7899958867
0.7899955553
0.7899956985
0.7899952528
0.7899951776
0.7899946093
0.7899945433
0.7899945313
0.7899943933
0.7899966753
0.7899964211
0.7899963141
0.7899962577
0.789996311
0.7899964259
0.7899965791
0.7899968174
0.7899970981
0.7899972921
0.7899972187
0.7899969249
0.7899967214
0.7899965328
0.789996346
0.7899959721
0.7899957142
0.7899949089
0.789995222
0.7899934724
0.7899947628
0.7899941686
0.7899943267
0.7899942399
0.7899941411
0.7899968806
0.789996737
0.789996662
0.7899965213
0.789996421
0.7899964552
0.7899965617
0.7899966926
0.7899968323
0.7899969588
0.7899969558
0.7899967761
0.7899966369
0.7899964834
0.7899961853
0.7899951703
0.7899952028
0.7899952847
0.7899954303
0.7899948607
0.7899945553
0.7899942074
0.7899938604
0.7899940834
0.7899940093
0.7899940355
0.7899971524
0.789997022
0.7899970173
0.7899969676
0.7899968582
0.7899966572
0.7899965544
0.7899966204
0.7899966983
0.789996732
0.7899967223
0.7899966153
0.7899965058
0.7899963625
0.7899961448
0.7899951169
0.7899952626
0.7899951782
0.7899953427
0.7899938621
0.7899943471
0.7899937449
0.7899938421
0.7899938708
0.7899938763
0.7899938387
0.789992721
0.7899927192
0.7899928387
0.7899931382
0.7899935141
0.7899938704
0.7899941758
0.7899944058
0.7899945405
0.7899946153
0.7899946619
0.789994696
0.7899947219
0.7899947355
0.789994732
0.7899947093
0.7899946819
0.7899946855
0.7899947572
0.7899948711
0.7899950127
0.7899951536
0.7899952758
0.7899953708
0.7899954333
0.789995454
0.7899930272
0.789992978
0.789993086
0.7899933888
0.7899938494
0.7899943259
0.7899946856
0.7899948798
0.7899949596
0.7899949866
0.7899949944
0.7899949973
0.7899949984
0.7899949857
0.7899949471
0.789994892
0.789994841
0.7899948251
0.7899948825
0.7899949837
0.7899951229
0.7899952518
0.7899953471
0.7899954012
0.789995415
0.7899953886
0.7899936168
0.7899935433
0.7899936645
0.7899939778
0.789994408
0.7899947854
0.7899950069
0.7899950905
0.7899951054
0.7899951031
0.7899951048
0.7899951153
0.789995122
0.7899950993
0.78999505
0.7899950131
0.7899950109
0.7899950386
0.7899950701
0.7899951186
0.7899952326
0.7899953505
0.7899954463
0.7899954984
0.7899954983
0.7899954513
0.7899941812
0.7899941348
0.7899942545
0.7899945191
0.7899948197
0.7899950368
0.7899951278
0.7899951364
0.7899951233
0.7899951212
0.7899951367
0.7899951618
0.7899951696
0.7899951414
0.7899951095
0.7899951093
0.7899951581
0.789995274
0.7899953024
0.7899952909
0.7899953706
0.7899954743
0.7899955716
0.789995611
0.7899955965
0.7899955432
0.7899945355
0.7899944967
0.7899945851
0.7899947845
0.7899949902
0.7899951105
0.7899951347
0.7899951157
0.7899951018
0.7899951124
0.7899951482
0.7899951938
0.7899952182
0.7899952134
0.7899952005
0.7899952373
0.7899953351
0.7899955045
0.7899955514
0.7899955096
0.7899955548
0.7899956238
0.7899956779
0.789995646
0.7899956099
0.7899955932
0.7899946694
0.7899946417
0.789994724
0.7899948918
0.7899950489
0.7899951245
0.789995129
0.7899951109
0.789995103
0.789995123
0.7899951802
0.7899952586
0.7899953181
0.7899953309
0.7899953312
0.7899953845
0.789995516
0.7899957167
0.7899957791
0.7899957536
0.7899957756
0.7899957914
0.7899957611
0.7899956428
0.7899956
0.7899955744
0.7899946965
0.7899946951
0.7899947924
0.7899949494
0.7899950838
0.7899951481
0.7899951611
0.7899951558
0.7899951487
0.7899951747
0.7899952554
0.7899953735
0.7899954768
0.7899955291
0.7899955481
0.7899955969
0.7899957237
0.7899959125
0.7899959686
0.7899959921
0.7899959991
0.7899959628
0.7899958596
0.7899956699
0.7899956118
0.7899955596
0.789994686
0.7899947208
0.7899948429
0.7899950008
0.7899951302
0.7899952033
0.7899952374
0.7899952373
0.7899952288
0.7899952601
0.7899953643
0.789995529
0.7899956955
0.7899958068
0.789995845
0.7899958721
0.7899959574
0.7899960955
0.7899961283
0.7899962134
0.7899962035
0.789996132
0.7899959668
0.7899957378
0.789995656
0.7899955761
0.7899946546
0.7899947354
0.7899948886
0.7899950584
0.7899951957
0.7899952874
0.7899953394
0.7899953466
0.7899953441
0.789995385
0.7899955105
0.7899957227
0.7899959536
0.7899961337
0.7899961765
0.789996173
0.7899961957
0.7899962648
0.7899962561
0.7899964253
0.7899964005
0.7899963075
0.7899960969
0.7899958634
0.7899957568
0.7899956625
0.7899946062
0.7899947411
0.7899949299
0.7899951204
0.789995275
0.7899953873
0.7899954534
0.7899954755
0.7899954889
0.7899955479
0.7899956955
0.789995962
0.7899962486
0.7899964641
0.7899964459
0.7899964262
0.7899964196
0.7899964645
0.7899965422
0.7899966526
0.7899966266
0.7899965102
0.789996274
0.7899960396
0.7899958941
0.7899957797
0.7899945528
0.7899947412
0.7899949642
0.7899951788
0.7899953546
0.7899954855
0.7899955686
0.7899956118
0.7899956532
0.7899957498
0.7899959524
0.7899962997
0.789996599
0.7899966481
0.7899966574
0.7899966227
0.7899965813
0.7899966074
0.7899967121
0.7899968375
0.7899968302
0.7899967312
0.7899964808
0.7899962437
0.7899960462
0.7899958709
0.789994523
0.7899947466
0.7899949926
0.7899952271
0.7899954228
0.7899955697
0.7899956705
0.7899957384
0.7899958177
0.7899959792
0.7899962622
0.7899966381
0.7899967876
0.7899965978
0.7899969176
0.7899967888
0.7899967262
0.7899967046
0.7899968293
0.7899969858
0.7899970325
0.7899969779
0.7899967119
0.789996488
0.7899962839
0.7899959471
0.7899945484
0.789994773
0.7899950231
0.7899952661
0.7899954756
0.7899956373
0.7899957567
0.7899958628
0.7899960004
0.7899962411
0.7899965577
0.789996575
0.7899964924
0.7899960608
0.7899973333
0.7899968884
0.7899968663
0.7899967524
0.7899968717
0.7899970922
0.7899972468
0.7899972145
0.7899969707
0.7899966958
0.789996532
0.7899962179
0.7899946326
0.7899948239
0.7899950597
0.7899952977
0.7899955128
0.7899956959
0.7899958423
0.7899959785
0.7899961497
0.7899963967
0.7899966134
0.7899965409
0.7899966324
0.7899969962
0.7899978267
0.7899971185
0.7899971018
0.7899968043
0.7899968609
0.7899971636
0.7899974571
0.7899975543
0.7899972425
0.7899968766
0.7899965608
0.7899963126
0.7899947364
0.7899948716
0.7899950808
0.7899953004
0.789995517
0.7899957319
0.7899959276
0.7899961077
0.7899963065
0.7899965575
0.7899966847
0.7899962962
0.7899964134
0.7899966366
0.7899977717
0.789997262
0.7899971962
0.7899969036
0.789996787
0.7899970959
0.7899974613
0.7899975964
0.789997345
0.789996998
0.7899966065
0.789996315
0.7899948054
0.7899948656
0.7899950403
0.7899952327
0.7899954399
0.7899956619
0.7899958821
0.7899960871
0.7899962595
0.7899964037
0.7899965399
0.7899965959
0.7899966976
0.7899970722
0.7899977317
0.7899974164
0.789997414
0.7899970694
0.7899968151
0.789996802
0.7899972762
0.7899975087
0.7899974639
0.7899970131
0.7899965078
0.7899962052
0.7899948194
0.7899947605
0.789994851
0.7899950098
0.7899952194
0.7899954116
0.7899956319
0.78999589
0.7899961746
0.7899963973
0.7899965362
0.7899966566
0.7899968434
0.7899969806
0.7899973676
0.7899975265
0.789997565
0.7899973598
0.7899967632
0.7899966493
0.7899966616
0.7899969502
0.7899970104
0.7899966305
0.7899963618
0.7899961839
0.7899948452
0.78999462
0.7899946228
0.7899948116
0.7899950636
0.7899952285
0.7899953912
0.7899955894
0.7899959181
0.7899962418
0.7899964627
0.789996607
0.7899967791
0.7899970053
0.7899973041
0.7899974946
0.7899975396
0.789997625
0.7899972654
0.789997224
0.7899967683
0.7899969125
0.7899966983
0.7899964517
0.7899963552
0.7899961548
0.7899949596
0.7899945624
0.7899945382
0.7899947835
0.7899950812
0.7899952387
0.789995285
0.789995364
0.7899956653
0.7899959855
0.7899963061
0.7899965918
0.7899967766
0.7899969814
0.7899972209
0.7899974654
0.78999752
0.789997896
0.7899974867
0.7899977527
0.7899971537
0.7899970246
0.7899966875
0.7899964813
0.7899963351
0.7899960515
0.7899951843
0.7899947156
0.7899946879
0.7899949029
0.7899951951
0.7899953635
0.7899953443
0.7899952717
0.7899954816
0.7899957554
0.7899960065
0.7899962849
0.7899965681
0.7899967708
0.7899969845
0.7899971933
0.7899972841
0.7899973862
0.7899973054
0.7899976532
0.7899971854
0.7899969845
0.7899966902
0.789996469
0.7899962597
0.7899958905
0.7899954147
0.7899948558
0.7899946925
0.78999474
0.7899949946
0.7899952652
0.7899953575
0.7899952652
0.7899952748
0.7899955061
0.7899957989
0.7899960307
0.7899962511
0.7899965081
0.7899967259
0.7899969461
0.7899971262
0.7899972858
0.7899972477
0.7899972965
0.7899971047
0.7899968634
0.7899965844
0.7899963437
0.7899960988
0.7899956572
0.7899955608
0.7899951493
0.7899950063
0.7899950049
0.7899951413
0.7899953138
0.7899954052
0.789995369
0.7899952997
0.7899953951
0.7899956178
0.7899958474
0.7899960509
0.7899962009
0.7899963793
0.7899965601
0.7899967386
0.7899968926
0.7899969489
0.7899969394
0.7899967926
0.7899965618
0.7899963235
0.7899961037
0.7899958566
0.7899953872
0.7899956273
0.7899954067
0.7899953136
0.7899952753
0.789995286
0.7899952928
0.7899952673
0.7899953317
0.7899954831
0.7899956191
0.7899956745
0.7899957245
0.7899958439
0.7899960294
0.7899961293
0.7899962071
0.7899963616
0.7899964823
0.7899965737
0.7899965399
0.7899964104
0.7899961638
0.7899959848
0.7899958017
0.7899955622
0.7899951404
0.7899956022
0.7899954914
0.7899953674
0.7899952415
0.7899951717
0.7899951498
0.7899952484
0.7899955022
0.7899958651
0.789996075
0.7899960333
0.7899958795
0.7899957578
0.7899957449
0.7899959647
0.7899959597
0.7899960402
0.7899960774
0.7899961914
0.7899961372
0.7899960437
0.7899957819
0.7899956392
0.7899954844
0.7899952424
0.7899949002
0.7899956054
0.7899955845
0.7899954491
0.7899951709
0.7899950719
0.7899951675
0.7899954266
0.7899958356
0.7899963035
0.789996576
0.7899964994
0.7899962453
0.7899959119
0.7899955726
0.7899955979
0.7899956695
0.7899958316
0.7899957153
0.789995888
0.7899957868
0.7899957202
0.789995357
0.7899952716
0.7899951222
0.7899948561
0.7899957196
0.789995787
0.7899956986
0.7899953881
0.7899952786
0.7899953143
0.7899956091
0.7899960995
0.789996665
0.7899970298
0.7899969964
0.7899966846
0.7899961918
0.7899955635
0.789995244
0.7899951706
0.7899954558
0.7899954316
0.7899956007
0.7899953244
0.7899954301
0.7899946242
0.7899949171
0.789994702
0.7899943384
0.7899959614
0.7899960704
0.7899960684
0.7899958121
0.7899957309
0.7899957108
0.7899960092
0.7899965511
0.7899971164
0.7899973578
0.7899971538
0.7899966439
0.7899960066
0.7899954071
0.7899952264
0.789994801
0.7899953787
0.7899949018
0.7899953145
0.7899951166
0.7899951887
0.7899946069
0.7899943731
0.7899942991
0.7899939898
0.7899963622
0.7899963366
0.7899963009
0.7899961922
0.7899960894
0.7899959681
0.7899959638
0.7899961811
0.7899965612
0.7899968235
0.789996702
0.7899963043
0.7899958807
0.7899954438
0.7899952469
0.789994922
0.7899948824
0.789994473
0.7899949833
0.7899947734
0.789994825
0.7899940777
0.7899940696
0.7899939662
0.7899938073
0.7899966153
0.7899965808
0.7899965625
0.7899965097
0.7899964578
0.7899963669
0.7899962232
0.7899961486
0.7899962685
0.7899964744
0.7899965096
0.7899962533
0.7899958583
0.7899954452
0.7899949101
0.7899942165
0.789994545
0.7899948633
0.789995276
0.7899949606
0.7899944457
0.7899938881
0.7899930689
0.7899937071
0.7899936438
0.7899936055
0.7899969056
0.7899967672
0.7899967479
0.7899967381
0.7899967256
0.7899966636
0.7899965601
0.7899963952
0.7899961913
0.7899961772
0.7899961907
0.7899960251
0.7899957628
0.7899954135
0.7899950196
0.7899941654
0.7899945587
0.7899947096
0.7899949356
0.7899936767
0.7899941968
0.7899935659
0.7899935969
0.7899935601
0.78999366
0.7899934438
0.7899927555
0.7899927351
0.789992785
0.7899930115
0.7899933406
0.7899936584
0.789993921
0.7899941264
0.7899942761
0.7899943759
0.7899944535
0.7899945204
0.7899945741
0.789994607
0.7899946138
0.7899946002
0.7899945841
0.7899945955
0.7899946584
0.7899947673
0.789994907
0.7899950502
0.7899951736
0.7899952623
0.7899953078
0.7899953047
0.7899929176
0.7899928527
0.7899928983
0.7899931058
0.7899934894
0.7899939309
0.789994306
0.7899945571
0.789994692
0.7899947631
0.7899948046
0.7899948271
0.7899948294
0.7899948074
0.7899947599
0.789994701
0.7899946554
0.7899946512
0.7899947082
0.7899948226
0.7899949766
0.7899951245
0.789995235
0.7899952948
0.7899953076
0.7899952836
0.7899934168
0.7899932478
0.7899932865
0.7899935161
0.7899939184
0.7899943481
0.7899946634
0.7899948326
0.7899949049
0.7899949363
0.789994954
0.7899949635
0.7899949597
0.7899949304
0.7899948752
0.7899948197
0.7899947889
0.7899947931
0.7899948191
0.7899948998
0.7899950463
0.7899951977
0.7899953138
0.7899953747
0.7899953863
0.7899953675
0.7899939837
0.7899938024
0.7899938163
0.7899940437
0.7899943828
0.7899946904
0.7899948808
0.7899949605
0.7899949814
0.7899949879
0.7899949985
0.7899950135
0.7899950183
0.7899949939
0.789994951
0.7899949307
0.7899949518
0.7899949978
0.7899949965
0.7899950189
0.7899951354
0.7899952796
0.7899954001
0.7899954642
0.7899954802
0.7899954694
0.7899943965
0.7899942329
0.7899942188
0.7899943949
0.7899946463
0.7899948524
0.7899949626
0.7899949948
0.7899949896
0.7899949837
0.7899949968
0.7899950266
0.7899950457
0.7899950303
0.7899950092
0.7899950415
0.7899951378
0.7899952442
0.7899952378
0.7899952157
0.7899952786
0.7899953877
0.7899954855
0.7899955303
0.7899955496
0.7899955556
0.7899945833
0.7899944556
0.7899944318
0.7899945582
0.7899947515
0.7899949093
0.7899949921
0.7899950104
0.7899949912
0.7899949733
0.7899949922
0.7899950478
0.7899950947
0.7899950971
0.789995091
0.7899951662
0.7899953313
0.789995497
0.7899954983
0.789995488
0.7899954938
0.7899955389
0.7899955714
0.7899955674
0.7899955901
0.7899956172
0.7899946268
0.7899945451
0.7899945399
0.7899946391
0.7899948032
0.7899949487
0.7899950335
0.7899950529
0.7899950234
0.7899949936
0.7899950227
0.7899951183
0.7899952131
0.7899952465
0.7899952669
0.7899953466
0.7899955223
0.7899957352
0.7899957287
0.7899957934
0.7899957496
0.7899957262
0.7899956626
0.7899955912
0.7899956114
0.789995664
0.7899946167
0.7899945831
0.7899946168
0.7899947162
0.7899948702
0.7899950177
0.7899951129
0.7899951377
0.7899951037
0.7899950683
0.7899951117
0.7899952514
0.789995406
0.7899955018
0.7899955576
0.7899956169
0.7899957498
0.7899959578
0.7899959196
0.7899960947
0.7899959972
0.7899959208
0.7899957582
0.7899956236
0.7899956436
0.7899957109
0.7899945827
0.7899946072
0.7899946968
0.7899948242
0.7899949832
0.7899951339
0.7899952353
0.7899952636
0.7899952263
0.7899951862
0.7899952411
0.7899954188
0.7899956399
0.7899958129
0.7899959167
0.7899959541
0.7899960173
0.7899961665
0.7899958947
0.7899963587
0.7899961881
0.7899961045
0.7899958869
0.7899957342
0.7899957528
0.7899958202
0.7899945324
0.7899946268
0.7899947842
0.7899949599
0.789995137
0.7899952895
0.7899953904
0.7899954175
0.7899953794
0.7899953406
0.7899954003
0.7899955985
0.7899958651
0.7899960988
0.7899962606
0.7899963166
0.789996409
0.7899965065
0.7899965437
0.7899966347
0.7899965067
0.789996336
0.7899960925
0.7899959216
0.7899959194
0.7899959814
0.7899944746
0.7899946405
0.7899948648
0.7899950923
0.7899952942
0.7899954516
0.7899955527
0.7899955845
0.7899955565
0.7899955325
0.7899956036
0.7899958023
0.7899960631
0.789996297
0.7899964959
0.7899965582
0.7899966714
0.7899967337
0.789996777
0.789996865
0.7899967694
0.7899965942
0.7899963336
0.789996133
0.7899960799
0.7899960875
0.7899944299
0.7899946484
0.7899949208
0.7899951872
0.7899954123
0.7899955837
0.7899956953
0.7899957404
0.7899957332
0.7899957372
0.7899958307
0.7899960184
0.789996224
0.7899964356
0.7899967007
0.7899967462
0.789996895
0.7899969371
0.7899970289
0.7899970981
0.789997052
0.7899968905
0.7899965911
0.7899963407
0.7899962346
0.7899961188
0.7899944262
0.7899946572
0.789994948
0.789995231
0.789995468
0.7899956511
0.7899957791
0.7899958483
0.7899958752
0.7899959131
0.7899960191
0.7899961537
0.7899963094
0.7899966489
0.7899970231
0.7899969121
0.7899970711
0.7899970898
0.7899972079
0.7899973157
0.789997358
0.7899972285
0.7899968731
0.7899965335
0.7899963198
0.7899960599
0.7899944758
0.7899946749
0.7899949564
0.7899952337
0.7899954676
0.7899956507
0.7899957869
0.7899958848
0.7899959539
0.7899960245
0.7899961243
0.789996195
0.7899964483
0.7899970391
0.7899972969
0.7899971822
0.7899972345
0.7899972227
0.7899973462
0.7899975069
0.7899976469
0.7899975585
0.7899972038
0.7899967665
0.7899963983
0.7899960419
0.7899945573
0.7899946944
0.7899949519
0.789995213
0.7899954355
0.7899956137
0.7899957536
0.7899958641
0.7899959535
0.7899960359
0.7899961324
0.789996167
0.7899966553
0.7899973738
0.7899977584
0.7899976147
0.7899974145
0.7899973838
0.789997426
0.7899976239
0.7899978163
0.7899978193
0.7899974935
0.7899970113
0.7899965447
0.7899961648
0.7899946317
0.7899946881
0.7899949234
0.7899951697
0.7899953791
0.789995549
0.7899956954
0.7899958205
0.7899959189
0.7899959924
0.789996077
0.7899962144
0.7899965862
0.7899972902
0.7899977012
0.7899976961
0.7899976418
0.7899975659
0.7899975497
0.7899976279
0.7899978084
0.7899978946
0.7899976299
0.7899971726
0.7899966426
0.7899961625
0.7899946849
0.7899946217
0.7899948248
0.7899950617
0.7899952533
0.7899954007
0.7899955457
0.7899956994
0.7899958559
0.7899959642
0.7899960347
0.789996159
0.7899963947
0.7899967777
0.7899973004
0.7899976001
0.7899977242
0.7899976917
0.7899976492
0.7899975714
0.7899975553
0.789997665
0.7899974809
0.7899970705
0.7899965868
0.7899961376
0.7899947676
0.7899945248
0.7899946591
0.7899948734
0.7899950647
0.7899952219
0.7899953601
0.7899955048
0.7899957199
0.7899959321
0.7899960798
0.7899962034
0.7899964229
0.7899967643
0.7899971946
0.7899975339
0.7899977957
0.7899980534
0.7899982349
0.7899979937
0.7899975816
0.7899978128
0.7899972456
0.7899969471
0.7899965319
0.7899960436
0.7899949111
0.7899944881
0.7899944887
0.7899947253
0.7899950409
0.7899952529
0.7899952978
0.7899953239
0.789995506
0.7899957665
0.7899960225
0.7899962399
0.789996426
0.7899966788
0.7899970047
0.7899973445
0.7899976005
0.789997994
0.7899980139
0.7899982007
0.7899975979
0.7899974065
0.789997089
0.7899968105
0.7899964185
0.7899959048
0.7899950897
0.7899946154
0.7899945168
0.7899947706
0.7899951901
0.7899955083
0.7899955231
0.7899953255
0.7899952691
0.78999551
0.7899957931
0.7899960641
0.7899963043
0.789996527
0.7899967861
0.789997056
0.7899972762
0.789997545
0.7899978223
0.7899980186
0.7899974964
0.7899973024
0.789996972
0.7899966598
0.789996248
0.789995716
0.7899952217
0.7899947911
0.7899945922
0.78999463
0.7899950445
0.7899955145
0.7899956803
0.7899954706
0.7899950846
0.7899951606
0.7899954733
0.7899957878
0.7899960466
0.7899962819
0.7899965143
0.789996768
0.7899969763
0.7899971825
0.789997247
0.7899974135
0.7899971905
0.7899970061
0.7899967234
0.789996383
0.7899959363
0.7899953842
0.7899952837
0.7899949997
0.7899948144
0.7899947389
0.7899949145
0.7899952614
0.7899954708
0.7899954298
0.7899951715
0.789994937
0.7899950948
0.7899954438
0.7899957776
0.7899960059
0.7899961874
0.7899963825
0.7899965872
0.7899967718
0.7899968711
0.7899969695
0.7899968154
0.7899966141
0.7899963356
0.7899959444
0.7899954475
0.7899949383
0.789995298
0.7899951643
0.7899950239
0.7899948628
0.7899948213
0.7899949515
0.7899951826
0.7899953148
0.7899953349
0.7899952547
0.7899951386
0.7899951272
0.7899953914
0.7899957224
0.7899959124
0.7899960202
0.7899961823
0.789996339
0.789996454
0.7899964887
0.7899963669
0.7899960511
0.7899958872
0.7899954532
0.7899950014
0.7899946263
0.7899952872
0.7899952244
0.7899950937
0.789994833
0.7899946929
0.7899947419
0.7899949507
0.7899952315
0.7899956001
0.789995804
0.7899956285
0.7899953405
0.7899951991
0.7899953435
0.7899956313
0.7899957177
0.789995836
0.7899959179
0.7899960504
0.7899960591
0.7899959617
0.7899956741
0.7899954912
0.789995089
0.7899946823
0.7899944269
0.7899953304
0.7899953129
0.7899952245
0.7899949084
0.7899946721
0.7899947027
0.7899949621
0.7899954054
0.7899960149
0.7899963851
0.7899962728
0.789995925
0.7899954895
0.7899951531
0.7899952352
0.7899953542
0.7899955656
0.7899955305
0.7899956916
0.7899956532
0.7899955748
0.7899952276
0.789995097
0.7899947395
0.7899943826
0.7899954812
0.7899955183
0.7899954679
0.7899951931
0.7899949412
0.7899948494
0.7899950969
0.7899956217
0.7899963748
0.7899969311
0.7899969896
0.7899966902
0.7899961071
0.7899953343
0.789994931
0.7899948272
0.7899952001
0.7899952135
0.7899953997
0.789995403
0.7899951907
0.7899948615
0.7899947576
0.7899942859
0.7899939825
0.789995756
0.7899958204
0.7899957725
0.7899955573
0.7899954347
0.7899953547
0.7899956116
0.7899961905
0.7899968956
0.7899972258
0.7899970187
0.7899964049
0.7899955992
0.7899948421
0.7899946387
0.7899941544
0.7899949022
0.7899945541
0.7899947383
0.7899950265
0.7899949266
0.7899945302
0.7899941411
0.7899939692
0.7899937682
0.7899961525
0.7899961751
0.7899961312
0.7899960137
0.7899958791
0.7899957361
0.7899956873
0.7899958619
0.7899963477
0.7899966826
0.7899965046
0.7899959366
0.7899952567
0.7899946424
0.7899943865
0.7899942588
0.7899945279
0.7899942986
0.7899947172
0.7899958444
0.7899946228