/*--------------------------------*- C++ -*----------------------------------*\
  =========                 |
  \\      /  F ield         | OpenFOAM: The Open Source CFD Toolbox
   \\    /   O peration     | Website:  https://openfoam.org
    \\  /    A nd           | Version:  8
     \\/     M anipulation  |
\*---------------------------------------------------------------------------*/
FoamFile
{
    version     2.0;
    format      ascii;
    class       volScalarField;
    location    "0.7";
    object      nut;
}
// * * * * * * * * * * * * * * * * * * * * * * * * * * * * * * * * * * * * * //

dimensions      [0 2 -1 0 0 0 0];

internalField   nonuniform List<scalar> 
67410
(
2.293563412e-05
3.221106104e-05
7.665594404e-05
0.0001662448577
0.0002736688637
8.220456977e-05
9.104883373e-05
9.638696495e-05
9.914238446e-05
0.0001005135331
0.0001016907159
0.0001036430273
0.0001066127645
0.0001096646561
0.0001108874762
0.0001081901188
0.0001013910893
9.666608467e-05
9.75986184e-05
9.991693992e-05
0.0001044456895
0.0001116930058
0.0001211485832
0.0001308453079
0.0001389027189
0.0001447502443
0.0001241578156
0.0001494010628
0.0002001334985
0.0003009406603
8.813591831e-05
0.0001008930259
0.0001091211705
0.0001134277173
0.0001152539408
0.000116276708
0.0001182816706
0.0001225617072
0.0001287745637
0.000134627588
0.000137058634
0.0001330986958
0.0001206858021
0.0001065170407
0.0001049298499
0.00010560283
0.000109048345
0.0001156438932
0.0001252794196
0.0001352089721
0.0001422538684
0.0001457197151
0.0001160525691
7.777677097e-05
8.474275168e-05
9.543048389e-05
0.0001072556998
0.0001164898677
0.0001220350533
0.0001244591927
0.0001251781105
0.0001260826833
0.0001292269499
0.0001356722658
0.000144092379
0.0001513708875
0.0001545822283
0.0001513525103
0.0001387958959
0.0001192915137
0.0001152488537
0.000114511097
0.0001169525539
0.0001239433085
0.0001358025504
0.0001475856879
0.0001534255522
0.0001506421988
8.567201904e-05
9.529878915e-05
0.0001027832309
0.00011213691
0.0001212257719
0.0001278292426
0.0001312962715
0.0001322645597
0.0001321383296
0.0001329343033
0.0001367700959
0.0001443209296
0.0001536067558
0.0001612931346
0.0001649433391
0.0001630168974
0.000152611474
0.0001318557215
0.0001270993762
0.0001271292021
0.0001307453492
0.0001400456729
0.0001543028935
0.0001673337838
0.000173298637
0.0001667718616
9.475657158e-05
0.0001060323254
0.0001134969853
0.0001223606489
0.0001302952905
0.0001355222135
0.0001378008509
0.0001378270407
0.0001369809082
0.0001373396426
0.0001410146483
0.0001485249757
0.0001578241584
0.0001658089024
0.0001703829235
0.0001695881301
0.0001606373847
0.0001415148837
0.0001381049372
0.0001403788818
0.0001465939424
0.0001584044757
0.000173173121
0.0001854425218
0.0001926729206
0.0001890794917
9.949965278e-05
0.0001119822725
0.0001199235372
0.0001287784679
0.0001361774298
0.0001407456348
0.0001424356298
0.0001418735384
0.000140318049
0.0001398162866
0.0001424631326
0.0001489023213
0.0001576469912
0.0001660777185
0.0001715917353
0.0001716058971
0.0001634581246
0.000148338309
0.000147915717
0.0001525868789
0.0001610780749
0.0001739783925
0.0001875209871
0.0001977933421
0.0002067072263
0.0002088851815
0.0001021055598
0.0001155311131
0.0001238643811
0.0001327179023
0.0001398891741
0.0001442661271
0.0001458225642
0.0001450436637
0.0001428879641
0.0001414120602
0.0001425707842
0.0001471251648
0.0001542739408
0.0001620405837
0.0001677885703
0.0001683939383
0.0001618402316
0.0001537302465
0.0001567327349
0.0001630984814
0.0001727063516
0.0001853490833
0.0001972063059
0.0002074319657
0.0002190218666
0.0002238303879
0.0001035833625
0.0001176081807
0.0001260340802
0.0001348078135
0.0001419664428
0.0001464957585
0.0001483242214
0.0001475776363
0.0001453369608
0.0001435016878
0.0001437196855
0.0001465904284
0.0001515273018
0.000157053429
0.0001602635615
0.0001609328838
0.0001584368542
0.000158846565
0.00016469902
0.0001721898092
0.0001821142064
0.0001940015156
0.0002048995011
0.0002160740816
0.0002308377888
0.000236454989
0.0001044659776
0.0001186999792
0.000126879318
0.0001354736519
0.0001427557604
0.0001476697261
0.0001499588837
0.0001496579372
0.000148014937
0.0001468351733
0.0001476327786
0.0001510255465
0.0001565797053
0.0001627007761
0.0001582005302
0.0001563037042
0.0001574303243
0.0001640217835
0.0001724378939
0.0001815669949
0.0001921982808
0.0002035104825
0.0002118512114
0.00022134143
0.0002392009245
0.0002452890616
0.0001052136557
0.0001192577624
0.0001268498805
0.0001351081619
0.0001425575568
0.0001480121465
0.0001509420008
0.0001515321594
0.0001511585933
0.0001516845737
0.0001548295688
0.0001619606958
0.0001743354357
0.0001897134162
0.0001697110648
0.000162028826
0.0001607049893
0.0001694309306
0.0001812296576
0.0001938268251
0.0002068171618
0.000218295809
0.0002208408511
0.00021964636
0.0002397464133
0.0002477658336
0.0001064035031
0.000119872622
0.0001265179491
0.000134154621
0.0001416547317
0.0001476837827
0.0001515907677
0.0001535961324
0.000155260434
0.0001587304661
0.0001666488953
0.0001830634884
0.0002112605643
0.0002418951656
0.0001963422078
0.0001757249636
0.0001669611182
0.0001751203495
0.0001919152857
0.0002102563223
0.0002277149164
0.0002413814956
0.0002386530456
0.0002120803136
0.000228351795
0.0002439045663
0.000108667019
0.0001213344159
0.0001267370255
0.0001333141703
0.0001404812608
0.0001470176648
0.0001522690997
0.0001564937143
0.0001613857223
0.0001699905439
0.0001880494736
0.000222995527
0.0002716261628
0.0003158645686
0.0002523840521
0.0002011243706
0.000176737247
0.0001807279876
0.0002040460206
0.0002298500484
0.0002531071733
0.0002703363298
0.0002678541919
0.0002207948083
0.0002083625517
0.0002377583054
0.0001123332575
0.0001245667415
0.0001289735129
0.0001342283893
0.0001402541047
0.0001468698424
0.0001539996219
0.0001615692168
0.0001714392538
0.0001893229398
0.000225415054
0.0002822836403
0.0003483686596
0.0004105862275
0.0003428337277
0.0002524739997
0.0001956329559
0.000185468674
0.0002150166859
0.0002496214006
0.0002792993637
0.0003000776291
0.0002965446721
0.000257437876
0.0002115250483
0.0002296764764
0.000117221228
0.0001305747654
0.0001358224204
0.000140780195
0.0001444633278
0.0001490453404
0.0001580576697
0.0001700696239
0.0001870287559
0.0002190447759
0.000275072193
0.0003477598964
0.0004293082213
0.0004998630437
0.0004375391595
0.0003222209064
0.0002293647332
0.0001900037608
0.0002188227528
0.0002639333444
0.0002996240074
0.0003217112426
0.0003200975317
0.0002864391585
0.0002452547725
0.0002016777525
0.0001230661249
0.0001404534678
0.0001501986324
0.0001577426684
0.0001587640194
0.000155921478
0.0001626359166
0.0001788739441
0.000202972711
0.0002453064838
0.0003089200613
0.0003847464091
0.0004722949397
0.000540736175
0.000448646532
0.000331601978
0.0002385160346
0.0001952670282
0.0002096030119
0.0002607892354
0.0003030939833
0.0003288135613
0.0003304299785
0.0002964001311
0.00025105823
0.000194194684
0.0001299657488
0.0001545052099
0.0001712451458
0.0001835911401
0.0001852014616
0.0001722868838
0.000161584645
0.0001727668588
0.0001899819282
0.0002080092346
0.000234653877
0.0002811457558
0.0003479898634
0.0003965251114
0.0003441482088
0.000258947561
0.0002237203766
0.0002082797768
0.0002350232811
0.0001974435357
0.0002527469046
0.0003043249055
0.0003122188163
0.0002467596815
0.0001757368626
0.0001725787939
0.0001381740532
0.0001713651237
0.0001941529429
0.0002105188858
0.0002167973313
0.0002060036267
0.0001732915456
0.0001616129223
0.0001778346513
0.0002006514971
0.0002188880029
0.0002405626674
0.0002723586777
0.0002979083391
0.00026538493
0.0002417839675
0.0002303056005
0.0002563642393
0.0003250522012
0.0001815224054
0.0001840512159
0.0002388997905
0.0002606166049
0.0001821675212
0.0001488895285
0.0001689649905
0.0001466912355
0.0001877834608
0.0002143116665
0.0002345567884
0.0002458800234
0.0002419987195
0.0002102894616
0.0001622345088
0.0001523854426
0.0001743634477
0.0002009240552
0.0002189695312
0.0002348492234
0.00024669284
0.000240299881
0.0002392137236
0.0002691424212
0.000351510471
0.0004342946853
0.0002642721392
0.0001817880509
0.0001837151307
0.0002067377762
0.0001446953983
0.0001272015093
0.0001481392564
0.0001514568032
0.000198489447
0.0002278240425
0.0002519529715
0.0002682881466
0.0002686880964
0.0002389762679
0.0001794663599
0.000146611042
0.0001479687672
0.0001679233469
0.0001945786373
0.000210333028
0.0002205981719
0.0002340723499
0.0002794663753
0.0003610964875
0.0004457723656
0.000480381721
0.000391237031
0.0002791511191
0.0001953890727
0.0001728578584
0.0001371772207
0.0001193699614
0.0001335745632
0.0001447299998
0.0001933557737
0.0002280062103
0.0002550925745
0.0002734821867
0.0002757571115
0.0002450058859
0.0001777391476
0.0001571099775
0.0001512076315
0.0001399731591
0.0001555401849
0.0001798730954
0.0001922054448
0.0001994367072
0.000218798953
0.0002668438326
0.0003343158344
0.0003797348088
0.0002758102079
0.0002022142955
0.0001675341983
0.0001533746137
0.0001313582509
0.0001169821518
0.0001287954022
0.000133375545
0.0001551466416
0.0001816166293
0.0002077742151
0.0002266551627
0.0002269127599
0.0001941390164
0.0001695323461
0.0001703968062
0.0001683917843
0.0001474144854
0.0001362973387
0.0001410656958
0.0001598044364
0.0001686737046
0.0001752103271
0.000196289285
0.0002401982767
0.0002837593456
0.0001984536943
0.0001699377202
0.0001577254089
0.0001440018419
0.0001253943101
0.0001151809809
0.0001251371792
0.0001325301385
0.00014223159
0.0001553862252
0.0001698210905
0.0001771813831
0.0001722066057
0.0001725463182
0.0001823910453
0.0001859126911
0.0001832030719
0.0001626631112
0.0001493502725
0.0001357481482
0.0001300447118
0.0001404515005
0.0001460278664
0.0001541991364
0.0001753284944
0.0002077521248
0.0001657728355
0.0001587705894
0.000151008128
0.0001358649348
0.0001182361593
0.0001126115585
0.0001223900222
0.0001329332718
0.000134636987
0.0001407218205
0.0001510224358
0.0001632546344
0.0001764246773
0.0001886862057
0.0001967692144
0.0001993244213
0.0001961377042
0.0001774183747
0.0001641105331
0.00014882376
0.0001339515559
0.0001239952762
0.0001248453086
0.0001308701999
0.0001419921646
0.000160058949
0.0001511692098
0.0001508714124
0.0001434615057
0.0001267445192
0.0001113326724
0.0001081379521
0.0001187659926
0.0001347977073
0.0001385263149
0.000148958573
0.0001645142847
0.0001796957364
0.0001927115025
0.0002027460699
0.0002099181544
0.0002136579045
0.0002110881846
0.0001941110819
0.000178012068
0.0001610748902
0.0001438512381
0.0001292273378
0.0001188331197
0.0001168073096
0.0001233580234
0.000135858254
0.0001407557963
0.0001422324695
0.0001341119812
0.0001172937826
0.0001044435937
0.0001013989037
0.0001113163516
0.0001361052409
0.0001462717696
0.0001613686851
0.0001782983896
0.0001922170923
0.0002041097751
0.0002149989418
0.0002246273258
0.0002306979126
0.0002280118863
0.0002112739584
0.0001910702768
0.000170456793
0.0001502390815
0.0001335271099
0.0001210663198
0.0001128983276
0.0001121757224
0.000120463537
0.0001289426012
0.0001320104121
0.0001220042678
0.0001068373769
9.689826574e-05
9.326665568e-05
0.0001370472234
0.0001544223482
0.0001717247746
0.0001875637336
0.0002009213714
0.0002128752936
0.0002255778463
0.0002376728515
0.000244603103
0.0002403997827
0.0002253997425
0.0002024927313
0.0001761231034
0.0001490773101
0.0001311702578
0.0001186052072
0.0001114378108
0.0001088609114
0.0001094229848
0.0001166814192
0.0001205608217
0.0001099559063
9.939963592e-05
9.102452109e-05
8.571294616e-05
0.0001350888673
0.0001401808313
0.0001448748248
0.0001629891465
0.0001850346009
0.0002017056938
0.0002194642274
0.0002360191856
0.000244599361
0.0002403109953
0.0002264142222
0.0002041180924
0.0001756481707
0.0001499830893
0.0001283541347
0.000113163359
0.0001088118715
0.0001243159903
0.000129412282
0.0001127706481
0.0001146293751
0.0001499635441
0.0001044698578
8.659543713e-05
8.11425289e-05
0.0001243815597
0.0001304233706
0.0001372692789
0.0001531736357
0.0001725882497
0.0001893918989
0.000203173867
0.000216861942
0.0002275198656
0.0002282712599
0.0002140841459
0.000187512735
0.000163019143
0.0001419311149
0.0001241458655
0.0001115415245
0.0001152982848
0.0001180474952
0.0001119771576
0.0001103202941
0.0001419203782
0.0002093509056
0.0001582364332
0.0001152417425
8.617641508e-05
0.0001225105295
0.0001318985258
0.0001335021817
0.0001390979724
0.0001524762506
0.0001700977784
0.0001860250567
0.0001979477429
0.0002059433308
0.000207180478
0.00019399957
0.0001698814394
0.0001498944484
0.0001330563589
0.000118567437
0.0001069450085
0.0001092700274
0.0001100214163
0.0001068483559
0.0001343909564
0.0001938375559
0.0002539094417
0.0002281043031
0.0001797021101
0.0001253203514
8.593308993e-05
0.000128618043
0.0001413028225
0.0001428160732
0.0001437559455
0.0001444256416
0.0001487043081
0.0001613942489
0.0001756284305
0.0001851431834
0.0001860733575
0.0001728854332
0.0001536439769
0.0001386458428
0.0001273190728
0.0001181405043
0.0001066246704
0.0001080944155
0.0001076208417
0.0001056623824
0.0001431770841
0.0001980515578
0.000248269403
0.0002197361581
0.0001748375337
0.0001264777373
8.61529434e-05
1.620254728e-05
2.085753366e-05
5.559481136e-05
0.0001303904818
0.0002226627825
0.0003071860379
8.232912402e-05
8.796258291e-05
9.130175366e-05
9.330215693e-05
9.478607901e-05
9.631251399e-05
9.803049219e-05
9.951169208e-05
9.990714223e-05
9.863947871e-05
9.644366113e-05
9.56889393e-05
9.6939025e-05
9.896146995e-05
0.0001023420485
0.0001076659495
0.0001151011295
0.000123718376
0.0001320015078
0.0001389013347
9.009397786e-05
6.181876463e-05
7.983110467e-05
0.0001005350951
9.583292278e-05
0.0001051564013
0.0001152227252
0.0001228133214
0.0001273799304
0.000129999645
0.0001320517956
0.000134708379
0.0001383079882
0.0001414273485
0.000141322529
0.0001368756282
0.0001311164643
0.0001287808852
0.0001303973876
0.0001328360387
0.0001361449157
0.0001414553049
0.0001499136223
0.0001614664918
0.0001755577615
0.000192093296
0.0002143217489
9.483852015e-05
8.743451588e-05
9.399817876e-05
0.0001088623387
0.0001250047033
0.0001383231907
0.0001464590465
0.0001493305208
0.0001493840234
0.0001498503388
0.0001535455523
0.0001612069066
0.0001693600378
0.0001711291002
0.0001630322225
0.0001499887421
0.0001406938498
0.0001384188712
0.0001392738283
0.0001407272265
0.0001439311413
0.0001504607956
0.0001605428544
0.0001729899968
0.0001866206939
7.683660266e-05
0.0001002156035
0.0001046797456
0.0001178836246
0.0001357003928
0.0001543715964
0.0001698480093
0.0001767520105
0.0001748302523
0.0001698349532
0.00016802591
0.0001736629894
0.0001868916698
0.0002007563348
0.0002049335609
0.0001971368084
0.0001809129407
0.0001623225319
0.0001541870712
0.0001537210321
0.0001521172783
0.0001523585969
0.0001565480584
0.0001651336751
0.0001761959893
0.0001834365262
8.5963659e-05
0.000117506211
0.0001270669657
0.0001427953714
0.0001645495954
0.0001892008265
0.0002084466441
0.0002120156445
0.0002019093965
0.0001899174766
0.000185490382
0.0001927597317
0.0002092215416
0.0002247023961
0.0002314775318
0.0002277659799
0.0002147317713
0.0001919620385
0.000179035145
0.0001803493851
0.0001766081466
0.0001737592722
0.0001740013684
0.0001795874483
0.0001918863231
0.0001936920017
9.127896234e-05
0.0001326842937
0.0001461304671
0.0001657057019
0.000194048028
0.0002264114979
0.0002473643779
0.0002434226572
0.0002228333567
0.0002043456784
0.000198230431
0.0002064837138
0.0002239164962
0.0002412390233
0.0002509619477
0.0002514375149
0.0002444203709
0.000224985745
0.0002118675594
0.000216980379
0.0002133824325
0.0002076343499
0.0001999213621
0.0002002818823
0.000218861831
0.000219784591
9.425726562e-05
0.0001451342486
0.0001632113419
0.0001878016687
0.0002233515401
0.0002612397116
0.000279010433
0.000264488371
0.0002363962004
0.0002136428665
0.0002066691614
0.000215986544
0.0002345404085
0.0002534819566
0.0002654014129
0.0002697139062
0.0002692990309
0.0002589251787
0.0002534640877
0.0002619626629
0.000257740059
0.0002455038256
0.0002259731266
0.0002326602299
0.0002652925338
0.0002662257374
9.614780139e-05
0.0001566668731
0.0001799956451
0.0002097774892
0.0002508781877
0.0002898581181
0.0003001905704
0.0002816891678
0.0002512032805
0.000225835233
0.0002166902109
0.0002251238452
0.0002420398249
0.0002603278567
0.0002745001805
0.000282867981
0.0002881398049
0.0002909084873
0.0003013905262
0.0003114403902
0.0003014039592
0.0002764858039
0.000254313642
0.0002791991486
0.0003276656184
0.0003310414347
9.75916143e-05
0.0001682282113
0.0001975338068
0.0002317971898
0.0002752728995
0.0003107893657
0.0003157952395
0.0002978396136
0.0002684728442
0.0002423068394
0.0002309532355
0.0002367407497
0.0002497276332
0.0002621256488
0.0002724389438
0.0002837250015
0.0002969891903
0.0003194650787
0.0003498455674
0.000358064836
0.0003432115116
0.000312438455
0.0002922885622
0.0003284830999
0.0003873130959
0.0003998808243
9.900173544e-05
0.0001794717976
0.0002149436438
0.0002520937304
0.0002942850711
0.0003239359008
0.0003281815507
0.0003132902564
0.0002869305193
0.000261968865
0.0002501695922
0.000253911283
0.0002662335565
0.0002749819944
0.0002762346297
0.0002864322214
0.0003060072871
0.000344249611
0.0003940180225
0.0004089038096
0.0003986623628
0.0003676307383
0.0003394716142
0.0003664674093
0.0004246900943
0.0004516366851
0.0001007383223
0.0001890724967
0.0002291720312
0.0002665632988
0.0003049630235
0.0003320574524
0.0003383662278
0.0003282783198
0.0003069674119
0.0002858002161
0.000275221587
0.0002789446625
0.0002935666835
0.0003055998
0.0002957131028
0.0003115079249
0.0003273398491
0.0003656733317
0.0004356866294
0.0004705591892
0.000478561631
0.0004549861097
0.0004028186107
0.0003868017664
0.0004205249419
0.000463637101
0.0001031664131
0.0001959197884
0.000237127805
0.0002713629301
0.000304177847
0.0003312094026
0.0003440169215
0.0003417963196
0.0003286627746
0.0003126720352
0.0003050138556
0.000309844923
0.000327875443
0.0003759261391
0.0003812278832
0.0003566732114
0.0003591829124
0.0003832797233
0.0004688291419
0.0005433142662
0.0005891457939
0.0005882748279
0.0005080705597
0.0003911274258
0.0003404934629
0.0004161460084
0.0001064986261
0.0002002173103
0.0002381979969
0.0002658898527
0.0002905724764
0.0003135670784
0.0003327779223
0.000343547891
0.0003449044859
0.0003393835101
0.0003363416948
0.0003452096755
0.0004596789065
0.0006644777679
0.0006225614839
0.0004640468873
0.0004032592505
0.0003984995005
0.0004879306386
0.0006233303796
0.0007235828148
0.000756685815
0.0006694313957
0.0005012666248
0.0002821389787
0.0003007532685
0.0001105334348
0.0002033343513
0.0002349269899
0.0002535882188
0.0002674169537
0.0002810550784
0.0002990493649
0.0003221002159
0.0003452939024
0.0003562977425
0.0003602340583
0.000441059395
0.0007378416711
0.000981921927
0.0009364503576
0.0006579420896
0.0004631371957
0.0004171937817
0.0004874549021
0.0006896391668
0.0008370821737
0.0008881542574
0.0008127283896
0.0006316968293
0.0003731694814
0.0002357446046
0.0001147008372
0.0002067733553
0.0002325825487
0.0002420153903
0.0002427250019
0.0002422949538
0.0002519760628
0.0002775086311
0.0003137037647
0.0003469972393
0.000376915792
0.00050229523
0.000857044362
0.001088490446
0.001025765348
0.0007494109355
0.0005383409277
0.0004492795858
0.0004591465571
0.0006932162853
0.0008700375126
0.0009388502562
0.0008752239404
0.000694506486
0.0004179232961
0.0002195590705
0.0001185160638
0.0002113665002
0.0002380610012
0.0002432619733
0.0002302054744
0.0002108682639
0.0002073418963
0.0002274706549
0.0002689999884
0.0003256592634
0.0003829809104
0.0004688818536
0.0007055447186
0.0009359446133
0.000938334946
0.0007382562788
0.0006169210888
0.0005331262012
0.0004570088574
0.0005797568301
0.0008241084054
0.0009090673649
0.0008616371168
0.0006996930271
0.0004014820217
0.0002487052906
0.000122223469
0.0002186552758
0.0002612832611
0.0002709198562
0.0002550961803
0.0002197751727
0.0001918778067
0.0001908809651
0.000216860174
0.0002736731093
0.0003564744244
0.0004493696494
0.0005562223023
0.0006790756095
0.0007149773104
0.0007013719338
0.0006702719795
0.0006384138182
0.0005739871755
0.0005012183582
0.0005177357723
0.0007178609629
0.0006768112429
0.0004860053968
0.0002832761033
0.0002243462589
0.000126224499
0.0002267194765
0.0002890343422
0.000329851772
0.000346972592
0.0003142815502
0.0002470139038
0.0001935679436
0.0001841095011
0.0002150104434
0.0002850641282
0.0003864258409
0.0004832282221
0.0005649345072
0.0006248598671
0.0006755037258
0.0007359249991
0.0008763572506
0.0009994656809
0.000747940265
0.000527251423
0.0005806997707
0.0004397939789
0.0003406710721
0.0002568405452
0.0002215930107
0.0001290472353
0.0002293529224
0.0003058196034
0.0003876462554
0.0004534044892
0.0004496849449
0.0003737207594
0.0002529778079
0.0001886411828
0.0001801488227
0.0002049573314
0.0002684495834
0.0003599639085
0.0004494803019
0.0005264922459
0.0005967228325
0.0007599057616
0.001061151352
0.001106398028
0.0009057753763
0.0005465567889
0.000470621728
0.0003670987173
0.0003071290339
0.0002424305109
0.0002118325399
0.000128444975
0.0002234837342
0.0003073405925
0.0004066763112
0.0004881015824
0.0005144538052
0.0004762122936
0.0003522982891
0.0002298424421
0.0001928860863
0.0001790345078
0.0001918277986
0.0002466123445
0.000323680253
0.0004007789456
0.0004682397484
0.0005588052006
0.0007560384359
0.0008659267033
0.0007183707697
0.000496364742
0.0004077724263
0.0003363401007
0.0002801127264
0.0002252095215
0.0001992441534
0.0001256807577
0.0001958287502
0.0002555427041
0.000348677959
0.0004480988049
0.0005078886072
0.0005016236558
0.0004185692001
0.000291204613
0.0002339104943
0.0002040558607
0.0001820259643
0.0001851086624
0.0002291794173
0.0002904800904
0.0003434428192
0.0003900516813
0.0004502334464
0.0004756515004
0.0004527567317
0.0004016859789
0.0003481711315
0.0002935212481
0.0002442472301
0.0002002640499
0.0001804952819
0.00012530857
0.0001830672127
0.0002154531191
0.0002626372785
0.0003234651494
0.0003852613175
0.0004263664801
0.0003937071097
0.0003233869753
0.0002710521219
0.0002450218655
0.0002139231695
0.0001877884248
0.0001815421489
0.0002169341539
0.0002652520177
0.0003082535676
0.0003454626578
0.0003685855002
0.0003596051662
0.0003424018379
0.0002975671198
0.0002514491537
0.0002070352003
0.0001721282201
0.0001548776836
0.0001247293608
0.0001740679698
0.0001948634844
0.0002232871752
0.0002630997656
0.0003135905299
0.0003580314519
0.0003538787281
0.0003229185151
0.0002913959888
0.0002666921686
0.0002474782922
0.0002188741267
0.0001869000969
0.0001762271811
0.0002027345083
0.0002426476751
0.000278288366
0.0002994900601
0.0003142861421
0.0002938369559
0.0002552911697
0.0002103427902
0.0001736454428
0.0001449503366
0.0001291018237
0.0001248008911
0.0001696850852
0.0001881806752
0.0002198826032
0.0002588428129
0.0002997006392
0.0003255249227
0.0003324751217
0.0003360245671
0.0003292431734
0.0003010751661
0.0002672059927
0.0002408150466
0.0002134103693
0.000175567455
0.0001675742985
0.0001874681383
0.0002180087637
0.0002384664567
0.0002497932292
0.0002362071776
0.0002052236896
0.0001735389183
0.0001470060315
0.000126065636
0.0001117645919
0.0001246440694
0.0001703412679
0.0001888332619
0.000231213218
0.0002748697556
0.0002958141822
0.0003179233286
0.0003536316127
0.0003900157918
0.0003860116938
0.0003463283781
0.0002911477661
0.0002513235545
0.0002217927048
0.000192590113
0.0001674891919
0.0001609338455
0.000170985794
0.0001880340619
0.0001951028942
0.0001881077746
0.0001660573992
0.0001455551036
0.0001280449056
0.0001213556286
0.0001232778017
0.0001693690575
0.0001869578525
0.0002287488689
0.0002576149116
0.0002758252879
0.0003191205773
0.0003819116642
0.0004267615799
0.0004184620526
0.0003753148152
0.0003105348598
0.0002463764739
0.0001963986726
0.0001729485965
0.000167355388
0.0001670384041
0.0001693795898
0.0001764145218
0.000160067528
0.0001595056276
0.0001541734641
0.0001348651106
0.000113974336
0.0001297873856
0.0001195701082
0.0001628594188
0.0001710477476
0.000194059012
0.0002127704644
0.0002338416914
0.0002949737971
0.000370227036
0.0004128898417
0.0003977937125
0.0003487148315
0.0002742426133
0.0001908973475
0.0001566568756
0.0001418320556
0.0001425114032
0.0001753361393
0.0002237951145
0.0002235722169
0.0001546449914
0.0001443787894
0.0001878821358
0.0001316775486
0.0001037977725
0.0001281947248
0.0001147414085
0.0001547238964
0.0001616144721
0.0001713117051
0.0001877226777
0.0002185228548
0.000258000575
0.0003146986173
0.0003717804664
0.0003784997939
0.0003324823101
0.0002562459197
0.0001973759251
0.0001652060808
0.0001464449511
0.0001505160092
0.0001868647565
0.0001926748589
0.0001739168157
0.0001920326617
0.000209940853
0.0004210397936
0.0003005056476
0.0001444539236
0.0001097980431
0.0001144873227
0.0001654549858
0.0001776088782
0.0001861731176
0.0001951463756
0.0002057193137
0.0002309120091
0.0002748403445
0.0003092719045
0.0003185850416
0.000293642768
0.0002563947859
0.0002163309251
0.0001808745635
0.0001701012126
0.000131974448
0.000146621061
0.00015829859
0.0001314796999
0.0001598027616
0.0004049079011
0.0006617204795
0.0005794036907
0.0002543027391
0.000128576565
0.0001224464556
0.0001198332085
0.0001915582143
0.0002203103509
0.000238346246
0.0002455536993
0.0002436558812
0.0002374303334
0.0002325241644
0.0002614630327
0.0002805156779
0.0002677191307
0.0002468687111
0.0002152058468
0.000184937161
0.0001743344533
0.000121386235
0.0001325649299
0.000131150584
0.0001251076368
0.0001892585746
0.0004595708845
0.000656421673
0.0005754585391
0.0002577652822
0.0001182168869
0.0001286860998
1.009242519e-05
1.203755642e-05
3.808747398e-05
0.0001007566271
0.0001836662001
0.0002616060121
7.65455468e-05
8.258075993e-05
8.667118458e-05
8.937981962e-05
9.141531119e-05
9.317669388e-05
9.478267492e-05
9.608700522e-05
9.683312877e-05
9.700963569e-05
9.713190382e-05
9.797170761e-05
9.949598135e-05
0.000101305422
0.0001037609803
0.000107444388
0.0001128459168
0.000119831849
0.000127500133
0.0001346703116
6.603770215e-05
3.581016487e-05
5.088536573e-05
7.417515152e-05
8.844200111e-05
9.810637263e-05
0.0001078235254
0.0001154375802
0.0001216284819
0.0001264403449
0.0001302325462
0.0001332382111
0.0001355543822
0.0001368721685
0.000136852964
0.0001364919436
0.0001381354704
0.0001426074306
0.0001481749354
0.0001536565043
0.0001587893512
0.0001648135629
0.0001728200574
0.0001835833236
0.0001972446658
0.0002132861225
0.0001795033263
7.160364417e-05
6.949096376e-05
7.61575466e-05
9.121840439e-05
0.0001088109983
0.0001237352507
0.0001335034719
0.0001387879045
0.0001417317029
0.00014381902
0.0001461303852
0.0001492835726
0.0001519771998
0.0001518228762
0.000149115209
0.0001475473637
0.0001496447005
0.0001543864003
0.0001600296746
0.0001650807806
0.0001703452819
0.0001765081246
0.0001857478387
0.0002002132628
0.0002205806823
0.0002987206601
9.073480297e-05
8.507017041e-05
9.595491159e-05
0.0001151104702
0.000135654989
0.0001517385633
0.0001591261396
0.0001588228348
0.0001560647654
0.0001550260029
0.0001579728738
0.0001651028083
0.0001725611677
0.000175379244
0.0001732381362
0.0001697252813
0.0001669240429
0.0001675644157
0.0001695170777
0.0001712218911
0.0001733678293
0.0001753915188
0.0001812732329
0.000194694889
0.0002160871914
8.357524259e-05
0.0001085527126
0.0001084473078
0.0001217074369
0.0001444569882
0.0001688032387
0.0001867142693
0.0001909213029
0.0001823187569
0.0001704452608
0.0001651156093
0.0001705363228
0.0001841392265
0.0001980527138
0.0002054102543
0.0002062448516
0.0002047513506
0.0001995814891
0.0001961821982
0.0001915779552
0.0001844126939
0.0001790826315
0.0001760127913
0.0001810359571
0.0001960687748
0.0002156397432
8.965560619e-05
0.0001278206037
0.0001308298244
0.0001458166355
0.0001729188629
0.0002024658528
0.0002229048723
0.0002244424225
0.0002077275703
0.0001854514872
0.0001750821516
0.0001836272886
0.0002030181994
0.0002202814955
0.0002274431285
0.0002314887663
0.0002380070648
0.0002384499352
0.0002362103312
0.0002252121821
0.0002049839008
0.0001864565909
0.000179166434
0.0001912993857
0.0002139333761
0.0002275445405
9.300553123e-05
0.000145470422
0.0001529875018
0.000169489497
0.0002003380642
0.0002340347416
0.0002561432643
0.0002564750241
0.0002349352277
0.0002044958224
0.0001888137965
0.0001975748632
0.0002183700298
0.000235030704
0.0002437204303
0.0002500796718
0.0002627776518
0.0002754387777
0.0002816563769
0.0002650079886
0.0002309400359
0.0001988529096
0.0001945612054
0.0002263876288
0.0002637500996
0.0002688626133
9.522283031e-05
0.0001633547893
0.0001777860221
0.0001961756714
0.0002285686992
0.0002631172581
0.0002851166845
0.0002855218828
0.0002616727151
0.0002264364607
0.0002054956042
0.000210709934
0.0002314684469
0.0002523529762
0.000266695118
0.0002762930201
0.0002903383571
0.0003100050362
0.0003280220731
0.0003070957655
0.0002630374682
0.0002253303598
0.0002303545697
0.0002840596156
0.0003398859403
0.0003455551559
9.705406595e-05
0.0001824371387
0.0002061999282
0.0002275111299
0.0002587496222
0.000290196012
0.0003099676901
0.0003091336665
0.0002835063079
0.0002457842995
0.0002202409905
0.0002223885416
0.0002460176127
0.0002741690347
0.0002967681615
0.000313993131
0.0003305014816
0.0003535906426
0.0003740713574
0.0003534411259
0.0003071559316
0.0002689082623
0.0002786786122
0.0003458878668
0.0004211821144
0.0004436984552
9.885957958e-05
0.0002013826135
0.0002351563517
0.0002597546599
0.0002880692471
0.0003139707431
0.0003297032275
0.0003271701894
0.0003014774014
0.0002628309742
0.0002343328216
0.0002341189358
0.0002595040137
0.0002907294444
0.000317981443
0.0003561366189
0.0003826664282
0.0004089825791
0.0004255395893
0.0004135766779
0.0003765281945
0.0003381194442
0.000335984865
0.0003974187592
0.0004866213709
0.0005380059139
0.0001008420185
0.0002177165672
0.0002600175633
0.0002873681205
0.0003129647983
0.000333897387
0.0003462747789
0.0003438747739
0.0003199296123
0.0002824004476
0.0002533254074
0.0002491490998
0.0002654781252
0.0002910127441
0.0003158065604
0.0003872438006
0.0004296818679
0.0004642290854
0.0004903651903
0.0004991734567
0.0004848773242
0.0004500812994
0.0004156943595
0.0004375468395
0.000517108228
0.0005994691301
0.0001032330278
0.0002297543255
0.0002782351377
0.0003084106046
0.0003337779563
0.0003537124818
0.000365841178