/*--------------------------------*- C++ -*----------------------------------*\
  =========                 |
  \\      /  F ield         | OpenFOAM: The Open Source CFD Toolbox
   \\    /   O peration     | Website:  https://openfoam.org
    \\  /    A nd           | Version:  8
     \\/     M anipulation  |
\*---------------------------------------------------------------------------*/
FoamFile
{
    version     2.0;
    format      ascii;
    class       volScalarField;
    location    "0.7";
    object      O2;
}
// * * * * * * * * * * * * * * * * * * * * * * * * * * * * * * * * * * * * * //

dimensions      [0 0 0 0 0 0 0];

internalField   nonuniform List<scalar> 
67410
(
0.2100072356
0.2100072049
0.2100070309
0.2100066822
0.2100062712
0.2100058632
0.210005519
0.2100053039
0.2100052005
0.2100051642
0.2100051616
0.2100051684
0.2100051659
0.2100051463
0.2100051214
0.2100051207
0.2100051655
0.210005196
0.2100051153
0.2100050056
0.2100048752
0.2100047498
0.2100046331
0.2100045177
0.2100044029
0.210004305
0.2100068216
0.2100067865
0.2100066068
0.2100062396
0.2100057368
0.2100052582
0.2100049674
0.2100048488
0.210004827
0.2100048486
0.2100048821
0.210004897
0.2100048674
0.2100047995
0.2100047334
0.2100047215
0.2100048196
0.2100049518
0.2100048889
0.2100048108
0.210004714
0.2100046313
0.2100045566
0.2100044811
0.210004413
0.2100043815
0.2100061857
0.2100061186
0.2100059019
0.2100055483
0.2100051421
0.2100048518
0.2100047235
0.2100047024
0.2100047276
0.2100047642
0.210004784
0.2100047517
0.2100046541
0.2100045289
0.2100044289
0.2100043878
0.210004476
0.2100046577
0.2100046149
0.2100045924
0.2100045504
0.2100045091
0.2100044324
0.2100043314
0.2100042658
0.2100043171
0.2100056342
0.2100055431
0.2100053499
0.2100050846
0.2100048296
0.2100046779
0.2100046357
0.210004652
0.2100046837
0.2100047047
0.2100046866
0.2100046011
0.2100044618
0.2100043329
0.2100042509
0.2100041988
0.2100042404
0.210004374
0.210004334
0.2100043634
0.2100043622
0.2100043318
0.2100042129
0.2100040614
0.2100039698
0.2100040687
0.2100053409
0.2100052727
0.2100051146
0.2100048887
0.2100046943
0.2100046022
0.2100045943
0.2100046193
0.2100046403
0.2100046345
0.2100045788
0.210004461
0.2100043176
0.2100042168
0.2100041541
0.2100041046
0.2100041124
0.2100041296
0.2100040836
0.2100041459
0.2100041526
0.2100040985
0.21000395
0.2100038104
0.2100037168
0.2100037626
0.2100052495
0.2100051798
0.2100050044
0.2100047782
0.2100046121
0.2100045521
0.2100045607
0.2100045855
0.2100045934
0.2100045644
0.2100044847
0.2100043544
0.2100042134
0.2100041155
0.2100040525
0.2100040118
0.2100039912
0.2100039301
0.2100038842
0.210003942
0.2100039298
0.2100038518
0.2100037331
0.2100036983
0.2100036625
0.2100036277
0.2100052279
0.2100051296
0.2100049237
0.2100046952
0.2100045496
0.2100045092
0.2100045262
0.2100045502
0.2100045487
0.2100045091
0.2100044206
0.2100042844
0.2100041298
0.2100040146
0.210003922
0.2100038938
0.2100038453
0.2100037698
0.2100037319
0.2100037497
0.2100037172
0.2100036462
0.2100036014
0.2100036709
0.2100036977
0.2100036933
0.2100052297
0.210005092
0.2100048598
0.2100046316
0.2100044984
0.2100044671
0.2100044864
0.2100045032
0.2100044968
0.210004455
0.2100043663
0.2100042276
0.2100040599
0.2100039281
0.2100037465
0.2100037436
0.2100036892
0.2100036388
0.2100036076
0.2100035776
0.2100035394
0.2100034915
0.210003492
0.2100036288
0.2100037059
0.2100037493
0.2100052496
0.2100050699
0.2100048167
0.2100045864
0.2100044553
0.2100044232
0.2100044362
0.2100044455
0.2100044342
0.2100043878
0.210004295
0.2100041591
0.2100040162
0.2100039127
0.2100035431
0.2100035937
0.2100035632
0.2100035369
0.2100035016
0.210003434
0.2100033942
0.2100033477
0.2100033483
0.2100035452
0.210003668
0.2100037414
0.2100052891
0.2100050674
0.2100047967
0.2100045591
0.2100044201
0.2100043785
0.2100043803
0.2100043812
0.2100043603
0.2100043012
0.2100042021
0.2100041169
0.2100041526
0.2100041245
0.2100033509
0.2100034611
0.2100034667
0.2100034516
0.2100033814
0.2100033052
0.2100032518
0.2100031816
0.2100031428
0.2100034286
0.2100036035
0.2100037036
0.2100053359
0.2100050783
0.2100047965
0.2100045493
0.2100043942
0.2100043358
0.2100043254
0.2100043144
0.2100042774
0.2100042054
0.2100041636
0.2100042956
0.2100046738
0.210004355
0.2100032655
0.2100033173
0.2100033883
0.2100034077
0.2100033103
0.2100031982
0.2100031113
0.2100029829
0.2100028912
0.2100032885
0.210003525
0.2100036846
0.2100053551
0.210005083
0.2100048071
0.2100045575
0.2100043826
0.2100043003
0.210004272
0.2100042391
0.2100041874
0.2100041624
0.2100043255
0.2100047775
0.2100048437
0.2100033033
0.2100033723
0.2100031901
0.2100033307
0.2100033827
0.2100032669
0.2100030957
0.2100029495
0.2100027137
0.2100026556
0.2100031263
0.2100035198
0.2100039153
0.2100053112
0.2100050624
0.210004823
0.2100045887
0.2100043905
0.2100042669
0.2100042023
0.2100041408
0.2100041102
0.2100042538
0.2100047093
0.210004899
0.2100035261
0.2100009477
0.2100031555
0.2100030965
0.2100032659
0.2100033553
0.2100032453
0.2100029878
0.2100027368
0.2100023538
0.2100024796
0.2100027307
0.2100031736
0.2100035059
0.2100052194
0.2100050415
0.2100048732
0.2100046646
0.2100044197
0.2100042066
0.2100040654
0.2100039801
0.2100040587
0.2100044576
0.2100048816
0.2100041141
0.2100015779
0.2099986096
0.210001992
0.2100026974
0.2100030598
0.2100032732
0.2100032705
0.2100028985
0.2100025532
0.2100022202
0.2100023903
0.2100026364
0.2100029059
0.210003403
0.210005155
0.2100050934
0.2100050021
0.2100047977
0.2100044945
0.2100041866
0.2100039608
0.2100038421
0.2100039637
0.210004332
0.2100043704
0.2100031108
0.210000426
0.2099981986
0.2100022631
0.210002552
0.2100028802
0.2100031058
0.2100034283
0.210002956
0.2100025737
0.2100023623
0.2100023503
0.2100027239
0.210002914
0.2100034759
0.2100051777
0.2100052167
0.2100051179
0.2100048568
0.2100045373
0.2100042847
0.2100040469
0.2100037049
0.2100034869
0.2100034337
0.210003588
0.210003799
0.2100034961
0.2100026997
0.2100025217
0.2100025454
0.2100026806
0.2100031745
0.2100033927
0.2100035255
0.2100031515
0.2100027608
0.2100026341
0.2100031876
0.2100035916
0.2100038475
0.2100052422
0.210005282
0.2100050718
0.2100047427
0.210004442
0.210004377
0.2100044593
0.2100040398
0.2100036718
0.2100034247
0.2100033628
0.2100033889
0.2100033185
0.2100028471
0.2100025589
0.2100024984
0.2100027874
0.2100031896
0.2100021845
0.2100037815
0.2100035405
0.2100033039
0.2100030507
0.210003579
0.2100038341
0.2100040196
0.2100052385
0.2100052225
0.2100049472
0.2100046276
0.2100043439
0.2100043248
0.2100046225
0.2100043412
0.2100039712
0.2100035725
0.2100033247
0.2100032546
0.2100031862
0.210002952
0.2100027456
0.2100029129
0.2100029911
0.2100020783
0.2100002312
0.2100032417
0.2100035437
0.2100038847
0.2100034167
0.210003795
0.210003883
0.2100040732
0.2100051184
0.2100051563
0.2100049155
0.210004618
0.2100043278
0.2100042649
0.2100045177
0.210004425
0.2100041506
0.2100038528
0.2100035413
0.2100032531
0.2100031419
0.2100030619
0.2100030689
0.2100030045
0.2100022556
0.2100008144
0.2100000936
0.2100021152
0.2100029247
0.210003422
0.2100035243
0.2100037606
0.2100038725
0.2100041357
0.2100048777
0.2100051812
0.2100049387
0.2100046251
0.210004334
0.210004237
0.2100044206
0.2100042862
0.2100040542
0.2100038436
0.2100037832
0.2100035596
0.2100032811
0.2100031694
0.2100031871
0.210003324
0.2100033084
0.2100028723
0.2100023691
0.2100029829
0.2100031884
0.2100033292
0.2100035389
0.2100037349
0.2100039685
0.2100042884
0.2100044136
0.2100051035
0.2100051277
0.210004948
0.2100047484
0.2100046131
0.2100044301
0.2100040831
0.2100038558
0.2100036874
0.2100036894
0.2100036895
0.210003622
0.2100033802
0.2100032719
0.2100032884
0.2100033383
0.2100033491
0.2100030123
0.2100030742
0.2100030698
0.2100033071
0.2100035652
0.210003804
0.2100041105
0.2100044456
0.2100040458
0.2100047025
0.2100048267
0.2100047678
0.21000455
0.2100042345
0.210003955
0.2100037991
0.2100036703
0.2100035662
0.2100035574
0.2100035049
0.2100035817
0.2100036654
0.2100035443
0.2100034617
0.2100034489
0.2100034989
0.2100034036
0.2100032504
0.2100032913
0.2100034815
0.2100037463
0.2100039527
0.2100042475
0.2100045838
0.2100037678
0.2100043262
0.2100043589
0.2100042718
0.2100040907
0.2100038726
0.2100037109
0.2100035872
0.2100034553
0.2100033913
0.210003465
0.2100033867
0.2100034077
0.2100035481
0.2100037134
0.2100037331
0.2100036515
0.2100036283
0.2100036012
0.2100035107
0.2100035601
0.2100037554
0.2100039855
0.2100041297
0.2100043767
0.2100046926
0.2100036873
0.2100042089
0.2100042247
0.2100040793
0.2100038686
0.2100036865
0.2100035397
0.2100033574
0.2100031748
0.210003093
0.2100032381
0.2100032719
0.2100033171
0.2100034277
0.2100035811
0.2100038067
0.210003876
0.2100038671
0.2100038073
0.2100037978
0.2100038418
0.2100040508
0.2100042364
0.2100043241
0.2100045154
0.2100048136
0.2100036917
0.2100040956
0.210004074
0.2100039307
0.2100037859
0.2100036257
0.2100034125
0.2100031602
0.2100029057
0.2100027742
0.2100029524
0.2100031097
0.2100032657
0.2100034607
0.210003587
0.2100037949
0.2100039807
0.2100041248
0.2100041135
0.2100041328
0.2100041549
0.2100044451
0.2100045567
0.2100046164
0.2100047457
0.2100036433
0.2100038996
0.2100038445
0.210003777
0.2100037213
0.2100035969
0.2100033712
0.2100030573
0.2100027256
0.2100025404
0.2100026936
0.2100029886
0.2100032679
0.2100036114
0.2100037841
0.2100039325
0.2100040132
0.2100042401
0.2100042785
0.2100046772
0.2100044849
0.2100049648
0.2100048713
0.2100049928
0.2100051372
0.2100034338
0.2100036901
0.2100037155
0.2100037257
0.2100037062
0.2100035945
0.2100033111
0.2100028868
0.210002463
0.210002244
0.2100023828
0.2100028132
0.2100031696
0.2100034639
0.210003658
0.2100040298
0.2100041133
0.2100044447
0.2100043015
0.2100047472
0.2100048224
0.2100053907
0.2100054567
0.2100054687
0.2100056067
0.2100033247
0.2100035789
0.2100036859
0.2100037423
0.210003689
0.2100035741
0.2100034209
0.2100031826
0.2100029019
0.2100027079
0.2100027813
0.2100030751
0.2100032786
0.2100034672
0.210003654
0.2100040279
0.2100042858
0.2100050911
0.210004778
0.2100065276
0.2100052372
0.2100058314
0.2100056733
0.2100057601
0.2100058589
0.2100031194
0.210003263
0.210003338
0.2100034787
0.210003579
0.2100035448
0.2100034383
0.2100033074
0.2100031677
0.2100030412
0.2100030442
0.2100032239
0.2100033631
0.2100035166
0.2100038147
0.2100048297
0.2100047972
0.2100047153
0.2100045697
0.2100051393
0.2100054447
0.2100057926
0.2100061396
0.2100059166
0.2100059907
0.2100059645
0.2100028476
0.210002978
0.2100029827
0.2100030324
0.2100031418
0.2100033428
0.2100034456
0.2100033796
0.2100033017
0.210003268
0.2100032777
0.2100033847
0.2100034942
0.2100036375
0.2100038552
0.2100048831
0.2100047374
0.2100048218
0.2100046573
0.2100061379
0.2100056529
0.2100062551
0.2100061579
0.2100061292
0.2100061237
0.2100061613
0.210007279
0.2100072808
0.2100071613
0.2100068618
0.2100064859
0.2100061296
0.2100058242
0.2100055942
0.2100054595
0.2100053847
0.2100053381
0.210005304
0.2100052781
0.2100052645
0.210005268
0.2100052907
0.2100053181
0.2100053145
0.2100052428
0.2100051289
0.2100049873
0.2100048464
0.2100047242
0.2100046292
0.2100045667
0.210004546
0.2100069728
0.210007022
0.210006914
0.2100066112
0.2100061506
0.2100056741
0.2100053144
0.2100051202
0.2100050404
0.2100050134
0.2100050056
0.2100050027
0.2100050016
0.2100050143
0.2100050529
0.210005108
0.210005159
0.2100051749
0.2100051175
0.2100050163
0.2100048771
0.2100047482
0.2100046529
0.2100045988
0.210004585
0.2100046114
0.2100063832
0.2100064567
0.2100063355
0.2100060222
0.210005592
0.2100052146
0.2100049931
0.2100049095
0.2100048946
0.2100048969
0.2100048952
0.2100048847
0.210004878
0.2100049007
0.21000495
0.2100049869
0.2100049891
0.2100049614
0.2100049299
0.2100048814
0.2100047674
0.2100046495
0.2100045537
0.2100045016
0.2100045017
0.2100045487
0.2100058188
0.2100058652
0.2100057455
0.2100054809
0.2100051803
0.2100049632
0.2100048722
0.2100048636
0.2100048767
0.2100048788
0.2100048633
0.2100048382
0.2100048304
0.2100048586
0.2100048905
0.2100048907
0.2100048419
0.210004726
0.2100046976
0.2100047091
0.2100046294
0.2100045257
0.2100044284
0.210004389
0.2100044035
0.2100044568
0.2100054645
0.2100055033
0.2100054149
0.2100052155
0.2100050098
0.2100048895
0.2100048653
0.2100048843
0.2100048982
0.2100048876
0.2100048518
0.2100048062
0.2100047818
0.2100047866
0.2100047995
0.2100047627
0.2100046649
0.2100044955
0.2100044486
0.2100044904
0.2100044452
0.2100043762
0.2100043221
0.210004354
0.2100043901
0.2100044068
0.2100053306
0.2100053583
0.210005276
0.2100051082
0.2100049511
0.2100048755
0.210004871
0.2100048891
0.210004897
0.210004877
0.2100048198
0.2100047414
0.2100046819
0.2100046691
0.2100046688
0.2100046155
0.210004484
0.2100042833
0.2100042209
0.2100042464
0.2100042244
0.2100042086
0.2100042389
0.2100043572
0.2100044
0.2100044256
0.2100053035
0.2100053049
0.2100052076
0.2100050506
0.2100049162
0.2100048519
0.2100048389
0.2100048442
0.2100048513
0.2100048253
0.2100047446
0.2100046265
0.2100045232
0.2100044709
0.2100044519
0.2100044031
0.2100042763
0.2100040875
0.2100040314
0.2100040079
0.2100040009
0.2100040372
0.2100041404
0.2100043301
0.2100043882
0.2100044404
0.210005314
0.2100052792
0.2100051571
0.2100049992
0.2100048698
0.2100047967
0.2100047626
0.2100047627
0.2100047712
0.2100047399
0.2100046357
0.210004471
0.2100043045
0.2100041932
0.210004155
0.2100041279
0.2100040426
0.2100039045
0.2100038717
0.2100037866
0.2100037965
0.210003868
0.2100040332
0.2100042622
0.210004344
0.2100044239
0.2100053454
0.2100052646
0.2100051114
0.2100049416
0.2100048043
0.2100047126
0.2100046606
0.2100046534
0.2100046559
0.210004615
0.2100044895
0.2100042773
0.2100040464
0.2100038663
0.2100038235
0.210003827
0.2100038043
0.2100037352
0.2100037439
0.2100035747
0.2100035995
0.2100036925
0.2100039031
0.2100041366
0.2100042432
0.2100043375
0.2100053938
0.2100052589
0.2100050701
0.2100048796
0.210004725
0.2100046127
0.2100045466
0.2100045245
0.2100045111
0.2100044521
0.2100043045
0.210004038
0.2100037514
0.2100035359
0.2100035541
0.2100035738
0.2100035804
0.2100035355
0.2100034578
0.2100033474
0.2100033734
0.2100034898
0.210003726
0.2100039604
0.2100041059
0.2100042203
0.2100054472
0.2100052588
0.2100050358
0.2100048212
0.2100046454
0.2100045145
0.2100044314
0.2100043882
0.2100043468
0.2100042502
0.2100040476
0.2100037003
0.210003401
0.2100033519
0.2100033426
0.2100033773
0.2100034187
0.2100033926
0.2100032879
0.2100031625
0.2100031698
0.2100032688
0.2100035192
0.2100037563
0.2100039538
0.2100041291
0.210005477
0.2100052534
0.2100050074
0.2100047729
0.2100045772
0.2100044303
0.2100043295
0.2100042616
0.2100041823
0.2100040208
0.2100037378
0.2100033619
0.2100032124
0.2100034022
0.2100030824
0.2100032112
0.2100032738
0.2100032954
0.2100031707
0.2100030142
0.2100029675
0.2100030221
0.2100032881
0.210003512
0.2100037161
0.2100040529
0.2100054516
0.210005227
0.2100049769
0.2100047339
0.2100045244
0.2100043627
0.2100042433
0.2100041372
0.2100039996
0.2100037589
0.2100034423
0.210003425
0.2100035076
0.2100039392
0.2100026667
0.2100031116
0.2100031337
0.2100032476
0.2100031283
0.2100029078
0.2100027532
0.2100027855
0.2100030293
0.2100033042
0.210003468
0.2100037821
0.2100053674
0.2100051761
0.2100049403
0.2100047023
0.2100044872
0.2100043041
0.2100041577
0.2100040215
0.2100038503
0.2100036033
0.2100033866
0.2100034591
0.2100033676
0.2100030038
0.2100021733
0.2100028815
0.2100028982
0.2100031957
0.2100031391
0.2100028364
0.2100025429
0.2100024457
0.2100027575
0.2100031234
0.2100034392
0.2100036874
0.2100052636
0.2100051284
0.2100049192
0.2100046996
0.210004483
0.2100042681
0.2100040724
0.2100038923
0.2100036935
0.2100034425
0.2100033153
0.2100037038
0.2100035866
0.2100033634
0.2100022283
0.210002738
0.2100028038
0.2100030964
0.210003213
0.2100029041
0.2100025387
0.2100024036
0.210002655
0.210003002
0.2100033935
0.210003685
0.2100051946
0.2100051344
0.2100049597
0.2100047673
0.2100045601
0.2100043381
0.2100041179
0.2100039129
0.2100037405
0.2100035963
0.2100034601
0.2100034041
0.2100033024
0.2100029278
0.2100022683
0.2100025836
0.210002586
0.2100029306
0.2100031849
0.210003198
0.2100027238
0.2100024913
0.2100025361
0.2100029869
0.2100034922
0.2100037948
0.2100051806
0.2100052395
0.210005149
0.2100049902
0.2100047806
0.2100045884
0.2100043681
0.21000411
0.2100038254
0.2100036027
0.2100034638
0.2100033434
0.2100031566
0.2100030194
0.2100026324
0.2100024735
0.210002435
0.2100026402
0.2100032368
0.2100033507
0.2100033384
0.2100030498
0.2100029896
0.2100033695
0.2100036382
0.2100038161
0.2100051548
0.21000538
0.2100053772
0.2100051884
0.2100049364
0.2100047715
0.2100046088
0.2100044106
0.2100040819
0.2100037582
0.2100035373
0.210003393
0.2100032209
0.2100029947
0.2100026959
0.2100025054
0.2100024604
0.210002375
0.2100027346
0.210002776
0.2100032317
0.2100030875
0.2100033017
0.2100035483
0.2100036448
0.2100038452
0.2100050404
0.2100054376
0.2100054618
0.2100052165
0.2100049188
0.2100047613
0.210004715
0.210004636
0.2100043347
0.2100040145
0.2100036939
0.2100034082
0.2100032234
0.2100030186
0.2100027791
0.2100025346
0.21000248
0.210002104
0.2100025133
0.2100022473
0.2100028463
0.2100029754
0.2100033125
0.2100035187
0.2100036649
0.2100039485
0.2100048157
0.2100052844
0.2100053121
0.2100050971
0.2100048049
0.2100046365
0.2100046557
0.2100047283
0.2100045184
0.2100042446
0.2100039935
0.2100037151
0.2100034319
0.2100032292
0.2100030155
0.2100028067
0.2100027159
0.2100026138
0.2100026946
0.2100023468
0.2100028146
0.2100030155
0.2100033098
0.210003531
0.2100037403
0.2100041095
0.2100045853
0.2100051442
0.2100053075
0.21000526
0.2100050054
0.2100047348
0.2100046425
0.2100047348
0.2100047252
0.2100044939
0.2100042011
0.2100039693
0.2100037489
0.2100034919
0.2100032741
0.2100030539
0.2100028738
0.2100027142
0.2100027523
0.2100027035
0.2100028953
0.2100031366
0.2100034156
0.2100036563
0.2100039012
0.2100043428
0.2100044392
0.2100048507
0.2100049937
0.2100049951
0.2100048587
0.2100046862
0.2100045948
0.210004631
0.2100047003
0.2100046049
0.2100043822
0.2100041526
0.2100039491
0.2100037991
0.2100036207
0.2100034399
0.2100032614
0.2100031074
0.2100030511
0.2100030606
0.2100032074
0.2100034382
0.2100036765
0.2100038963
0.2100041434
0.2100046128
0.2100043727
0.2100045933
0.2100046864
0.2100047247
0.210004714
0.2100047072
0.2100047327
0.2100046683
0.2100045169
0.2100043809
0.2100043255
0.2100042755
0.2100041561
0.2100039706
0.2100038707
0.2100037929
0.2100036384
0.2100035177
0.2100034263
0.2100034601
0.2100035896
0.2100038362
0.2100040152
0.2100041983
0.2100044378
0.2100048596
0.2100043978
0.2100045086
0.2100046326
0.2100047585
0.2100048283
0.2100048502
0.2100047516
0.2100044978
0.2100041349
0.210003925
0.2100039667
0.2100041205
0.2100042422
0.2100042551
0.2100040353
0.2100040403
0.2100039598
0.2100039226
0.2100038086
0.2100038628
0.2100039563
0.2100042181
0.2100043608
0.2100045156
0.2100047576
0.2100050998
0.2100043946
0.2100044155
0.2100045509
0.2100048291
0.2100049281
0.2100048325
0.2100045734
0.2100041644
0.2100036965
0.210003424
0.2100035006
0.2100037547
0.2100040881
0.2100044274
0.2100044021
0.2100043305
0.2100041684
0.2100042847
0.210004112
0.2100042132
0.2100042798
0.210004643
0.2100047284
0.2100048778
0.2100051439
0.2100042804
0.210004213
0.2100043014
0.2100046119
0.2100047214
0.2100046857
0.2100043909
0.2100039005
0.210003335
0.2100029702
0.2100030036
0.2100033154
0.2100038082
0.2100044365
0.210004756
0.2100048294
0.2100045442
0.2100045684
0.2100043993
0.2100046756
0.2100045699
0.2100053758
0.2100050829
0.210005298
0.2100056616
0.2100040386
0.2100039296
0.2100039316
0.2100041879
0.2100042691
0.2100042892
0.2100039908
0.2100034489
0.2100028836
0.2100026422
0.2100028462
0.2100033561
0.2100039934
0.2100045929
0.2100047736
0.210005199
0.2100046213
0.2100050982
0.2100046855
0.2100048834
0.2100048113
0.2100053931
0.2100056269
0.2100057009
0.2100060102
0.2100036378
0.2100036634
0.2100036991
0.2100038078
0.2100039106
0.2100040319
0.2100040362
0.2100038189
0.2100034388
0.2100031765
0.210003298
0.2100036957
0.2100041193
0.2100045562
0.2100047531
0.210005078
0.2100051176
0.210005527
0.2100050167
0.2100052266
0.210005175
0.2100059223
0.2100059304
0.2100060338
0.2100061927
0.2100033847
0.2100034192
0.2100034375
0.2100034903
0.2100035422
0.2100036331
0.2100037768
0.2100038514
0.2100037315
0.2100035256
0.2100034904
0.2100037467
0.2100041417
0.2100045548
0.2100050899
0.2100057835
0.210005455
0.2100051367
0.210004724
0.2100050394
0.2100055543
0.2100061119
0.2100069311
0.2100062929
0.2100063562
0.2100063945
0.2100030944
0.2100032328
0.2100032521
0.2100032619
0.2100032744
0.2100033364
0.2100034399
0.2100036048
0.2100038087
0.2100038228
0.2100038093
0.2100039749
0.2100042372
0.2100045865
0.2100049804
0.2100058346
0.2100054413
0.2100052904
0.2100050644
0.2100063233
0.2100058032
0.2100064341
0.2100064031
0.2100064399
0.21000634
0.2100065562
0.2100072445
0.2100072649
0.210007215
0.2100069885
0.2100066594
0.2100063416
0.210006079
0.2100058736
0.2100057239
0.2100056241
0.2100055465
0.2100054796
0.2100054259
0.210005393
0.2100053862
0.2100053998
0.2100054159
0.2100054045
0.2100053416
0.2100052327
0.210005093
0.2100049498
0.2100048264
0.2100047377
0.2100046922
0.2100046953
0.2100070824
0.2100071473
0.2100071017
0.2100068942
0.2100065106
0.2100060691
0.210005694
0.2100054429
0.210005308
0.2100052369
0.2100051954
0.2100051729
0.2100051706
0.2100051926
0.2100052401
0.210005299
0.2100053446
0.2100053488
0.2100052918
0.2100051774
0.2100050234
0.2100048755
0.210004765
0.2100047052
0.2100046924
0.2100047164
0.2100065832
0.2100067522
0.2100067135
0.2100064839
0.2100060816
0.2100056519
0.2100053366
0.2100051674
0.2100050951
0.2100050637
0.210005046
0.2100050365
0.2100050403
0.2100050696
0.2100051248
0.2100051803
0.2100052111
0.2100052069
0.2100051809
0.2100051002
0.2100049537
0.2100048023
0.2100046862
0.2100046253
0.2100046137
0.2100046325
0.2100060163
0.2100061976
0.2100061837
0.2100059563
0.2100056172
0.2100053096
0.2100051192
0.2100050395
0.2100050186
0.2100050121
0.2100050015
0.2100049865
0.2100049817
0.2100050061
0.210005049
0.2100050693
0.2100050482
0.2100050022
0.2100050035
0.2100049811
0.2100048646
0.2100047204
0.2100045999
0.2100045358
0.2100045198
0.2100045306
0.2100056035
0.2100057671
0.2100057812
0.2100056051
0.2100053537
0.2100051476
0.2100050374
0.2100050052
0.2100050104
0.2100050163
0.2100050032
0.2100049734
0.2100049543
0.2100049697
0.2100049908
0.2100049585
0.2100048622
0.2100047558
0.2100047622
0.2100047843
0.2100047214
0.2100046123
0.2100045145
0.2100044697
0.2100044504
0.2100044444
0.2100054167
0.2100055444
0.2100055682
0.2100054418
0.2100052485
0.2100050907
0.2100050079
0.2100049896
0.2100050088
0.2100050267
0.2100050078
0.2100049522
0.2100049053
0.2100049029
0.210004909
0.2100048338
0.2100046687
0.210004503
0.2100045017
0.210004512
0.2100045062
0.2100044611
0.2100044286
0.2100044326
0.2100044099
0.2100043828
0.2100053732
0.2100054549
0.2100054601
0.2100053609
0.2100051968
0.2100050513
0.2100049665
0.2100049471
0.2100049766
0.2100050064
0.2100049773
0.2100048817
0.2100047869
0.2100047535
0.2100047331
0.2100046534
0.2100044777
0.2100042648
0.2100042713
0.2100042066
0.2100042504
0.2100042738
0.2100043374
0.2100044088
0.2100043886
0.210004336
0.2100053833
0.2100054169
0.2100053832
0.2100052838
0.2100051298
0.2100049823
0.2100048871
0.2100048623
0.2100048963
0.2100049317
0.2100048883
0.2100047486
0.210004594
0.2100044982
0.2100044424
0.2100043831
0.2100042502
0.2100040422
0.2100040804
0.2100039053
0.2100040028
0.2100040792
0.2100042418
0.2100043764
0.2100043564
0.2100042891
0.2100054173
0.2100053928
0.2100053032
0.2100051758
0.2100050168
0.2100048661
0.2100047647
0.2100047364
0.2100047737
0.2100048138
0.2100047589
0.2100045812
0.2100043601
0.2100041871
0.2100040833
0.2100040459
0.2100039827
0.2100038335
0.2100041053
0.2100036413
0.2100038119
0.2100038955
0.2100041131
0.2100042658
0.2100042472
0.2100041798
0.2100054676
0.2100053732
0.2100052158
0.2100050401
0.210004863
0.2100047105
0.2100046096
0.2100045825
0.2100046206
0.2100046594
0.2100045997
0.2100044015
0.2100041349
0.2100039012
0.2100037394
0.2100036834
0.210003591
0.2100034935
0.2100034563
0.2100033653
0.2100034933
0.210003664
0.2100039075
0.2100040784
0.2100040806
0.2100040186
0.2100055254
0.2100053595
0.2100051352
0.2100049077
0.2100047058
0.2100045484
0.2100044473
0.2100044155
0.2100044435
0.2100044675
0.2100043964
0.2100041977
0.2100039369
0.210003703
0.2100035041
0.2100034418
0.2100033286
0.2100032663
0.210003223
0.210003135
0.2100032306
0.2100034058
0.2100036664
0.210003867
0.2100039201
0.2100039125
0.2100055701
0.2100053516
0.2100050792
0.2100048128
0.2100045877
0.2100044163
0.2100043047
0.2100042596
0.2100042668
0.2100042628
0.2100041693
0.2100039816
0.210003776
0.2100035644
0.2100032993
0.2100032538
0.210003105
0.2100030629
0.2100029711
0.2100029019
0.210002948
0.2100031095
0.2100034089
0.2100036593
0.2100037654
0.2100038812
0.2100055738
0.2100053428
0.210005052
0.210004769
0.210004532
0.2100043489
0.2100042209
0.2100041517
0.2100041248
0.2100040869
0.2100039809
0.2100038463
0.2100036906
0.2100033511
0.2100029769
0.2100030879
0.2100029289
0.2100029102
0.2100027921
0.2100026843
0.210002642
0.2100027715
0.2100031269
0.2100034665
0.2100036802
0.2100039401
0.2100055242
0.2100053251
0.2100050436
0.2100047663
0.2100045324
0.2100043493
0.2100042131
0.2100041152
0.2100040461
0.2100039755
0.2100038757
0.210003805
0.2100035517
0.2100029609
0.2100027031
0.2100028178
0.2100027655
0.2100027773
0.2100026538
0.2100024931
0.2100023531
0.2100024415
0.2100027962
0.2100032335
0.2100036017
0.2100039581
0.2100054427
0.2100053056
0.2100050481
0.210004787
0.2100045645
0.2100043863
0.2100042464
0.2100041359
0.2100040465
0.2100039641
0.2100038676
0.210003833
0.2100033447
0.2100026262
0.2100022416
0.2100023853
0.2100025855
0.2100026162
0.210002574
0.2100023761
0.2100021837
0.2100021807
0.2100025065
0.2100029887
0.2100034553
0.2100038352
0.2100053683
0.2100053119
0.2100050766
0.2100048303
0.2100046209
0.210004451
0.2100043046
0.2100041795
0.2100040811
0.2100040076
0.210003923
0.2100037856
0.2100034138
0.2100027098
0.2100022988
0.2100023039
0.2100023582
0.2100024341
0.2100024503
0.2100023721
0.2100021916
0.2100021054
0.2100023701
0.2100028274
0.2100033574
0.2100038375
0.2100053151
0.2100053783
0.2100051752
0.2100049383
0.2100047467
0.2100045993
0.2100044543
0.2100043006
0.2100041441
0.2100040358
0.2100039653
0.210003841
0.2100036053
0.2100032223
0.2100026996
0.2100023999
0.2100022758
0.2100023083
0.2100023508
0.2100024286
0.2100024447
0.210002335
0.2100025191
0.2100029295
0.2100034132
0.2100038624
0.2100052324
0.2100054752
0.2100053409
0.2100051266
0.2100049353
0.2100047781
0.2100046399
0.2100044952
0.2100042801
0.2100040679
0.2100039202
0.2100037966
0.2100035771
0.2100032357
0.2100028054
0.2100024661
0.2100022043
0.2100019466
0.2100017651
0.2100020063
0.2100024184
0.2100021872
0.2100027544
0.2100030529
0.2100034681
0.2100039564
0.2100050889
0.2100055119
0.2100055113
0.2100052747
0.2100049591
0.2100047471
0.2100047022
0.2100046761
0.210004494
0.2100042335
0.2100039775
0.2100037601
0.210003574
0.2100033212
0.2100029953
0.2100026555
0.2100023995
0.210002006
0.2100019861
0.2100017993
0.2100024021
0.2100025935
0.210002911
0.2100031895
0.2100035815
0.2100040952
0.2100049103
0.2100053846
0.2100054832
0.2100052294
0.2100048099
0.2100044917
0.2100044769
0.2100046745
0.2100047309
0.21000449
0.2100042069
0.2100039359
0.2100036957
0.210003473
0.2100032139
0.210002944
0.2100027238
0.210002455
0.2100021777
0.2100019814
0.2100025036
0.2100026976
0.210003028
0.2100033402
0.210003752
0.210004284
0.2100047783
0.2100052089
0.2100054078
0.21000537
0.2100049555
0.2100044855
0.2100043197
0.2100045294
0.2100049154
0.2100048394
0.2100045267
0.2100042122
0.2100039534
0.2100037181
0.2100034857
0.210003232
0.2100030237
0.2100028175
0.210002753
0.2100025865
0.2100028095
0.2100029939
0.2100032766
0.210003617
0.2100040637
0.2100046158
0.2100047163
0.2100050003
0.2100051856
0.2100052611
0.2100050855
0.2100047386
0.2100045292
0.2100045702
0.2100048285
0.210005063
0.2100049052
0.2100045562
0.2100042224
0.2100039941
0.2100038126
0.2100036175
0.2100034128
0.2100032282
0.2100031289
0.2100030305
0.2100031846
0.2100033859
0.2100036644
0.2100040556
0.2100045525
0.2100050617
0.210004702
0.2100048357
0.2100049761
0.2100051372
0.2100051787
0.2100050485
0.2100048174
0.2100046852
0.2100046651
0.2100047453
0.2100048614
0.2100048728
0.2100046086
0.2100042776
0.2100040876
0.2100039798
0.2100038177
0.210003661
0.210003546
0.2100035113
0.2100036331
0.2100039489
0.2100041128
0.2100045468
0.2100049986
0.2100053737
0.2100047128
0.2100047756
0.2100049063
0.210005167
0.2100053071
0.2100052581
0.2100050493
0.2100047685
0.2100043999
0.210004196
0.2100043715
0.2100046595
0.2100048009
0.2100046565
0.2100043687
0.2100042823
0.210004164
0.2100040821
0.2100039496
0.2100039409
0.2100040383
0.2100043259
0.2100045088
0.210004911
0.2100053177
0.2100055731
0.2100046696
0.2100046871
0.2100047755
0.2100050916
0.2100053279
0.2100052973
0.2100050379
0.2100045946
0.2100039851
0.2100036149
0.2100037272
0.210004075
0.2100045105
0.2100048469
0.2100047648
0.2100046458
0.2100044344
0.2100044695
0.2100043084
0.2100043468
0.2100044252
0.2100047724
0.210004903
0.2100052605
0.2100056174
0.2100045188
0.2100044817
0.2100045321
0.2100048069
0.2100050588
0.2100051506
0.2100049031
0.2100043783
0.2100036252
0.2100030689
0.2100030104
0.2100033098
0.2100038929
0.2100046657
0.210005069
0.2100051728
0.2100047999
0.2100047865
0.2100046003
0.210004597
0.2100048093
0.2100051385
0.2100052424
0.2100057141
0.2100060175
0.210004244
0.2100041796
0.2100042275
0.2100044427
0.2100045653
0.2100046453
0.2100043884
0.2100038095
0.2100031044
0.2100027742
0.2100029813
0.2100035951
0.2100044008
0.2100051579
0.2100053613
0.2100058456
0.2100050978
0.2100054459
0.2100052617
0.2100049735
0.2100050734
0.2100054698
0.2100058589
0.2100060308
0.2100062318
0.2100038475
0.2100038249
0.2100038688
0.2100039863
0.2100041209
0.2100042639
0.2100043127
0.2100041381
0.2100036523
0.2100033174
0.2100034954
0.2100040634
0.2100047433
0.2100053576
0.2100056135
0.2100057412
0.2100054721
0.2100057014
0.2100052828
0.2100041556
0.2100053772