/*--------------------------------*- C++ -*----------------------------------*\
  =========                 |
  \\      /  F ield         | OpenFOAM: The Open Source CFD Toolbox
   \\    /   O peration     | Website:  https://openfoam.org
    \\  /    A nd           | Version:  8
     \\/     M anipulation  |
\*---------------------------------------------------------------------------*/
FoamFile
{
    version     2.0;
    format      ascii;
    class       volScalarField;
    location    "0.7";
    object      p_rgh;
}
// * * * * * * * * * * * * * * * * * * * * * * * * * * * * * * * * * * * * * //

dimensions      [1 -1 -2 0 0 0 0];

internalField   nonuniform List<scalar> 
67410
(
100003.858
100003.8548
100003.8562
100003.8551
100003.8565
100003.8634
100003.874
100003.8822
100003.8906
100003.9004
100003.913
100003.9279
100003.9426
100003.9528
100003.9541
100003.9472
100003.9346
100003.9266
100003.9249
100003.9235
100003.9267
100003.9321
100003.94
100003.9472
100003.9508
100003.9479
100003.8497
100003.8454
100003.8456
100003.8419
100003.8424
100003.841
100003.8376
100003.8358
100003.8365
100003.84
100003.8459
100003.853
100003.8597
100003.8645
100003.8677
100003.8718
100003.8772
100003.8823
100003.8855
100003.8868
100003.8898
100003.8934
100003.8982
100003.9028
100003.9063
100003.9049
100003.843
100003.8385
100003.8386
100003.8343
100003.8288
100003.8206
100003.8144
100003.8104
100003.809
100003.81
100003.8129
100003.8168
100003.8205
100003.8239
100003.8277
100003.8349
100003.8457
100003.8563
100003.8624
100003.8649
100003.8683
100003.8715
100003.876
100003.8814
100003.8896
100003.8946
100003.8355
100003.826
100003.8227
100003.8137
100003.8036
100003.7929
100003.7845
100003.7789
100003.776
100003.7754
100003.7766
100003.7791
100003.7826
100003.788
100003.795
100003.8029
100003.8133
100003.8277
100003.836
100003.8384
100003.8407
100003.8417
100003.8439
100003.8473
100003.8571
100003.8678
100003.8265
100003.8109
100003.8051
100003.792
100003.7799
100003.7683
100003.76
100003.7547
100003.7521
100003.7517
100003.7533
100003.7566
100003.7626
100003.7737
100003.785
100003.7927
100003.7988
100003.8122
100003.8214
100003.8219
100003.8223
100003.8209
100003.8201
100003.8205
100003.8298
100003.8416
100003.8152
100003.7954
100003.7871
100003.7714
100003.7583
100003.7472
100003.7398
100003.736
100003.7351
100003.7363
100003.7394
100003.7451
100003.7547
100003.7706
100003.7823
100003.7927
100003.7986
100003.8086
100003.8172
100003.8146
100003.8126
100003.8086
100003.8054
100003.8083
100003.8217
100003.8174
100003.8042
100003.7813
100003.7713
100003.7544
100003.7414
100003.7311
100003.7253
100003.7239
100003.7258
100003.7291
100003.7341
100003.7421
100003.7537
100003.7749
100003.7805
100003.7972
100003.8063
100003.8151
100003.8228
100003.8162
100003.8124
100003.8076
100003.8082
100003.8207
100003.8441
100003.8219
100003.7946
100003.7695
100003.7588
100003.7417
100003.7294
100003.7203
100003.7167
100003.7183
100003.723
100003.7289
100003.7359
100003.7448
100003.7545
100003.7863
100003.7746
100003.8042
100003.8131
100003.8246
100003.8349
100003.8234
100003.8201
100003.8188
100003.8271
100003.8498
100003.8837
100003.8554
100003.7878
100003.7612
100003.7502
100003.7337
100003.7224
100003.7148
100003.7134
100003.7175
100003.7252
100003.7349
100003.7454
100003.7561
100003.7588
100003.7915
100003.7574
100003.8074
100003.8124
100003.8319
100003.8493
100003.8315
100003.8325
100003.8377
100003.8551
100003.8851
100003.9326
100003.9147
100003.7845
100003.7566
100003.7458
100003.7299
100003.7196
100003.7136
100003.714
100003.7204
100003.7315
100003.7456
100003.7598
100003.7742
100003.768
100003.7551
100003.7262
100003.7983
100003.799
100003.8255
100003.8331
100003.832
100003.8401
100003.8565
100003.8838
100003.9186
100003.98
100003.9869
100003.7858
100003.7559
100003.7452
100003.7295
100003.7201
100003.715
100003.7165
100003.7249
100003.7396
100003.7562
100003.7776
100003.7868
100003.7689
100003.6607
100003.6851
100003.7832
100003.7985
100003.8314
100003.8328
100003.8401
100003.8561
100003.8791
100003.9054
100003.9475
100004.0186
100004.0441
100003.7926
100003.7591
100003.7482
100003.7322
100003.7229
100003.7178
100003.7191
100003.7275
100003.7449
100003.7665
100003.7801
100003.7552
100003.7565
100003.6658
100003.6902
100003.777
100003.8312
100003.8526
100003.8465
100003.8591
100003.8896
100003.926
100003.9157
100003.9841
100004.0936
100004.1941
100003.805
100003.7661
100003.7546
100003.738
100003.7288
100003.7228
100003.7231
100003.7301
100003.7448
100003.7541
100003.7254
100003.6804
100003.9883
100004.1471
100003.8413
100003.8037
100003.8974
100003.8918
100003.8801
100003.8896
100003.9415
100003.9927
100003.927
100003.9261
100003.9759
100003.9776
100003.8214
100003.775
100003.7628
100003.7459
100003.7382
100003.7302
100003.7234
100003.7193
100003.7148
100003.687
100003.6417
100003.7844
100004.5918
100004.9318
100004.1302
100003.8628
100003.9237
100003.9239
100003.9314
100003.9104
100003.9727
100004.0184
100003.9801
100003.8929
100003.9186
100003.9959
100003.8353
100003.7804
100003.7664
100003.7499
100003.7519
100003.7512
100003.7481
100003.7419
100003.7161
100003.6459
100003.5721
100003.7505
100004.5572
100004.7189
100004.0973
100003.9333
100003.9551
100003.9322
100003.9924
100003.9153
100003.9452
100003.9895
100003.9829
100003.8554
100003.8603
100003.8775
100003.846
100003.7804
100003.7608
100003.7366
100003.7388
100003.7446
100003.7455
100003.7399
100003.7204
100003.6922
100003.6619
100003.6916
100003.9097
100004.1036
100004.0029
100003.9218
100003.9542
100003.9334
100003.9372
100003.9023
100003.916
100003.928
100003.8848
100003.8407
100003.8292
100003.8356
100003.8579
100003.7783
100003.7487
100003.7217
100003.7206
100003.7234
100003.7502
100003.7785
100003.7736
100003.743
100003.7158
100003.7318
100003.8
100003.8619
100003.8762
100003.9422
100003.9297
100003.9719
100003.8014
100003.8839
100003.8702
100003.8868
100003.8352
100003.8353
100003.831
100003.8227
100003.8721
100003.7767
100003.7491
100003.7431
100003.7586
100003.7067
100003.7183
100003.7646
100003.7911
100003.7957
100003.7709
100003.7608
100003.7829
100003.8259
100003.8579
100003.9052
100003.9036
100004.0534
100003.9829
100003.9011
100003.8847
100004.0929
100003.8038
100003.8376
100003.8037
100003.7953
100003.876
100003.7714
100003.764
100003.7998
100003.8415
100003.8036
100003.7298
100003.7482
100003.7925
100003.8266
100003.8278
100003.8005
100003.7841
100003.7945
100003.8138
100003.854
100003.9112
100004.3191
100004.3986
100003.9571
100003.7928
100003.8646
100003.7925
100003.8107
100003.7956
100003.787
100003.873
100003.7814
100003.762
100003.8016
100003.8603
100003.8469
100003.7848
100003.7469
100003.7666
100003.7969
100003.8339
100003.8504
100003.823
100003.7938
100003.7796
100003.7828
100003.7851
100003.923
100003.9621
100003.8456
100003.7655
100003.811
100003.7585
100003.7919
100003.776
100003.7736
100003.8372
100003.7785
100003.7523
100003.7519
100003.7893
100003.8224
100003.811
100003.77
100003.7518
100003.7623
100003.7934
100003.848
100003.8672
100003.8405
100003.8024
100003.7899
100003.7687
100003.8008
100003.7652
100003.7729
100003.7489
100003.7844
100003.7559
100003.7765
100003.7667
100003.7627
100003.8525
100003.8024
100003.7763
100003.7648
100003.7756
100003.7921
100003.7857
100003.7646
100003.7512
100003.7442
100003.7572
100003.7897
100003.8449
100003.8656
100003.839
100003.812
100003.7923
100003.7898
100003.769
100003.762
100003.7554
100003.7721
100003.7541
100003.7662
100003.7611
100003.756
100003.8533
100003.8114
100003.7849
100003.7663
100003.7648
100003.761
100003.7606
100003.7659
100003.7722
100003.7688
100003.7603
100003.7695
100003.7857
100003.8399
100003.8567
100003.8457
100003.8215
100003.8094
100003.7931
100003.7782
100003.7738
100003.7856
100003.765
100003.7675
100003.7626
100003.7575
100003.8574
100003.8125
100003.777
100003.7445
100003.7264
100003.7244
100003.7446
100003.7765
100003.8173
100003.8282
100003.8065
100003.7838
100003.7745
100003.7905
100003.8244
100003.8601
100003.8407
100003.836
100003.8112
100003.8162
100003.7898
100003.814
100003.7828
100003.7797
100003.7736
100003.7686
100003.8661
100003.8195
100003.7843
100003.7493
100003.7333
100003.7434
100003.7814
100003.8397
100003.9078
100003.9239
100003.8839
100003.8295
100003.7877
100003.7835
100003.7903
100003.8591
100003.8626
100003.8886
100003.8836
100003.8772
100003.8266
100003.8676
100003.8063
100003.8046
100003.7915
100003.8865
100003.825
100003.7786
100003.739
100003.7259
100003.7465
100003.7998
100003.8813
100003.9771
100004.016
100003.9839
100003.9122
100003.8518
100003.8291
100003.795
100003.8466
100003.8487
100003.9042
100003.8378
100004.0957
100003.8319
100004.0072
100003.8255
100003.8354
100003.8094
100003.8507
100003.8172
100003.7937
100003.7705
100003.743
100003.7508
100003.8121
100003.9107
100004.0192
100004.052
100003.9959
100003.892
100003.8174
100003.8227
100003.8118
100003.9634
100003.8473
100003.9632
100003.9314
100003.8791
100003.8676
100003.8929
100003.8695
100003.8439
100003.8261
100003.8821
100003.8457
100003.8252
100003.7934
100003.765
100003.7444
100003.7615
100003.8174
100003.8966
100003.9299
100003.8996
100003.8418
100003.8107
100003.8269
100003.8319
100003.9392
100003.8688
100004.2045
100003.8523
100005.1125
100003.8659
100004.1172
100003.8568
100003.8497
100003.8322
100003.8858
100003.8553
100003.856
100003.8426
100003.828
100003.7965
100003.7685
100003.77
100003.7983
100003.8226
100003.819
100003.7959
100003.7887
100003.8248
100003.8347
100003.9434
100003.8692
100003.8954
100003.8552
100003.909
100003.8943
100003.914
100004.0068
100003.8397
100003.865
100003.8305
100003.8818
100003.858
100003.8519
100003.8479
100003.8566
100003.8567
100003.8436
100003.7973
100003.7713
100003.7654
100003.7693
100003.7728
100003.7786
100003.8158
100003.8055
100003.9176
100003.8111
100004.0325
100003.864
100004.4708
100003.8548
100004.0623
100003.8712
100003.8322
100003.8335
100003.8176
100003.8559
100003.8524
100003.8531
100003.8521
100003.8536
100003.8543
100003.8551
100003.8571
100003.8603
100003.8662
100003.8739
100003.881
100003.8843
100003.8834
100003.8806
100003.8822
100003.8897
100003.8997
100003.9035
100003.9052
100003.9098
100003.9145
100003.9181
100003.919
100003.9178
100003.9168
100003.8491
100003.8448
100003.8447
100003.8409
100003.8368
100003.8309
100003.8236
100003.8172
100003.8145
100003.8151
100003.8175
100003.8186
100003.8157
100003.8111
100003.8102
100003.8192
100003.839
100003.8628
100003.8708
100003.8727
100003.8759
100003.8781
100003.8787
100003.8768
100003.8747
100003.8736
100003.8439
100003.8383
100003.8363
100003.8288
100003.8192
100003.8072
100003.7968
100003.79
100003.7865
100003.7852
100003.7845
100003.7819
100003.7782
100003.7775
100003.7824
100003.7918
100003.8075
100003.8384
100003.8496
100003.8508
100003.8526
100003.8524
100003.8509
100003.8482
100003.8508
100003.8592
100003.832
100003.8237
100003.8173
100003.8043
100003.7899
100003.7748
100003.7642
100003.7577
100003.7538
100003.7511
100003.7488
100003.7466
100003.7467
100003.7524
100003.7615
100003.7717
100003.7814
100003.811
100003.8246
100003.8241
100003.8215
100003.8138
100003.806
100003.8011
100003.8046
100003.8179
100003.8192
100003.8053
100003.7971
100003.7795
100003.7628
100003.7481
100003.7397
100003.7353
100003.7324
100003.7297
100003.7277
100003.7275
100003.7315
100003.7397
100003.7502
100003.7616
100003.7715
100003.797
100003.8097
100003.8064
100003.7994
100003.7861
100003.778
100003.779
100003.7834
100003.7818
100003.804
100003.7867
100003.7763
100003.7555
100003.7386
100003.7262
100003.7206
100003.7182
100003.7161
100003.714
100003.7133
100003.715
100003.7211
100003.7311
100003.7439
100003.7578
100003.7722
100003.794
100003.8059
100003.797
100003.7874
100003.7727
100003.7698
100003.7745
100003.7792
100003.7647
100003.79
100003.7701
100003.7582
100003.7359
100003.7203
100003.7102
100003.707
100003.7052
100003.703
100003.7014
100003.7017
100003.7049
100003.7133
100003.7264
100003.7436
100003.7639
100003.7841
100003.8009
100003.8162
100003.7972
100003.7888
100003.7761
100003.7768
100003.7786
100003.7788
100003.763
100003.7784
100003.7564
100003.7439
100003.7219
100003.7078
100003.6996
100003.6968
100003.6936
100003.6911
100003.6899
100003.6902
100003.6926
100003.7006
100003.7151
100003.7392
100003.7702
100003.7978
100003.8114
100003.8388
100003.8038
100003.8001
100003.7864
100003.7862
100003.7887
100003.789
100003.7658
100003.7706
100003.747
100003.7345
100003.7134
100003.7006
100003.6928
100003.6887
100003.6841
100003.6807
100003.678
100003.6745
100003.6672
100003.6645
100003.6643
100003.713
100003.762
100003.8019
100003.82
100003.8843
100003.8111
100003.8112
100003.7931
100003.7971
100003.8059
100003.8125
100003.7822
100003.7677
100003.7425
100003.7301
100003.7097
100003.6972
100003.6882
100003.6821
100003.6757
100003.669
100003.661
100003.6511
100003.6187
100003.5883
100003.5456
100003.6522
100003.7191
100003.7665
100003.7879
100003.8099
100003.7913
100003.7925
100003.7863
100003.7998
100003.8228
100003.8379
100003.8135
100003.7701
100003.7427
100003.7303
100003.7099
100003.6958
100003.6842
100003.6759
100003.6661
100003.6529
100003.6323
100003.5998
100003.4966
100003.4493
100003.3958
100003.5743
100003.6571
100003.7381
100003.7697
100003.7884
100003.7772
100003.7791
100003.7731
100003.7893
100003.8248
100003.8459
100003.8387
100003.7775
100003.7471
100003.7346
100003.7136
100003.6971
100003.6821
100003.6693
100003.6553
100003.6339
100003.5892
100003.5158
100003.3552
100003.3616
100003.3588
100003.4944
100003.6101
100003.7172
100003.7572
100003.769
100003.7633
100003.7684
100003.7584
100003.7673
100003.8074
100003.8487
100003.8366
100003.7886
100003.7539
100003.7408
100003.7191
100003.7008
100003.6813
100003.6604
100003.6323
100003.5883
100003.4905
100003.3752
100003.2868
100003.3855
100003.475
100003.491
100003.5817
100003.6952
100003.7552
100003.7648
100003.7563
100003.7657
100003.7513
100003.7503
100003.7325
100003.7823
100003.7693
100003.7995
100003.7587
100003.7432
100003.7193
100003.7031
100003.6823
100003.654
100003.6123
100003.5444
100003.4265
100003.3206
100003.2889
100003.4443
100003.5138
100003.5087
100003.5588
100003.6551
100003.7524
100003.7716
100003.762
100003.772
100003.7656
100003.7455
100003.7427
100003.7499
100003.8007
100003.8003
100003.7492
100003.7256
100003.698
100003.6877
100003.6792
100003.6549
100003.6029
100003.5127
100003.3544
100003.2862
100003.3162
100003.4507
100003.4894
100003.5625
100003.6342
100003.6812
100003.7451
100003.7582
100003.7578
100003.7568
100003.77
100003.7107
100003.7162
100003.7178
100003.7562
100003.7833
100003.7177
100003.6878
100003.6609
100003.6487
100003.6486
100003.6595
100003.635
100003.5841
100003.5284
100003.4798
100003.4476
100003.5004
100003.5948
100003.6814
100003.7222
100003.7069
100003.7393
100003.6121
100003.8056
100003.7496
100003.7838
100003.7249
100003.7487
100003.7642
100003.7681
100003.7558
100003.6823
100003.6766
100003.6641
100003.6464
100003.6147
100003.6451
100003.6709
100003.6353
100003.5705
100003.5289
100003.5093
100003.5302
100003.587
100003.6661
100003.7075
100003.663
100003.6688
100003.5202
100003.7547
100003.7467
100003.811
100003.725
100003.7684
100003.7642
100003.7449
100003.7325
100003.6634
100003.6777
100003.6626
100003.6511
100003.615
100003.6028
100003.67
100003.692
100003.6693
100003.6254
100003.6078
100003.6161
100003.6457
100003.6848
100003.7093
100003.6681
100003.6427
100003.6211
100003.6927
100003.7424
100003.7981
100003.7298
100003.7795
100003.7633
100003.7484
100003.725
100003.66
100003.6841
100003.6672
100003.6652
100003.6389
100003.6187
100003.6636
100003.7002
100003.712
100003.6952
100003.6503
100003.6335
100003.6331
100003.6289
100003.6115
100003.5724
100003.6172
100003.6084
100003.6177
100003.6123
100003.65
100003.7156
100003.7471
100003.7541
100003.7452
100003.7534
100003.672
100003.6724
100003.6728
100003.6779
100003.6672
100003.6595
100003.6713
100003.674
100003.6931
100003.7229
100003.7335
100003.7067
100003.6883
100003.6709
100003.6541
100003.6159
100003.6152
100003.6271
100003.6834
100003.7116
100003.7305
100003.7263
100003.7441
100003.7465
100003.7399
100003.7821
100003.7211
100003.6906
100003.6848
100003.6964
100003.7108
100003.7187
100003.6881
100003.6664
100003.6712
100003.6899
100003.7256
100003.7493
100003.728
100003.6939
100003.6724
100003.6191
100003.6038
100003.5856
100003.6632
100003.6827
100003.7085
100003.7162
100003.7354
100003.7383
100003.7342
100003.8097
100003.7672
100003.7279
100003.6988
100003.6931
100003.6965
100003.691
100003.6811
100003.6718
100003.6701
100003.6753
100003.6904
100003.7271
100003.767
100003.7469
100003.7265
100003.6954
100003.6789
100003.6581
100003.7016
100003.7073
100003.7215
100003.7211
100003.7357
100003.737
100003.7311
100003.8168
100003.7866
100003.7511
100003.7079
100003.6808
100003.6669
100003.6759
100003.6856
100003.6852
100003.681
100003.6839
100003.6813
100003.6934
100003.7311
100003.7644
100003.7705
100003.7367
100003.7288
100003.7001
100003.7301
100003.7244
100003.7463
100003.7344
100003.7445
100003.7418
100003.7296
100003.8053
100003.7702
100003.7226
100003.6697
100003.6477
100003.6536
100003.6706
100003.6829
100003.6926
100003.698
100003.6977
100003.6963
100003.6917
100003.715
100003.7271
100003.7966
100003.7637
100003.7839
100003.742
100003.7793
100003.743
100003.7742
100003.7511
100003.7573
100003.754
100003.7424
100003.7941
100003.7535
100003.7067
100003.6737
100003.6706
100003.6735
100003.6796
100003.6907
100003.7107
100003.7201
100003.7143
100003.7026
100003.6999
100003.7175
100003.7116
100003.8122
100003.7504
100003.8357
100003.7397
100003.8223
100003.7665
100003.8524
100003.7759
100003.7861
100003.7735
100003.7999
100003.7456
100003.7024
100003.6832
100003.6721
100003.6692
100003.6791
100003.6995
100003.736
100003.7584
100003.759
100003.751
100003.7302
100003.7612
100003.7184
100003.8199
100003.7274
100003.8508
100003.7653
100003.981
100003.7891
100004.1324
100003.7778
100003.8128
100003.7802
100003.7854
100003.7478
100003.7163
100003.6934
100003.6783
100003.6715
100003.6765
100003.7032
100003.7442
100003.7614
100003.751
100003.7346
100003.7258
100003.8029
100003.7397
100004.0414
100003.686
100003.8931
100003.5915
100003.8872
100003.7534
100003.8483
100003.8399
100003.8107
100003.7959
100003.8398
100003.8054
100003.7597
100003.7033
100003.6673
100003.6536
100003.664
100003.6739
100003.7033
100003.7222
100003.7228
100003.7254
100003.7229
100003.7889
100003.7464
100003.9064
100003.75
100003.9918
100003.7717
100004.153
100003.7494
100003.9345
100003.8045
100003.807
100003.791
100003.8566
100003.8309
100003.8159
100003.7791
100003.7341
100003.6823
100003.6653
100003.6683
100003.6802
100003.6949
100003.7053
100003.7148
100003.7277
100003.7636
100003.7728
100003.8269
100003.7146
100003.7439
100003.6732
100003.6294
100003.8136
100003.8076
100004.311
100003.8082
100003.8572
100003.7902
100003.8591
100003.8316
100003.8165
100003.7993
100003.7877
100003.7604
100003.7193
100003.6865
100003.68
100003.6901
100003.7057
100003.7282
100003.739
100003.7827
100003.7729
100003.8496
100003.7297
100003.9461
100003.8044
100004.4712
100003.7912
100003.9134
100003.795
100003.7899
100003.787
100003.7802
100003.828
100003.8241
100003.823
100003.818
100003.8139
100003.8107
100003.8087
100003.8087
100003.8091
100003.8106
100003.8139
100003.8184
100003.8233
100003.8273
100003.831
100003.8349
100003.8396
100003.8444
100003.8481
100003.8512
100003.8556
100003.8607
100003.866
100003.8705
100003.8739
100003.8766
100003.8203
100003.8156
100003.8139
100003.8073
100003.8027
100003.7983
100003.795
100003.791
100003.7879
100003.7863
100003.7864
100003.7882
100003.7919
100003.797
100003.8034
100003.8103
100003.8171
100003.8243
100003.8289
100003.8315
100003.8347
100003.8384
100003.8428
100003.846
100003.848
100003.8486
100003.8118
100003.8076
100003.8062
100003.7991
100003.7927
100003.7857
100003.7801
100003.776
100003.7726
100003.7699
100003.7689
100003.7704
100003.7744
100003.7805
100003.7886
100003.798
100003.806
100003.8134
100003.819
100003.8205
100003.8224
100003.8248
100003.8288
100003.8335
100003.838
100003.8407
100003.7989
100003.795
100003.7906
100003.7812
100003.7731
100003.7655
100003.7603
100003.7561
100003.7521
100003.7486
100003.7468
100003.7477
100003.7512
100003.7571
100003.7659
100003.7775
100003.7892
100003.7996
100003.8077
100003.8069
100003.8068
100003.8072
100003.8111
100003.8161
100003.8213
100003.8243
100003.7868
100003.7804
100003.7752
100003.7639
100003.7553
100003.7479
100003.7432
100003.7395
100003.7363
100003.7336
100003.7324
100003.7335
100003.7372
100003.7437
100003.7533
100003.7661
100003.7808
100003.7955
100003.8094
100003.8038
100003.802
100003.7993
100003.8015
100003.8054
100003.8106
100003.8142
100003.7741
100003.7649
100003.759
100003.7462
100003.7378
100003.7308
100003.7267
100003.7241
100003.723
100003.7227
100003.7233
100003.7256
100003.7306
100003.7394
100003.7518
100003.7674
100003.7848
100003.8013
100003.8266
100003.8068
100003.8047
100003.7961
100003.7948
100003.7942
100003.7957
100003.7992
100003.7617
100003.751
100003.7445
100003.7316
100003.7236
100003.7169
100003.7136
100003.7127
100003.7146
100003.7175
100003.7201
100003.7235
100003.7306
100003.7434
100003.76
100003.7815
100003.8034
100003.8176
100003.8676
100003.8133
100003.817
100003.7976
100003.7916
100003.7868
100003.7848
100003.7833
100003.7514
100003.7393
100003.7328
100003.7204
100003.7131
100003.707
100003.7049
100003.7064
100003.7109
100003.7154
100003.7189
100003.7236
100003.7337
100003.7515
100003.7716
100003.803
100003.8337
100003.8362
100003.9238
100003.8172
100003.8359
100003.8008
100003.7945
100003.788
100003.7835
100003.7739
100003.7441
100003.7307
100003.7244
100003.7131
100003.7066
100003.7016
100003.7012
100003.7043
100003.7094
100003.7145
100003.7191
100003.7249
100003.7354
100003.7546
100003.7766
100003.8244
100003.8761
100003.8766
100004.1293
100003.8257
100003.8743
100003.8079
100003.8041
100003.7975
100003.7914
100003.7731
100003.7401
100003.7257
100003.7195
100003.7093
100003.7038
100003.7003
100003.7009
100003.7048
100003.7097
100003.7156
100003.7212
100003.7256
100003.7311
100003.7426
100003.7527
100003.8035
100003.8244
100003.8312
100003.8659
100003.8087
100003.8249
100003.8064
100003.8089
100003.8082
100003.8012
100003.7739
100003.7397
100003.7241
100003.7178
100003.7083
100003.7038
100003.7014
100003.7019
100003.7054
100003.7108
100003.7166
100003.7215
100003.7223
100003.7216
100003.7243
100003.7225
100003.7906
100003.8048
100003.8307
100003.8611
100003.8153
100003.8207
100003.8125
100003.817
100003.8196
100003.8096
100003.7906
100003.7428
100003.7254
100003.719
100003.7096
100003.7052
100003.7026
100003.703
100003.706
100003.7105
100003.7146
100003.7171
100003.7142
100003.7127
100003.7143
100003.6958
100003.7885
100003.7925
100003.8265
100003.8329
100003.8167
100003.8189
100003.8155
100003.8185
100003.8221
100003.7858
100003.7939
100003.749
100003.7294
100003.723
100003.7131
100003.7083
100003.7045
100003.7025
100003.7035
100003.7048
100003.7043
100003.7022
100003.7001
100003.7124
100003.7389
100003.7046
100003.807
100003.8056
100003.8431
100003.843
100003.829
100003.8275
100003.8188
100003.8166
100003.8165
100003.8027
100003.8211
100003.7575
100003.7358
100003.7294
100003.7193
100003.7137
100003.7074
100003.7009
100003.6949
100003.6887
100003.6788
100003.6682
100003.6733
100003.7463
100003.8414
100003.7488
100003.8513
100003.8371
100003.8676
100003.869
100003.8447
100003.8385
100003.822
100003.8138
100003.8088
100003.8166
100003.8404
100003.7666
100003.744
100003.7389
100003.7288
100003.7232
100003.7154
100003.7059
100003.6954
100003.6832
100003.668
100003.6497
100003.6767
100003.7644
100003.8469
100003.7907
100003.8738
100003.8669
100003.889
100003.8985
100003.8598
100003.8475
100003.8266
100003.8113
100003.8021
100003.8145
100003.8126
100003.7749
100003.7536
100003.7483
100003.7366
100003.7297
100003.7209
100003.7107
100003.6981
100003.683
100003.6677
100003.6535
100003.6509
100003.6884
100003.7507
100003.7626
100003.8241
100003.8492
100003.8686
100003.8919
100003.8652
100003.8399
100003.7942
100003.7832
100003.7793
100003.7994
100003.8016
100003.7818
100003.7638
100003.7604
100003.7423
100003.7348
100003.7266
100003.7186
100003.7133
100003.7016
100003.6889
100003.6816
100003.6803
100003.7098
100003.7672
100003.7845
100003.8316
100003.8512
100003.88
100003.8954
100003.8726
100003.881
100003.8283
100003.8035
100003.7939
100003.8012
100003.7948
100003.7779
100003.7613
100003.7461
100003.7277
100003.7187
100003.7088
100003.7047
100003.7075
100003.7076
100003.7006
100003.6869
100003.6813
100003.6885
100003.7097
100003.7361
100003.7749
100003.8038
100003.8291
100003.8306
100003.801
100003.8365
100003.597
100003.776
100003.7494
100003.7789
100003.7776
100003.7686
100003.7544
100003.743
100003.7365
100003.7325
100003.7186
100003.7049
100003.7054
100003.7113
100003.7164
100003.7143
100003.7064
100003.7051
100003.7145
100003.7243
100003.7465
100003.7638
100003.7904
100003.8436
100003.774
100003.8275
100003.7512
100003.782
100003.7561
100003.771
100003.7694
100003.7589
100003.7362
100003.7293
100003.7256
100003.7287
100003.7246
100003.7129
100003.7061
100003.7024
100003.7135
100003.7208
100003.7229
100003.717
100003.7138
100003.7134
100003.716
100003.718
100003.7212
100003.7396
100003.7079
100003.7503
100003.7261
100003.7494
100003.7492
100003.7567
100003.7573
100003.7581
100003.7321
100003.7272
100003.7141
100003.7242
100003.7267
100003.7232
100003.7121
100003.7098
100003.7115
100003.7196
100003.7294
100003.733
100003.7273
100003.7182
100003.7168
100003.7119
100003.703
100003.7414
100003.6957
100003.7334
100003.736
100003.7405
100003.7445
100003.7475
100003.748
100003.7717
100003.7434
100003.7304
100003.7173
100003.7264
100003.7366
100003.7341
100003.7222
100003.7125
100003.7094
100003.7176
100003.7251
100003.7368
100003.7426
100003.7356
100003.7322
100003.7262
100003.7209
100003.7297
100003.7119
100003.7307
100003.7416
100003.7363
100003.7432
100003.7433
100003.7443
100003.7815
100003.758
100003.7457
100003.7273
100003.7213
100003.7239
100003.7291
100003.729
100003.7267
100003.7186
100003.72
100003.7254
100003.7297
100003.7448
100003.7487
100003.7535
100003.7398
100003.7433
100003.7431
100003.7475
100003.7496
100003.8318
100003.7413
100003.7607
100003.7446
100003.7432
100003.7824
100003.7594
100003.749
100003.7326
100003.7221
100003.7155
100003.7217
100003.7302
100003.7359
100003.7371
100003.7335
100003.7327
100003.7339
100003.7446
100003.7546
100003.7876
100003.7571
100003.7774
100003.7593
100003.7697
100003.7469
100003.799
100003.7358
100003.7587
100003.7455
100003.7477
100003.7836
100003.7607
100003.7551
100003.7383
100003.7306
100003.7191
100003.7243
100003.7348
100003.7482
100003.7525
100003.7481
100003.744
100003.7441
100003.7565
100003.7524
100003.8366
100003.7598
100003.8281
100003.7642
100003.809
100003.7677
100003.8498
100003.7469
100003.7841
100003.7567
100003.7917
100003.7649
100003.7592
100003.7392
100003.7246
100003.716
100003.7198
100003.7351
100003.7575
100003.7711
100003.7718
100003.7646
100003.7587
100003.7886
100003.7627
100003.8785
100003.781
100003.8686
100003.7963
100003.8147
100003.8237
100003.8825
100003.6837
100003.808
100003.7482
100003.7919
100003.7635
100003.7596
100003.7471
100003.7309
100003.7183
100003.7229
100003.7386
100003.7619
100003.7736
100003.771
100003.7631
100003.7626
100003.8217
100003.7858
100004.1352
100003.7771
100003.9327
100003.7941
100003.8848
100003.814
100003.7844
100003.7799
100003.7983
100003.779
100003.8043
100003.7774
100003.7693
100003.7518
100003.7381
100003.7264
100003.7198
100003.7316
100003.7498
100003.7582
100003.7581
100003.7587
100003.763
100003.8087
100003.7861
100003.9004
100003.7955
100003.8949
100003.7619
100003.2538
100003.8032
100003.8288
100003.8192
100003.7971
100003.7714
100003.8067
100003.7844
100003.7806
100003.7647
100003.7549
100003.7431
100003.7355
100003.73
100003.7355
100003.7418
100003.744
100003.748
100003.7567
100003.7836
100003.7783
100003.833
100003.7481
100003.7836
100003.7751
100003.8007
100003.8371
100003.8057
100003.7898
100003.7798
100003.7923
100003.7831
100003.8056
100003.7888
100003.7826
100003.7696
100003.7649
100003.7597
100003.7575
100003.752
100003.7492
100003.7491
100003.7523
100003.7584
100003.7689
100003.8004
100003.8026
100003.8746
100003.8121
100004.1249
100003.9224
100005.3836
100003.853
100004.0531
100003.7483
100003.8135
100003.7766
100003.7892
100003.8029
100003.7995
100003.7982
100003.7932
100003.7881
100003.7823
100003.7772
100003.7734
100003.7712
100003.7693
100003.7685
100003.7688
100003.7701
100003.7725
100003.7766
100003.7825
100003.7898
100003.7972
100003.803
100003.8076
100003.8124
100003.8172
100003.8216
100003.8247
100003.8265
100003.8274
100003.7971
100003.793
100003.7911
100003.7844
100003.7784
100003.772
100003.7676
100003.7632
100003.7582
100003.7538
100003.7504
100003.7482
100003.7476
100003.7491
100003.7537
100003.7618
100003.772
100003.7822
100003.7892
100003.7931
100003.7966
100003.7999
100003.8032
100003.8054
100003.8061
100003.8055
100003.7898
100003.786
100003.7838
100003.7762
100003.7692
100003.7612
100003.7546
100003.749
100003.7437
100003.7384
100003.7334
100003.7296
100003.728
100003.7298
100003.736
100003.7462
100003.7589
100003.7729
100003.7824
100003.7844
100003.7861
100003.7873
100003.7891
100003.7912
100003.7939
100003.7971
100003.7772
100003.7735
100003.7692
100003.7602
100003.7516
100003.7423
100003.7355
100003.7299
100003.7244
100003.718
100003.7114
100003.7065
100003.7048
100003.7079
100003.7161
100003.7286
100003.7441
100003.7621
100003.7769
100003.7736
100003.7722
100003.7691
100003.768
100003.7689
100003.7721
100003.7773
100003.7641
100003.7607
100003.7553
100003.7446
100003.7346
100003.7248
100003.7184
100003.7133
100003.7084
100003.7021
100003.6953
100003.6907
100003.6905
100003.6965
100003.7076
100003.7223
100003.7407
100003.7619
100003.7915
100003.7718
100003.7681
100003.7575
100003.7531
100003.7525
100003.7554
100003.7611
100003.7518
100003.7453
100003.7401
100003.7269
100003.7165
100003.7067