/*--------------------------------*- C++ -*----------------------------------*\
  =========                 |
  \\      /  F ield         | OpenFOAM: The Open Source CFD Toolbox
   \\    /   O peration     | Website:  https://openfoam.org
    \\  /    A nd           | Version:  8
     \\/     M anipulation  |
\*---------------------------------------------------------------------------*/
FoamFile
{
    version     2.0;
    format      ascii;
    class       surfaceScalarField;
    location    "0.7";
    object      phi;
}
// * * * * * * * * * * * * * * * * * * * * * * * * * * * * * * * * * * * * * //

dimensions      [1 0 -1 0 0 0 0];

internalField   nonuniform List<scalar> 
197783
(
-3.350253972e-06
-6.515459063e-06
9.86542847e-06
-9.404734265e-06
-4.389389912e-06
1.04435806e-05
-1.650633991e-05
-4.37760157e-06
1.147891101e-05
-2.342054592e-05
-6.383656865e-06
1.329755613e-05
-2.948005783e-05
-9.898409512e-06
1.595759932e-05
-3.406522022e-05
-1.392014892e-05
1.850497179e-05
-3.666711102e-05
-1.742829615e-05
2.002982752e-05
-3.813155681e-05
-1.952547394e-05
2.09895366e-05
-3.926732231e-05
-2.06524953e-05
2.178785243e-05
-4.036405804e-05
-2.154203232e-05
2.26383352e-05
-4.114669923e-05
-2.284869424e-05
2.363088108e-05
-4.090379022e-05
-2.489928355e-05
2.465590309e-05
-3.890624762e-05
-2.738451528e-05
2.538648844e-05
-3.49671026e-05
-2.93671724e-05
2.542753142e-05
-3.000235769e-05
-2.965807919e-05
2.469282125e-05
-2.641018508e-05
-2.707313999e-05
2.348042691e-05
-2.712306095e-05
-2.128146313e-05
2.199376018e-05
-3.075147796e-05
-1.659179947e-05
2.021959833e-05
-3.389007874e-05
-1.601782217e-05
1.915577088e-05
-3.754974429e-05
-1.519498311e-05
1.885395769e-05
-4.149405422e-05
-1.544951724e-05
1.939309302e-05
-4.560737706e-05
-1.608303798e-05
2.019557608e-05
-4.888786295e-05
-1.751907933e-05
2.079872109e-05
-5.069162039e-05
-1.891058274e-05
2.071342722e-05
-5.112291097e-05
-1.909079338e-05
1.952109606e-05
-1.740576697e-05
1.735686712e-05
-4.138455861e-06
-1.39142692e-05
1.153699014e-05
-8.948712133e-06
-1.097725004e-05
1.139783517e-05
-1.446549736e-05
-1.110800894e-05
1.224690581e-05
-2.052866874e-05
-1.412772233e-05
1.380694238e-05
-2.638699026e-05
-1.947815945e-05
1.543776538e-05
-3.134820229e-05
-2.497468068e-05
1.601542019e-05
-3.529364857e-05
-2.909557771e-05
1.561237825e-05
-3.817188546e-05
-3.173952526e-05
1.50919071e-05
-4.023215439e-05
-3.359662871e-05
1.500398908e-05
-4.182320651e-05
-3.552829801e-05
1.557687451e-05
-4.294858586e-05
-3.8227593e-05
1.650380906e-05
-4.31307647e-05
-4.179307519e-05
1.707548133e-05
-4.162694033e-05
-4.545443517e-05
1.656559042e-05
-3.807175595e-05
-4.791080238e-05
1.49879232e-05
-3.318792202e-05
-4.797971378e-05
1.343725416e-05
-2.879581465e-05
-4.484125505e-05
1.337542909e-05
-2.72548109e-05
-3.817385623e-05
1.535077213e-05
-2.886749516e-05
-3.210946903e-05
1.712969765e-05
-3.077632005e-05
-3.038083598e-05
1.627115025e-05
-3.302226817e-05
-2.85277926e-05
1.557803301e-05
-3.586898054e-05
-2.875470301e-05
1.615113357e-05
-3.885986068e-05
-3.005583851e-05
1.696286975e-05
-4.101683597e-05
-3.275632447e-05
1.739335672e-05
-4.191527435e-05
-3.490869747e-05
1.68956283e-05
-4.213042058e-05
-3.433480803e-05
1.545816756e-05
-2.965835541e-05
1.32169315e-05
-6.765820589e-06
-2.104615776e-05
1.389744835e-05
-1.251593448e-05
-1.807294531e-05
1.284554401e-05
-1.793167076e-05
-1.908096383e-05
1.33884219e-05
-2.361325452e-05
-2.288268114e-05
1.44362672e-05
-2.941000253e-05
-2.839245428e-05
1.47107568e-05
-3.467605344e-05
-3.351310544e-05
1.38041704e-05
-3.85013867e-05
-3.734953899e-05
1.207896185e-05
-4.084333067e-05
-4.003329529e-05
1.063534982e-05
-4.233040931e-05
-4.226222702e-05
1.01522804e-05
-4.362993944e-05
-4.484531922e-05
1.061612371e-05
-4.489909083e-05
-4.826507836e-05
1.130618152e-05
-4.546488106e-05
-5.225207069e-05
1.102430742e-05
-4.410922261e-05
-5.577039249e-05
8.959798056e-06
-4.016502201e-05
-5.763299537e-05
5.777462621e-06
-3.440285117e-05
-5.719052422e-05
3.448071973e-06
-2.866394764e-05
-5.460124229e-05
4.020473321e-06
-2.530529058e-05
-4.993719228e-05
8.404022744e-06
-2.674805944e-05
-4.509396418e-05
1.442656635e-05
-2.904943999e-05
-4.244096784e-05
1.436078081e-05
-3.014467968e-05
-4.041561546e-05
1.298229668e-05
-3.178847291e-05
-4.090852901e-05
1.379682091e-05
-3.376417302e-05
-4.307232451e-05
1.499135438e-05
-3.523293527e-05
-4.671563338e-05
1.5427206e-05
-3.545022846e-05
-4.926200836e-05
1.456969939e-05
-3.517911663e-05
-4.828325113e-05
1.367637492e-05
-4.144106846e-05
1.353708438e-05
-9.708092362e-06
-2.67765702e-05
1.543826063e-05
-1.667387366e-05
-2.441803634e-05
1.331062296e-05
-2.270666254e-05
-2.632076061e-05
1.327233136e-05
-2.8839665e-05
-3.031811803e-05
1.356817997e-05
-3.474634918e-05
-3.52441984e-05
1.275815915e-05
-3.937325609e-05
-3.952553979e-05
1.063905404e-05
-4.216412684e-05
-4.27201991e-05
8.161218179e-06
-4.348894103e-05
-4.512395206e-05
6.41512888e-06
-4.421762462e-05
-4.737873487e-05
5.844818409e-06
-4.517237603e-05
-5.01282018e-05
6.237229861e-06
-4.653405671e-05
-5.355036845e-05
6.646536819e-06
-4.736991487e-05
-5.708458851e-05
5.667912793e-06
-4.602225345e-05
-5.968469393e-05
2.56614223e-06
-4.153033793e-05
-6.05561801e-05
-1.569273935e-06
-3.461604248e-05
-5.975164252e-05
-4.353773121e-06
-2.739003981e-05
-5.828689405e-05
-3.541002156e-06
-2.278663764e-05
-5.655917002e-05
2.017867459e-06
-2.525945712e-05
-5.398030366e-05
1.135841349e-05
-2.930061236e-05
-5.102498091e-05
1.262438968e-05
-3.021009833e-05
-4.995838849e-05
1.045144924e-05
-3.110965133e-05
-5.117059824e-05
1.11607919e-05
-3.197177688e-05
-5.412731885e-05
1.191627567e-05
-3.213389335e-05
-5.77446825e-05
1.11903124e-05
-3.070038871e-05
-5.972400154e-05
9.02761751e-06
-2.877196204e-05
-5.870714374e-05
8.494561073e-06
-5.210347172e-05
1.193499402e-05
-1.185132736e-05
-3.032425766e-05
1.539878383e-05
-1.969493759e-05
-2.93086444e-05
1.273397886e-05
-2.678143312e-05
-3.151240366e-05
1.227789635e-05
-3.36053385e-05
-3.534808594e-05
1.185362885e-05
-3.934837107e-05
-3.953520134e-05
1.003378326e-05
-4.316845882e-05
-4.298541061e-05
7.279689613e-06
-4.495466459e-05
-4.556006785e-05
4.625782329e-06
-4.535132182e-05
-4.760896512e-05
2.881351323e-06
-4.53238636e-05
-4.967541891e-05
2.268877912e-06
-4.576710016e-05
-5.225916775e-05
2.573823541e-06
-4.694924478e-05
-5.528248804e-05
2.913851878e-06
-4.786399701e-05
-5.803846288e-05
1.868176488e-06
-4.661799302e-05
-5.954902092e-05
-1.38217432e-06
-4.186301485e-05
-5.944190015e-05
-5.869814201e-06
-3.422283847e-05
-5.819117219e-05
-9.201265324e-06
-2.622952313e-05
-5.785255299e-05
-8.428340069e-06
-2.159150256e-05
-5.900959939e-05
-2.188343188e-06
-2.553255921e-05
-5.857403348e-05
8.534001305e-06
-3.115649915e-05
-5.606299201e-05
1.066113608e-05
-3.260253194e-05
-5.649897989e-05
7.985785349e-06
-3.337228266e-05
-5.85034338e-05
8.101741669e-06
-3.331479741e-05
-6.175533927e-05
7.569696409e-06
-3.172576901e-05
-6.436766995e-05
5.033128184e-06
-2.773635142e-05
-6.495503482e-05
1.24077746e-06
-2.280748372e-05
-6.403741809e-05
4.00545538e-07
-5.957632782e-05
5.805323799e-06
-1.29290636e-05
-3.254815697e-05
1.515274028e-05
-2.180851169e-05
-3.247323737e-05
1.204380918e-05
-2.977772019e-05
-3.46656854e-05
1.112225847e-05
-3.694395475e-05
-3.809783343e-05
9.915750499e-06
-4.236395399e-05
-4.156666576e-05
7.451225413e-06
-4.551107788e-05
-4.433436944e-05
4.495829534e-06
-4.656096242e-05
-4.641276547e-05
1.902308788e-06
-4.62225018e-05
-4.812023366e-05
1.725113483e-07
-4.540066257e-05
-4.998687344e-05
-5.10707411e-07
-4.502753847e-05
-5.234397654e-05
-2.886688759e-07
-4.556652323e-05
-5.505180437e-05
3.079106393e-07
-4.62489569e-05
-5.733355162e-05
-2.291299279e-08
-4.52674186e-05
-5.815231283e-05
-2.378736845e-06
-4.075840903e-05
-5.73510592e-05
-6.600406017e-06
-3.363349253e-05
-5.487565723e-05
-1.044105525e-05
-2.621474344e-05
-5.5200858e-05
-1.007113937e-05
-2.328881757e-05
-5.832243035e-05
-3.613860047e-06
-2.839910957e-05
-5.977304242e-05
6.308501905e-06
-3.403707512e-05
-5.849472691e-05
8.068872412e-06
-3.583874999e-05
-6.016157179e-05
5.463428792e-06
-3.648368311e-05
-6.265891392e-05
4.799582235e-06
-3.565559973e-05
-6.558931472e-05
3.005079524e-06
-3.259636574e-05
-6.669168859e-05
-7.360179199e-07
-2.600198019e-05
-6.585377026e-05
-5.696462515e-06
-1.767245948e-05
-6.492030289e-05
-7.447472138e-06
-6.319288374e-05
-2.528414254e-06
-1.359516084e-05
-3.384733525e-05
1.489411922e-05
-2.326273596e-05
-3.415699374e-05
1.135110243e-05
-3.171583127e-05
-3.605438486e-05
9.841567953e-06
-3.889640443e-05
-3.894284826e-05
8.025362755e-06
-4.396432745e-05
-4.175844479e-05
5.25947132e-06
-4.667176082e-05
-4.398247324e-05
2.355294067e-06
-4.728124685e-05
-4.569647044e-05
-1.070686271e-07
-4.646672634e-05
-4.723399514e-05
-1.701038058e-06
-4.493448552e-05
-4.905465059e-05
-2.464766864e-06
-4.351395096e-05
-5.1509266e-05
-2.255579355e-06
-4.288188983e-05
-5.451313058e-05
-1.17110811e-06
-4.278518109e-05
-5.730222046e-05
-1.284619151e-07
-4.178368302e-05
-5.854609011e-05
-6.081979458e-07
-3.768053605e-05
-5.821460153e-05
-3.240146478e-06
-3.278218324e-05
-5.251540544e-05
-7.259218432e-06
-2.768746002e-05
-5.257297193e-05
-7.723295341e-06
-2.745385046e-05
-5.598012517e-05
-2.576661047e-06
-3.280601057e-05
-5.889949575e-05
4.477831192e-06
-3.697570042e-05
-5.919922262e-05
4.873368746e-06
-3.852590705e-05
-6.134311539e-05
2.730943483e-06
-3.877962977e-05
-6.399334038e-05
1.58735758e-06
-3.74408894e-05
-6.635076941e-05
-5.780544219e-07
-3.395317378e-05
-6.570493856e-05
-4.475232966e-06
-2.582648428e-05
-6.317178936e-05
-1.080945743e-05
-1.476241634e-05
-6.202394913e-05
-1.396125341e-05
-6.340585521e-05
-9.55790856e-06
-1.399645175e-05
-3.44967685e-05
1.464565986e-05
-2.411821754e-05
-3.466757655e-05
1.063211443e-05
-3.272385769e-05
-3.602605512e-05
8.577079816e-06
-3.976700219e-05
-3.824536673e-05
6.345435178e-06
-4.460585464e-05
-4.042257133e-05
3.502747747e-06
-4.716400274e-05
-4.217406121e-05
7.494957332e-07
-4.784362955e-05
-4.359537701e-05
-1.421719838e-06
-4.70932398e-05
-4.511405578e-05
-2.870600458e-06
-4.529720633e-05
-4.723052463e-05
-3.620456868e-06
-4.30517962e-05
-5.04113874e-05
-3.34361934e-06
-4.104230102e-05
-5.478352418e-05
-1.739468761e-06
-3.944865538e-05
-5.974915139e-05
8.528756129e-07
-3.733673646e-05
-6.366892644e-05
3.010459273e-06
-3.255189007e-05
-6.64114335e-05
3.411485831e-06
-3.093879808e-05
-5.388918197e-05
-2.399063954e-07
-2.947269798e-05
-5.284253622e-05
-1.197183834e-06
-3.190416536e-05
-5.410503472e-05
5.55673654e-07
-3.662854043e-05
-5.732402038e-05
3.148157875e-06
-3.893643125e-05
-5.862869577e-05
1.736577068e-06
-3.965554379e-05
-6.063883376e-05
1.407079903e-08
-3.914829514e-05
-6.338410838e-05
-1.11721322e-06
-3.751952907e-05
-6.527539514e-05
-2.704847992e-06
-3.459144053e-05
-6.223275576e-05
-6.400989476e-06
-2.683650976e-05
-5.718678626e-05
-1.374069328e-05
-1.464690363e-05
-5.594765626e-05
-1.826676426e-05
-6.021361968e-05
-1.390222002e-05
-1.415102305e-05
-3.487754104e-05
1.453155584e-05
-2.44510952e-05
-3.438338207e-05
1.001562906e-05
-3.302032876e-05
-3.494498445e-05
7.487919001e-06
-3.994772063e-05
-3.632118347e-05
5.002969501e-06
-4.479972681e-05
-3.776938122e-05
2.198576703e-06
-4.764648608e-05
-3.898037022e-05
-3.471764991e-07
-4.889775176e-05
-4.013752614e-05
-2.206841425e-06
-4.88413868e-05
-4.176997739e-05
-3.400722201e-06
-4.759866877e-05
-4.452210922e-05
-3.951448592e-06
-4.547732397e-05
-4.908106868e-05
-3.452018002e-06
-4.29068967e-05
-5.596976241e-05
-1.384569704e-06
-4.0022115e-05
-6.499183713e-05
2.357505115e-06
-3.487305631e-05
-7.501392482e-05
6.195493842e-06
-2.651103076e-05
-8.390003619e-05
9.126142462e-06
-2.741024182e-05
-5.927151388e-05
6.280991927e-06
-2.969536834e-05
-5.725361847e-05
6.695642478e-06
-3.443966488e-05
-5.410774452e-05
4.746362675e-06
-3.881093375e-05
-5.583746664e-05
2.884032088e-06
-3.968527725e-05
-5.686654139e-05
-8.885581348e-07
-3.925132385e-05
-5.882424911e-05
-2.249201268e-06
-3.7351461e-05
-6.175502244e-05
-3.529594853e-06
-3.467844917e-05
-6.364713093e-05
-4.301898885e-06
-3.267767047e-05
-5.745285618e-05
-6.781329769e-06
-2.764104768e-05
-4.868455317e-05
-1.353959273e-05
-1.743228894e-05
-4.659749022e-05
-1.955987012e-05
-5.297425117e-05
-1.565906891e-05
-1.416121251e-05
-3.546224931e-05
1.474565777e-05
-2.447933451e-05
-3.37714231e-05
9.705891357e-06
-3.295095701e-05
-3.32920664e-05
6.818438879e-06
-3.988979722e-05
-3.361146954e-05
4.228868512e-06
-4.506928683e-05
-3.412592093e-05
1.535775547e-06
-4.867701227e-05
-3.458895517e-05
-7.839452984e-07
-5.105839046e-05
-3.539379856e-05
-2.362618027e-06
-5.239707063e-05
-3.721760378e-05
-3.213996199e-06
-5.271245245e-05
-4.086810334e-05
-3.33898278e-06
-5.208985228e-05
-4.737618604e-05
-2.327891685e-06
-5.059017977e-05
-5.774110408e-05
2.712369605e-07
-4.743832881e-05
-7.280636882e-05
4.662277897e-06
-3.731910227e-05
-9.221952101e-05
7.085883249e-06
-2.125988317e-05
-0.0001063999425
6.440281637e-06
-2.155197185e-05
-6.53293858e-05
6.349464081e-06
-2.700851845e-05
-6.289954455e-05
1.11020173e-05
-3.371628814e-05
-5.54745125e-05
8.073995341e-06
-3.936143876e-05
-5.469343183e-05
4.50056574e-06
-4.045590791e-05
-5.504654527e-05
-7.260895372e-07
-3.865181358e-05
-5.646693191e-05
-4.161939731e-06
-3.414860922e-05
-5.975695251e-05
-6.501789071e-06
-2.839126529e-05
-6.21602634e-05
-7.244722503e-06
-2.632163696e-05
-5.288975881e-05
-6.633290314e-06
-2.655163933e-05
-3.988573049e-05
-8.569533606e-06
-2.289599247e-05
-3.453465162e-05
-1.571953953e-05
-4.193092451e-05
-1.411418307e-05
-1.433993147e-05
-3.660056414e-05
1.547795413e-05
-2.467649361e-05
-3.337235583e-05
9.937193699e-06
-3.308404283e-05
-3.175503169e-05
6.870220807e-06
-4.022081653e-05
-3.084252144e-05
4.367543384e-06
-4.613181008e-05
-3.010182876e-05
1.886628383e-06
-5.096547886e-05
-2.94501927e-05
-3.053645044e-07
-5.500608054e-05
-2.969463147e-05
-1.658848878e-06
-5.847814278e-05
-3.16275787e-05
-2.1182866e-06
-6.149707209e-05
-3.621152926e-05
-1.638029518e-06
-6.405623879e-05
-4.4962469e-05
1.449954522e-07
-6.595650965e-05
-5.966746945e-05
3.826213325e-06
-6.375907636e-05
-8.186928151e-05
6.865010573e-06
-4.720520894e-05
-0.0001090502191
2.759596048e-07
-1.823978091e-05
-0.0001221394301
-1.322639655e-05
-1.165096992e-05
-7.143260204e-05
-4.860418778e-07
-2.060534015e-05
-6.703174168e-05
1.308620214e-05
-2.930584784e-05
-5.706490676e-05
1.029046262e-05
-3.882807947e-05
-5.259866009e-05
7.427037996e-06
-4.165734248e-05
-5.204828843e-05
-1.694260651e-07
-3.919002189e-05
-5.255114534e-05
-6.383507612e-06
-3.111076609e-05
-5.630492986e-05
-1.153166857e-05
-1.969330797e-05
-5.947660092e-05
-1.410151243e-05
-1.460389994e-05
-4.90697214e-05
-8.909915783e-06
-2.154253656e-05
-3.390189585e-05
9.541432226e-07
-3.057558619e-05
-2.146486753e-05
-4.037847427e-06
-2.863133365e-05
-8.845843195e-06
-1.521181724e-05
-3.817872264e-05
1.678965209e-05
-2.580407977e-05
-3.368425083e-05
1.090382308e-05
-3.425980755e-05
-3.127654931e-05
7.976919042e-06
-4.168995442e-05
-2.926350052e-05
5.850814576e-06
-4.859960071e-05
-2.694177704e-05
3.749298892e-06
-5.520950043e-05
-2.454993771e-05
1.709359153e-06
-6.151341096e-05
-2.373885057e-05
3.47840143e-07
-6.786153164e-05
-2.542215096e-05
1.423750816e-07
-7.485482364e-05
-3.052831862e-05
1.309752353e-06
-8.305489943e-05
-4.089825217e-05
4.135516949e-06
-9.091131138e-05
-5.857115475e-05
6.759757351e-06
-9.006484439e-05
-8.39336042e-05
1.217369811e-06
-6.63683202e-05
-0.0001118521439
-2.0895122e-05
-1.652144199e-05
-0.0001205485788
-5.143793114e-05
4.968382687e-06
-7.511910251e-05
-1.780378845e-05
-8.170700945e-06
-6.731722147e-05
1.342425089e-05
-2.027312035e-05
-5.740875828e-05
1.244595613e-05
-3.65097454e-05
-4.796193919e-05
1.159961172e-05
-4.312569979e-05
-4.693195131e-05
1.499314498e-06
-4.146260766e-05
-4.517152089e-05
-9.042993468e-06
-2.991703816e-05
-4.882186462e-05
-1.902889976e-05
-1.145774655e-05
-5.156926239e-05
-2.636686793e-05
1.742875364e-07
-4.46386994e-05
-1.606343157e-05
-1.24204071e-05
-2.839489955e-05
7.087058355e-06
-3.954980623e-05
-9.982975318e-06
1.564626445e-05
-9.966413507e-06
1.902942077e-07
-1.718493031e-05
-3.956483133e-05
1.857068399e-05
-2.854403717e-05
-3.496618765e-05
1.264067442e-05
-3.726353187e-05
-3.286686335e-05
1.030944747e-05
-4.49165839e-05
-3.055370864e-05
8.942916372e-06
-5.276139112e-05
-2.662287662e-05
7.525584843e-06
-6.147003452e-05
-2.160039065e-05
5.758794995e-06
-7.052638756e-05
-1.909967131e-05
4.416890408e-06
-8.034969588e-05
-1.982761121e-05
4.2285019e-06
-9.261093773e-05
-2.370866772e-05
5.441342556e-06
-0.0001084518129
-3.239917875e-05
7.341558216e-06
-0.0001225853939
-4.727929197e-05
2.841415392e-06
-0.000120900544
-6.80667891e-05
-1.755209052e-05
-8.69691604e-05
-8.799608805e-05
-5.778756815e-05
-1.134813116e-05
-9.246391898e-05
-0.0001037048952
2.9722297e-05
-6.284643492e-05
-5.334339761e-05
1.455932925e-05
-5.709407872e-05
4.939561832e-06
-6.086489467e-06
-5.035944896e-05
1.359632815e-05
-3.058373772e-05
-3.966858119e-05
1.620371071e-05
-4.271771974e-05
-3.939775881e-05
4.599600456e-06
-4.352931125e-05
-3.250286429e-05
-1.18572331e-05
-3.00707597e-05
-3.444456972e-05
-2.783597691e-05
-5.238304789e-06
-3.456569674e-05
-4.183604557e-05
1.240536212e-05
-3.67841859e-05
-2.549839302e-05
9.032491733e-06
-2.162096959e-05
-3.401450879e-06
-1.576933042e-05
-6.2853664e-06
2.110359146e-05
2.212304356e-06
1.015645377e-05
-1.985121625e-05
-4.025769949e-05
2.054369858e-05
-3.232634927e-05
-3.722102344e-05
1.472956497e-05
-4.125079949e-05
-3.695309936e-05
1.301029152e-05
-4.866535185e-05
-3.557063403e-05
1.243110353e-05
-5.702428312e-05
-3.051528993e-05
1.225099733e-05
-6.786710811e-05
-2.225579245e-05
1.149790943e-05
-7.97895946e-05
-1.71375678e-05
9.960098116e-06
-9.336946877e-05
-1.494711979e-05
8.699128288e-06
-0.000111901062
-1.295669107e-05
7.779377138e-06
-0.0001350472663
-1.33227255e-05
4.069474703e-06
-0.0001518388244
-1.89963536e-05
-1.149175506e-05
-0.0001437662577
-2.947234497e-05
-4.666747075e-05
-9.470607456e-05
-4.048448515e-05
-9.657089333e-05
-1.682025434e-06
-4.589612091e-05
-0.0001395893961
5.659392716e-05
-3.113271885e-05
-8.998942151e-05
4.246437613e-05
-2.870927185e-05
-1.425531589e-05
1.267930119e-05
-3.167174373e-05
1.109736e-05
-1.843798203e-05
-2.764815821e-05
1.909678455e-05
-3.625028743e-05
-3.262403376e-05
1.103849271e-05
-4.132966352e-05
-1.540408488e-05
-1.201949987e-05
-2.990127071e-05
-1.587615792e-05
-2.999684084e-05
-5.534199795e-06
-1.4502736e-05
-4.443000967e-05
1.80294931e-05
-2.409984685e-05
-3.624810052e-05
2.799061689e-05
-1.352900268e-05
-1.805335478e-05
2.207999253e-05
-3.437300347e-06
3.062093522e-06
8.873549138e-06
1.99763671e-05
-2.218098997e-05
-4.046742888e-05
2.239030135e-05
-3.529012324e-05
-3.987264555e-05
1.576031666e-05
-4.332997397e-05
-4.19847262e-05
1.307105191e-05
-4.881460963e-05
-4.203431678e-05
1.19479167e-05
-5.587514453e-05
-3.693609833e-05
1.348097292e-05
-6.816101025e-05
-2.610935414e-05
1.613909216e-05
-8.328345939e-05
-1.803592869e-05
1.602051095e-05
-9.915637865e-05
-1.286003598e-05
1.37855749e-05
-0.0001183992566
-4.541449669e-06
1.082739139e-05
-0.0001379987203
3.837339965e-06
2.439114717e-06
-0.0001467219069
1.018715386e-05
-2.046065922e-05
-0.0001309792796
1.615406802e-05
-6.13693386e-05
-8.629356267e-05
2.435105526e-05
-0.0001095200469
-3.978795736e-06
1.411453609e-05
-0.000142323549
4.948789431e-05
-3.486514215e-06
-8.111279236e-05
3.769224968e-05
-4.816005895e-07
-1.643192419e-05
1.594228367e-05
-1.73453154e-05
7.423724195e-06
-5.243026286e-06
-2.444683988e-05
1.798400814e-05
-1.984894473e-05
-4.028291466e-05
2.226484734e-05
-3.261661088e-05
2.212412114e-06
-4.848867962e-06
-2.827933209e-05
3.446083274e-06
-2.365950898e-05
-9.027999839e-06
5.692577789e-06
-3.944662495e-05
1.610266924e-05
-2.965696899e-07
-4.893386212e-05
2.666183279e-05
8.749995969e-07
-2.496333451e-05
1.610806665e-05
5.813295406e-06
1.302916733e-06
1.17451444e-05
2.373445408e-05
-2.462546562e-05
-3.984198239e-05
2.399957074e-05
-3.792960687e-05
-4.083013017e-05
1.426115589e-05
-4.371979124e-05
-4.423829956e-05
8.043306581e-06
-4.467605499e-05
-4.560418098e-05
4.525702117e-06
-4.517545408e-05
-4.288264374e-05
6.44554959e-06
-5.157487424e-05
-3.354453555e-05
1.383423502e-05
-6.447634462e-05
-2.527553945e-05
2.014073918e-05
-7.584590689e-05
-1.904553219e-05
1.755474761e-05
-8.358513831e-05
-7.96905873e-06
1.116655732e-05
-8.90753582e-05
4.416336805e-06
4.910965652e-06
-9.326058236e-05
1.777493852e-05
-3.402852032e-06
-9.184463748e-05
3.409283452e-05
-1.935514976e-05
-7.464394855e-05
5.400593834e-05
-4.685586666e-05
-4.527352312e-05
5.192794926e-05
-6.718380715e-05
-1.975595661e-05
1.439075686e-05
-4.339492171e-05
-8.646242281e-06
4.283727254e-06
-1.58749984e-05
-1.039139066e-05
-1.559223688e-05
-6.940043494e-09
-5.517224158e-06
-3.753983223e-05
8.218978573e-06
3.41389456e-07
-5.725128373e-05
1.11098107e-05
-1.331705417e-05
2.980475829e-06
1.289035997e-05
-1.674639522e-05
1.143404146e-05
-4.55862695e-06
-3.454113405e-06
1.938924692e-05
-2.698900647e-05
9.389132456e-06
2.276345536e-05
-3.590330617e-05
5.720478768e-06
1.548705919e-05
-1.094354223e-05
-1.539075116e-05
1.387100259e-05
1.305330931e-05
1.324792747e-05
1.360815447e-05
-2.861528929e-05
-3.646163945e-05
2.523447559e-05
-4.24671082e-05
-3.73671449e-05
1.038833853e-05
-4.599101454e-05
-4.066594818e-05
-4.894440123e-08
-4.251638883e-05
-4.337973784e-05
-5.69952765e-06
-3.539795835e-05
-4.420832389e-05
-5.793180028e-06
-3.094370757e-05
-3.947234777e-05
1.473144689e-06
-4.09595936e-05
-3.41736721e-05
1.891362112e-05
-5.934607262e-05
-2.692084472e-05
2.62614403e-05
-7.30342441e-05
-1.581957418e-05
2.153836368e-05
-8.237405496e-05
-5.463229935e-07
1.430216431e-05
-8.657050177e-05
1.443270098e-05
7.538358922e-06
-8.299767793e-05
2.870954351e-05
1.810128274e-06
-6.584755665e-05
4.33943099e-05
-6.538741458e-06
-4.309731334e-05
4.556204721e-05
-1.638448032e-05
-3.363435663e-05
2.019652521e-05
-1.526898954e-05
-2.863214531e-05
4.489686746e-06
-5.208295075e-06
-2.961000433e-05
-1.722135281e-05
2.606972934e-06
-1.930205517e-05
-4.397755864e-05
-3.870253706e-06
6.330101045e-06
-5.670693583e-05
-2.617651238e-05
6.889230789e-06
-9.884744238e-06
1.23059537e-05
-4.226709169e-06
2.242442618e-06
2.030743997e-05
3.29810852e-06
1.706159751e-05
-5.19722986e-06
6.516409915e-06
2.963542486e-05
-1.009036233e-05
-3.393390341e-06
1.867404578e-05
6.722680498e-06
-2.171282812e-05
1.629459539e-05
1.58956762e-05
1.536300506e-05
8.100835612e-06
-3.324099744e-05
-2.876943794e-05
2.55483132e-05
-4.803171622e-05
-2.866873953e-05
6.091796097e-06
-5.021724425e-05
-3.148633044e-05
-6.994597065e-06
-4.294597922e-05
-3.42865466e-05
-1.636494293e-05
-3.015764023e-05
-3.677466188e-05
-2.022243629e-05
-1.360103008e-05
-3.899935929e-05
-1.70300704e-05
-1.263867798e-05
-3.890625782e-05
3.769766792e-06
-3.13668457e-05
-3.390540292e-05
2.571229204e-05
-4.81897683e-05
-2.751577115e-05
2.851869274e-05
-6.183200346e-05
-1.119453916e-05
2.429004445e-05
-7.057412456e-05
8.680800081e-06
1.449361795e-05
-7.170105977e-05
2.442356952e-05
5.412482369e-06
-6.354698182e-05
3.666836852e-05
-1.428562949e-06
-5.220212417e-05
4.054201917e-05
-6.325228727e-06
-5.14564012e-05
2.885135546e-05
-9.40094169e-06
-5.735121193e-05
1.864968401e-05
-8.26553385e-06
-5.939967905e-05
1.323534589e-07
-1.530551918e-05
-3.841114665e-05
-2.083130379e-05
-4.413476623e-05
1.099411248e-05
-3.104733517e-05
-7.506460971e-05
2.964617054e-05
-5.147702824e-06
-2.338930567e-05
1.168030568e-05
9.120895349e-06
1.108728511e-05
1.50766539e-05
2.180932702e-05
-8.14410512e-06
1.036983704e-05
2.950929867e-05
4.83277886e-06
-1.179598411e-06
2.003190751e-05
1.019139029e-05
-1.500164889e-05
1.74515234e-05
1.266491261e-05
1.726236326e-05
7.064262463e-06
-3.503776433e-05
-1.893075061e-05
2.51985884e-05
-5.22779522e-05
-1.438493416e-05
2.955841127e-06
-5.46811693e-05
-1.492885729e-05
-1.415478652e-05
-4.55428165e-05
-1.609798157e-05
-2.732739965e-05
-2.893341268e-05
-1.936163574e-05
-3.402284551e-05
-8.994841578e-06
-2.629728265e-05
-3.264108132e-05
1.566932767e-07
-3.38549989e-05
-1.420329987e-05
-1.10827966e-05
-3.690339413e-05
1.423696206e-05
-2.688535127e-05
-3.702330783e-05
2.530958397e-05
-4.031199998e-05
-2.651609249e-05
2.87477038e-05
-5.298846498e-05
-5.936475568e-06
2.729325389e-05
-6.061516411e-05
1.357076919e-05
1.847901167e-05
-6.323373228e-05
2.952361942e-05
9.76279088e-06
-6.613054422e-05
3.893036007e-05
4.507926621e-06
-7.710608117e-05
4.041327948e-05
-5.869148268e-07
-8.705027409e-05
4.029576757e-05
-1.170234504e-05
-8.093849104e-05
3.725853703e-05
-4.323843529e-05
-4.720485113e-05
3.373478785e-05
-8.829941733e-05
1.317757201e-05
2.398255668e-05
-0.0001154116972
5.150044732e-05
1.927799729e-05
-6.274870592e-05
4.107694855e-05
3.031631601e-05
-1.077218037e-05
2.813571099e-05
3.134727996e-05
3.403156894e-06
1.738036393e-05
3.247073917e-05
7.793650431e-06
5.787390942e-06
2.417356166e-05
7.451054526e-06
-8.883693201e-06
2.15328621e-05
1.058947602e-05
2.038041202e-05
7.634672417e-06
-2.864020976e-05
-1.652168826e-05
2.623064501e-05
-4.843031426e-05
-2.597135764e-06
8.001757357e-06
-5.385949374e-05
3.182405936e-06
-1.268261822e-05
-4.605555571e-05
6.607367213e-06
-3.050979142e-05
-3.011409149e-05
5.292269216e-06
-4.059582528e-05
-1.187338959e-05
-3.986618185e-06
-4.055184232e-05
-7.423364175e-08
-2.287124039e-05
-2.278346316e-05
-3.5805513e-06
-3.785126043e-05
4.453599108e-06
-1.239708775e-05
-4.339189237e-05
1.518452906e-05
-1.894459547e-05
-3.899767448e-05
1.902847568e-05
-2.908550204e-05
-2.253570973e-05
2.673950987e-05
-3.930087104e-05
-5.232698233e-06
2.90182136e-05
-4.537793024e-05
1.547951809e-05
2.012053325e-05
-4.87722178e-05
3.127035581e-05
1.105363731e-05
-5.340941411e-05
3.999371938e-05
5.056091165e-06
-5.738751297e-05
4.588611782e-05
-1.612909456e-06
-5.427242826e-05
5.129236674e-05
-1.714962191e-05
-3.61286194e-05
6.143203576e-05
-4.584163593e-05
-6.504985194e-06
6.432375543e-05
-6.996525037e-05
1.370488541e-05
3.475791762e-05
-3.569029858e-05
1.226003298e-05
3.926526498e-05
-7.504568304e-06
1.183027506e-05
3.529504552e-05
-3.518368675e-06
9.574030625e-06
3.344373031e-05
1.282859629e-06
1.512447109e-06
2.85189547e-05
3.715837313e-06
-1.1198133e-05
2.640947783e-05
7.833601154e-06
2.495111428e-05
5.035454509e-06
-1.812547308e-05
-2.268136921e-05
2.42846278e-05
-3.490457644e-05
-4.050521197e-06
1.823191864e-05
-4.351111235e-05
6.339941678e-06
5.448423355e-06
-4.173717165e-05
1.272129194e-05
-7.888447258e-06
-3.141190455e-05
1.257897021e-05
-1.76125495e-05
-1.80990291e-05
1.522201587e-06
-1.882228519e-05
-9.962806036e-06
-2.103476719e-05
-9.973314507e-06
-8.619861942e-06
-3.729388648e-05
-1.90097457e-06
-8.667212457e-06
-4.568803319e-05
2.342804972e-06
-7.509798504e-06
-4.50938334e-05
4.93802764e-06
-9.255661017e-06
-3.450582386e-05
1.371522889e-05
-1.608271955e-05
-2.362502669e-05
2.521863531e-05
-2.462481862e-05
-6.099610501e-06
3.01204766e-05
-3.127424252e-05
1.544157397e-05
2.247745257e-05
-3.625874118e-05
3.159647129e-05
1.338096608e-05
-3.865732294e-05
3.961947703e-05
8.664439169e-06
-3.761172471e-05
4.637631754e-05
3.869679586e-06
-2.465650064e-05
5.741115928e-05
-8.935038042e-06
-6.804414522e-06
6.732037572e-05
-2.084934827e-05
2.065197533e-06
3.865552462e-05
-1.276783412e-05
3.082235173e-06
4.050400168e-05
-2.256333703e-06
6.843969778e-06
3.656972117e-05
-5.036893725e-06
5.359679846e-06
3.499137651e-05
-6.383114714e-08
-1.877754929e-06
3.238706659e-05
3.368866746e-06
-1.316958214e-05
3.134438464e-05
6.35646619e-06
3.028303529e-05
1.660868673e-06
-1.926206927e-05
-2.477486477e-05
2.13550646e-05
-3.577425208e-05
-1.03358165e-05
2.279694029e-05
-4.39493325e-05
-3.456320981e-06
1.797078293e-05
-4.408342838e-05
-4.436688575e-07
1.329847549e-05
-3.84086676e-05
-3.068033805e-06
9.971639677e-06
-3.10966297e-05
-1.341978114e-05
7.629315081e-06
-2.454476884e-05
-2.751345438e-05
-7.385088835e-08
-1.786316986e-05
-3.740280261e-05
-6.573407e-06
-1.076318065e-05
-4.487705782e-05
-7.91173408e-06
-2.151933315e-06
-4.606170887e-05
-7.644188665e-06
3.763967671e-06
-3.975567122e-05
-6.669138739e-07
3.270382374e-06
-3.395659846e-05
1.082426618e-05
-2.126799521e-06
-2.256057968e-05
2.185724667e-05
-1.152023502e-05
-4.493285783e-06
2.932737771e-05
-1.911540853e-05
1.675352792e-05
2.24371907e-05
-2.300036334e-05
2.945464974e-05
1.404884275e-05
-2.438921221e-05
3.808080332e-05
9.683454646e-06
-1.713585855e-05
4.671304979e-05
3.443934839e-06
-5.630714796e-06
5.776355497e-05
-1.949044758e-06
-2.08356533e-06
4.028927165e-05
-5.18162155e-06
-1.166570424e-06
4.176283569e-05
-2.176483958e-06
2.486367155e-06
3.705810386e-05
-4.141940826e-06
1.160439585e-06
3.569975788e-05
6.169698064e-07
-4.6864241e-06
3.4056272e-05
4.177086142e-06
-1.322462139e-05
3.397984238e-05
5.902179513e-06
3.410841056e-05
1.562752469e-06
-1.772402843e-05
-2.450156335e-05
1.745025855e-05
-3.611013015e-05
-1.473188313e-05
2.27816658e-05
-4.811224674e-05
-1.186305165e-05
2.040830979e-05
-5.31111009e-05
-1.261878923e-05
1.71733971e-05
-5.195802804e-05
-1.640869872e-05
1.218697749e-05
-4.699151835e-05
-2.292537288e-05
4.538420078e-06
-3.929815997e-05
-3.034477339e-05
-4.862761334e-06
-2.877228632e-05
-3.726992425e-05
-1.065952987e-05
-1.616205181e-05
-4.299170281e-05
-1.449641802e-05
-8.59044883e-07
-4.379794334e-05
-1.756765399e-05
1.159494741e-05
-4.017339225e-05
-1.203720691e-05
1.622594642e-05
-3.660603337e-05
-1.982543032e-06
1.444913756e-05
-2.922935092e-05
8.444563524e-06
7.911219729e-06
-1.788725488e-05
1.993084629e-05
-1.016648171e-06
-1.403271206e-06
2.708361095e-05
-8.188845875e-06
1.447068498e-05
2.215507199e-05
-1.2501293e-05
2.730562261e-05
1.50865539e-05
-1.01533675e-05
3.497046385e-05
9.393794952e-06
-4.117958881e-06
4.437104909e-05
7.356301703e-06
-3.33611988e-06
3.902767858e-05
4.789266139e-07
-2.898976724e-06
4.069876862e-05
6.261870966e-07
-4.677480416e-07
3.568542322e-05
-1.059305233e-06
-1.921424701e-06
3.417938892e-05
2.973377145e-06
-5.731574454e-06
3.261084071e-05
5.254883976e-06
-1.123369348e-05
3.289839685e-05
6.582881118e-06