/*--------------------------------*- C++ -*----------------------------------*\
  =========                 |
  \\      /  F ield         | OpenFOAM: The Open Source CFD Toolbox
   \\    /   O peration     | Website:  https://openfoam.org
    \\  /    A nd           | Version:  8
     \\/     M anipulation  |
\*---------------------------------------------------------------------------*/
FoamFile
{
    version     2.0;
    format      ascii;
    class       volVectorField;
    location    "0.7";
    object      U;
}
// * * * * * * * * * * * * * * * * * * * * * * * * * * * * * * * * * * * * * //

dimensions      [0 1 -1 0 0 0 0];

internalField   nonuniform List<vector> 
67410
(
(-0.008793681691 -0.02710500052 0.05128846442)
(-0.04641896906 -0.01468656789 0.05613701706)
(-0.1053621994 -0.01744803746 0.06502102064)
(-0.164163962 -0.0328478783 0.08264499651)
(-0.2176120997 -0.05167033374 0.1106240005)
(-0.2613350427 -0.07496316221 0.1318114618)
(-0.2908127413 -0.1039094918 0.1386243208)
(-0.3055070489 -0.1211074131 0.1420001446)
(-0.3150705309 -0.1285963419 0.1462400529)
(-0.3240335668 -0.1322123467 0.152765306)
(-0.3323741891 -0.1372785115 0.1616137524)
(-0.335814815 -0.1473234219 0.1704306299)
(-0.3277227437 -0.1618400993 0.1749301736)
(-0.3033050626 -0.1750641649 0.1716838415)
(-0.2647458215 -0.177515128 0.1626831364)
(-0.2238324147 -0.1585131322 0.1546964644)
(-0.2078851212 -0.1162331553 0.149625911)
(-0.2342694611 -0.0858218369 0.1387957158)
(-0.2637989163 -0.08522358476 0.1295620498)
(-0.2886634845 -0.0831351485 0.1272521313)
(-0.3206700279 -0.08592351643 0.1333513403)
(-0.3540936856 -0.08971966741 0.1411493588)
(-0.3862162073 -0.09818717235 0.1446989226)
(-0.4074278487 -0.108513185 0.1385584299)
(-0.4155013631 -0.1147771951 0.1217359141)
(-0.4172283662 -0.1127859689 0.09764686709)
(-0.01961460644 -0.08960233547 0.06868739424)
(-0.04853707489 -0.06420071916 0.06800869301)
(-0.0957560136 -0.0613082651 0.07674566778)
(-0.1408251423 -0.08189449495 0.09376861774)
(-0.1916133761 -0.1255122764 0.1062014549)
(-0.237034974 -0.1744655582 0.1057837038)
(-0.2735545637 -0.2093110638 0.09614736643)
(-0.3008677135 -0.2302989436 0.08676388349)
(-0.320003387 -0.243441214 0.08446963785)
(-0.3341236655 -0.2560783071 0.09078670199)
(-0.3454075098 -0.2747079405 0.1007420556)
(-0.3521223545 -0.3017185427 0.1038964699)
(-0.3484191046 -0.3320831146 0.09106389148)
(-0.3281491291 -0.354640403 0.06476707166)
(-0.2916926113 -0.3573413147 0.04200865845)
(-0.2483457296 -0.3295412761 0.04458108573)
(-0.2195060701 -0.2672136943 0.08265946489)
(-0.2234769639 -0.2130343869 0.120194023)
(-0.245296019 -0.2030993194 0.1123994108)
(-0.2563911707 -0.190321882 0.1033695187)
(-0.2797141151 -0.1920869665 0.1095636783)
(-0.3038240893 -0.1997053945 0.1181153535)
(-0.3271692172 -0.2170871424 0.1200525447)
(-0.3393230291 -0.2318413215 0.1098995229)
(-0.3407410999 -0.228985243 0.09164998604)
(-0.3451019641 -0.2010095797 0.06909699614)
(-0.03433489818 -0.1570269868 0.0942146665)
(-0.07677118128 -0.1293352727 0.08496409221)
(-0.1252712828 -0.1341215985 0.0888219925)
(-0.1670999633 -0.1665165998 0.0970003741)
(-0.2162032226 -0.218061617 0.09537866782)
(-0.2631894555 -0.2668578595 0.07997585312)
(-0.3011504273 -0.3039747755 0.05809267251)
(-0.3251069665 -0.3291384594 0.04233300834)
(-0.3389452238 -0.3484609027 0.03942971927)
(-0.3490532318 -0.3697940178 0.04759598671)
(-0.3598245637 -0.398801178 0.05584291839)
(-0.3696452147 -0.4347537958 0.0476337294)
(-0.3692332794 -0.4690025482 0.0142554411)
(-0.3481435097 -0.4898846525 -0.03205307237)
(-0.3060397942 -0.4887285377 -0.06492112063)
(-0.2534858627 -0.4613281243 -0.05912591228)
(-0.2114746152 -0.4061168698 0.005523931174)
(-0.1986537018 -0.353475585 0.1023804267)
(-0.2362610969 -0.3329223265 0.1055986271)
(-0.2374151985 -0.3128784502 0.08775602353)
(-0.2520030488 -0.3149543224 0.09523715004)
(-0.2654141853 -0.3301086024 0.1054502955)
(-0.2831009449 -0.3601494303 0.1026542836)
(-0.2904151961 -0.382955874 0.0840418934)
(-0.284299567 -0.3750676294 0.07157756963)
(-0.2873394966 -0.3200151219 0.08110584653)
(-0.05218620869 -0.2163381539 0.1047752582)
(-0.1073654958 -0.1911433033 0.08504098286)
(-0.1619088163 -0.2057049927 0.08510977377)
(-0.2082738356 -0.2413957096 0.08645259011)
(-0.2606875026 -0.2879263675 0.07296280781)
(-0.3052681278 -0.329780768 0.04597764489)
(-0.3353118881 -0.3608305486 0.01831665177)
(-0.3502810712 -0.3833905027 0.002422108708)
(-0.3566006353 -0.4037430396 0.001896095934)
(-0.3620342543 -0.4283699779 0.01142539972)
(-0.3720033525 -0.4601269622 0.01669481129)
(-0.3842562976 -0.4949584646 -1.807014249e-05)
(-0.3860717236 -0.5232243835 -0.04310247748)
(-0.3624889574 -0.5355485049 -0.09305571149)
(-0.3128302785 -0.5287462108 -0.124201037)
(-0.2499859856 -0.5105234851 -0.1214093575)
(-0.1962559011 -0.4832251733 -0.05868806134)
(-0.172209726 -0.4493830987 0.07638512637)
(-0.238405117 -0.4227107106 0.09717087781)
(-0.2395381492 -0.4067671292 0.07361309219)
(-0.250894333 -0.4134868794 0.07960766433)
(-0.255699776 -0.4369176121 0.08032291279)
(-0.2638055123 -0.4716933987 0.05483931477)
(-0.2600693703 -0.4942858773 0.01211535947)
(-0.2377103921 -0.4848440249 -0.002525391355)
(-0.2292202055 -0.4177791452 0.05125092235)
(-0.0687880033 -0.2576905829 0.1008832039)
(-0.1263488066 -0.2429134096 0.07827986341)
(-0.191460122 -0.2619224196 0.07625595956)
(-0.2455997584 -0.2973514322 0.06981917671)
(-0.3006420156 -0.3378431599 0.0457159377)
(-0.3400777482 -0.3716857277 0.01236781504)
(-0.3619141098 -0.3968516617 -0.01554518116)
(-0.3688394144 -0.4165537717 -0.02854388538)
(-0.3682498951 -0.4360668747 -0.02650820424)
(-0.3683698579 -0.4600957375 -0.01631142086)
(-0.3754684889 -0.4889062609 -0.01113892028)
(-0.3879175918 -0.5166838156 -0.02606515842)
(-0.3911198352 -0.5342742859 -0.06327326816)
(-0.3661975599 -0.53638428 -0.1051846962)
(-0.3129482108 -0.5277569488 -0.1356148766)
(-0.2432739571 -0.5202907465 -0.135748496)
(-0.1853008946 -0.5195945053 -0.08006502714)
(-0.1637111277 -0.5084657627 0.052603551)
(-0.2501241467 -0.4819612764 0.08212603949)
(-0.2582573522 -0.4792910312 0.05777978875)
(-0.2710055711 -0.4940452186 0.05769730795)
(-0.2723249686 -0.5232689935 0.0386804845)
(-0.2690343005 -0.552894211 -0.016468576)
(-0.2486477684 -0.566869639 -0.08162255293)
(-0.2009685188 -0.5596647079 -0.1065271172)
(-0.1711050941 -0.5066805853 -0.04560703699)
(-0.07430187892 -0.2813612952 0.09800965202)
(-0.1387438476 -0.2777896924 0.07340350942)
(-0.2132179916 -0.2980032548 0.06758026542)
(-0.2728787363 -0.3306061122 0.05324772456)
(-0.3275419635 -0.3643210525 0.02199253074)
(-0.3620209531 -0.3914350589 -0.01302984061)
(-0.3778849257 -0.4117702923 -0.03809543288)
(-0.3789178511 -0.4283864433 -0.04718117801)
(-0.3721579024 -0.4454682036 -0.04309088313)
(-0.3657025909 -0.4670395741 -0.03239756886)
(-0.3663987873 -0.4915473347 -0.02309064218)
(-0.3747893222 -0.5121618088 -0.02619313743)
(-0.3780624045 -0.5206726982 -0.04809115739)
(-0.3559472699 -0.5162810009 -0.08249622102)
(-0.305899773 -0.5021014635 -0.1154276369)
(-0.240139767 -0.5036343501 -0.1175765552)
(-0.1881188211 -0.5248714727 -0.06366372701)
(-0.189299045 -0.5302244767 0.04045370912)
(-0.2705879704 -0.5120453384 0.0601552251)
(-0.2847268889 -0.5231304979 0.03926146169)
(-0.2971556339 -0.5442344825 0.03007851656)
(-0.2965217205 -0.5730731374 -0.007605543804)
(-0.2840156946 -0.5909286889 -0.07857612597)
(-0.2474829321 -0.5883546454 -0.1426630009)
(-0.1718442887 -0.5796565869 -0.170429419)
(-0.1199067182 -0.5552204882 -0.1466935274)
(-0.07679080087 -0.2965702446 0.09604871428)
(-0.1473693758 -0.2987353246 0.06953014)
(-0.2280961763 -0.3173904568 0.05945488083)
(-0.2896807179 -0.3455764704 0.03921650818)
(-0.3422975669 -0.3732191252 0.004908753307)
(-0.3732408767 -0.3950692262 -0.02857129831)
(-0.3856235116 -0.4116373714 -0.04929237463)
(-0.3827066174 -0.4252206474 -0.05413990025)
(-0.3719642833 -0.440823334 -0.04935892405)
(-0.3584463214 -0.4610584247 -0.03815094352)
(-0.3494060789 -0.4845801012 -0.0223388087)
(-0.348181115 -0.5040879792 -0.008378595214)
(-0.3483601167 -0.5094887965 -0.007946980374)
(-0.3272740359 -0.5015087628 -0.02623914703)
(-0.2885139186 -0.4705157355 -0.06054686894)
(-0.2419803332 -0.4751570979 -0.06594735444)
(-0.2097044392 -0.5071866091 -0.02243290931)
(-0.2372104534 -0.5279658963 0.0357840086)
(-0.2944537554 -0.5246325324 0.03571416781)
(-0.3085716259 -0.5432757833 0.01994364862)
(-0.3171527599 -0.5670460365 0.004106661919)
(-0.3142474099 -0.5909974242 -0.04040046003)
(-0.2964274631 -0.5929070586 -0.1064928236)
(-0.2552270251 -0.5783303114 -0.162067594)
(-0.1596778964 -0.5684539659 -0.1914276638)
(-0.08599291154 -0.5671985282 -0.1857958024)
(-0.07812155642 -0.3044106657 0.09488883111)
(-0.1527628536 -0.3075804878 0.06622478523)
(-0.2365327787 -0.3224970652 0.05245199153)
(-0.2976648414 -0.3453238609 0.02917725609)
(-0.3483353929 -0.3674553016 -0.005070947262)
(-0.3778013971 -0.385070824 -0.03552981693)
(-0.38907933 -0.3987096023 -0.05164430212)
(-0.3879688259 -0.4119426204 -0.05446536475)
(-0.3768804091 -0.4286797526 -0.04958110444)
(-0.359273845 -0.4522846713 -0.03740398875)
(-0.3410117681 -0.4826986684 -0.01532765957)
(-0.3263728091 -0.5132495687 0.01473210631)
(-0.3179960892 -0.5295302925 0.0400612351)
(-0.2822734021 -0.5315697877 0.05051935152)
(-0.2542369531 -0.4592672151 0.02118566925)
(-0.2429516427 -0.4575600988 0.01501725263)
(-0.2387919421 -0.4841819607 0.02635606255)
(-0.2802382451 -0.515187026 0.03303266143)
(-0.3137880503 -0.5246317055 0.01638843417)
(-0.3215451779 -0.5439935974 0.003676996232)
(-0.3231267463 -0.567719579 -0.01344198427)
(-0.3143818934 -0.5854760414 -0.0512398515)
(-0.2974300894 -0.5708535255 -0.1026126233)
(-0.263017588 -0.539171396 -0.1540113442)
(-0.1676466053 -0.528798083 -0.1930445519)
(-0.07704977034 -0.5548536637 -0.1815749541)
(-0.07846694073 -0.3079399272 0.09501980437)
(-0.155069584 -0.3075658323 0.06366898243)
(-0.23957473 -0.3165568431 0.04747816584)
(-0.2994226955 -0.3328088714 0.02374277584)
(-0.3495052685 -0.3491641831 -0.008592770361)
(-0.379874764 -0.362525909 -0.03574052246)
(-0.3946909138 -0.3739565244 -0.0487881779)
(-0.3995510896 -0.3877349537 -0.05004200324)
(-0.3938406162 -0.4087115964 -0.04345183719)
(-0.3793896544 -0.4418050641 -0.02789297846)
(-0.359526767 -0.489667487 0.0002785331112)
(-0.3365773373 -0.5480963977 0.03937648168)
(-0.3195835937 -0.6016100888 0.0725159785)
(-0.2388264641 -0.6432873903 0.09417658052)
(-0.2013655792 -0.495189556 0.0733953983)
(-0.2357316216 -0.4804679356 0.08535346735)
(-0.2528942821 -0.4760631811 0.06438003996)
(-0.3044339768 -0.5016888381 0.03619196236)
(-0.3254007122 -0.5136143989 0.005855903171)
(-0.323408145 -0.5311023344 -0.01018561471)
(-0.3149753912 -0.5554350516 -0.02866949297)
(-0.2924772577 -0.5705446715 -0.05547474812)
(-0.2724407791 -0.5305804357 -0.0822468769)
(-0.2573351123 -0.4724797779 -0.1188041171)
(-0.1862520574 -0.4604520769 -0.1739191956)
(-0.1052188056 -0.5090185925 -0.1555038985)
(-0.07835490251 -0.3111415318 0.09769853243)
(-0.1554637138 -0.3023698323 0.063292285)
(-0.2395607982 -0.3031083716 0.04607876635)
(-0.2982993321 -0.3110427317 0.02393084278)
(-0.3497266916 -0.3202794556 -0.005444721435)
(-0.3840347264 -0.3281923586 -0.02978687885)
(-0.4072693376 -0.337175671 -0.04094847976)
(-0.4225106456 -0.3524505686 -0.03949892913)
(-0.4289798587 -0.3803654378 -0.02783789879)
(-0.4272379686 -0.4282331591 -0.00449723624)
(-0.4183023867 -0.5026358819 0.03232307844)
(-0.4003924714 -0.6042954256 0.07319885577)
(-0.3760225437 -0.7280759024 0.07035073445)
(-0.2249131017 -0.8382728392 0.01349811592)
(-0.1283602447 -0.5554568229 0.05614593533)
(-0.2131349116 -0.5363264133 0.1147943738)
(-0.2334495076 -0.4866281506 0.08931695746)
(-0.3091510429 -0.4918501772 0.05391458134)
(-0.3333084147 -0.4982460576 0.008276137787)
(-0.3262800963 -0.5135612333 -0.02659710408)
(-0.30357026 -0.5407553245 -0.05865183593)
(-0.2506741367 -0.5581631929 -0.08588940215)
(-0.210553722 -0.4854367332 -0.07159969519)
(-0.2182026189 -0.3896930348 -0.04399044577)
(-0.2082727125 -0.3644743837 -0.1142567377)
(-0.174622297 -0.4260940459 -0.1123357164)
(-0.07974130114 -0.318336054 0.1046736724)
(-0.1571619284 -0.2966341461 0.06721398548)
(-0.2409134075 -0.2872037438 0.05054892922)
(-0.2991566633 -0.2848006094 0.0317079254)
(-0.3541681944 -0.2845629548 0.005896608189)
(-0.3969248099 -0.2847053807 -0.016750038)
(-0.4320594936 -0.2899455992 -0.02629692259)
(-0.462512703 -0.3067683056 -0.02043134227)
(-0.4884269823 -0.3432061402 -0.0005244781194)
(-0.5106584761 -0.4104221966 0.03473750093)
(-0.528781496 -0.519875433 0.07890020138)
(-0.5376752824 -0.6829105966 0.09002232547)
(-0.4988257018 -0.9096023655 -0.06519676951)
(-0.2807940715 -1.063380087 -0.3473239157)
(-0.015687461 -0.6097843929 -0.01478807129)
(-0.1675442761 -0.5822341239 0.1356749256)
(-0.1742164251 -0.5012253255 0.1118605912)
(-0.2964134821 -0.4800530152 0.08556949892)
(-0.3403096364 -0.479317708 0.01391542842)
(-0.3370964903 -0.4890024597 -0.05247815062)
(-0.3012524705 -0.5216815957 -0.1163797391)
(-0.2027286213 -0.5489690346 -0.1724507698)
(-0.1195528986 -0.4513518262 -0.1129826453)
(-0.1173308833 -0.3173746681 0.05703726545)
(-0.2294676489 -0.2499485083 0.007921268382)
(-0.2817298572 -0.3216362537 -0.06107125728)
(-0.08590335171 -0.3311331308 0.1168093943)
(-0.1655447079 -0.2952554526 0.07758900356)
(-0.2505515066 -0.2759388754 0.06403026765)
(-0.3087148037 -0.2622068365 0.05047858742)
(-0.368301683 -0.2494241812 0.02901938779)
(-0.4231273769 -0.2376837888 0.007483435211)
(-0.4752833513 -0.2363643135 -0.0008700949167)
(-0.5256940709 -0.2531465067 0.009480631611)
(-0.5785823272 -0.2974979336 0.03721591964)
(-0.6381021056 -0.3842041019 0.07922159287)
(-0.7070916074 -0.5319752246 0.09491213128)
(-0.7708115629 -0.7639407395 -0.04321555779)
(-0.6838357885 -1.044275919 -0.4704894577)
(-0.4120176593 -1.133684675 -0.935481146)
(0.1484357024 -0.6696029114 -0.184097729)
(-0.06459218345 -0.6072696429 0.137748654)
(-0.07004666962 -0.5128614122 0.1314152437)
(-0.2572090637 -0.4521006848 0.1276638289)
(-0.3426195674 -0.4454345355 0.02325547865)
(-0.3579003212 -0.442371972 -0.08705015687)
(-0.3154411938 -0.4778738118 -0.1982646312)
(-0.1652985338 -0.508112618 -0.3143527191)
(-0.02627745473 -0.4238351736 -0.210051151)
(0.02954282361 -0.2770612489 0.05589576453)
(-0.2294778809 -0.1219662246 0.1581256884)
(-0.4345857753 -0.170866853 -0.01632661333)
(-0.09893041674 -0.3453928844 0.1326070075)
(-0.1852310611 -0.3015774065 0.09482937333)
(-0.2749195211 -0.278216547 0.08797730006)
(-0.3332867941 -0.2564765317 0.08237509644)
(-0.3957518733 -0.2287782091 0.06792931033)
(-0.4634866128 -0.1983251266 0.04847678542)
(-0.5369898712 -0.1848021667 0.03871665159)
(-0.6112284804 -0.1966242621 0.04868177673)
(-0.695627129 -0.2409822027 0.07653970272)
(-0.8061238797 -0.3360956855 0.09787594508)
(-0.9554533061 -0.5040227312 -0.005596821131)
(-1.064133571 -0.7388709068 -0.3767756808)
(-0.8724734864 -0.9565446628 -0.9242302901)
(-0.5194254901 -0.9972594813 -1.371613401)
(0.3222876521 -0.6636725363 -0.4862691721)
(0.1701063744 -0.5870088122 0.03386654732)
(0.07454529211 -0.4987982975 0.1330233483)
(-0.1768762907 -0.3939246535 0.1731135267)
(-0.3251976879 -0.3875842164 0.04495887333)
(-0.3727721001 -0.3549246642 -0.1215605282)
(-0.3299709621 -0.3820336335 -0.2815293262)
(-0.1503873681 -0.3980208068 -0.4602925953)
(0.06087755819 -0.3703938783 -0.2815547774)
(0.1419423118 -0.2329418041 -0.09465407175)
(0.009431992241 -0.06160821546 0.154402088)
(-0.2713817315 -0.01662482397 0.02974539686)
(-0.1158702658 -0.3544712253 0.1490142523)
(-0.2124966916 -0.3169480324 0.1124963233)
(-0.3085547042 -0.3029525419 0.1089655815)
(-0.3646662416 -0.2836654271 0.108641939)
(-0.4242621443 -0.2425372404 0.108296142)
(-0.5039706958 -0.1861438265 0.1016326864)
(-0.6006427068 -0.1567223315 0.08584638)
(-0.6979106881 -0.1589971064 0.07746152756)
(-0.8183236695 -0.1845461129 0.07413753275)
(-0.9980296305 -0.2453193926 0.01416614179)
(-1.216411609 -0.3416891695 -0.2415341595)
(-1.289418971 -0.4534390417 -0.6928177754)
(-0.9947118103 -0.5642077117 -1.161080942)
(-0.5086085085 -0.5941662153 -1.563003013)
(0.4738463108 -0.4272730622 -0.8186325232)
(0.4635236985 -0.4281659975 -0.1880030712)
(0.2450371481 -0.3933020296 0.08627265782)
(-0.04340915449 -0.3062930745 0.2005512515)
(-0.2533589859 -0.3093254883 0.1084588642)
(-0.3449906236 -0.2215938081 -0.1172168717)
(-0.3179089184 -0.2244923543 -0.2679287335)
(-0.1616609271 -0.2161077834 -0.407725714)
(0.06978755646 -0.2741324929 -0.3675574525)
(0.2155870012 -0.1520145198 -0.2198510095)
(0.2453773905 -0.05016290399 -0.0664897972)
(0.112120045 0.05980705769 0.1399552084)
(-0.1308710642 -0.3588218753 0.1634348118)
(-0.2362224035 -0.3424881818 0.1125635)
(-0.3325965746 -0.3513288063 0.08580431029)
(-0.3753001554 -0.344817072 0.06838439949)
(-0.4146002352 -0.2947657503 0.08740522908)
(-0.4932215606 -0.2045423411 0.1292551539)
(-0.6167170178 -0.1432527093 0.1293023348)
(-0.7360201548 -0.1020203913 0.09960786478)
(-0.8719494843 -0.04231391259 0.06544051074)
(-1.052748647 0.0057095708 -0.05668264131)
(-1.214444415 -0.002314892756 -0.4056391254)
(-1.205219574 -0.07667796152 -0.8933179086)
(-0.8681937701 -0.1493621653 -1.336484597)
(-0.5163046971 -0.2431613924 -1.669239482)
(0.4418338073 -0.1375958778 -0.7518076488)
(0.3810295806 -0.0730325366 -0.1440579611)
(0.2448961206 -0.1659877174 0.08324949366)
(0.007553984257 -0.1850548409 0.188048355)
(-0.08793315804 -0.2599190418 0.2213260404)
(-0.2448002022 -0.04986354882 -0.03869952865)
(-0.2773994968 -0.0611567842 -0.2050316577)
(-0.1770030571 -0.04207959082 -0.3542479316)
(0.03406971547 -0.1476584176 -0.5377784631)
(0.2184868947 -0.08882070977 -0.2809405085)
(0.2233595433 -0.01030595505 -0.05863274392)
(0.03588055145 0.09192561367 0.1900461361)
(-0.1466139156 -0.3603765429 0.1737028117)
(-0.2611008822 -0.3657474273 0.07694901069)
(-0.3500018323 -0.3942536775 -0.009268805103)
(-0.3652963561 -0.4034099332 -0.06913337277)
(-0.357336827 -0.3637498906 -0.04933263537)
(-0.3744838705 -0.2598128173 0.06347885254)
(-0.464587085 -0.1798113696 0.1605169139)
(-0.5810133285 -0.1301826976 0.1221581143)
(-0.6548625549 -0.04044302439 0.0499203846)
(-0.7047090434 0.06472102242 -0.0004389437958)
(-0.7501733422 0.1892817997 -0.06843728097)
(-0.7814189256 0.3594345155 -0.2432259692)
(-0.6936116768 0.5578467987 -0.5256221621)
(-0.500644588 0.4786569905 -0.6716788952)
(-0.251886425 0.0747570073 -0.2711144433)
(-0.07590874995 0.06353273664 -0.0575311222)
(-0.05908826064 -0.1444224965 0.04900963504)
(-0.1141213882 -0.2532484065 0.08551847744)
(0.0270907272 -0.4562491919 -0.001454609651)
(-0.02236768374 0.0886204721 0.1726107536)
(-0.1901885804 0.1227416468 0.02455045389)
(-0.07987978845 0.1402988695 -0.2114051427)
(0.02200823098 0.1414477021 -0.3130020709)
(0.1277681532 0.1047947217 -0.05593392337)
(-0.03330292687 0.1118532319 0.1463654282)
(-0.2160546979 0.1154745921 0.1049180975)
(-0.1719449785 -0.3470616764 0.1737445102)
(-0.3018614779 -0.3591780316 0.007199513981)
(-0.3827392452 -0.3932453307 -0.1379361763)
(-0.3693057564 -0.4111302264 -0.2164915092)
(-0.31798175 -0.4041342478 -0.2188716137)
(-0.2609422276 -0.3391623203 -0.1216974009)
(-0.2389432468 -0.2642770288 0.132077643)
(-0.4217169985 -0.2016801345 0.2163420288)
(-0.5452394384 -0.09712743197 0.153082596)
(-0.6468403137 0.0144802668 0.08082597528)
(-0.700073098 0.1233239273 0.03972238073)
(-0.7115596062 0.2533593753 0.004255508712)
(-0.6294592293 0.4222066111 -0.09491200948)
(-0.434878151 0.4576803634 -0.1773954279)
(-0.2749178711 0.1740205522 -0.06419587505)
(-0.2624129421 0.01539919778 0.03099793002)
(-0.2117223923 -0.1328028662 0.08532962497)
(-0.2569299346 -0.4118897692 -0.1267327749)
(-0.0703139097 -0.5811631776 -0.6211466814)
(0.1799610683 -0.03748068406 0.1247380583)
(-0.07217194471 0.07583287565 0.2470582663)
(0.006365251654 0.194387186 -0.01374873365)
(0.04444141656 0.266689154 -0.08914289361)
(0.0640631317 0.1713415702 0.102276881)
(-0.1185605192 0.1384862257 0.1709161304)
(-0.2375709913 0.1232162901 0.05224566984)
(-0.1995414085 -0.2967935803 0.1583346821)
(-0.3513018659 -0.3019504679 -0.0656593583)
(-0.4243172051 -0.3296013975 -0.214701362)
(-0.3917438352 -0.3581170863 -0.2756769065)
(-0.2978503274 -0.3768542321 -0.2956591342)
(-0.2013260255 -0.3702043502 -0.2745497086)
(-0.01718558953 -0.3492009805 -0.04083549355)
(-0.1845446239 -0.2808751897 0.2152485941)
(-0.3254921848 -0.1861612934 0.2288195271)
(-0.4557040643 -0.02364301666 0.1747178155)
(-0.5564218915 0.1311826061 0.07995683126)
(-0.5962481853 0.2514470039 0.0222043622)
(-0.5671675395 0.3520292142 -0.009986130569)
(-0.4596823648 0.3635978428 -0.03512671242)
(-0.3949367618 0.1916955843 -0.03900939506)
(-0.4339754718 0.06218918217 -0.02214662999)
(-0.5131965342 -0.1716332603 -0.1584088714)
(-0.4315266327 -0.3790773644 -0.6029022054)
(-0.2056624548 -0.4159181385 -1.047749605)
(0.3800312926 -0.1364713216 -0.2933499974)
(0.093936008 -0.03332622184 0.1253935386)
(0.108948636 0.1235421654 0.07010381619)
(0.1204975191 0.2596105344 0.05306345514)
(0.05702993318 0.1617336475 0.1247921341)
(-0.07769089698 0.1466127217 0.1542583192)
(-0.1668251728 0.1461359225 0.07906885006)
(-0.1982877435 -0.2129528748 0.1475351456)
(-0.3833388928 -0.2097755167 -0.09696007616)
(-0.4607719564 -0.2249548624 -0.2359882824)
(-0.4217381761 -0.2422461379 -0.3072912056)
(-0.309770107 -0.2663683161 -0.3475792337)
(-0.1655668512 -0.3099250274 -0.3415189835)
(0.01449881957 -0.341913666 -0.1562346259)
(-0.0114512118 -0.3242528642 0.1183584533)
(-0.1658605362 -0.299272274 0.1964942819)
(-0.2678204787 -0.1717482009 0.2145702101)
(-0.3878970839 0.02584053505 0.1966608679)
(-0.4793425537 0.1843193594 0.11148925)
(-0.5107797515 0.2975873974 0.05299820325)
(-0.5127902772 0.3522885358 0.03467619394)
(-0.5654015041 0.3167672309 0.005189171509)
(-0.6837388603 0.2689546494 -0.1491682908)
(-0.7562043092 0.1747142409 -0.5307355579)
(-0.5267493002 0.02824835484 -0.9622480797)
(-0.226281757 -0.1086423861 -1.288211731)
(0.4259227365 0.04983257025 -0.686913802)
(0.4202727145 0.1894093359 -0.2025750463)
(0.2656431143 0.2471335069 0.04551886365)
(0.1799288338 0.2686610981 0.09204868947)
(0.1092127114 0.1921834764 0.0957167878)
(-0.01684259517 0.1659761543 0.1377053096)
(-0.1285926035 0.1627305511 0.09982823056)
(-0.1354980331 -0.1199195392 0.1796219689)
(-0.3399748395 -0.04253641634 -0.008964371335)
(-0.4484896034 -0.04011642493 -0.1785475028)
(-0.4208927003 -0.04404263675 -0.3027316958)
(-0.3185205457 -0.07387047959 -0.3749797393)
(-0.1739139971 -0.1531606182 -0.3674296814)
(-0.02336404419 -0.251144751 -0.1600195083)
(0.02196393429 -0.329688924 0.09231121964)
(-0.07831817057 -0.3626820966 0.1065629459)
(-0.1220409343 -0.304165033 0.1086627459)
(-0.182904056 -0.1323220954 0.1884884406)
(-0.2862883869 0.06004707184 0.2134059798)
(-0.35795867 0.2291468364 0.1329149826)
(-0.3837679972 0.3344939511 0.07178053394)
(-0.4104744948 0.3937752348 0.04652177509)
(-0.4531093281 0.4375562082 -0.004614047245)
(-0.4921597003 0.4738256172 -0.183734819)
(-0.3748497284 0.5450741286 -0.4944271403)
(-0.2060578231 0.5110300379 -0.7656990996)
(0.09531729496 0.2830033977 -0.283288721)
(0.1225682438 0.3537976416 -0.04311484893)
(0.08415056986 0.3146956099 -0.01785470264)
(0.101535416 0.3008215051 0.03171342842)
(0.05923186088 0.2350405524 0.05661425721)
(-0.03601644383 0.2128712345 0.1128733144)
(-0.145914052 0.1975111887 0.07413624354)
(-0.0779527058 -0.1784712888 0.1773582901)
(-0.2226377019 -0.004982537201 0.1262675216)
(-0.3442042397 0.094910113 0.0207608921)
(-0.3660440852 0.1573188266 -0.07855676245)
(-0.306541563 0.163726813 -0.1320968856)
(-0.1989710589 0.08018195177 -0.0998547567)
(-0.0972175118 -0.1522757304 0.03125982336)
(-0.06811950337 -0.3351762835 0.06547655686)
(-0.07301017526 -0.4080501602 0.0007257157435)
(-0.06676185979 -0.3915561861 -0.02592171385)
(-0.05528688087 -0.2721360454 0.06056040467)
(-0.09187508616 -0.1519211205 0.170287606)
(-0.1675852766 0.05011750054 0.2267207516)
(-0.2367285968 0.2268035599 0.1638350358)
(-0.2765964609 0.3213575022 0.1003243126)
(-0.3084857258 0.3831917767 0.07987404469)
(-0.3261730188 0.4437251213 0.03722000181)
(-0.2759680686 0.5594747407 -0.1302531745)
(-0.1324708525 0.6399292614 -0.334859675)
(0.02512752743 0.3342474905 -0.08689517709)
(0.006512163466 0.3448870752 0.0106208454)
(0.04634743755 0.315501407 -0.04095887697)
(0.06098096572 0.2974319881 0.01000150543)
(0.02904694426 0.2714976321 0.05277905921)
(-0.06071450832 0.2574987193 0.09009617146)
(-0.1550411166 0.2439787348 0.02893075943)
(-0.08290910725 -0.2183127668 0.1473794749)
(-0.2356942823 -0.06498572651 0.1781294559)
(-0.3449364058 0.02004948917 0.1451013583)
(-0.3719355297 0.07271794019 0.1148377526)
(-0.3411626054 0.06326676081 0.1068540742)
(-0.2783986007 -0.05290735635 0.1207162533)
(-0.2285598212 -0.2253105344 0.06257829204)
(-0.1741593383 -0.3311904802 -0.03507004055)
(-0.1167803245 -0.4045071559 -0.1009000819)
(-0.0598909861 -0.4130589162 -0.1307583728)
(0.02508267299 -0.3450860098 -0.04869156604)
(0.03619116782 -0.2740067968 0.04413970708)
(0.01895283845 -0.1603628226 0.1307466036)
(-0.05280655939 0.04956429263 0.2248952897)
(-0.1377825384 0.2430289692 0.1746074569)
(-0.1752091732 0.3192874649 0.1133132698)
(-0.1987307208 0.3810703702 0.0914197567)
(-0.1944234768 0.4677300186 0.0301605493)
(-0.08595074286 0.5703476041 -0.05008732209)
(-0.005897912327 0.3563167724 -0.03199075942)
(-0.02862136506 0.3722934151 -0.00740589625)
(0.01080594758 0.3308000361 -0.0430663803)
(0.02787460606 0.319877649 0.00984732089)
(-0.007989507806 0.3012654725 0.05904930761)
(-0.06912524058 0.2967925098 0.07750952039)
(-0.1478128156 0.291912353 0.0152263378)
(-0.06786040625 -0.2238068019 0.1081834601)
(-0.22485998 -0.1194171419 0.1802806358)
(-0.3611826009 -0.08100185112 0.1651999332)
(-0.4236484798 -0.08027933112 0.1396042532)
(-0.4356613932 -0.1163426933 0.09079992002)
(-0.4088424645 -0.1852547752 0.01211770133)
(-0.3566755776 -0.2656740426 -0.07569353966)
(-0.2814308787 -0.3347053482 -0.1377899787)
(-0.1840723671 -0.3935566184 -0.1773604836)
(-0.07977258203 -0.4031844308 -0.2042933184)
(0.06518606053 -0.3616812479 -0.1326697026)
(0.1247648428 -0.328714982 -0.04517352578)
(0.1360357818 -0.2460372475 0.03072828759)
(0.1035540182 -0.1308910951 0.1079336448)
(0.02564570155 0.05748067188 0.2054141345)
(-0.04273438653 0.2074595538 0.1784178758)
(-0.09191618812 0.2976210097 0.1222577229)
(-0.1117121514 0.3648611459 0.07743865635)
(-0.05189563138 0.4540919743 0.05970386752)
(-0.01638142211 0.3598162668 0.001100453358)
(-0.03705103385 0.371527236 -0.00411886598)
(-0.008791230352 0.3285568262 -0.02266596307)
(0.0004761558268 0.3153074694 0.02530402099)
(-0.03083689035 0.3018917888 0.06306672566)
(-0.06208204209 0.3046516763 0.07639420861)
(-0.1216032782 0.3120463256 0.03844364748)
(-0.06396885697 -0.2108289064 0.08361892832)
(-0.2282328609 -0.1438635017 0.1544228568)
(-0.3857251799 -0.1320921452 0.1097358206)
(-0.4659119202 -0.1470172472 0.03785212051)
(-0.5000974135 -0.1794924443 -0.04541640629)
(-0.4883660777 -0.226533648 -0.1193090535)
(-0.4400607339 -0.277400195 -0.1678781195)
(-0.364124637 -0.3316176839 -0.1998130698)
(-0.2476796997 -0.3726886511 -0.229213695)
(-0.1092879366 -0.3743682411 -0.2599765799)
(0.07962157057 -0.3485083112 -0.2037609363)
(0.169485186 -0.3192966261 -0.1204264997)
(0.2116197228 -0.2695129364 -0.04295581907)
(0.2015848844 -0.1913285781 0.01974664698)
(0.1613740232 -0.08356140808 0.08847366249)
(0.08707773773 0.04818561989 0.1748194223)
(0.02024719829 0.1844465525 0.1796510911)
(-0.02037304922 0.2514280455 0.1181017127)
(-0.01006950082 0.3250977053 0.09453636546)
(-0.007677593037 0.3307593554 0.04129702796)
(-0.040505799 0.346065349 0.02216383767)
(-0.02759435939 0.3046873829 0.02165639118)
(-0.01467317245 0.2917425362 0.04975204377)
(-0.03886260835 0.2779897464 0.07062391873)
(-0.04417349309 0.2805167943 0.07685254984)
(-0.07675025069 0.2928890315 0.07722588329)
(-0.08228711215 -0.1726016878 0.07784136041)
(-0.2774536657 -0.1231298721 0.1224396979)
(-0.4451226716 -0.1108183798 0.03514613908)
(-0.5159516652 -0.1188481793 -0.06961744189)
(-0.5369446482 -0.1362116054 -0.1463270706)
(-0.5271131286 -0.1720267242 -0.1904137053)
(-0.4909847994 -0.2170212955 -0.2183619944)
(-0.4156941926 -0.260638605 -0.2470689177)
(-0.2904189663 -0.292455363 -0.2822013845)
(-0.1331572757 -0.2994210977 -0.3154272323)
(0.07092124843 -0.2929159318 -0.2743614838)
(0.1840574701 -0.2719016889 -0.1877287272)
(0.2330129585 -0.2357449636 -0.1103756895)
(0.238562142 -0.1962518153 -0.05217038048)
(0.2119203064 -0.1338440453 -0.008613374344)
(0.1525306566 -0.06534231201 0.06251781512)
(0.08010608185 0.03726334668 0.1588311732)
(0.02707831351 0.1445318071 0.1824690669)
(0.06566634487 0.248201986 0.1726215354)
(0.06070899151 0.2691924956 0.1050893049)
(-0.02834664128 0.3120449792 0.0720805214)
(-0.02226259838 0.2063760059 0.07500758924)
(-0.01039516944 0.2143348711 0.07380825242)
(-0.03556891245 0.2038548455 0.07989678773)
(-0.02996103969 0.2044522199 0.0693302455)
(-0.09220510627 -0.06309135114 0.06974782104)
(-0.3034284734 -0.06240157283 0.07412507645)
(-0.4700224952 -0.08373458363 -0.04934241053)
(-0.5248466651 -0.0938306549 -0.1558173842)
(-0.5505074258 -0.08553283094 -0.212326889)
(-0.5491309944 -0.09193595534 -0.2459442381)
(-0.5211844251 -0.1211164619 -0.2794916909)
(-0.4552564612 -0.1514673573 -0.321722099)
(-0.3371058254 -0.168939636 -0.368768102)
(-0.1778905466 -0.168383056 -0.4040928503)
(0.0190163044 -0.1561862353 -0.3750640572)
(0.1544081898 -0.130435762 -0.2825669348)
(0.2052995051 -0.09971221243 -0.1907341789)
(0.2179509364 -0.07975151501 -0.1491703744)
(0.2184970703 -0.07200587189 -0.1089118643)
(0.176243204 -0.08675712201 -0.05232249528)
(0.1457682821 -0.06999216871 0.003860836534)
(0.1371478564 -0.1345168865 0.005617680997)
(0.1260983367 -0.1128902271 0.1039304277)
(0.1028042993 0.200428302 0.142900437)
(-0.0366956537 0.2237789847 0.1031281243)
(0.03973284811 0.1085973163 0.03370124101)