/*--------------------------------*- C++ -*----------------------------------*\
  =========                 |
  \\      /  F ield         | OpenFOAM: The Open Source CFD Toolbox
   \\    /   O peration     | Website:  https://openfoam.org
    \\  /    A nd           | Version:  8
     \\/     M anipulation  |
\*---------------------------------------------------------------------------*/
FoamFile
{
    version     2.0;
    format      ascii;
    class       scalarField;
    location    "1.6/lagrangian/reactingCloud1";
    object      age;
}
// * * * * * * * * * * * * * * * * * * * * * * * * * * * * * * * * * * * * * //


230
(
0.2610213768
0.2518607999
0.2467697853
0.2388311234
0.2366455867
0.2328640053
0.2270621954
0.2268758456
0.2195999021
0.2177483811
0.216387878
0.2162641959
0.2088315653
0.2068263678
0.2059836002
0.2047350682
0.196549846
0.1924800485
0.1902787547
0.1874589663
0.18550521
0.1841817969
0.1840405503
0.1831416494
0.1829816033
0.1828185699
0.1813275444
0.2343353359
0.1717834301
0.1702897724
0.1673903193
0.1621185864
0.1600977554
0.1528930538
0.1526294671
0.2328029198
0.1501693251
0.1495542896
0.2133576666
0.1467426987
0.2122445277
0.1459519387
0.1441068322
0.141998139
0.1405923436
0.1390986859
0.1388350993
0.1373414416
0.1372535794
0.1661602483
0.2081638161
0.1297852911
0.2047350682
0.124959137
0.1873733901
0.1238032665
0.1801451201
0.1209309252
0.1629093463
0.1176978801
0.161942862
0.1581647867
0.1131388455
0.1596584444
0.1103597517
0.157461889
0.1083531417
0.1067285197
0.2099475148
0.1040371118
0.1039200941
0.1038030763
0.1023403547
0.1015797394
0.1013457039
0.1004680709
0.0985333791
0.1060849221
0.097175037
0.09660157392
0.1381322016
0.09178706481
0.09093355523
0.09089513801
0.08988736767
0.08692135884
0.08692135884
0.08613464097
0.08608525184
0.08549161472
0.08489671716
0.1120685315
0.08435097477
0.08415261857
0.08177691282
0.08059332426
0.07990392201
0.07941190278
0.07936270086
0.08812843426
0.07818252621
0.07724882627
0.07719968579
0.0770031239
0.08667628836
0.0760200929
0.07597092079
0.07533168327
0.08454944765
0.0738563565
0.0738563565
0.07316748975
0.07311828498
0.07233084179
0.07188769844
0.07119809325
0.06932406834
0.06868217882
0.06808934503
0.06794110988
0.06779287473
0.06724912881
0.06660630626
0.06601252719
0.06581458857
0.06581458857
0.07877258302
0.06531951796
0.06507190796
0.06497286396
0.0647747381
0.06437825921
0.06318763099
0.06229287576
0.06154567622
0.06109651769
0.06064666497
0.06059662646
0.06034630968
0.0601458651
0.05924157296
0.1885322735
0.05769664873
0.05739535997
0.05643700035
0.05643700035
0.05635047245
0.06209377732
0.0550026434
0.05445315448
0.05374073627
0.05374073627
0.05367860825
0.05309931796
0.05309931796
0.05248204528
0.05086563154
0.05805533545
0.04948360419
0.04891645322
0.1021063192
0.06303860356
0.05608383708
0.04682691953
0.04673174286
0.04597168644
0.0454975573
0.04427224958
0.06209377732
0.04269493955
0.06064666497
0.2112265064
0.04115233683
0.05848503416
0.03960948489
0.06606201184
0.07778937149
0.03800851167
0.03780053114
0.03738223489
0.03727633621
0.07803507386
0.2097088606
0.09609709317
0.06863280271
0.0351875751
0.05316552659
0.03181448074
0.0314450025
0.0819744416
0.03055665236
0.03016488601
0.05226743253
0.02909075496
0.05014321249
0.02481803197
0.03217693579
0.03418946753
0.02386360979
0.04521378875
0.02102110303
0.01962813837
0.01950068293
0.01924492796
0.05014321249
0.04739797952
0.01561475577
0.04587670361
0.01379556092
0.03287873121
0.07523333903
0.03132022074
0.01243649438
0.03029603769
0.0285398936
0.02783894623
0.09336512508
0.008448491731
0.02359772207
0.2080760331
0.02307187991
0.005988992086
0.02229494577
0.005486745449
0.02826146933
0.004812338322
0.01820154484
0.001808272582
0.1281080886
0.0521222612
)


// ************************************************************************* //
