/*--------------------------------*- C++ -*----------------------------------*\
  =========                 |
  \\      /  F ield         | OpenFOAM: The Open Source CFD Toolbox
   \\    /   O peration     | Website:  https://openfoam.org
    \\  /    A nd           | Version:  8
     \\/     M anipulation  |
\*---------------------------------------------------------------------------*/
FoamFile
{
    version     2.0;
    format      ascii;
    class       labelField;
    location    "1.6/lagrangian/reactingCloud1";
    object      origId;
}
// * * * * * * * * * * * * * * * * * * * * * * * * * * * * * * * * * * * * * //


230
(
587
592
594
600
602
605
607
608
609
610
611
612
613
614
615
617
620
622
623
624
625
626
627
628
629
630
631
1001
634
635
637
640
641
642
644
1002
645
646
1033
647
1037
648
649
651
652
653
654
655
656
768
434
657
437
658
1087
659
761
660
448
661
449
772
662
450
663
452
664
665
433
666
667
668
669
670
671
672
673
803
674
675
782
676
677
678
679
680
681
682
683
684
685
800
686
687
688
689
690
691
692
482
693
694
695
696
483
697
698
699
485
700
701
702
703
704
705
706
707
708
709
710
711
712
713
714
715
716
488
717
718
719
720
721
722
723
724
725
726
727
728
729
730
439
731
732
733
734
735
827
736
737
738
739
740
741
742
743
744
832
745
746
805
491
833
747
748
749
750
751
826
752
828
1040
753
831
754
823
1153
755
756
757
758
1151
1044
808
489
759
835
760
761
486
762
763
836
764
838
765
852
850
766
844
767
768
769
770
839
841
771
843
772
851
1156
853
773
854
856
858
480
774
861
1047
862
775
863
776
857
777
1193
778
789
837
)


// ************************************************************************* //
