/*--------------------------------*- C++ -*----------------------------------*\
  =========                 |
  \\      /  F ield         | OpenFOAM: The Open Source CFD Toolbox
   \\    /   O peration     | Website:  https://openfoam.org
    \\  /    A nd           | Version:  8
     \\/     M anipulation  |
\*---------------------------------------------------------------------------*/
FoamFile
{
    version     2.0;
    format      ascii;
    class       volScalarField;
    location    "2/wallFilmRegion";
    object      delta;
}
// * * * * * * * * * * * * * * * * * * * * * * * * * * * * * * * * * * * * * //

dimensions      [0 1 0 0 0 0 0];

internalField   nonuniform List<scalar> 
1369
(
0.01013420971
0.009607566762
0.006820518895
0.005166807641
0.004135774935
0.003629237917
0.003427307276
0.003399993433
0.003546284467
0.003834156151
0.004122403844
0.004324184237
0.003960921099
0.003360901692
0.002691975621
0.002477100398
0.003583996521
0.004726825493
0.003078151318
0.002638654372
0.002666034104
0.001878747626
0.000800848926
0.0007253396631
7.090451333e-05
0.000232964901
0.0007443896848
0.0007973069149
0.0004225640365
0.0003351979801
0.0004873437978
0.0004513691169
0.0008745370105
0.002427874138
0.003637746169
0.004550245139
0.0047246074
0.004680693261
0.004729716482
0.005087407466
0.005757053307
0.004762983699
0.005768189988
0.007802651302
0.007085195948
0.005422687562
0.005189176919
0.00505906479
0.00455239842
0.004284145664
0.004341521993
0.004680163771
0.0049722713
0.004851181312
0.00471346867
0.004841790962
0.005522259213
0.006871722389
0.008196178084
0.008543485642
0.00906734515
0.008593645682
0.006983290822
0.005328116045
0.003963458183
0.002771433784
0.001824571274
0.001078830995
0.0006798417052
0.0005713479349
0.0005758343461
0.0002948440448
0.0001718568163
7.716140691e-05
3.024675106e-05
5.503652905e-05
0.001125433797
0.001756919837
0.0004192981028
0.0001195841521
0.0001500592342
0.000153550478
0.0002001627092
0.0003322143538
0.0001559234439
0.0003063268231
0.000661198133
0.0002588186422
2.849530296e-05
9.724861977e-06
9.627395189e-06
4.56253223e-05
8.115776684e-05
0.0004875400444
0.000235196269
0.0002239354844
1.717214568e-05
8.055646335e-06
5.669419314e-05
0.0002203249642
0.001100410175
0.0007678565271
0.0003234280843
0.001565165175
0.004392655067
0.004818460918
0.004279328654
0.004285953772
0.004246840853
0.004746942189
0.004969130045
0.004846199235
0.004399949332
0.004384553364
0.005150907471
0.005959263871
0.006504276669
0.006952927598
0.007709226027
0.008475951937
0.00933608235
0.007887788974
0.007002193891
0.005698125525
0.004652223025
0.004289071821
0.003954931772
0.003711579689
0.003358664874
0.002819445125
0.002301753611
0.002174873442
0.002103508736
0.002599749485
0.002744400758
0.002431532748
0.002234267284
0.001877935171
0.0009082302151
0.000438166189
0.0001609321103
0.0001077237267
0.0001259600719
0.0002021037385
0.001009703522
0.0008658190272
0.0008588785928
0.0002216831003
4.314602352e-05
1.598152955e-05
1.499943743e-05
0.0001710328666
0.0001346923727
0.0001629596685
0.0002917753722
0.0003862817262
0.0002568589046
0.0001432771028
0.0002009336283
0.0005585560262
0.0006235135382
0.0001193275535
4.487937056e-05
0.0009635708712
0.006644682662
0.00685193632
0.005789321697
0.005197511793
0.004544447221
0.004581071757
0.004779405084
0.005337122653
0.005326655531
0.00507231035
0.005029584473
0.005424450935
0.005989090378
0.006691781902
0.007522944052
0.008304452079
0.008250214528
0.006643985551
0.006583281638
0.005555843549
0.004399451559
0.003427790693
0.003016683932
0.002433848756
0.001812738034
0.001312653244
0.0009859475803
0.0009094937004
0.00156768734
0.002377898572
0.002441753584
0.001969561002
0.001925840401
0.001080662214
0.001002341502
0.0006646730381
0.0001358466975
7.664215891e-05
7.559359826e-05
6.90811045e-05
8.919830211e-05
0.0001224706243
0.0001719891375
0.0001383893386
8.848152421e-05
3.834718813e-05
2.746113247e-05
0.0004771544843
0.0002510965364
0.000258847308
0.0003677424348
0.000573938036
0.000489360893
0.0002965038527
0.0002181509309
0.0001224755812
5.841963815e-05
3.389242153e-05
4.952453838e-05
0.001996649586
0.00409977253
0.005506270149
0.004220861189
0.00429071982
0.004033635459
0.004306699708
0.004701270502
0.005080060376
0.005096767729
0.004849764372
0.004969814701
0.005365189408
0.005835222633
0.006442881216
0.006968590603
0.008427564156
0.006795270792
0.006781955917
0.006553131475
0.005703010412
0.004785366165
0.004100042124
0.003825583081
0.003409111948
0.002635390286
0.001969955295
0.001340719925
0.001452249838
0.001807767717
0.003249462466
0.002097033222
0.001197618611
0.0008576043822
0.0004745540832
0.0006994286032
0.000907943251
0.0001258213517
6.024606036e-05
5.640540351e-05
4.618520103e-05
3.872092612e-05
5.120237856e-05
6.549312757e-05
7.972230512e-05
0.0001001787295
8.237529965e-05
7.823637749e-05
0.000960482521
0.0003566667223
0.0004832593631
0.000734861243
0.0006695003036
0.0003969969196
0.0002753942839
0.0001889590127
8.633406471e-05
3.353742728e-05
1.421664276e-05
6.057365467e-05
0.001442825345
0.002661222297
0.003593189914
0.003586880618
0.003949811937
0.004193934194
0.004434475608
0.004533506159
0.004696479588
0.004649291443
0.004683523821
0.004852160056
0.005141502152
0.005419675862
0.00590433935
0.006577427009
0.007625963585
0.005599829964
0.006316953546
0.006642669851
0.005658553282
0.004899202883
0.004236605751
0.003884420185
0.003477507798
0.00274688894
0.002134986174
0.00183957631
0.001949500048
0.002612893593
0.003745058271
0.0008978426755
0.0003830848715
0.0002731648794
0.0002379322614
0.0002790361411
0.0002568275832
0.00012619374
4.151099603e-05
3.912152619e-05
3.258206022e-05
2.41856472e-05
2.864797023e-05
3.398952951e-05
4.514100957e-05
7.038576279e-05
0.0001068765315
0.000201382076
0.001156675106
0.000358220191
0.0002829306144
0.0001964938129
0.0001092314188
0.0005186003364
0.0006946745121
0.0004378159816
0.0001367784366
2.492054516e-05
7.216924396e-06
0.0002386811046
0.0008216050537
0.0007687270856
0.0005520225884
0.001790164984
0.002967033158
0.003061144758
0.003820152022
0.003977930904
0.00414176488
0.004320009443
0.004402677512
0.004546195247
0.004721992245
0.004790601064
0.005345322286
0.005714580579
0.005832620218
0.004970423482
0.00429781571
0.006198031092
0.005277666182
0.004743773944
0.004196672025
0.003879177271
0.003647757605
0.003274435825
0.003100459561
0.003041481194
0.002669805819
0.003993741986
0.002355016844
0.0002333040055
0.0001482327309
0.0001519435704
0.0001216699706
5.746956458e-05
5.933085276e-05
0.0002266739882
1.806765678e-05
1.63819167e-05
1.389915449e-05
1.114716184e-05
1.188256171e-05
1.32429534e-05
1.655462239e-05
2.744163411e-05
8.351738433e-05
0.0003763421505
0.0006601597058
0.0002181582025
0.0001747863971
0.0001660165145
0.0001262041953
0.0001206243591
6.94944613e-05
3.44379292e-05
4.125927795e-05
4.422123817e-06
2.971676584e-06
1.108006011e-05
0.0004168035998
0.0002516918548
0.0001352178618
0.001945968262
0.004293578706
0.004397143089
0.004680587044
0.00470947014
0.004503228864
0.00448764301
0.0044836979
0.004351282492
0.004416633574
0.004019710578
0.004855745392
0.00470261497
0.004572309514
0.004799583309
0.003072806854
0.004841620817
0.004489326267
0.004293539036
0.003995902528
0.003874485506
0.003950299575
0.004026449444
0.004038377982
0.003663223575
0.003297143506
0.005192495145
0.0005936937368
0.0001154631475
0.0001044831002
0.000105928918
8.29830389e-05
3.756404162e-05
9.906536415e-05
0.0004476314451
4.004934714e-06
3.621600485e-06
3.14829927e-06
3.536054033e-06
1.730882831e-06
2.619134621e-06
3.614297692e-06
5.509365732e-06
3.02429409e-05
0.0003156960141
0.0001333554237
8.444724312e-05
0.0001117860773
0.0001632700794
0.0001795855938
0.000142571609
6.330015281e-05
2.922774474e-05
5.225065317e-05
3.712068748e-06
3.704953874e-06
5.489601487e-06
8.641014262e-06
9.051039886e-06
8.647346205e-06
1.598277989e-05
0.0003869546039
0.004143998435
0.004234030092
0.004497263003
0.004433049353
0.004447397354
0.004413028352
0.004257676099
0.004244796608
0.003487157664
0.004497907429
0.00364216249
0.004249517356
0.004959435332
0.002485021889
0.003961799908
0.003550347368
0.003763946977
0.003727240774
0.003908032787
0.004375627596
0.004809036562
0.004375868431
0.003825440444
0.004645392791
0.004117535906
0.0001421632403
9.080664331e-05
9.285304275e-05
8.853730478e-05
8.071789864e-05
0.0001193847123
0.0003122289101
0.0007872013452
1.486225158e-05
1.31526908e-05
9.826044009e-06
4.751157921e-06
2.514470903e-05
9.937803775e-06
8.19859541e-06
8.150768771e-06
9.353420148e-05
0.001093006504
0.0001076826573
6.650587213e-05
0.0001047711283
0.0001789256997
0.0002318083162
0.0002408656228
0.0001225965742
4.01495997e-05
6.564495746e-05
7.841751823e-06
6.646488586e-06
5.488306473e-06
4.851131187e-06
4.662674809e-06
4.924840615e-06
6.396673341e-06
2.242631877e-05
0.002534708566
0.00430447601
0.003836374027
0.004677581549
0.004701003927
0.004401495155
0.004421319503
0.004657355801
0.003298493682
0.004716783877
0.003054995669
0.004650134177
0.005370031501
0.002273017779
0.003352003207
0.00302203437
0.003577293804
0.003803011265
0.004292407046
0.004687959422
0.004554986447
0.003802576262
0.00345511301
0.005093880934
0.0003263317401
7.980040966e-05
7.878539526e-05
7.885301195e-05
7.937156777e-05
0.0001420474775
0.0003713583149
0.0007678797426
0.001247232257
0.0005480211791
0.0002743788025
9.292417318e-05
1.160315077e-05
5.523353308e-05
1.653574145e-05
8.976810965e-05
0.0006505730805
0.001316813677
0.001971389744
0.0002494839371
0.0001159568577
0.0001431028619
0.0002192468999
0.0002531784771
0.0002731283153
0.0001745162484
6.647317001e-05
5.600674322e-05
1.636807686e-05
1.218600871e-05
6.432691582e-06
4.997807508e-06
4.930143247e-06
5.268290122e-06
6.102465604e-06
1.003843619e-05
0.0009894746324
0.004176622063
0.003917573948
0.003854707829
0.004072886472
0.004053472563
0.004338427898
0.004837918377
0.004202535182
0.005316342301
0.003078928404
0.005588292598
0.006146100578
0.002165149089
0.00305515909
0.002138673654
0.003679697783
0.003759467939
0.004350865002
0.004397804486
0.004119217481
0.003749956272
0.004264315984
0.003602977401
0.0001189716182
7.766617737e-05
8.011820578e-05
6.264104065e-05
4.544360185e-05
3.019598108e-05
2.205617061e-05
0.0003678412035
0.0008772918663
0.0006399778459
0.0009076923137
0.0008070012599
0.0002738534433
0.0003794295007
0.0004931456692
0.0005163338727
0.0005702265982
0.0007175890706
0.0008728006384
2.712026818e-06
0.000111703772
0.0002099072522
0.0002917778101
0.0001966484766
0.0001894974707
0.0001381340112
6.671107543e-05
4.566104192e-05
3.786203221e-05
2.110656742e-05
8.63430252e-06
5.942512455e-06
6.046422376e-06
6.463782772e-06
6.981962611e-06
7.891643511e-06
1.660957501e-05
0.0003646083395
0.004274222214
0.004238996157
0.004546576585
0.003110099822
0.003446654838
0.003882874656
0.003914498668
0.005096543146
0.003777430658
0.006878330725
0.007694298271
0.002917548562
0.00338660783
0.002073681766
0.002815603667
0.002915665258
0.003273516961
0.003373937911
0.003420847232
0.003279566386
0.003921271053
0.00250815185
9.638485347e-05
9.073864125e-05
9.776813523e-05
5.13288424e-05
3.159036174e-05
2.158201651e-05
5.926922076e-05
0.0007109032949
0.0009401591653
0.001535831975
0.002613910319
0.0009705295206
0.00102529333
0.0003858705774
0.0003729463805
0.000335766444
0.0002766719435
0.0002437932962
0.0002458102625
5.741368197e-06
0.000207007511
0.000339698238
0.0004995256439
8.153165136e-05
5.283086006e-05
0.0001254977795
3.585700451e-05
5.43370777e-05
9.320419501e-05
4.121616529e-05
1.18759971e-05
8.20347335e-06
8.776514314e-06
9.242146845e-06
9.254914444e-06
9.30068272e-06
9.852446791e-06
1.616682859e-05
0.0001163958794
0.001219284325
0.001366060186
0.003537111254
0.002931262117
0.00311491174
0.003234549701
0.004484480202
0.004861307492
0.008203258921
0.003299728795
0.003458197223
0.003280367181
0.005106285217
0.0006153414105
0.0001081340717
0.0001258963883
0.0001403428816
4.696589711e-05
2.483316465e-05
2.364719653e-05
0.000156734258
0.001075640551
0.001894712489
0.001486847402
0.001991199465
0.0005125141832
0.0005005719665
0.0003717285885
0.0003444268014
0.0003330698605
0.0003251951784
0.0001602806329
0.0001268643456
1.692428259e-05
0.0002121032059
0.0002527729359
0.0004031243018
0.0002723476526
0.0004399331538
0.0004521000655
0.0001773908151
8.373065089e-05
0.0002071015745
8.667584319e-05
2.053382278e-05
1.491053146e-05
1.564714322e-05
1.568224001e-05
1.445139537e-05
1.282408502e-05
1.183832427e-05
1.191566062e-05
1.652138906e-05
2.637611725e-05
6.829627016e-05
0.00181231251
0.00212485151
0.002805826777
0.003595288949
0.004411104862
0.00519682526
0.008791635905
0.0001212631586
0.0001288669965
0.0001783296343
0.0001929952004
5.30498254e-05
2.8994836e-05
4.867949292e-05
0.0002446638991
0.001167544933
0.003381768807
0.00242923281
0.002366540181
0.0009042872423
0.0008325256058
0.0005709453731
0.0009105520411
0.0003714202318
0.0009790593617
0.0002786761024
0.0004283696826
9.221425961e-05
0.0004299167376
0.0004185236683
0.0006171607879
0.001382935788
0.002201324429
0.000669773954
0.0002726873123
0.0001460789673
0.0003431092333
0.0001660741859
4.453330645e-05
3.425927646e-05
3.366784152e-05
3.190096442e-05
2.710444846e-05
2.12137392e-05
1.700161052e-05
1.509733523e-05
1.497857976e-05
1.637975644e-05
2.166872438e-05
5.467041345e-05
0.0001231690328
0.000280636157
0.0009222553505
0.003584383406
0.004560316622
0.008618706127
0.0002238216716
0.0002334700495
7.100639804e-05
5.149981576e-05
0.0001053353778
0.0002404630098
0.0008933176206
0.003641141254
0.002794720636
0.002312767981
0.002075846135
0.0008161709136
0.0004013962911
0.001609707283
0.001457886659
0.001714500018
0.0008069611322
0.001963429495
0.0005476434742
0.001069250302
0.0007289423209
0.0004214034411
0.001935360336
0.001339649993
0.0006922069705
0.0004018847792
0.0002040999038
0.0003990503
0.0002491598355
8.767367764e-05
7.437131892e-05
7.372895491e-05
6.972285651e-05
5.771010756e-05
4.164688281e-05
2.99069447e-05
2.354306969e-05
2.065287613e-05
1.993949078e-05
2.485521273e-05
4.02111242e-05
6.956874233e-05
0.0001235047175
0.0003050057046
0.002810201336
0.004397219995
0.008099252201
0.0001755847399
0.0002157787227
0.0004660814436
0.002934625282
0.003241854541
0.002063864167
0.002553378109
0.001368852607
0.0005943950836
0.001840031859
0.001496712591
0.001283733081
0.00233948184
0.001277578072
0.001871610596
0.001130410336
0.0009165307823
0.0003288032238
0.001101432938
0.0003656332957
0.0005855363346
0.0005527907787
0.0002367806605
0.0003478897595
0.0002633728377
0.0001346488772
0.0001221601957
0.0001308699618
0.0001322644004
0.0001158325551
8.505503145e-05
6.086508521e-05
4.550926254e-05
3.448430253e-05
2.722674207e-05
2.936297855e-05
3.887073836e-05
5.789282729e-05
9.607736831e-05
0.0001909402049
0.002175643894
0.004193912704
0.008865628627
0.0001371757518
0.001603610786
0.002864748682
0.001725301653
0.002540935134
0.002090742369
0.001620692606
0.001736107297
0.001204320763
0.0009976662051
0.002610783375
0.0009636697247
0.001353461339
0.0007517295878
0.0009565874575
0.0004707179514
0.0003284050389
4.128243832e-05
0.0003288985819
0.0006978806569
0.0002638872064
0.000247161411
0.0002033354391
0.000139185384
0.0001438517584
0.0001696852883
0.0001900531407
0.000187541276
0.0001528316249
0.0001229697237
0.000100615826
6.598974868e-05
3.792995668e-05
3.266518473e-05
3.46163715e-05
4.345655361e-05
6.732623836e-05
0.000127721193
0.001026050899
0.003604384142
0.01004022811
0.00231639708
0.002215664365
0.002869672323
0.001208015811
0.0007004825565
0.000808257744
0.001354445764
0.0006030141503
0.0005262538197
0.0005659080782
0.0008772952093
0.0007475661702
0.0001672383673
1.955507222e-05
0.0002101014069
0.0006943490792
0.0003160799792
0.0001708520496
0.0001234049859
9.731051195e-05
0.0001196511219
0.0001588368082
0.0002001582639
0.0002295328155
0.0002200255338
0.0002182633287
0.0002292442804
0.0001297232225
4.438250084e-05
2.952813138e-05
2.555856583e-05
2.791946067e-05
4.104060016e-05
8.017994853e-05
0.0003606496159
0.001830810241
0.009546002501
0.002305825717
0.0007309100668
0.00052763924
0.0008058648394
0.0008114748716
0.0003347293184
0.0003718120803
0.0005508363442
0.0009574005282
0.002173435015
0.0006303241221
7.675423426e-05
0.0003442354966
0.0006936889213
0.0003564118365
0.0001265200951
6.661897479e-05
5.448128719e-05
7.73918179e-05
0.0001146224012
0.0001634370832
0.0002207817126
0.0002550832701
0.0003212124186
0.0004617643081
0.0001995611392
4.244018535e-05
1.883396784e-05
1.513490552e-05
1.57019342e-05
2.255283552e-05
4.589105235e-05
0.0001551029617
0.0008074704755
0.008935357955
0.000492629232
0.0009527288887
0.0009472376
0.0004331309472
0.0003117480751
0.0003711068324
0.0006125698041
0.0008766568524
0.001241457442
0.0005237538766
0.0003249577686
0.0006292355854
0.000778217935
0.0003676433713
8.88346015e-05
3.824159923e-05
3.121187442e-05
4.757060706e-05
7.385540339e-05
0.0001161084045
0.0001850764877
0.0002608370347
0.000393475569
0.0006560199715
0.0002040089748
4.15134964e-05
1.290328976e-05
9.861460366e-06
9.541152621e-06
1.24834207e-05
2.449882183e-05
8.415302787e-05
0.0004609681494
0.00760008358
0.0006630629302
0.0008208642957
0.0006757510916
0.000512807621
0.001085352787
0.0007524635836
0.0007956395714
0.0009467991457
0.0003434394741
0.0002021546956
0.00059742775
0.00108609358
0.0009705582262
0.0003098712026
5.219239089e-05
2.699997993e-05
2.074867638e-05
3.1605247e-05
5.105771441e-05
8.376254794e-05
0.0001514677482
0.0002591884712
0.000411725935
0.0005710275063
0.000251302232
8.60618596e-05
3.186481935e-05
1.544695127e-05
1.056601379e-05
9.371293569e-06
1.41934725e-05
4.62662489e-05
0.0002466193022
0.006067483309
0.0009231620511
0.0003775138734
0.000806472838
0.001030499536
0.001480127445
0.001666514547
0.0004630195745
2.522109352e-05
0.0002221595622
0.001003736763
0.001771206807
0.001099653
0.0001715564114
3.034488094e-05
2.576759164e-05
1.557990571e-05
2.215506685e-05
4.252647845e-05
7.157814891e-05
0.0001335086825
0.0002626669383
0.0004182036543
0.0004779792337
0.0003871623004
0.0002657439645
0.0001716994025
0.0001115414706
7.426211574e-05
5.343368603e-05
4.873152133e-05
6.241324482e-05
0.0001446676796
0.004940624993
0.0005717855431
0.0001965588586
0.0009347677736
0.001413495804
0.001545666005
0.001504830055
0.0007626052506
0.0003297830472
0.0007746740905
0.00141045445
0.002130446149
0.0005658158126
7.074407298e-05
3.803830353e-05
2.973243061e-05
1.503631485e-05
1.577990802e-05
4.705088371e-05
8.268054713e-05
0.0001389472605
0.0002685505467
0.0004919089424
0.0006899794507
0.0007439176426
0.0006746291018
0.000530463818
0.0003464486878
0.0002013183707
0.0001292164137
0.0001029761746
9.837732204e-05
0.0001159988582
0.004195734793
0.0006750790409
0.00016751957
0.0003712734257
0.0010406835
0.00155600647
0.001418696575
0.001124475191
0.001386579311
0.001570941355
0.001535427544
0.001087217067
0.0002466473643
7.908640858e-05
4.641085786e-05
3.248899301e-05
1.601193183e-05
1.192421931e-05
7.483887988e-05
0.0001363976432
0.0001854300166
0.0002696551086
0.0004480736715
0.0006828027863
0.0008004580124
0.0007023394821
0.0005095026379
0.0003443282375
0.000222670259
0.0001651043524
0.0001822593338
0.0001849924131
0.0001380209829
0.003643125201
0.0003332575186
0.0004348367903
0.0008623397039
0.001357590754
0.001388641636
0.001533560674
0.002544425376
0.0016534132
0.001268893316
0.001016224382
0.0004275520399
7.657347697e-05
3.685089076e-05
2.495920429e-05
1.236629468e-05
8.420374871e-06
0.0001313687607
0.000232155724
0.0002660783342
0.0002677420578
0.000265806628
0.000263809659
0.0002481070685
0.0002141178292
0.0001805460654
0.0001996082406
0.0002277927789
0.0005174487788
0.0001969464091
2.619091565e-05
1.634944542e-05
0.00325027379
0.0008773077727
0.001147821467
0.001716317037
0.002354024378
0.002174112851
0.001710130023
0.001276124014
0.001375671261
0.0007032605005
0.000223969209
4.319041724e-05
1.744601096e-05
9.264014357e-06
4.955447904e-06
1.117463142e-05
0.0001545012693
0.0002464330768
0.0002606681541
0.00023273159
0.0001888991709
0.0001415760443
0.0001011267242
7.242268252e-05
5.623869917e-05
0.0001312116002
0.0001835822496
0.0003271645607
0.0002146533457
0.000111252564
6.170011526e-05
0.003038224212
0.001503857949
0.002138346704
0.002175556232
0.001557909695
0.00113716224
0.001038907672
0.001036064421
0.000916712968
0.0004714932973
0.0002005743635
8.001445771e-05
5.081243231e-05
6.169713305e-05
6.747648371e-05
1.395745969e-05
0.0001115396621
0.0001559084717
0.0001576945791
0.0001462357989
0.0001286969689
0.0001054809162
8.206631816e-05
6.091800349e-05
4.31186922e-05
0.0001669092014
0.0001410818748
7.605182836e-05
3.012745481e-05
1.412024888e-05
4.322858239e-05
0.00418528918
0.0009523574308
0.0007575056693
0.001523391859
0.00163807707
0.001158546742
0.001044858036
0.0008369625951
0.0005561589607
0.0003131969672
0.0002451241286
0.0002138973882
0.000240865763
0.0002266190311
0.000148245455
7.288730841e-05
0.0001402650955
0.0001250437717
0.0001059445755
9.494495417e-05
8.882057748e-05
8.311845701e-05
7.560308175e-05
6.548457221e-05
5.762979733e-05
0.0002330805011
0.0001918446638
0.0001179376898
6.0792353e-05
2.865570131e-05
6.314447277e-05
0.004445062445
0.001107586757
0.0006820534273
0.0004181451083
0.0003654331954
0.0004628888205
0.0003326241624
0.0002102413301
0.0001341279835
0.0001509758269
0.0005019957658
0.0001930102304
0.000121111573
9.090160901e-05
7.785665364e-05
7.460092964e-05
7.556499522e-05
7.578907349e-05
7.646173639e-05
8.487446643e-05
0.000337173768
0.0002720336986
0.000176631563
0.0001115976316
8.642860651e-05
0.0001638114956
0.004777119283
0.001316574993
0.0009620810226
0.0009584394838
0.0009954768531
0.0005939620146
0.0001985011316
5.765926959e-05
1.860017628e-05
8.135976626e-06
4.486259328e-05
0.000164276741
0.0001823018643
0.000149058658
0.0001162324694
9.225576885e-05
8.257524744e-05
0.0001041881997
0.0001353991384
9.312427739e-05
0.0005546677294
0.0004641893651
0.0003182357815
0.0002163863643
0.0001867940901
0.000327811655
0.004830505757
)
;

boundaryField
{
    walls
    {
        type            zeroGradient;
    }
    wallFilmFace_top
    {
        type            zeroGradient;
    }
    region0_to_wallFilmRegion_wallFilmFace
    {
        type            zeroGradient;
    }
    mirrorFace_top
    {
        type            zeroGradient;
    }
    region0_to_wallFilmRegion_mirrorFace
    {
        type            zeroGradient;
    }
    procBoundary0to1
    {
        type            processor;
        value           nonuniform List<scalar> 
52
(
0.0097876096
0.004130469245
0.003964423431
0.003056248472
0.003316434835
0.003246731794
0.003300943446
0.003300943446
0.00310376541
0.003617574903
0.002986124756
0.001547252368
0.001547252368
0.0001248009237
0.0001767942727
0.0001767942727
0.000258702343
0.0002610648093
0.0001004437627
0.0001085117195
0.0001085117195
0.0002261647142
0.0001835675797
0.0001835675797
3.690989637e-05
0.0006225461074
0.002101699128
0.001813834963
0.001813834963
0.001828583541
0.001822106923
0.001822106923
0.001291058201
0.001291058201
0.001974679555
0.001393009133
0.001393009133
0.0009904376571
0.001405811312
0.0008049473383
0.0008049473383
0.0006963382638
0.0006963382638
0.001112760631
0.001159607067
0.000635396488
0.0007652574417
0.0012010456
0.001798036904
0.001518137692
0.001518137692
0.001532992641
)
;
    }
    procBoundary0to2
    {
        type            processor;
        value           nonuniform List<scalar> 
26
(
0.001664590134
0.001213913973
0.0009964839987
0.001180424692
0.001141360287
0.000395108993
0.0001359066307
5.909081186e-05
2.579225784e-05
2.005642039e-05
0.0001114642011
0.0001846341201
0.0001999619401
0.0001849194301
0.0001610694121
0.0002979683396
0.0002194845595
0.000190684336
0.0001350351652
0.0003503330413
0.0002694285269
0.0001711078503
0.0001024109588
7.645501708e-05
0.0003004897921
0.004061724953
)
;
    }
}


// ************************************************************************* //
