/*--------------------------------*- C++ -*----------------------------------*\
  =========                 |
  \\      /  F ield         | OpenFOAM: The Open Source CFD Toolbox
   \\    /   O peration     | Website:  https://openfoam.org
    \\  /    A nd           | Version:  8
     \\/     M anipulation  |
\*---------------------------------------------------------------------------*/
FoamFile
{
    version     2.0;
    format      ascii;
    class       volVectorField;
    location    "2/wallFilmRegion";
    object      U;
}
// * * * * * * * * * * * * * * * * * * * * * * * * * * * * * * * * * * * * * //

dimensions      [0 1 -1 0 0 0 0];

internalField   nonuniform List<vector> 
1369
(
(0.04223605891 0.04995309913 0)
(0.02985224284 -0.08786502672 0)
(-0.007277573618 -0.1989269657 0)
(-0.009277549701 -0.2903206506 0)
(-0.006133557719 -0.3264967411 0)
(-0.0135656252 -0.3398935188 0)
(-0.04139566171 -0.3364240708 0)
(-0.08768752835 -0.3273654624 0)
(-0.1528893883 -0.3182711229 0)
(-0.2307504406 -0.3119627722 0)
(-0.3240006652 -0.3144350709 0)
(-0.3796521077 -0.2989569868 0)
(-0.5072307208 -0.272966793 0)
(-0.6144735733 -0.2652890759 0)
(-0.712465842 -0.2540025982 0)
(-0.7067424648 -0.2478361693 0)
(-0.5732522757 -0.2155781474 0)
(-0.5520777079 -0.2352920813 0)
(-0.6038061205 -0.3125449786 0)
(-0.6560787749 -0.2945856151 0)
(-0.7007181078 -0.2691343322 0)
(-0.8254863609 -0.2669963764 0)
(-1.173985914 -0.2863758693 0)
(-1.142106931 -0.1884359845 0)
(-0.1418157104 -0.3802221786 0)
(-0.3262661729 -0.2142159396 0)
(-0.4752715611 -0.2138296276 0)
(-0.7720517889 -0.3496520721 0)
(-1.266391941 -0.3454842937 0)
(-1.64824486 -0.17376917 0)
(-1.9503874 0.007958604782 0)
(-1.620607805 0.1992022937 0)
(-1.195216091 0.3706862235 0)
(-0.5031988448 0.117460707 0)
(-0.2917719786 0.1152039721 0)
(-0.308777924 0.1223941337 0)
(-0.7095534873 0.1974876844 0)
(-0.8397714742 0.2792818013 0)
(-0.7822043312 0.3396307157 0)
(-0.6116340798 0.3675745477 0)
(-0.4111792777 0.3227157107 0)
(-0.2575769538 0.2329665228 0)
(-0.3495850757 0.1858985136 0)
(-0.1823496484 0.1709991042 0)
(-0.07664948497 0.1259552834 0)
(-0.08671761199 0.1218561798 0)
(-0.0695318263 0.1347723407 0)
(-0.04585526761 0.1529051104 0)
(-0.02980648877 0.1691650712 0)
(-0.03770188091 0.1682714263 0)
(-0.05160418969 0.1598381619 0)
(-0.06176938098 0.1473484816 0)
(-0.04991687803 0.1443192974 0)
(-0.02537458446 0.1675299427 0)
(-0.01001870756 0.1955689704 0)
(-0.00821748886 0.2092178412 0)
(-0.008362849616 0.1908197413 0)
(0.004710602821 0.1322771725 0)
(0.03290893138 0.06915770784 0)
(0.05882296254 0.02421739567 0)
(0.003885660961 0.07607313218 0)
(0.07866414522 0.0674375286 0)
(0.05926673382 0.04632650989 0)
(0.01327215238 -0.04848227921 0)
(-0.01807366681 -0.1108747822 0)
(-0.03533895633 -0.1587677848 0)
(-0.03335487513 -0.1970521437 0)
(0.0271093893 -0.2288747183 0)
(0.1583542962 -0.2523492208 0)
(0.2532446146 -0.2650665181 0)
(0.4016144132 -0.3041578622 0)
(0.4953718047 -0.2636204529 0)
(0.5257571485 -0.3294331071 0)
(0.6225759428 -0.3616872715 0)
(0.6925513226 -0.270693958 0)
(0.1224281887 -0.05985699639 0)
(-0.3716189907 0.0134573051 0)
(-0.4706819245 -0.08185983328 0)
(-0.2328466393 -0.1684018087 0)
(-0.1477141246 -0.5030607416 0)
(-0.9450547725 -0.7378240607 0)
(-1.315486195 -0.5618913034 0)
(-1.421975246 -0.3590814033 0)
(-1.24127824 -0.1712853223 0)
(0.02592169199 -0.2216780682 0)
(-0.1465190955 -0.06831831074 0)
(-0.3368813883 -0.04660563948 0)
(-0.6249394485 -0.2915908781 0)
(-0.9278100595 -0.2843929728 0)
(-1.111143269 -0.260214011 0)
(-1.05811577 0.0109201254 0)
(-0.4867362025 0.131010277 0)
(-0.5526974616 0.3572261562 0)
(-0.1902930639 -0.1527398445 0)
(0.3276035606 -0.2139258662 0)
(0.3539882865 -0.01046301002 0)
(0.7289927694 0.1585556397 0)
(0.8557007809 0.3060397875 0)
(0.8136482574 0.4434829722 0)
(0.4148903764 0.5079627476 0)
(-0.2123976933 0.02757556286 0)
(-0.1499903964 -0.05910916399 0)
(-0.1325557603 0.1671455385 0)
(-0.1206969119 0.2791485971 0)
(-0.009235257139 0.1544634674 0)
(0.09783818624 -0.004895942249 0)
(0.09307985491 -0.0424437609 0)
(0.07796760304 -0.04987896224 0)
(0.06269213398 -0.0124907809 0)
(0.04116458395 -0.01127762501 0)
(0.02301914214 0.004527694258 0)
(0.01302470328 0.01718847328 0)
(0.005016320987 0.01278971102 0)
(-0.005400054902 0.0203243578 0)
(-0.01270234195 -0.005014742615 0)
(-0.00889293748 -0.02824716443 0)
(0.003640150926 -0.04736571905 0)
(0.02799257468 -0.05703328981 0)
(0.05779367918 -0.04764728125 0)
(0.06360061912 -0.02913702018 0)
(-0.09468497581 0.04786154262 0)
(0.08723172691 0.1076414313 0)
(0.1012719378 0.09364142172 0)
(0.0809394349 0.05691185362 0)
(0.02519151449 -0.01823451945 0)
(-0.04143173657 -0.08338917791 0)
(-0.07452205301 -0.1285088246 0)
(-0.07803090532 -0.137205379 0)
(-0.06889086651 -0.1197468838 0)
(-0.05225756434 -0.09707973931 0)
(0.0004134721568 -0.08159889069 0)
(0.05221856603 -0.08276949024 0)
(0.03419466791 -0.08929473539 0)
(-0.1020094589 -0.03176798228 0)
(-0.233766165 0.01206940359 0)
(-0.2901054832 0.02154960762 0)
(-0.4569450194 -0.003227196877 0)
(-0.5659479004 -0.07992076674 0)
(-0.3569620301 -0.05913394191 0)
(-0.4286451776 -0.2667377748 0)
(-1.231136267 -0.9218377045 0)
(-1.433496139 -0.6797855638 0)
(-1.481525185 -0.4318699754 0)
(-1.248251845 -0.1778260549 0)
(-0.1560928987 0.01732625748 0)
(-0.2172102963 0.08385348624 0)
(-0.3641325323 0.101481609 0)
(-0.7021795354 -0.07963115004 0)
(-0.8043579777 0.1711717332 0)
(-1.005658737 -0.1502117034 0)
(-0.9329361256 -0.0006257064241 0)
(-0.4154665521 0.08666390528 0)
(-0.4784793711 0.2305340348 0)
(-0.3520313772 0.4212049037 0)
(-0.2122706092 0.481425505 0)
(-0.08047528032 0.422654511 0)
(0.05859282041 0.4129419015 0)
(0.2670118028 0.3857392314 0)
(0.2160767398 0.3596665402 0)
(-0.2338877102 0.3018875518 0)
(-0.4690654409 -0.2847047624 0)
(-0.6346020256 -0.2644323168 0)
(-0.4080775254 0.2378888501 0)
(-0.223445786 0.163312988 0)
(-0.02612539298 0.04558207875 0)
(0.04768624851 -0.05270071677 0)
(-0.02668781836 -0.05972448812 0)
(0.003281360129 -0.06683355631 0)
(0.004574262754 -0.06363265325 0)
(0.0274369939 -0.06228406688 0)
(0.03950160834 -0.05377822487 0)
(0.0664583435 -0.0308174605 0)
(0.0597939772 -0.05370680475 0)
(0.02795293437 -0.110624868 0)
(0.02641059478 -0.1383510505 0)
(0.04434421164 -0.138460718 0)
(0.05794531199 -0.1309755443 0)
(0.05931992943 -0.120170745 0)
(0.05022094263 -0.09991735468 0)
(0.002650021916 -0.05858086324 0)
(-0.1873949459 0.002439571458 0)
(0.06948474651 0.09716027259 0)
(0.1176795375 0.09709181284 0)
(0.1152895555 0.09830848045 0)
(0.0988057941 0.07847573203 0)
(0.09679056173 0.05390577474 0)
(0.09382816834 0.01401664599 0)
(0.06799047083 -0.02721454343 0)
(0.05707220288 -0.04163111051 0)
(0.0756945712 -0.0428970255 0)
(0.08848301031 -0.03325573318 0)
(-0.0246124024 0.01317509998 0)
(-0.1350961339 0.01931378552 0)
(-0.2329724226 0.04198576755 0)
(-0.4062422285 -0.03512395861 0)
(-0.4755925396 -0.05836690112 0)
(-0.5716910088 -0.06953276129 0)
(-0.6485347831 -0.1388912128 0)
(-0.3840985087 -0.0560649419 0)
(-0.3445192304 -0.1696920701 0)
(-1.159352317 -1.072976784 0)
(-1.317854241 -0.78644055 0)
(-1.406565468 -0.5296071774 0)
(-1.476215167 -0.2751054802 0)
(-1.207980124 0.4270243115 0)
(-1.076633603 0.6324657879 0)
(-0.8900551872 0.6661326881 0)
(-0.8616193698 0.5841956986 0)
(-0.751623063 0.6498316397 0)
(-0.7688512926 0.3589716939 0)
(-0.5939609457 -0.004212513864 0)
(-0.4365983475 0.02737315865 0)
(-0.5180097751 0.1528356812 0)
(-0.2795756739 0.3392928794 0)
(-0.1118163614 0.4240175283 0)
(-0.0188352451 0.4251797298 0)
(0.08241434488 0.41023698 0)
(0.2153883305 0.3817278959 0)
(0.1848208952 0.3510122004 0)
(-0.1197513677 0.2625897905 0)
(-0.3511042017 0.3097868393 0)
(-0.6062310947 0.4091904905 0)
(-0.0340277808 0.2250970306 0)
(0.1754022347 -0.1651044382 0)
(0.1658231665 -0.1199567848 0)
(0.12969362 -0.1038756717 0)
(0.08483996243 -0.09559898074 0)
(0.06735297235 -0.1297378096 0)
(0.05811722104 -0.1305002311 0)
(0.06033468023 -0.1376668601 0)
(0.06723371912 -0.1409201054 0)
(0.07364969325 -0.1318944395 0)
(0.0641817359 -0.1415358383 0)
(0.05425358866 -0.1625726579 0)
(0.05746635877 -0.1728466861 0)
(0.06725176579 -0.1654767542 0)
(0.07449911067 -0.1479817263 0)
(0.06927100685 -0.1231930644 0)
(0.04104782504 -0.101074269 0)
(-0.04874473831 -0.0325364228 0)
(-0.2713521205 -0.02824772903 0)
(0.06852907558 0.06267463391 0)
(0.1106060996 0.1043039503 0)
(0.1285409352 0.1198685458 0)
(0.1265272292 0.1117543533 0)
(0.1164957362 0.0918105369 0)
(0.1034049811 0.05999287525 0)
(0.07059564102 0.03674318506 0)
(0.02720207173 0.03160484463 0)
(0.003104146693 0.04346817278 0)
(-0.03194748878 0.04197682289 0)
(-0.1102005165 0.04666292243 0)
(-0.153693402 0.03271158729 0)
(-0.3076565045 0.01513503464 0)
(-0.5780084475 -0.1483927447 0)
(-0.6709443644 -0.1864540786 0)
(-0.7430408611 -0.2215486189 0)
(-0.7036057013 -0.3138851257 0)
(-0.441389312 -0.1895974481 0)
(-0.3343143367 -0.2206754617 0)
(-1.239510401 -1.123271731 0)
(-1.155651067 -0.8383496586 0)
(-1.1992904 -0.5612603844 0)
(-1.231478348 -0.2804414375 0)
(-1.143402663 0.4455418181 0)
(-1.092600503 0.7555350365 0)
(-1.023946395 0.9843278264 0)
(-0.933334325 1.123893977 0)
(-0.7358571474 1.12868131 0)
(-0.6297983551 0.9000589841 0)
(-0.3541746853 0.1045832601 0)
(-0.4679560703 -0.002302091079 0)
(-0.5669812233 0.123805033 0)
(-0.2901505155 0.2937032612 0)
(-0.1135378893 0.3544849859 0)
(-0.08148944146 0.3685522673 0)
(0.07111434819 0.3711094097 0)
(0.2680146459 0.353283603 0)
(0.2475371241 0.2911570407 0)
(0.04513090792 0.2777015234 0)
(-0.3152356614 0.3039063247 0)
(-0.6812545228 0.4448655507 0)
(0.3126964458 0.4066623328 0)
(0.2045880621 -0.1189636242 0)
(0.1283627182 -0.1619849078 0)
(0.02787676176 -0.1778421887 0)
(-0.0495787362 -0.1920071326 0)
(-0.04728439896 -0.1942319878 0)
(-0.02058215848 -0.182310792 0)
(0.007782496084 -0.1628059067 0)
(0.03323331196 -0.157503383 0)
(0.06357557658 -0.1592844547 0)
(0.07597386909 -0.1638495945 0)
(0.0808109975 -0.1690061707 0)
(0.08596029725 -0.1646432657 0)
(0.0911381327 -0.1512735722 0)
(0.09001347234 -0.1300488648 0)
(0.06891013364 -0.0998898306 0)
(0.02558163459 -0.05329721846 0)
(-0.1114930491 -0.01109842355 0)
(-0.3174329079 -0.02631043872 0)
(-0.02307292671 0.05674135072 0)
(0.07234793305 0.09020747159 0)
(0.1252274926 0.1279064773 0)
(0.1446915844 0.1279655973 0)
(0.147432294 0.1172291377 0)
(0.1419033638 0.0959730671 0)
(0.1231815565 0.08157122271 0)
(0.092097806 0.08363089946 0)
(0.0513480782 0.09399125369 0)
(-0.01791301227 0.09392114225 0)
(-0.08249883537 0.06836626642 0)
(-0.1425734463 0.04590062431 0)
(-0.3958615632 -0.0419867426 0)
(-0.840483727 -0.3181625843 0)
(-0.9844614747 -0.4335536159 0)
(-0.9723980771 -0.5713212814 0)
(-0.7346748252 -0.7391101325 0)
(-0.5632044616 -0.7370884886 0)
(-0.6752349459 -0.8367093878 0)
(-2.314292843 -0.8540567659 0)
(-1.02500957 -0.8683922161 0)
(-1.051451786 -0.5744409187 0)
(-1.07132522 -0.2782102112 0)
(-1.019731487 0.4575998018 0)
(-1.004856023 0.8032620285 0)
(-0.9745039908 1.09682505 0)
(-0.9135943782 1.318631091 0)
(-0.7869722128 1.345875816 0)
(-0.5410252336 1.189386988 0)
(-0.2199277038 0.1901225791 0)
(-0.5057928492 -0.01303444653 0)
(-0.6196081875 0.1293969634 0)
(-0.6288577857 0.2373267585 0)
(-0.5819997846 0.2808166526 0)
(-0.5504283878 0.3296803684 0)
(0.4134120938 0.3469768848 0)
(0.4971208674 0.3245749019 0)
(0.3907787068 0.28981109 0)
(0.1918336803 0.1982691255 0)
(-0.2722884345 0.2712632373 0)
(-0.7431428086 0.5037797354 0)
(0.5371032914 0.5606468044 0)
(0.3239808363 0.06383841732 0)
(0.1684259232 -0.1093751557 0)
(0.0963724808 -0.06777273326 0)
(0.02042704746 -0.1924104009 0)
(0.0328901326 -0.1857321634 0)
(0.02950128551 -0.1551345194 0)
(0.03158163201 -0.1694479867 0)
(0.05697667519 -0.1725249839 0)
(0.07946790263 -0.1674520343 0)
(0.09579647293 -0.165441729 0)
(0.1068874109 -0.1576936221 0)
(0.1156301497 -0.1456265252 0)
(0.113301684 -0.1258687199 0)
(0.1035704733 -0.1050350194 0)
(0.05273464823 -0.06235385587 0)
(-0.007651605103 -0.01228290674 0)
(-0.2073952208 -0.00136928095 0)
(-0.3298521978 -0.0206805984 0)
(-0.1455603751 0.08946586892 0)
(0.01609349772 0.07324970276 0)
(0.1053466186 0.1298626049 0)
(0.1488430588 0.1354631941 0)
(0.164888317 0.131823904 0)
(0.1651805773 0.1181012378 0)
(0.1499032427 0.1064529063 0)
(0.1148143451 0.1018242751 0)
(0.05684537121 0.09916839876 0)
(-0.007355470706 0.09458037744 0)
(-0.04706366596 0.07854857673 0)
(-0.136492796 0.0620668486 0)
(-0.5375489133 -0.1446241677 0)
(-1.198932791 -0.5233511192 0)
(-1.238659285 -0.5768499675 0)
(-1.149121682 -0.7067163418 0)
(-0.9545186023 -1.038649871 0)
(-0.7866043014 -1.47576275 0)
(-1.828207496 -1.022457624 0)
(-3.268153896 -0.5108965176 0)
(-0.8935032429 -0.9166214821 0)
(-0.9127219728 -0.5983180774 0)
(-0.921550616 -0.272905796 0)
(-0.8583086569 0.4791485838 0)
(-0.8792248818 0.8494628114 0)
(-0.8690333569 1.162651504 0)
(-0.8438851498 1.406175071 0)
(-0.7604554344 1.475010197 0)
(-0.4645391395 1.208190836 0)
(-0.1572321989 0.1181726409 0)
(-0.5653976324 -0.00550370642 0)
(-0.6679297113 0.1512930395 0)
(-0.6495864897 0.308311209 0)
(-0.5702239676 0.3876578058 0)
(-0.4720134759 0.4148049242 0)
(-0.4542713416 0.414570496 0)
(-0.5458881324 0.4120362214 0)
(-0.6949546354 0.4143035621 0)
(-0.4098178371 -0.1560917851 0)
(-0.6557882692 0.3123524322 0)
(-0.7198493791 0.6191500361 0)
(-0.7776202335 0.7020262037 0)
(0.2509592509 0.2014683671 0)
(0.07584909457 0.1576552406 0)
(-0.3145929254 0.3012672796 0)
(-0.06614915494 -0.2202969202 0)
(0.01222897876 -0.1956038707 0)
(0.02383430613 -0.1592553321 0)
(0.0250589448 -0.1358189157 0)
(0.051525048 -0.1293999053 0)
(0.07717142631 -0.1374210738 0)
(0.1019404223 -0.1380542681 0)
(0.119269049 -0.1285537328 0)
(0.1277844787 -0.1135833899 0)
(0.1215558559 -0.09087660433 0)
(0.1061143843 -0.07800407394 0)
(0.01705890086 -0.01490336209 0)
(-0.07458442012 -0.02512279725 0)
(-0.2863153981 -0.004685764104 0)
(-0.3201724189 -0.02992266159 0)
(-0.2148652899 0.1275449845 0)
(-0.05398491088 0.07461380093 0)
(0.07884380501 0.1204551893 0)
(0.146071439 0.1298654703 0)
(0.1738969137 0.1323058798 0)
(0.1780367723 0.1243073467 0)
(0.161659326 0.1124744237 0)
(0.120217463 0.1003843844 0)
(0.0601302621 0.09999435467 0)
(0.02492759691 0.1191365485 0)
(-0.005376668978 0.08740973882 0)
(-0.1375340857 0.04335671826 0)
(-0.8390324622 -0.2495320859 0)
(-1.292192418 -0.5693588794 0)
(-1.325764489 -0.4659428803 0)
(-1.334202054 -0.4450804272 0)
(-1.153995604 -0.4121235084 0)
(-0.3616429812 -0.5122865497 0)
(-1.620518691 -0.7523173061 0)
(-2.920632367 -0.4464238285 0)
(0.8228394163 -0.6385884106 0)
(0.8908570205 -0.5209566368 0)
(0.9007219178 -0.2533523109 0)
(-0.296354473 0.4295666699 0)
(-0.4449225098 0.5832116778 0)
(-0.3883443578 0.5325238481 0)
(-0.3652686435 0.5110530935 0)
(-0.237911029 0.5419987164 0)
(0.09516291502 0.3095023798 0)
(0.1740026338 -0.001372196429 0)
(-0.5322355064 0.03488413652 0)
(-0.6246427828 0.2079347624 0)
(-0.5775190422 0.4013768154 0)
(-0.4988277809 0.4576892245 0)
(-0.4146978161 0.4757145556 0)
(-0.3422963274 0.4383221908 0)
(-0.3694263491 0.4073551089 0)
(-0.4455613733 0.5655123878 0)
(-0.3458030535 -0.2426742627 0)
(-0.4909659156 0.2874772172 0)
(-0.5907086262 0.6457793981 0)
(-0.8926250808 0.6662582876 0)
(-1.124586078 0.5841747173 0)
(-1.375709286 0.5767585937 0)
(-1.44256913 0.6078848502 0)
(-1.241912121 0.6546578448 0)
(-0.01856549811 -0.1347881338 0)
(0.01002325521 -0.1502751863 0)
(0.01829168567 -0.1261509185 0)
(0.06339435502 -0.122072692 0)
(0.08658785092 -0.1176272731 0)
(0.09577271876 -0.1085586559 0)
(0.1111604562 -0.09442503524 0)
(0.1249746161 -0.08087128098 0)
(0.1076504033 -0.05016506354 0)
(0.1000851472 -0.05787594523 0)
(-0.02410536777 0.01784159383 0)
(-0.1408635801 -0.05615027777 0)
(-0.321501695 -0.01059158422 0)
(-0.2968678715 -0.04453893207 0)
(-0.2201955438 0.148994845 0)
(-0.08437862336 0.07749025009 0)
(0.03732697587 0.11845837 0)
(0.1226317764 0.1192631971 0)
(0.1601293553 0.1232410187 0)
(0.1622077968 0.1146901242 0)
(0.1399316944 0.09645271679 0)
(0.0992194214 0.07644367364 0)
(0.06261770215 0.08524765752 0)
(0.06306235425 0.1105587442 0)
(0.006677534686 0.01421500367 0)
(-0.1616200606 -0.08481349475 0)
(-1.19943323 -0.3691670839 0)
(-1.260584634 -0.5463228815 0)
(-1.334163454 -0.4572368742 0)
(-1.34025548 -0.4583108941 0)
(-1.077342702 -0.7141520877 0)
(-0.6263533392 -1.151606637 0)
(-1.167069808 -1.089480719 0)
(-2.037268606 -0.4411129437 0)
(0.8950297186 -0.5074148236 0)
(0.9789807221 -0.4423146082 0)
(1.035104703 -0.2516286363 0)
(-0.4325031659 0.4844316579 0)
(0.6497704577 -0.001350465567 0)
(0.1782705063 0.341771972 0)
(-0.24949245 0.7310310037 0)
(-0.1895571344 0.7309650244 0)
(0.1913234031 0.0483031134 0)
(0.2476662467 -0.02099613583 0)
(0.02331374826 0.06334230829 0)
(-0.2616499218 0.2290609409 0)
(-0.3974846723 0.4112565296 0)
(-0.3881866306 0.4491117573 0)
(-0.352793776 0.4895575183 0)
(-0.3004537738 0.466534899 0)
(-0.273913858 0.3803457751 0)
(-0.412469554 0.3762350583 0)
(-0.361850553 -0.3332873025 0)
(-0.471363284 -0.2670640541 0)
(-0.5165106123 -0.1109074224 0)
(-1.205240802 0.3737623118 0)
(-1.26695028 0.5038719297 0)
(-1.461616476 0.5688473778 0)
(-1.451908397 0.6191912599 0)
(-1.394971691 0.6667931513 0)
(-1.332145611 0.4518499811 0)
(0.002769280332 -0.2306182487 0)
(0.04756279492 -0.1893090435 0)
(0.06563287813 -0.1096167082 0)
(0.08640932438 -0.08955520177 0)
(0.09510464522 -0.08740958493 0)
(0.1068720444 -0.05148253959 0)
(0.1030695809 -0.03286118326 0)
(0.07588981995 0.005930857541 0)
(0.05917951236 -0.03047188976 0)
(-0.06155656437 0.04489414841 0)
(-0.1741112591 -0.06045426442 0)
(-0.3275735621 -0.01112027209 0)
(-0.264168602 -0.06204226509 0)
(-0.1924588204 0.1659777582 0)
(-0.0845953109 0.05631760404 0)
(0.03922624784 0.09353494786 0)
(0.09613220988 0.08468288895 0)
(0.1370810656 0.08828490234 0)
(0.1321187168 0.07709297612 0)
(0.1182342231 0.06574880443 0)
(0.09949829658 0.06851737338 0)
(0.09382087471 0.08869068726 0)
(0.09878244484 0.05632782283 0)
(-0.07851677517 -0.05969135168 0)
(-0.7261913806 -0.4055456608 0)
(-1.141505566 -0.6567900244 0)
(-1.218817917 -0.5648213676 0)
(-1.298153462 -0.4916574722 0)
(-1.256733739 -0.6979994909 0)
(-0.8353814523 -1.85777972 0)
(-0.6469630634 -2.233539043 0)
(-0.6576300572 -1.668959603 0)
(-0.7058831267 -0.4388789304 0)
(-0.5973709199 1.35340203 0)
(-0.4178319567 1.827023881 0)
(0.1324676064 1.250183796 0)
(0.5045580854 0.3771375753 0)
(0.656397774 0.02725710722 0)
(0.4377799133 0.2223021717 0)
(0.2090737364 -0.125998307 0)
(0.2306075497 -0.1676722473 0)
(0.1902980909 -0.1717160688 0)
(0.1833458102 -0.09630073886 0)
(0.03475335542 0.1587808267 0)
(-0.1121474748 0.2144546998 0)
(-0.2883804219 0.2858552477 0)
(-0.292500618 0.3476452553 0)
(-0.2909164558 0.4387270271 0)
(-0.2729334155 0.4596144047 0)
(-0.2316792421 0.3842111987 0)
(-0.05237215869 0.3837071491 0)
(-0.3983397453 -0.3240526484 0)
(-0.5161768473 -0.2424781129 0)
(-0.5593839117 -0.005881657535 0)
(-1.042815557 0.3066980477 0)
(-1.175149362 0.4846994989 0)
(-1.423732048 0.565499566 0)
(-1.40814014 0.623837849 0)
(-1.346382278 0.6772049991 0)
(-1.283614115 0.7147490538 0)
(-0.01595577822 -0.2008193691 0)
(0.06613253594 -0.1692267119 0)
(0.07501109546 -0.1168637045 0)
(0.05302207784 -0.06565953959 0)
(0.07708522919 -0.05999773211 0)
(0.1083323289 -0.01207581317 0)
(0.06920514593 -0.01106622087 0)
(0.05438362819 0.05642550991 0)
(0.01607857666 0.02983923977 0)
(-0.06500456465 0.1059294234 0)
(-0.1513499079 -0.01398191321 0)
(-0.3122729604 -0.006081560197 0)
(-0.2233772725 -0.0817203534 0)
(-0.1434570723 0.1696077942 0)
(-0.0296593121 -0.01848303525 0)
(0.03940353122 0.07162216093 0)
(0.08394852718 0.003383033935 0)
(0.118412348 0.04473974509 0)
(0.1204647254 0.03148126671 0)
(0.1311451692 0.04353624043 0)
(0.1341090028 0.05309593787 0)
(0.120562646 0.06701269375 0)
(0.1138945047 0.05130747487 0)
(-0.07880208153 -0.06897103354 0)
(-1.043009245 -0.5241222744 0)
(-1.091064874 -0.6875753123 0)
(-1.217315331 -0.6230657638 0)
(-1.247016446 -0.5339642197 0)
(-1.305115719 -0.4443644315 0)
(-1.26362616 -0.3019244194 0)
(-0.5088884608 -0.03450013343 0)
(-0.4996443159 0.2148291503 0)
(1.735910614 -0.245758512 0)
(0.1927969638 0.1770214401 0)
(0.168764769 -0.1127869714 0)
(0.07053592642 -0.0543699034 0)
(0.1630211576 -0.258626649 0)
(0.1459378615 -0.4580629148 0)
(0.09011504741 -0.5311205604 0)
(0.1012322425 -0.5066834883 0)
(0.1482976498 -0.3713815016 0)
(0.1858886298 -0.2440672358 0)
(0.2078138723 -0.1451909481 0)
(-0.7217266165 0.029131995 0)
(-0.2198595826 0.1447656771 0)
(-0.2292923299 0.1232011214 0)
(-0.1928766216 0.1572102805 0)
(-0.2296184113 0.321933259 0)
(-0.2509930167 0.3596885139 0)
(-0.2239334811 0.20608796 0)
(0.04024986058 0.2594153405 0)
(-0.4489246982 -0.2802710906 0)
(-0.5458492519 -0.1572246474 0)
(-0.5695427539 0.01731936048 0)
(-0.8614262852 0.2422924729 0)
(-1.044046416 0.4525529383 0)
(-1.325837147 0.5540602183 0)
(-1.329055592 0.6244024629 0)
(-1.274695457 0.6857437906 0)
(-1.218930212 0.7421784423 0)
(-1.149926965 0.7998617495 0)
(0.1067779258 -0.1251009784 0)
(0.09906908068 -0.1439719372 0)
(0.1066833365 -0.1136975109 0)
(0.1179887914 -0.004887042902 0)
(0.1180686952 0.04253605513 0)
(0.09347352942 0.01699695457 0)
(0.04067640113 0.1054333402 0)
(-0.02167299517 0.1003276554 0)
(-0.05572062185 0.1626489631 0)
(-0.10656788 0.06662549173 0)
(-0.2733643475 0.007794622551 0)
(-0.1627452021 -0.111974438 0)
(0.01029693903 0.1068600342 0)
(0.05717945618 -0.1509500606 0)
(0.04271625705 -0.06820908101 0)
(0.08833824272 -0.06774653805 0)
(0.09426447592 -0.01784579305 0)
(0.1138546072 -0.008877427657 0)
(0.1251769834 0.01241218976 0)
(0.1352579265 0.03097968875 0)
(0.1045287864 0.05494649119 0)
(-0.03619416793 0.02012148691 0)
(-0.1342620283 -0.1229360467 0)
(-0.9472804535 -0.6825787171 0)
(-1.148158838 -0.7555094254 0)
(-1.378483845 -0.6968140563 0)
(-1.189596459 -0.589873469 0)
(-1.245475745 -0.4758016413 0)
(-1.228491714 -0.302064377 0)
(-0.4370193146 0.2350773442 0)
(-0.5077582193 0.1989433985 0)
(0.6778398941 -0.07112257938 0)
(-0.07607805905 0.1049482763 0)
(-0.01399162912 -0.03620607681 0)
(-0.07028327871 0.01057834229 0)
(0.03051874184 -0.0079414026 0)
(0.1430282158 -0.1967854269 0)
(0.1530068458 -0.4576224311 0)
(0.160022205 -0.4834577548 0)
(0.1741040372 -0.4369461262 0)
(0.1917444277 -0.3055080196 0)
(0.2125886683 -0.1905281283 0)
(0.4941033253 -0.02472279062 0)
(-0.158843234 0.01924356879 0)
(-0.1605533115 -0.03784058971 0)
(-0.09980955167 -0.06699876573 0)
(0.1755577071 0.05048543075 0)
(-0.12061733 -0.2527805572 0)
(-0.1515872499 -0.1910808905 0)
(0.1755600514 0.05920460289 0)
(-0.4518889373 -0.1897369379 0)
(-0.5481655079 -0.1086208562 0)
(-0.5579737759 -0.08762485432 0)
(-0.7415994266 0.1732039053 0)
(-0.8910136009 0.4059331541 0)
(-1.174710062 0.5270761877 0)
(-1.2086062 0.6153682455 0)
(-1.175369884 0.688748149 0)
(-1.133786552 0.7533489683 0)
(-1.093368013 0.8134343284 0)
(-1.056367973 0.8725851464 0)
(0.1093714341 0.2802068038 0)
(0.1489223286 0.01577987022 0)
(0.06246952949 0.1973251988 0)
(0.1085392662 0.04535205794 0)
(0.1136147129 0.05227047895 0)
(0.09045707937 0.1101985702 0)
(0.05681299528 0.1148134107 0)
(0.02314064616 0.1863937449 0)
(-0.04322391897 0.1108606903 0)
(-0.2156963902 0.03015587067 0)
(0.1398219491 -0.05685222203 0)
(0.1522039575 -0.02366900104 0)
(0.1494637427 -0.03767788786 0)
(0.09979290536 0.04367770002 0)
(-0.3670246673 -0.1404527544 0)
(-1.007395067 -0.8799750489 0)
(-1.375853284 -0.8346218972 0)
(-1.687874107 -0.7361268054 0)
(-1.157608041 -0.595392621 0)
(-1.177320154 -0.4997959078 0)
(-1.251005745 -0.3249029658 0)
(-0.5923143731 0.312680501 0)
(-0.5081901553 0.1854010448 0)
(-0.1636815614 -0.05610465869 0)
(-0.01524808042 -0.08892504126 0)
(-0.08505850346 -0.0228710558 0)
(-0.1843777769 0.05434033453 0)
(0.04207305716 0.002666151284 0)
(0.1686988766 -0.09305612636 0)
(0.2241228735 -0.3271461946 0)
(0.261691624 -0.3657215919 0)
(0.2910301264 -0.3405635528 0)
(0.3097789146 -0.2564932841 0)
(0.280271456 -0.1291571138 0)
(0.7928130506 -0.01119039443 0)
(-0.09702086239 0.04805715516 0)
(-0.1558411358 0.01106883226 0)
(-0.1452716454 -0.05010716046 0)
(0.3770234427 0.06244023426 0)
(0.09275780449 -0.1213599646 0)
(-0.1846508825 -0.219615932 0)
(-0.1804534727 -0.3117774643 0)
(-0.435472827 -0.1286701409 0)
(-0.5635519869 -0.08107086077 0)
(-0.57864282 -0.1333289924 0)
(-0.6562555429 0.07177527156 0)
(-0.7317457318 0.3136243282 0)
(-0.9616107657 0.4649082163 0)
(-1.022016502 0.5789217045 0)
(-1.027904502 0.6714127435 0)
(-1.018922056 0.751961676 0)
(-0.9993940778 0.8241909025 0)
(-0.9689573716 0.8890246358 0)
(-0.9290231415 0.943415525 0)
(-0.8360409637 0.9926571236 0)
(-0.8138388729 0.8593295996 0)
(0.001894096784 0.1737850326 0)
(0.03766270117 0.1691735923 0)
(0.05144544387 0.2126052637 0)
(0.07440347568 0.1500859267 0)
(0.07611434409 0.1772697659 0)
(0.02918761601 0.05459308727 0)
(-0.1658461284 0.03972964532 0)
(-0.8180447342 -0.9960528936 0)
(-1.210795913 -1.008479565 0)
(-1.617968936 -0.9132251325 0)
(-1.903025913 -0.7179691887 0)
(-1.1671822 -0.4030100911 0)
(-1.113779605 -0.3950617827 0)
(-1.335815211 -0.2753943604 0)
(-1.010660936 0.1942133939 0)
(-0.5150723463 0.1714438387 0)
(-0.2230874058 -0.0311850517 0)
(-0.04412691547 -0.06815389659 0)
(-0.103090123 -0.02933296107 0)
(0.2578384732 -0.06927003546 0)
(-0.01263166197 0.06359784156 0)
(0.09382772472 -0.01953239513 0)
(0.1223805794 -0.09902630404 0)
(0.1438008827 -0.1342694167 0)
(0.06223573954 -0.09381872466 0)
(0.4431972716 -0.1259275728 0)
(0.2565905086 0.05012718066 0)
(0.8467534095 0.01681246241 0)
(-0.01614996188 0.03798153967 0)
(-0.06308602873 -0.008658159356 0)
(0.1913732482 -0.1165215095 0)
(0.3173624706 0.003363264192 0)
(-0.1208868848 -0.0501173007 0)
(-0.2290545187 -0.1059775543 0)
(-0.2763633819 -0.159972995 0)
(-0.4107681913 -0.09888646793 0)
(-0.668278416 -0.05026094144 0)
(-0.6139632754 -0.117668987 0)
(-0.6180481753 0.02604459225 0)
(-0.6737541986 0.2313894436 0)
(-0.799615202 0.4076080095 0)
(-0.8399728087 0.5296900759 0)
(-0.8519255382 0.6249488097 0)
(-0.8661067703 0.7170247616 0)
(-0.8755607336 0.8105766928 0)
(-0.8608292758 0.8827575167 0)
(-0.8233116822 0.9275755433 0)
(-0.7771755875 0.9735794511 0)
(-0.7429517944 0.990107834 0)
(-0.6408876014 1.012951482 0)
(-0.7129165121 1.048896577 0)
(-0.6797439622 0.9941743019 0)
(-0.406781976 0.6444906632 0)
(0.05904891337 0.250142618 0)
(0.08979061348 -0.01353120236 0)
(-0.1290039941 0.05408211003 0)
(-1.652275233 -0.9927400296 0)
(-1.848752176 -0.6899176281 0)
(-1.145867677 0.06286359472 0)
(-1.050160849 0.01592690296 0)
(-1.441796984 -0.2385248346 0)
(-1.520640405 -0.03785949006 0)
(-0.5243475814 0.1644734192 0)
(-0.244509411 0.005787156398 0)
(-0.07162445072 -0.0175339495 0)
(-0.1421286011 0.04297103398 0)
(0.155849959 -0.02957841747 0)
(0.089092071 0.01114772654 0)
(0.1786435131 -0.05442401451 0)
(0.002533776969 0.004240187531 0)
(-0.04669219568 0.05281683102 0)
(-0.1423830375 0.02988768194 0)
(0.4194201464 -0.03558069373 0)
(-0.1227552818 -0.02070332369 0)
(0.6772945916 0.04580607256 0)
(-0.006408718174 0.06076801795 0)
(-0.1252512399 0.05021474634 0)
(0.1496652728 -0.1077984661 0)
(0.2646175172 0.01031265318 0)
(-0.1478185956 -0.0611770731 0)
(-0.2246824456 -0.07055867039 0)
(-0.2656846486 -0.08497522695 0)
(-0.4017890088 -0.07084467861 0)
(-0.7116139972 -0.01068509666 0)
(-0.7012671872 -0.03615982907 0)
(-0.6403617604 0.07073333898 0)
(-0.7296992138 0.2616550945 0)
(-0.80245039 0.4269388728 0)
(-0.8051853852 0.5340531535 0)
(-0.7782980411 0.6075791466 0)
(-0.7539797113 0.6738779957 0)
(-0.7435926605 0.7604821055 0)
(-0.7202712146 0.8069296358 0)
(-0.681509178 0.8152330661 0)
(-0.6490951105 0.8661980844 0)
(-0.6492535302 0.891190594 0)
(-0.7112128565 0.9206236742 0)
(-0.78147679 0.9737843516 0)
(-0.7938971239 1.012276849 0)
(-0.7276794726 0.9148622419 0)
(-0.0008985912773 0.3713762661 0)
(0.1183779289 -0.1035966626 0)
(-0.1039648157 0.1066623285 0)
(-1.459982862 -0.1996740047 0)
(-1.748952976 -0.1972746514 0)
(-0.5404486732 0.1878751002 0)
(-0.2350355018 0.04650297033 0)
(-0.1170951239 0.03690269177 0)
(-0.1273077077 0.04086906349 0)
(0.03152313687 -0.04233836426 0)
(0.07741844133 -0.02981496744 0)
(0.1883328841 -0.03905828338 0)
(-0.03714943772 0.02530189063 0)
(-0.08272922469 0.008032854123 0)
(-0.1415988494 0.02471263689 0)
(0.2550058824 0.01764271771 0)
(-0.1522220161 -0.01980244236 0)
(0.3871399225 0.05210643957 0)
(-0.02506962849 0.0849450183 0)
(-0.1362850009 0.07488705809 0)
(-0.09990914446 0.06414327986 0)
(0.243489122 0.01694482519 0)
(-0.1808169905 -0.02740578553 0)
(-0.204643604 -0.03198733205 0)
(-0.2414456071 -0.03678804417 0)
(-0.3441479003 -0.03723068129 0)
(-0.7206413172 0.03175048963 0)
(-0.7558268838 0.05270756032 0)
(-0.6813073334 0.1292502342 0)
(-0.8018335039 0.3267878375 0)
(-0.8723427064 0.4838662315 0)
(-0.8551253961 0.5797486199 0)
(-0.7965177984 0.6334814624 0)
(-0.7394756059 0.6781223601 0)
(-0.6791478676 0.7281160861 0)
(-0.5901394968 0.6611811367 0)
(-0.5210741543 0.5709868229 0)
(-0.5056790268 0.6412021385 0)
(-0.5541153098 0.7204934198 0)
(-0.659078925 0.8051327436 0)
(-0.7532474566 0.9018026981 0)
(-0.7959689783 0.9916667577 0)
(-0.7272427703 0.9487009977 0)
(-0.1348013851 0.5931723233 0)
(0.1261489743 -0.2204638251 0)
(-0.02462261048 0.2189966512 0)
(-0.6959099727 0.2672151271 0)
(-0.2471111279 0.1295830203 0)
(-0.1431182975 0.05185754057 0)
(-0.1003422248 -0.01563115659 0)
(0.03139834351 -0.06770148659 0)
(0.02956373547 -0.0647232653 0)
(0.1269925459 -0.008805873846 0)
(-0.0640313007 -0.008590993646 0)
(-0.08093962603 -0.03071141886 0)
(-0.1273964818 0.02430626955 0)
(-0.06362628698 -0.01418439617 0)
(-0.1593717684 0.01390694047 0)
(0.07151276226 0.07412098966 0)
(-0.1115137309 0.07611320841 0)
(-0.1329102211 0.0844538958 0)
(-0.1004398333 0.0774573412 0)
(0.1862253869 0.00866145094 0)
(0.01899064105 0.03876119303 0)
(-0.1683149234 0.09225868418 0)
(-0.2118697135 0.001170350569 0)