/*--------------------------------*- C++ -*----------------------------------*\
  =========                 |
  \\      /  F ield         | OpenFOAM: The Open Source CFD Toolbox
   \\    /   O peration     | Website:  https://openfoam.org
    \\  /    A nd           | Version:  8
     \\/     M anipulation  |
\*---------------------------------------------------------------------------*/
FoamFile
{
    version     2.0;
    format      ascii;
    class       volScalarField;
    location    "1.2";
    object      N2;
}
// * * * * * * * * * * * * * * * * * * * * * * * * * * * * * * * * * * * * * //

dimensions      [0 0 0 0 0 0 0];

internalField   nonuniform List<scalar> 
67410
(
0.7899968547
0.7899972467
0.7899974501
0.7899975569
0.7899976287
0.7899976818
0.7899977295
0.7899978024
0.7899979524
0.7899982233
0.7899986032
0.7899990208
0.7899994007
0.7899997096
0.7899999501
0.790000136
0.7900002787
0.790000387
0.790000474
0.7900005588
0.7900006552
0.7900007605
0.7900008609
0.7900009452
0.7900010122
0.7900010728
0.7899968873
0.7899973103
0.7899975042
0.7899976118
0.7899977041
0.7899978023
0.7899979294
0.7899981243
0.7899984261
0.7899988302
0.7899992666
0.7899996472
0.7899999324
0.790000136
0.7900002877
0.7900004065
0.7900004975
0.7900005621
0.7900006094
0.7900006605
0.7900007344
0.7900008261
0.7900009168
0.7900009946
0.7900010638
0.7900011387
0.7899969399
0.7899973671
0.7899975556
0.7899976724
0.7899977886
0.7899979296
0.7899981269
0.7899984212
0.789998826
0.7899992839
0.7899996933
0.7899999936
0.7900001958
0.7900003414
0.7900004612
0.7900005647
0.7900006468
0.7900007024
0.7900007365
0.7900007677
0.7900008153
0.7900008793
0.7900009552
0.7900010326
0.7900011075
0.7900011876
0.7899969887
0.7899974022
0.7899975936
0.7899977245
0.789997866
0.7899980518
0.7899983207
0.7899987017
0.7899991634
0.7899996057
0.7899999405
0.7900001585
0.7900003041
0.7900004205
0.7900005282
0.7900006268
0.7900007063
0.7900007613
0.7900007957
0.790000823
0.7900008566
0.7900008932
0.7900009462
0.7900010121
0.7900010758
0.7900011369
0.7899970335
0.7899974287
0.7899976342
0.7899977863
0.7899979587
0.7899981958
0.7899985359
0.7899989765
0.7899994389
0.7899998174
0.7900000697
0.7900002276
0.7900003424
0.7900004505
0.7900005565
0.7900006502
0.7900007228
0.7900007713
0.7900008014
0.7900008258
0.7900008531
0.7900008676
0.7900008919
0.7900009313
0.7900009618
0.7900009728
0.7899970407
0.789997433
0.7899976692
0.789997855
0.7899980704
0.7899983673
0.7899987677
0.789999226
0.7899996402
0.7899999367
0.7900001206
0.7900002401
0.7900003402
0.790000441
0.7900005375
0.7900006214
0.7900006867
0.7900007321
0.7900007616
0.7900007828
0.7900007946
0.7900007853
0.7900007753
0.7900007772
0.790000756
0.7900006775
0.789996985
0.7899974037
0.7899976945
0.7899979342
0.78999821
0.7899985701
0.7899990036
0.7899994315
0.7899997658
0.7899999812
0.7900001127
0.7900002067
0.790000294
0.7900003834
0.7900004698
0.7900005467
0.7900006093
0.7900006549
0.7900006846
0.7900006995
0.7900006853
0.7900006425
0.7900005884
0.790000555
0.7900004719
0.7900002539
0.7899968846
0.7899973438
0.789997711
0.7899980317
0.7899983863
0.789998799
0.7899992236
0.7899995791
0.7899998202
0.7899999639
0.790000056
0.790000133
0.7900002119
0.7900002959
0.7900003786
0.790000452
0.7900005099
0.790000548
0.790000568
0.7900005751
0.7900005279
0.7900004334
0.7900003046
0.7900003012
0.7900002069
0.7899997398
0.7899968077
0.7899972896
0.7899977327
0.7899981502
0.7899985854
0.789999021
0.7899993958
0.7899996598
0.7899998153
0.7899999038
0.78999997
0.7900000398
0.7900001198
0.7900002039
0.7900002814
0.7900003422
0.7900003795
0.7900003886
0.7900003792
0.7900003882
0.7900002917
0.7900001018
0.7899997805
0.7900000953
0.7900004136
0.7900004922
0.7899967903
0.7899972891
0.7899977718
0.7899982484
0.7899987267
0.7899991555
0.7899994752
0.7899996686
0.7899997671
0.789999822
0.7899998736
0.7899999396
0.7900000171
0.7900000924
0.7900001525
0.7900001875
0.7900001876
0.7900001391
0.7900000575
0.7900001091
0.7899999171
0.7899994746
0.789998272
0.7899997309
0.7900002606
0.7900005257
0.78999685
0.7899973596
0.789997827
0.7899982745
0.7899987273
0.7899991359
0.789999435
0.7899996059
0.7899996835
0.7899997225
0.7899997643
0.7899998227
0.789999889
0.7899999472
0.7899999853
0.7899999924
0.7899999417
0.789999782
0.7899994848
0.789999728
0.7899993321
0.7899980587
0.7899941803
0.7899999796
0.7899998447
0.7900005258
0.7899969646
0.7899974597
0.7899978688
0.7899982248
0.7899985969
0.7899989748
0.7899992887
0.7899994849
0.7899995745
0.7899996125
0.7899996481
0.7899996966
0.7899997484
0.7899997903
0.7899998148
0.7899998033
0.7899996926
0.7899993082
0.7899983567
0.7899992452
0.7899984853
0.7899959986
0.7899928727
0.7900029076
0.7899998837
0.7900004665
0.7899970564
0.7899974937
0.7899978282
0.7899980892
0.7899983701
0.7899987079
0.7899990545
0.7899993157
0.7899994497
0.7899995012
0.7899995335
0.7899995705
0.7899996075
0.7899996401
0.7899996792
0.7899997249
0.7899997599
0.7899997732
0.7899998256
0.7900001312
0.7900004379
0.7900008851
0.7900017377
0.7900017438
0.7900011104
0.7900010437
0.7899970677
0.789997414
0.789997689
0.7899978907
0.7899981033
0.7899983913
0.7899987551
0.7899990996
0.7899993166
0.7899994049
0.7899994352
0.78999945
0.789999459
0.7899994754
0.789999523
0.789999605
0.7899997001
0.7899997752
0.7899998313
0.7899999137
0.7899997739
0.7899994216
0.7899995514
0.7900004894
0.790000509
0.7900007948
0.7899969957
0.7899972336
0.7899974748
0.7899976604
0.7899978405
0.7899980775
0.7899984175
0.789998821
0.7899991527
0.789999319
0.7899993535
0.7899993258
0.789999286
0.789999274
0.7899993181
0.7899994197
0.7899995523
0.7899996531
0.7899997172
0.7899997409
0.7899996875
0.7899991622
0.7900002226
0.7900003547
0.7900006638
0.7900008706
0.7899968853
0.7899969921
0.7899972087
0.7899974107
0.7899975964
0.7899977995
0.7899980845
0.7899984861
0.7899989124
0.7899991782
0.789999226
0.7899991543
0.7899990701
0.7899990317
0.789999061
0.7899991736
0.7899993546
0.7899994305
0.7899994179
0.789999285
0.7899991865
0.7899973877
0.7899997948
0.789999748
0.790000457
0.7900007538
0.7899968272
0.7899967609
0.7899969223
0.7899971557
0.7899973957
0.7899976172
0.7899978546
0.7899981762
0.7899985966
0.7899989554
0.7899990569
0.7899989607
0.7899988299
0.7899987345
0.7899986979
0.7899988038
0.7899991476
0.7899991576
0.7899990139
0.7899984072
0.7899975327
0.7899916346
0.7899990699
0.7899990836
0.7900002416
0.7900004794
0.7899969102
0.789996666
0.7899966831
0.7899969094
0.7899972334
0.7899975427
0.789997787
0.7899980106
0.7899982943
0.7899986358
0.7899988307
0.7899987617
0.7899985701
0.7899983151
0.7899979633
0.7899980657
0.78999893
0.7899988898
0.7899988409
0.7899985919
0.7899983565
0.7899984206
0.789999425
0.7899994567
0.7900000458
0.7900002372
0.7899970876
0.7899968198
0.7899966147
0.7899967007
0.7899970482
0.7899974712
0.789997786
0.7899979752
0.789998143
0.7899983877
0.7899986408
0.7899986477
0.7899982786
0.7899974082
0.7899965379
0.7899986932
0.7899986646
0.789998692
0.7899989001
0.7899989197
0.78999901
0.7899987065
0.7899996209
0.7899997133
0.7899999633
0.7900000542
0.7899971866
0.7899971308
0.7899968274
0.7899966043
0.7899967608
0.7899971999
0.7899976357
0.7899978859
0.7899979881
0.7899981105
0.7899982705
0.7899982008
0.7899972951
0.7899959355
0.7899982538
0.7900061269
0.7899984141
0.7899986803
0.7899988272
0.7899989324
0.7899991023
0.7899991583
0.7899996403
0.7899997025
0.78999983
0.7899998505
0.7899971572
0.789997305
0.7899972203
0.7899967797
0.789996498
0.7899966804
0.7899971532
0.7899976599
0.7899978371
0.7899978915
0.7899980624
0.7899983336
0.7899983085
0.7899975795
0.789997232
0.7899993517
0.7900022839
0.789998857
0.7899990102
0.789998974
0.7899990521
0.7899994991
0.7899996164
0.7899996069
0.7899996223
0.7899996473
0.789997131
0.7899972976
0.7899974229
0.7899971273
0.789996505
0.7899962769
0.7899964097
0.7899968893
0.7899975276
0.7899978335
0.789997938
0.7899981374
0.7899983698
0.7899982854
0.789997926
0.7899982263
0.7899993988
0.7899987758
0.7899987885
0.7899988535
0.7899991759
0.7900001001
0.7899994431
0.7899994339
0.7899994522
0.7899994949
0.789997158
0.7899972531
0.7899973803
0.789997196
0.7899966069
0.7899962421
0.7899962415
0.7899962738
0.7899965192
0.7899971413
0.7899975423
0.789997781
0.7899980984
0.7899983603
0.7899984436
0.7899984973
0.7899988924
0.7899988668
0.7899987661
0.7899986624
0.7899986616
0.7899990709
0.7899989417
0.7899991565
0.7899992891
0.7899993597
0.7899971945
0.7899971986
0.7899971335
0.7899969326
0.789996596
0.7899964443
0.7899963982
0.7899962358
0.7899961638
0.7899961353
0.7899961886
0.789996508
0.7899972698
0.7899979429
0.7899982505
0.7899984431
0.789998604
0.7899985746
0.7899984392
0.7899982263
0.7899979977
0.789998151
0.7899987378
0.7899990683
0.7899991592
0.7899991363
0.7899971516
0.7899970125
0.7899967128
0.7899966543
0.7899966857
0.7899966799
0.789996554
0.7899964009
0.7899963046
0.7899961231
0.7899959203
0.7899956849
0.7899961161
0.7899969579
0.7899972223
0.7899972145
0.7899970107
0.7899965505
0.7899960931
0.78999577
0.7899956523
0.7899959534
0.7899964188
0.7899977309
0.7899980048
0.7899969508
0.7899965948
0.7899964677
0.7899966811
0.7899967943
0.7899967861
0.7899966538
0.7899965585
0.7899965936
0.789996425
0.7899960708
0.7899954923
0.7899953865
0.7899957085
0.7899958319
0.7899957034
0.789995547
0.7899954336
0.7899953668
0.7899953022
0.7899953931
0.7899961252
0.789995737
0.7899955764
0.7899953857
0.7899966506
0.7899963273
0.7899965126
0.7899967142
0.789996794
0.7899969222
0.7899968132
0.7899967279
0.7899967967
0.7899967592
0.7899963445
0.7899955626
0.7899951003
0.7899951572
0.7899951954
0.7899951268
0.7899950593
0.7899949936
0.7899948624
0.7899946701
0.789994701
0.7899962567
0.7899953404
0.7899948581
0.7899948524
0.789996531
0.7899961508
0.7899961377
0.7899959005
0.7899961079
0.7899968316
0.7899966843
0.7899966556
0.7899968017
0.7899967795
0.7899964304
0.7899957187
0.7899950527
0.7899949384
0.7899949351
0.789994899
0.7899948548
0.789994841
0.7899948161
0.7899947135
0.7899945095
0.7899946885
0.7899946552
0.789994744
0.7899945796
0.7899968094
0.7899961978
0.7899960974
0.7899962704
0.7899967406
0.789997151
0.7899970836
0.7899967074
0.7899966165
0.7899964495
0.7899962432
0.7899958103
0.7899952156
0.7899949894
0.7899948802
0.7899947927
0.7899947282
0.7899947273
0.7899947354
0.7899947127
0.7899946055
0.7899944849
0.7899947596
0.7899946341
0.7899946102
0.7899946247
0.7899971274
0.7899964631
0.7899963463
0.7899963782
0.7899965816
0.7899969134
0.7899971557
0.7899968966
0.7899967283
0.7899965185
0.7899963102
0.7899960089
0.7899955195
0.7899953246
0.7899951727
0.7899950106
0.7899948643
0.7899947903
0.7899947421
0.7899946881
0.7899945711
0.789994166
0.7899947713
0.789994726
0.7899947756
0.7899948156
0.7899967615
0.7899971408
0.7899973386
0.7899974407
0.7899975102
0.7899975653
0.7899976155
0.7899976803
0.7899977967
0.7899980046
0.7899983122
0.7899986777
0.7899990365
0.7899993436
0.7899995887
0.7899997814
0.7899999371
0.79000007
0.7900001927
0.7900003153
0.7900004428
0.7900005687
0.7900006803
0.7900007683
0.7900008348
0.7900008927
0.7899967463
0.7899971453
0.7899973331
0.789997442
0.7899975438
0.7899976564
0.7899977905
0.7899979659
0.7899982088
0.7899985279
0.7899988912
0.7899992381
0.7899995212
0.7899997325
0.7899998907
0.7900000165
0.7900001247
0.7900002253
0.7900003258
0.7900004311
0.7900005409
0.7900006467
0.7900007392
0.790000815
0.790000879
0.7900009432
0.7899967554
0.7899971604
0.7899973443
0.7899974677
0.7899976016
0.789997762
0.7899979592
0.7899982117
0.7899985342
0.7899989079
0.7899992747
0.7899995768
0.789999799
0.789999962
0.7900000896
0.7900001957
0.7900002892
0.7900003775
0.7900004667
0.7900005612
0.7900006571
0.7900007421
0.7900008138
0.7900008775
0.7900009368
0.7900009986
0.7899967738
0.7899971716
0.7899973598
0.7899975019
0.7899976652
0.7899978658
0.7899981152
0.7899984275
0.7899987985
0.7899991835
0.7899995184
0.7899997722
0.7899999591
0.790000106
0.7900002262
0.7900003256
0.790000411
0.7900004884
0.7900005646
0.7900006491
0.7900007351
0.7900008042
0.7900008555
0.7900009014
0.7900009447
0.7900009876
0.7899968101
0.789997186
0.7899973899
0.7899975574
0.7899977497
0.7899979862
0.7899982802
0.7899986358
0.7899990258
0.7899993905
0.789999682
0.7899998984
0.790000065
0.7900001958
0.7900003033
0.7900003957
0.7900004769
0.7900005509
0.7900006237
0.790000701
0.7900007741
0.790000828
0.7900008585
0.7900008785
0.7900008877
0.7900008835
0.7899968317
0.7899971894
0.7899974252
0.7899976287
0.789997855
0.7899981284
0.789998461
0.7899988414
0.7899992226
0.7899995477
0.7899997929
0.7899999745
0.7900001145
0.790000227
0.790000325
0.7900004133
0.7900004941
0.7900005697
0.7900006435
0.790000717
0.7900007784
0.7900008143
0.7900008216
0.7900008033
0.7900007476
0.7900006464
0.7899968066
0.7899971736
0.7899974609
0.7899977139
0.7899979839
0.789998298
0.7899986604
0.7899990416
0.789999388
0.7899996599
0.7899998563
0.7900000014
0.7900001164
0.7900002155
0.7900003074
0.7900003945
0.7900004769
0.7900005547
0.7900006297
0.7900007049
0.7900007593
0.7900007788
0.7900007622
0.7900006892
0.7900005206
0.7900001954
0.7899967484
0.7899971437
0.7899974938
0.7899978103
0.7899981367
0.7899984929
0.7899988674
0.7899992202
0.7899995095
0.7899997215
0.7899998721
0.7899999871
0.7900000863
0.7900001781
0.7900002668
0.7900003517
0.7900004304
0.7900005009
0.7900005692
0.7900006596
0.79000072
0.7900007416
0.7900007238
0.7900006047
0.7900002665
0.7899994793
0.7899967
0.7899971195
0.7899975263
0.7899979121
0.7899982997
0.7899986874
0.7899990479
0.7899993477
0.7899995714
0.7899997297
0.7899998466
0.7899999444
0.7900000351
0.7900001214
0.7900002023
0.790000275
0.7900003345
0.7900003767
0.7900004171
0.7900005709
0.7900006744
0.7900007471
0.7900008204
0.7900007951
0.7900007806
0.7900007992
0.7899966793
0.7899971214
0.7899975602
0.7899979911
0.7899984178
0.7899988142
0.789999145
0.7899993924
0.7899995651
0.7899996874
0.7899997843
0.789999872
0.7899999545
0.7900000284
0.7900000904
0.7900001371
0.7900001589
0.7900001358
0.7900000667
0.7900004319
0.7900006462
0.7900008479
0.7900011897
0.7900011659
0.7900008748
0.7900008914
0.7899967053
0.7899971588
0.7899975938
0.7899980114
0.7899984241
0.7899988049
0.7899991158
0.7899993413
0.7899994945
0.7899996024
0.7899996888
0.7899997663
0.7899998342
0.7899998877
0.7899999247
0.7899999364
0.7899998966
0.7899997083
0.7899991789
0.7900002579
0.7900006895
0.7900011099
0.7900024503
0.7900025192
0.7900010438
0.7900010983
0.7899967794
0.7899972157
0.7899976144
0.7899979701
0.7899983202
0.7899986646
0.7899989722
0.7899992123
0.7899993798
0.7899994931
0.7899995761
0.7899996422
0.7899996913
0.7899997212
0.7899997322
0.7899997047
0.7899995531
0.7899989419
0.7899972082
0.7900001391
0.7900009857
0.7900019949
0.7900084418
0.7900045798
0.7900016919
0.7900012622
0.7899968542
0.7899972288
0.7899975677
0.7899978503
0.7899981278
0.7899984296
0.7899987449
0.7899990289
0.7899992418
0.7899993799
0.7899994661
0.7899995189
0.7899995446
0.7899995547
0.7899995682
0.7899996007
0.7899996548
0.7899997594
0.7900000997
0.7900003241
0.7900006575
0.7900010159
0.7900020057
0.7900026538
0.7900013851
0.7900011784
0.7899968831
0.789997155
0.7899974268
0.7899976525
0.7899978768
0.7899981418
0.7899984623
0.7899988017
0.7899990877
0.789999275
0.7899993721
0.7899994051
0.7899993964
0.7899993733
0.7899993718
0.7899994179
0.7899995121
0.7899996223
0.7899997119
0.7900000288
0.7900002104
0.7900003597
0.7900008375
0.7900011078
0.7900008315
0.7900009061
0.7899968578
0.7899970067
0.7899972181
0.7899974105
0.7899976067
0.7899978422
0.7899981495
0.7899985233
0.7899988928
0.789999161
0.789999287
0.789999295
0.7899992383
0.7899991673
0.7899991349
0.7899991712
0.7899992777
0.7899994296
0.7899995892
0.7899997518
0.7899998359
0.7899997598
0.7900004454
0.7900005663
0.7900006171
0.7900007398
0.7899968036
0.7899968237
0.7899969827
0.7899971622
0.7899973522
0.7899975662
0.7899978379
0.7899981968
0.7899986139
0.789998971
0.7899991525
0.7899991574
0.7899990708
0.7899989632
0.7899989005
0.7899989111
0.789998996
0.7899991392
0.7899992712
0.7899993294
0.7899991803
0.7899984233
0.7900000218
0.7899998588
0.7900003142
0.7900004415
0.7899967657
0.789996654
0.7899967534
0.7899969321
0.7899971411
0.7899973558
0.7899975874
0.7899978809
0.7899982644
0.7899986728
0.7899989446
0.7899990006
0.7899989163
0.7899987894
0.7899987016
0.7899986708
0.7899986933
0.7899988139
0.789998917
0.7899988586
0.7899983102
0.7899980341
0.7899998302
0.7899996413
0.7900000542
0.7900001546
0.7899967803
0.7899965553
0.7899965631
0.7899967228
0.7899969626
0.7899972135
0.7899974337
0.7899976584
0.7899979481
0.7899983185
0.7899986807
0.7899988753
0.7899988938
0.7899988163
0.7899986956
0.7899985004
0.7899983899
0.7899984893
0.7899986334
0.7899987836
0.7899993899
0.790003906
0.7900005969
0.7899997607
0.7899998053
0.7899998653
0.7899968177
0.7899965709
0.7899964621
0.7899965408
0.7899967696
0.7899970667
0.7899973291
0.7899975391
0.7899977536
0.7899980319
0.7899984001
0.7899987325
0.789998901
0.7899989432
0.7899988523
0.7899986376
0.7899983177
0.7899983254
0.7899985416
0.7899987611
0.7899989765
0.7899993874
0.7899995683
0.7899995318
0.7899995966
0.7899996156
0.7899968104
0.7899966532
0.7899964922
0.7899964253
0.789996542
0.7899968116
0.7899971211
0.7899973718
0.7899975692
0.7899977684
0.7899981097
0.7899986311
0.7899991175
0.7899992555
0.7899982212
0.7899962301
0.789998533
0.7899981106
0.7899983762
0.789998552
0.7899988126
0.7899990902
0.7899993238
0.7899993445
0.7899993213
0.7899993775
0.7899967869
0.7899966765
0.7899965964
0.7899964376
0.7899963706
0.789996513
0.7899968
0.7899970897
0.7899972949
0.789997473
0.7899977579
0.7899982118
0.7899986978
0.7899989775
0.7899989755
0.7899995065
0.7899995052
0.7899985706
0.7899986969
0.7899985854
0.7899986808
0.789998738
0.789998983
0.789999182
0.7899991467
0.7899991969
0.7899967678
0.7899966586
0.7899966235
0.7899965327
0.7899963192
0.7899962807
0.7899963843
0.7899966203
0.7899969564
0.7899972179
0.7899975334
0.7899979537
0.7899984239
0.7899988018
0.789998853
0.7899986086
0.7899987874
0.7899986203
0.7899985831
0.7899983764
0.7899981583
0.7899979207
0.7899985468
0.789998982
0.7899991169
0.7899991494
0.7899967904
0.7899966518
0.7899965802
0.7899965795
0.7899963607
0.7899962174
0.789996229
0.7899962537
0.7899963637
0.789996651
0.7899969581
0.7899973703
0.7899978715
0.7899982519
0.7899985624
0.7899988094
0.7899989601
0.7899988382
0.7899987819
0.7899985913
0.7899982867
0.7899981017
0.7899986382
0.7899990531
0.7899991146
0.7899991063
0.7899968254
0.7899966196
0.7899965254
0.7899965346
0.789996366
0.7899961838
0.7899961236
0.7899961404
0.7899960761
0.7899960236
0.7899960436
0.7899962978
0.7899969655
0.7899977107
0.7899980743
0.7899983244
0.7899984849
0.78999849
0.7899984457
0.7899983424
0.7899982503
0.7899983827
0.7899986968
0.7899989923
0.7899989641
0.7899988722
0.7899967716
0.789996519
0.7899964033
0.7899963554
0.7899962111
0.7899960799
0.7899960235
0.7899960828
0.7899960267
0.7899959184
0.7899957415
0.7899956359
0.7899959992
0.7899967477
0.7899971181
0.7899972295
0.7899972267
0.7899970981
0.7899969843
0.7899969111
0.7899969689
0.7899972875
0.7899974919
0.7899981348
0.7899978987
0.7899965729
0.7899963663
0.7899961769
0.7899960113
0.7899959364
0.7899960356
0.7899960086
0.7899960525
0.7899959984
0.789995954
0.7899957056
0.7899953814
0.7899953579
0.7899956945
0.7899960322
0.7899961083
0.789996087
0.7899960096
0.7899958886
0.7899957817
0.7899958039
0.7899959949
0.7899959734
0.7899963076
0.7899956719
0.7899963884
0.7899961522
0.7899958759
0.7899955193
0.7899957677
0.7899961015
0.789996102
0.7899961586
0.7899961058
0.789995989
0.7899957319
0.7899953044
0.789995067
0.7899951515
0.7899953198
0.7899954125
0.7899953818
0.7899952937
0.7899952567
0.7899953208
0.7899954319
0.7899956448
0.7899953411
0.7899953269
0.7899949498
0.7899962179
0.7899958428
0.7899951651
0.7899931505
0.7899950588
0.7899959109
0.7899959954
0.7899961369
0.7899960887
0.7899959638
0.7899957312
0.78999533
0.789994983
0.7899949164
0.7899949435
0.7899949444
0.7899949063
0.7899948644
0.7899948555
0.7899948995
0.7899950071
0.7899952957
0.7899949757
0.7899948261
0.7899945882
0.7899963174
0.7899961128
0.7899959827
0.7899959584
0.7899963287
0.7899964823
0.7899964436
0.7899963992
0.7899962142
0.7899959838
0.7899957185
0.789995423
0.7899951095
0.7899949719
0.7899949137
0.7899948576
0.7899947911
0.789994752
0.7899947542
0.7899948121
0.7899949042
0.7899950592
0.7899948866
0.7899947583
0.7899946653
0.7899945997
0.7899963681
0.7899962907
0.789996241
0.7899962676
0.7899965061
0.7899967186
0.7899966406
0.7899965744
0.7899963187
0.7899960227
0.7899957791
0.7899955904
0.7899953789
0.7899952681
0.7899951861
0.789995105
0.7899950321
0.7899949778
0.7899949435
0.7899949466
0.7899949761
0.7899950469
0.7899949614
0.7899949182
0.7899948606
0.7899947841
0.7899966571
0.7899970237
0.7899972203
0.789997325
0.7899974003
0.7899974653
0.7899975262
0.789997593
0.7899976898
0.78999785
0.7899980941
0.789998406
0.7899987393
0.7899990478
0.7899993085
0.7899995213
0.7899996967
0.7899998479
0.7899999873
0.7900001235
0.7900002599
0.7900003921
0.7900005102
0.790000606
0.7900006801
0.7900007429
0.7899966155
0.7899969961
0.7899971881
0.7899973084
0.7899974254
0.7899975551
0.7899977006
0.7899978689
0.7899980758
0.7899983342
0.7899986373
0.7899989532
0.789999243
0.7899994855
0.7899996802
0.7899998377
0.78999997
0.7900000874
0.7900001985
0.7900003094
0.7900004209
0.7900005279
0.790000624
0.790000706
0.7900007763
0.7900008427
0.7899965934
0.7899969837
0.7899971757
0.7899973141
0.7899974675
0.7899976478
0.7899978543
0.789998091
0.7899983666
0.7899986808
0.7899990106
0.789999319
0.78999958
0.7899997891
0.7899999556
0.7900000905
0.7900002039
0.7900003044
0.7900003995
0.7900004941
0.7900005878
0.7900006746
0.7900007514
0.7900008203
0.7900008846
0.790000949
0.7899965838
0.7899969743
0.789997172
0.7899973299
0.7899975142
0.7899977347
0.7899979887
0.7899982765
0.7899985986
0.7899989417
0.7899992748
0.7899995671
0.7899998062
0.7899999965
0.7900001477
0.79000027
0.7900003729
0.7900004645
0.7900005523
0.7900006385
0.7900007216
0.7900007948
0.790000856
0.7900009109
0.790000964
0.790001018
0.7899966078
0.7899969768
0.789997188
0.7899973703
0.7899975822
0.7899978338
0.7899981233
0.7899984476
0.7899987973
0.7899991483
0.789999469
0.7899997391
0.7899999564
0.7900001284
0.7900002644
0.7900003762
0.7900004742
0.7900005648
0.7900006522
0.7900007372
0.7900008157
0.7900008803
0.7900009303
0.7900009706
0.7900010045
0.790001031
0.7899966457
0.7899969799
0.7899972159
0.7899974321
0.7899976737
0.7899979523
0.7899982688
0.789998616
0.7899989749
0.7899993151
0.7899996101
0.7899998501
0.7900000399
0.7900001893
0.7900003106
0.7900004173
0.7900005164
0.7900006114
0.7900007043
0.7900007945
0.7900008727
0.7900009323
0.790000976
0.7900010009
0.7900010063
0.7900009485
0.789996657
0.7899969751
0.7899972512
0.7899975112
0.7899977874
0.7899980932
0.78999843
0.7899987855
0.7899991338
0.7899994452
0.7899997025
0.789999906
0.7900000656
0.7900001935
0.790000305
0.7900004101
0.790000513
0.7900006145
0.790000715
0.7900008173
0.7900009007
0.7900009634
0.7900010059
0.7900010233
0.7900010221
0.7900008482
0.7899966331
0.7899969643
0.7899972879
0.7899975983
0.7899979157
0.7899982504
0.7899985996
0.7899989456
0.7899992629
0.7899995309
0.7899997443
0.7899999111
0.790000044
0.7900001565
0.7900002616
0.7900003662
0.7900004718
0.7900005758
0.7900006806
0.7900008088
0.7900009047
0.790000979
0.7900010451
0.790001121
0.7900012987
0.7900015599
0.7899966015
0.7899969561
0.7899973213
0.789997681
0.7899980416
0.7899984019
0.7899987505
0.7899990689
0.7899993412
0.7899995612
0.789999734
0.789999871
0.7899999846
0.7900000857
0.7900001843
0.790000285
0.7900003865
0.7900004807
0.7900005737
0.7900007671
0.7900008845
0.7900009758
0.7900010678
0.7900011916
0.7900013204
0.7900015305
0.7899965759
0.7899969577
0.7899973483
0.7899977391
0.7899981277
0.7899984993
0.7899988341
0.7899991181
0.7899993482
0.7899995298
0.7899996731
0.7899997895
0.7899998884
0.7899999777
0.7900000656
0.7900001559
0.7900002429
0.7900002917
0.7900003061
0.7900006879
0.7900008327
0.7900009307
0.7900010447
0.7900012747
0.7900011911
0.7900013314
0.7899965772
0.7899969742
0.7899973675
0.789997751
0.7899981296
0.7899984883
0.7899988056
0.7899990685
0.7899992773
0.7899994402
0.7899995679
0.7899996705
0.7899997556
0.78999983
0.7899999025
0.7899999773
0.7900000272
0.7899999354
0.7899999301
0.7900005802
0.7900007623
0.7900008802
0.7900011582
0.7900016533
0.7900011972
0.7900012433
0.789996619
0.7899970012
0.7899973727
0.7899977137
0.7899980432
0.7899983645
0.7899986648
0.7899989274
0.7899991422
0.7899993087
0.789999434
0.7899995273
0.7899995971
0.7899996534
0.7899997101
0.7899997788
0.789999824
0.7899998834
0.7900014734
0.7900005835
0.7900007469
0.790000797
0.7899998781
0.7900011309
0.790001356
0.7900011274
0.7899966785
0.7899970007
0.789997326
0.7899976104
0.7899978789
0.789998154
0.7899984394
0.7899987182
0.7899989633
0.789999155
0.7899992902
0.789999377
0.7899994283
0.7899994645
0.7899995156
0.7899996199
0.789999805
0.7900002551
0.7900013871
0.7900006609
0.7900007384
0.7900009265
0.7900014955
0.7900016186
0.7900014131
0.7900011353
0.7899967231
0.7899969403
0.7899972018
0.7899974338
0.7899976533
0.7899978894
0.7899981612
0.7899984612
0.7899987523
0.7899989893
0.7899991474
0.7899992287
0.7899992527
0.7899992537
0.789999275
0.7899993707
0.7899995545
0.7899998
0.7900001447
0.7900003079
0.7900004523
0.7900005883
0.7900007704
0.7900010093
0.790000864
0.7900008952
0.7899967403
0.7899968281
0.7899970206
0.7899972129
0.7899974026
0.789997611
0.7899978641
0.789998171
0.7899985037
0.7899987986
0.7899989956
0.7899990763
0.7899990647
0.7899990145
0.789998985
0.7899990516
0.7899992412
0.7899995193
0.789999826
0.7900000433
0.7900002466
0.7900005585
0.790000505
0.7900005979
0.7900006006
0.7900007007
0.7899967368
0.7899966962
0.7899968225
0.7899969898
0.7899971687
0.7899973611
0.7899975882
0.7899978725
0.7899982116
0.7899985496
0.7899987967
0.7899988969
0.7899988641
0.789998764
0.7899986765
0.7899987002
0.7899988767
0.789999159
0.789999471
0.7899997428
0.7899999515
0.790000462
0.7900002445
0.7900002057
0.790000305
0.7900003854
0.7899967317
0.7899965792
0.7899966406
0.7899967927
0.7899969788
0.7899971739
0.7899973797
0.7899976192
0.7899979144
0.7899982477
0.7899985376
0.7899986871
0.7899986674
0.7899985328
0.7899983822
0.7899983366
0.7899984776
0.7899987619
0.7899991283
0.7899995563
0.7900000432
0.7900051038
0.7900007749
0.7900001304
0.7900000134
0.7900000223
0.7899967458
0.7899965092
0.7899964972
0.7899966256
0.7899968235
0.7899970419
0.7899972511
0.7899974543
0.7899976825
0.7899979579
0.7899982534
0.7899984704
0.7899985079
0.7899983563
0.7899981474
0.7899979169
0.7899980812
0.7899983427
0.7899987311
0.7899991291
0.7899998748
0.7900035
0.7900015259
0.7899999309
0.7899996885
0.7899996385
0.7899967759
0.7899965102
0.7899964147
0.789996486
0.789996669
0.7899969103
0.7899971529
0.7899973534
0.7899975251
0.7899977218
0.7899979785
0.7899982468
0.7899983942
0.7899983521
0.789998129
0.7899977555
0.7899978066
0.789997975
0.7899983344
0.7899986179
0.7899987768
0.7899988803
0.7899993134
0.7899992227
0.789999256
0.7899992641
0.7899967974
0.7899965726
0.7899964131
0.7899963879
0.7899965003
0.7899967112
0.789996972
0.7899971994
0.789997345
0.7899974793
0.7899976908
0.7899979783
0.7899981823
0.7899979801
0.7899976182
0.7899966176
0.7899978565
0.7899976845
0.7899980274
0.7899982665
0.789998549
0.7899988564
0.7899989528
0.7899989668
0.7899989513
0.789998956
0.7899968053
0.7899966472
0.7899964788
0.7899963624
0.789996368
0.7899964919
0.7899966925
0.789996915
0.7899970764
0.7899972167
0.7899974517
0.789997803
0.7899981588
0.7899982665
0.7899981044
0.789997991
0.7899973244
0.7899980769
0.7899982217
0.7899981393
0.7899982396
0.7899983636
0.789998549
0.7899987544
0.7899987467
0.7899987181
0.7899968222
0.7899967039
0.7899965455
0.7899963961
0.7899963022
0.7899963284
0.7899964073
0.7899965296
0.789996729
0.7899969427
0.7899972211
0.7899975875
0.789997929
0.7899981091
0.7899980752
0.7899978492
0.7899978989
0.7899981997
0.7899981583
0.7899979376
0.7899977951
0.7899977348
0.7899982179
0.7899986339
0.7899987748
0.7899987952
0.7899968843
0.7899967448
0.7899965725
0.7899964338
0.7899962971
0.7899962604
0.7899962842
0.7899962833
0.7899963011
0.7899964214
0.7899966584
0.7899970546
0.7899975306
0.7899978857
0.7899981307
0.7899983434
0.7899985178
0.7899984764
0.7899983682
0.7899980279
0.7899976697
0.7899975517
0.7899982044
0.7899986834
0.7899988086
0.789998797
0.7899969713
0.7899967586
0.789996551
0.7899964255
0.7899963112
0.7899962398
0.7899962124
0.7899961785
0.7899960972
0.7899959848
0.7899959522
0.7899961482
0.7899967098
0.789997384
0.7899977236
0.7899979321
0.7899980901
0.7899981417
0.7899980837
0.7899979288
0.7899977874
0.7899978676
0.7899983175
0.7899986543
0.7899986455
0.7899985178
0.789997006
0.7899967066
0.7899964346
0.7899962864
0.7899963037
0.7899962553
0.7899961686
0.7899961256
0.7899960443
0.7899958653
0.7899956779
0.7899956028
0.789995898
0.7899965193
0.7899969249
0.7899970647
0.7899970975
0.7899970113
0.789996883
0.7899967314
0.7899966582
0.7899967967
0.7899971834
0.7899977523
0.7899975305
0.7899969048
0.7899965324
0.7899961848
0.78999587
0.7899962968
0.7899962797
0.7899961662
0.7899961466
0.7899960647
0.789995847
0.7899955815
0.7899953418
0.7899953392
0.78999562
0.7899959685
0.7899960868
0.789996046
0.789995918
0.7899957431
0.789995575
0.7899955899
0.7899956162
0.7899957541
0.7899959348
0.7899955799
0.7899965802
0.789996219
0.7899958027
0.789995053
0.789996242
0.7899962992
0.7899962874
0.789996289
0.7899961588
0.7899958665
0.7899955301
0.7899952077
0.789995057
0.7899951264
0.7899952863
0.7899953886
0.7899953453
0.789995218
0.7899950905
0.7899950325
0.789995134
0.7899951105
0.7899951176
0.789994994
0.7899947942
0.7899960919
0.7899953353
0.7899933197
0.7899904827
0.7899985591
0.7899962805
0.7899963474
0.7899963146
0.7899961028
0.7899958225
0.7899954776
0.7899951577
0.7899949372
0.7899948916
0.7899949261
0.7899949417
0.7899948996
0.7899948212
0.7899947566
0.7899947451
0.7899948229
0.7899949325
0.789994955
0.7899947228
0.7899945713