/*--------------------------------*- C++ -*----------------------------------*\
  =========                 |
  \\      /  F ield         | OpenFOAM: The Open Source CFD Toolbox
   \\    /   O peration     | Website:  https://openfoam.org
    \\  /    A nd           | Version:  8
     \\/     M anipulation  |
\*---------------------------------------------------------------------------*/
FoamFile
{
    version     2.0;
    format      ascii;
    class       volScalarField;
    location    "1.2";
    object      nut;
}
// * * * * * * * * * * * * * * * * * * * * * * * * * * * * * * * * * * * * * //

dimensions      [0 2 -1 0 0 0 0];

internalField   nonuniform List<scalar> 
67410
(
0.0001000903981
0.0001225030682
0.0001314655582
0.0001367788443
0.0001399020036
0.0001414403437
0.0001422417775
0.0001439785802
0.0001492113166
0.0001598138358
0.0001748572786
0.0001911310041
0.0002056170255
0.0002167409655
0.0002240483662
0.0002275186022
0.000227242005
0.0002235139473
0.0002172499251
0.0002104239206
0.0002056750371
0.0002046878301
0.0002071929683
0.0002118642441
0.0002173598289
0.0002229950991
0.0001022396687
0.0001283787225
0.0001395493397
0.0001468221499
0.0001515934591
0.0001544925973
0.0001567178195
0.000160561466
0.0001688926254
0.0001830127852
0.0002011003188
0.0002196972054
0.0002361581997
0.0002493094345
0.0002587148018
0.000263995444
0.0002646816364
0.0002603966525
0.0002514899293
0.0002402508596
0.0002314635765
0.0002292599543
0.0002330856006
0.0002400582328
0.0002483029056
0.0002569413339
0.0001029180918
0.0001306619112
0.000143076021
0.00015164748
0.000157664051
0.000161864781
0.0001659219092
0.000172711177
0.0001848941483
0.0002023908215
0.0002222955734
0.0002415334241
0.000258498718
0.0002726063104
0.0002833399867
0.0002899138541
0.0002914494132
0.0002869957828
0.0002760702425
0.0002604964926
0.0002464086411
0.0002411788366
0.0002450701143
0.0002532530837
0.0002629989908
0.0002732986053
0.0001032639806
0.0001314560111
0.0001445597056
0.0001539968254
0.000161006766
0.0001665651045
0.000172845705
0.0001829017183
0.0001984150452
0.0002178921024
0.0002383043871
0.0002575985026
0.0002750539593
0.0002904251307
0.0003027843695
0.000310800469
0.0003133311313
0.000309013208
0.0002966952136
0.0002783606254
0.0002600674106
0.0002512637107
0.0002539119082
0.0002622183367
0.0002726537532
0.0002839880803
0.0001026310725
0.0001306492581
0.0001442633322
0.0001544095145
0.0001623860818
0.0001695295075
0.0001783391199
0.0001913891458
0.0002090138246
0.0002290583452
0.0002492110844
0.0002684135964
0.0002865046732
0.0003022705705
0.0003146906373
0.0003229714315
0.0003261849199
0.0003231042954
0.0003122462029
0.0002932946867
0.0002730361165
0.0002616870135
0.0002624062101
0.0002699248062
0.0002804264368
0.0002925592389
0.0001001631569
0.0001278922529
0.0001421513345
0.0001530830138
0.0001621890927
0.0001711769755
0.0001824579525
0.0001976040806
0.0002159424674
0.0002355273496
0.0002549524643
0.0002737960408
0.0002914366098
0.000306508097
0.0003184021123
0.0003265379802
0.000330224723
0.0003285270084
0.0003202281359
0.0003046242789
0.000285205217
0.0002726935307
0.0002712345849
0.0002773717552
0.0002876310095
0.0003010110329
9.497012299e-05
0.0001227478537
0.0001380848628
0.0001501170295
0.0001606533295
0.0001716146758
0.0001848726153
0.0002009708405
0.0002189106422
0.0002373540567
0.0002555220207
0.0002731733893
0.0002896278468
0.000303785169
0.0003152418223
0.0003236096808
0.0003284071376
0.0003289302833
0.0003242058133
0.000313452584
0.0002981065171
0.0002849324674
0.0002808457109
0.0002850240766
0.000294773199
0.0003097991401
8.871306261e-05
0.0001157437897
0.000132176022
0.0001456168578
0.0001579202412
0.0001708355916
0.000185439897
0.0002016161319
0.0002185373604
0.0002354493838
0.0002519235687
0.00026774892
0.0002828527778
0.0002966562027
0.0003088239364
0.0003188991769
0.0003263169603
0.0003302879463
0.0003297573002
0.0003236344132
0.0003122357124
0.0002992113501
0.0002918526877
0.0002933281181
0.0003004210377
0.0003212954839
8.559998426e-05
0.000109048894
0.0001252996382
0.0001400567209
0.0001543934239
0.0001692575999
0.0001848652856
0.000200850363
0.0002167902452
0.000232461393
0.0002477937758
0.000262786648
0.0002774894102
0.0002920242783
0.000306595314
0.0003196915004
0.0003303199759
0.0003375331712
0.0003401896867
0.0003367754225
0.0003273761432
0.0003144315915
0.0003068228033
0.0003092853829
0.00030211178
0.0003111052141
8.693964194e-05
0.000106088741
0.0001202818734
0.0001352975908
0.0001511543096
0.0001675856749
0.0001840377216
0.000200132444
0.0002158846083
0.0002315516083
0.0002474106448
0.0002636006449
0.000280072934
0.0002967056469
0.0003134921171
0.0003285779746
0.0003409028847
0.0003497567102
0.0003540850397
0.0003510547062
0.0003423868734
0.0003328267876
0.0003463668923
0.0003703199419
0.0003091101637
0.0003093573677
9.203231082e-05
0.0001088818943
0.0001203855365
0.0001336321711
0.0001488366464
0.0001654037189
0.0001823839971
0.0001992350467
0.0002160567614
0.0002332685145
0.000251178623
0.0002697040423
0.0002884460887
0.000307116651
0.000324943664
0.0003404761659
0.0003533425587
0.0003634261692
0.0003702518298
0.0003643882996
0.0003574455449
0.0003697638533
0.0004746782142
0.0005360365802
0.0003465511477
0.0003126527237
9.899479616e-05
0.0001156019528
0.0001249886081
0.0001351502169
0.0001472871796
0.0001619808222
0.0001788488902
0.0001970562144
0.000216139522
0.000236077735
0.0002567797283
0.0002777235098
0.0002982296315
0.0003180801736
0.0003360559078
0.0003516446934
0.0003651157187
0.0003780762834
0.0003962215971
0.0003766412114
0.0003798910919
0.0004645200438
0.0006915319549
0.0007408464357
0.0004665468883
0.0003313856075
0.0001056019943
0.0001225780861
0.0001308205091
0.0001385796233
0.0001471957825
0.0001584918938
0.0001739394112
0.0001933812099
0.0002154663871
0.0002388993514
0.0002626805864
0.0002858006133
0.0003075342198
0.0003279256237
0.0003458084856
0.0003612102101
0.0003744684312
0.0003861207941
0.0003947339772
0.0003854898131
0.000378880077
0.0003874928297
0.0004772737957
0.0006032257511
0.0003754544217
0.0003220722792
0.0001106220479
0.000127729311
0.0001356996575
0.0001426981838
0.0001493338768
0.0001573106686
0.0001697725533
0.0001889763085
0.0002138108383
0.000241082343
0.0002680860397
0.0002931985144
0.0003158760769
0.0003364448043
0.0003540503443
0.0003689031197
0.000380869944
0.0003891949487
0.0003926092465
0.0003886878243
0.0003790175785
0.0003654304023
0.000362236099
0.0003841434623
0.0003188426166
0.0003269293347
0.0001139943001
0.0001304445322
0.0001383370819
0.000145683387
0.0001522617032
0.0001586616072
0.0001679191368
0.0001848142017
0.0002109032788
0.0002418295287
0.000272116066
0.0002990291357
0.0003224127641
0.0003429294155
0.0003603542563
0.00037516626
0.0003871720251
0.0003950585722
0.000397304383
0.000392344129
0.0003795701297
0.0003596130177
0.0003353795983
0.0003222273439
0.0003178191819
0.0003445701538
0.0001168156277
0.0001312066469
0.0001383078195
0.0001460724251
0.0001537446286
0.0001607287633
0.0001686341462
0.0001828539754
0.0002085274791
0.0002419551274
0.000274497238
0.0003021755266
0.0003255492181
0.0003456494365
0.0003628574541
0.0003778169302
0.0003906933515
0.0003991745427
0.000401459539
0.0003958677275
0.0003803987058
0.0003609287876
0.0003204863289
0.0003049475655
0.0003188371199
0.0003546801787
0.0001213737354
0.000131848867
0.0001366984068
0.0001441892278
0.0001534232989
0.0001627338152
0.0001713623288
0.0001821792847
0.0002025132197
0.0002349359798
0.0002698349694
0.0002991247705
0.0003229133445
0.0003429967739
0.0003601344058
0.0003757945547
0.0003893467216
0.000399077447
0.0004021099153
0.0003973822361
0.0003925511398
0.0004695813726
0.000332202563
0.0002926525939
0.0003040106945
0.0003371297101
0.0001297043649
0.0001352761961
0.0001358771169
0.0001418939416
0.0001528087364
0.0001658455989
0.0001773649256
0.0001862540616
0.000196845634
0.0002190853205
0.0002536007775
0.0002869348943
0.0003135083788
0.0003354552301
0.0003578551568
0.0003857404791
0.0003823520655
0.0003929158635
0.0003962725124
0.0003961708179
0.0004322628232
0.0006299388147
0.0004167390259
0.0002930208808
0.0002863743882
0.0003123832933
0.000140909513
0.0001439126457
0.0001383712215
0.0001404270024
0.0001518217713
0.0001690945215
0.0001854243737
0.0001964634488
0.0002019637197
0.0002093407009
0.0002328566785
0.0002683460535
0.0003012203307
0.0003359227144
0.0003918643605
0.0004697429843
0.0003786566108
0.0003750543094
0.0003782243164
0.0003720601713
0.000358587881
0.0003727588814
0.0003079235444
0.0002688484162
0.0002707371644
0.0002891656582
0.0001515860084
0.0001570871411
0.0001464107709
0.0001402698343
0.0001465683341
0.000164900218
0.0001869088173
0.0002044351453
0.0002131331465
0.0002131589953
0.0002186887916
0.0002507266409
0.000305098664
0.0003833625755
0.0005011906125
0.0006525065368
0.0004760043216
0.0003718383659
0.0003514011544
0.0003412833929
0.0003235548781
0.0003119351457
0.0002734795837
0.0002560691507
0.0002605425721
0.0002703476981
0.0001600330321
0.000169751117
0.0001596033008
0.0001460016064
0.0001400928851
0.0001488339409
0.0001682825601
0.0001924652437
0.0002086114734
0.0002117661965
0.0002082901556
0.0002218195056
0.0002689470908
0.0003446761276
0.0004568628425
0.0005869307131
0.0006216709093
0.0003595944901
0.0003259829013
0.0003205719068
0.0003328969259
0.0003863131283
0.000300533386
0.0002593164568
0.000250521622
0.0002546588317
0.0001679398964
0.0001793146038
0.0001706327871
0.000157945035
0.0001466925296
0.0001489581048
0.0001523796766
0.000154506051
0.0001762160253
0.000188979335
0.0001875918109
0.0001897275111
0.000219773899
0.0002747328238
0.0003486435105
0.0004294191837
0.0004384842931
0.0003186711476
0.00032107954
0.0003585582605
0.0004270732387
0.0004928317043
0.0003986539662
0.0003121674958
0.00025809391
0.0002425986553
0.000173166936
0.0001846755033
0.0001764698952
0.0001685756969
0.0001664409958
0.0001777705101
0.0001821881284
0.0001502376923
0.0001413557057
0.000155153147
0.0001603452979
0.0001570999202
0.0001732608467
0.0002133522565
0.000261418326
0.0003099451061
0.0003210274524
0.0002810039157
0.0002959823317
0.0003356237318
0.0003995237347
0.000448761049
0.0003708836114
0.0002922352119
0.0002417724753
0.0002274566564
0.0001723346543
0.0001835082932
0.0001783926166
0.00018333886
0.0001991895719
0.0002173943645
0.0002221428016
0.000188857006
0.0001563808528
0.0001330214703
0.0001224275438
0.0001189213984
0.0001310934117
0.0001629652733
0.0001971770708
0.0002273994138
0.0002402660909
0.0002333238267
0.0002429596694
0.0002647468285
0.0003001093013
0.0003376795646
0.0002810851533
0.000241207163
0.0002138296083
0.0002067733643
0.00016400911
0.0001761567598
0.0001867062175
0.0002126763885
0.0002363616409
0.000250910202
0.0002528665419
0.0002322746488
0.0001997213865
0.0001650915566
0.0001330868716
0.0001057709767
0.0001070169312
0.0001308959191
0.0001560801517
0.0001781085229
0.0001944067898
0.0002088307673
0.0002320974382
0.0002662055851
0.0003128858411
0.0003699769793
0.0002804041833
0.0002122616979
0.0001802580921
0.0001510709858
0.0001732625018
0.0002104710898
0.0002432346613
0.000262529255
0.0002768327889
0.0002819950736
0.0002667905963
0.0002374673984
0.0002047742907
0.0001628129999
0.0001130798807
0.0001064376419
0.0001282510611
0.0001557510506
0.0001823460613
0.0002090492585
0.0002398350453
0.0002800300956
0.0003386160396
0.0004164336367
0.0004934690044
0.0003983291137
0.0002875382697
0.0002020098193
0.0001462708407
0.0001816086187
0.0002281524592
0.0002580357743
0.0002791896677
0.0002992506312
0.0003073170441
0.0002932386621
0.0002578111641
0.0002269705087
0.0001861506008
0.0001297835909
0.0001137805019
0.0001366080166
0.0001674147652
0.0001972813868
0.0002271819837
0.000261976154
0.0003101052211
0.0003792311596
0.0004665959804
0.0005365348445
0.0004713896365
0.0003506719143
0.00025448612
0.0001619042705
0.0001804493346
0.0002194054253
0.0002506810189
0.0002815156352
0.0003037555306
0.0003123955711
0.0002948282618
0.0002502322596
0.0002176321317
0.0001847145635
0.0001416800868
0.000117683688
0.0001294112458
0.0001546815588
0.0001815316846
0.0002067732386
0.0002336423494
0.000265648499
0.000308768347
0.0003705156919
0.0004414034423
0.0003315243939
0.0002267213646
0.0001550088217
0.0001797152093
0.0001715407636
0.000177439281
0.0001991654941
0.0002287689596
0.0002610440054
0.0002793774254
0.0002426667715
0.0002071714192
0.000187427479
0.0001712181171
0.000149747716
0.0001270719507
0.0001255539272
0.0001389698947
0.0001594347163
0.0001816849593
0.0002022207599
0.0002231225086
0.0002463773733
0.0002761810603
0.0003127479795
0.0002196649844
0.0001575027169
0.0001691482627
0.0001905688597
0.0001914527083
0.0001889196395
0.0001854041008
0.0001940977971
0.0002051385146
0.0002194098248
0.000237682409
0.0002129839369
0.0002027828903
0.0001930295362
0.0001816068718
0.000165771537
0.000140557926
0.0001339464069
0.0001385632049
0.000146190052
0.0001562494589
0.0001688094368
0.0001810024508
0.0001912500025
0.0001985429595
0.0002016088513
0.0001631413493
0.0001727041323
0.0001971878555
0.0002255888923
9.604859994e-05
0.0001214697242
0.0001331616925
0.0001413074764
0.0001465655296
0.0001490449204
0.0001493833397
0.0001491141385
0.000150813537
0.0001571136415
0.0001687526833
0.0001839594832
0.0002000597889
0.0002149815371
0.000227429025
0.0002365799695
0.0002419442145
0.0002434456775
0.0002416195914
0.0002377966025
0.0002340212573
0.0002324582799
0.0002342673369
0.0002391168305
0.0002456034238
0.0002524159697
9.831953384e-05
0.0002041173698
0.0002657858689
0.0003197219573
0.0003570785369
0.0003702731343
0.0003606701473
0.000336712011
0.0003120673013
0.0003017575405
0.0003167894667
0.0003611654211
0.0004324684655
0.0005216470043
0.0006138788467
0.000693099557
0.0007466836207
0.0007689432856
0.0007633176475
0.0007420050745
0.0007224642511
0.0007210068391
0.0007418309977
0.0007799460984
0.0008283127132
0.0008798185818
9.867740445e-05
0.0002306194166
0.0003214348391
0.000404730984
0.0004618404385
0.0004803281953
0.0004633586177
0.0004264965706
0.0003934008631
0.0003875684719
0.0004239303113
0.0005063089979
0.0006260478799
0.0007618690662
0.0008891553481
0.0009899267943
0.001051082912
0.00106699473
0.00104289918
0.0009940014723
0.0009476742041
0.0009350737589
0.0009629915172
0.001018967035
0.001090677945
0.001168451171
9.771583716e-05
0.000237627667
0.0003435082362
0.0004435359296
0.0005126221429
0.0005352414383
0.0005170265338
0.0004803296765
0.000456393555
0.0004728235144
0.0005437257093
0.0006653663057
0.0008138167945
0.0009539414199
0.001070264895
0.001164105243
0.001228734177
0.001257736489
0.001250451985
0.001198779154
0.001132449175
0.001101543009
0.001123323427
0.001182371387
0.001261990912
0.001350668961
9.60617743e-05
0.0002342162084
0.0003435493794
0.000448333431
0.0005216353497
0.0005478947002
0.000535916949
0.0005130751785
0.0005135149749
0.0005628261345
0.0006673120018
0.0008084530754
0.0009471732099
0.001075724678
0.001191853432
0.001285540985
0.001352190859
0.00138904055
0.001394814762
0.001368768113
0.001308413746
0.001266201272
0.001275161712
0.001324418964
0.001396762534
0.001481581311
9.333459062e-05
0.0002243107271
0.0003280021407
0.0004274781911
0.0004987127108
0.0005290948822
0.0005305485675
0.0005318709135
0.0005641524199
0.0006451957572
0.000769769859
0.00090806758
0.001035679303
0.001159665661
0.00126960853
0.001360626419
0.001429680808
0.001474894532
0.001495614125
0.001492570747
0.001465048924
0.001424877633
0.001422096639
0.001454578594
0.001510841236
0.00159600872
8.897852122e-05
0.0002097598732
0.0003008180982
0.0003875009805
0.0004524627041
0.0004885030841
0.0005091477963
0.0005397390362
0.0006031324962
0.0007068324432
0.0008383197066
0.000970864668
0.00109241183
0.001208880495
0.001313418233
0.001403020343
0.001475341768
0.001528540023
0.001561650239
0.001575484795
0.001573686991
0.001558581457
0.001549845814
0.001566395648
0.001611620389
0.001758256317
8.502952708e-05
0.0001945035579
0.0002681086209
0.0003374851858
0.0003944560672
0.0004378744091
0.0004801980419
0.000539074942
0.0006265201496
0.0007413844451
0.0008710905185
0.001000409501
0.001119021756
0.001231615175
0.001333313056
0.001423116424
0.001499291139
0.001559699368
0.001602360556
0.001626838748
0.001637651663
0.001640262487
0.001638285619
0.001649272126
0.001710070525
0.001928767287
8.363974122e-05
0.0001819289961
0.0002374061253
0.0002895152486
0.0003391722584
0.0003901480628
0.0004518701887
0.0005328275855
0.0006346354477
0.0007504378241
0.0008709213543
0.0009912608724
0.001111638095
0.001231603278
0.001334081928
0.001425839637
0.001507001127
0.001575381444
0.001627197964
0.001657780499
0.001678337802
0.001697435028
0.001713605566
0.001713717342
0.001755913122
0.001844201076
8.468759629e-05
0.0001741311174
0.000216408528
0.0002558069373
0.0002996386514
0.0003548844329
0.0004286324076
0.0005226468165
0.0006312503233
0.0007444831798
0.000856540771
0.0009695736244
0.001088847647
0.001213038891
0.001320358572
0.001416823522
0.00150639038
0.00158904405
0.001659159646
0.001684161363
0.001715840306
0.001773275078
0.001899103691
0.001960308813
0.001865158151
0.001787029725
8.799160083e-05
0.0001720744495
0.0002091388043
0.0002424716982
0.0002810568441
0.0003336319283
0.0004079185805
0.0005044722148
0.000615057251
0.0007281876315
0.0008393965425
0.0009534785752
0.001075489778
0.001196950752
0.00130352537
0.001406805852
0.001511561109
0.001633076741
0.001780224803
0.001737714193
0.001780551425
0.002002150206
0.002661312254
0.00280970797
0.002250201054
0.001848685317
9.311752373e-05
0.0001775574701
0.0002170706231
0.0002509867719
0.0002848483457
0.000326831058
0.0003877952331
0.0004730737057
0.0005781000474
0.0006921488108
0.000809297205
0.0009321211771
0.001061137732
0.001179243214
0.001288866354
0.001401258249
0.001531760321
0.001750764143
0.002238397048
0.001847273888
0.001879571524
0.002463505908
0.003520136314
0.003387319786
0.00293512634
0.001996586776
9.876312139e-05
0.000190513285
0.0002400989686
0.0002820026888
0.0003146433328
0.0003422374957
0.0003786458997
0.0004374465564
0.00052386173
0.0006327405602
0.0007569043188
0.0008936405546
0.00103597867
0.00115748702
0.001271813569
0.001389573454
0.001523743826
0.001703321563
0.001892981903
0.001797845173
0.001841845121
0.002133345714
0.00286627327
0.003032471081
0.002592007003
0.002031430464
0.0001037062438
0.000205551777
0.0002691016247
0.0003253935502
0.0003643969618
0.0003823434096
0.0003921041526
0.0004148289889
0.0004689949996
0.0005610382356
0.000686966643
0.0008385284074
0.0009969521964
0.001126040425
0.001243681162
0.001357741052
0.001468487623
0.0015748525
0.001663603475
0.001692262675
0.001744190039
0.001875158112
0.002146561936
0.002279279402
0.002084560579
0.001890801742
0.0001074093459
0.0002148440704
0.0002864315458
0.0003551612644
0.0004079732394
0.0004306350456
0.0004262157531
0.0004160911156
0.0004316937943
0.0004961144789
0.0006145756458
0.000775932629
0.0009453971168
0.001080355841
0.001201637632
0.001316516751
0.001423044246
0.001514953463
0.001583970437
0.001629381878
0.001671101184
0.001737528558
0.001835281124
0.001853209537
0.001804104424
0.001764307716
0.0001101816073
0.0002155053085
0.0002829434904
0.0003508930602
0.0004152183722
0.0004578214383
0.0004632841038
0.0004377508092
0.0004180673067
0.0004482468667
0.00054983348
0.000712126648
0.0008807457172
0.001016077902
0.001138909379
0.001254931881
0.00136010439
0.001451632694
0.001518610711
0.001571486139
0.001653872104
0.001943411832
0.001796865564
0.00169596314
0.001668654037
0.001658899327
0.0001129169828
0.0002106473207
0.0002664508013
0.0003193217712
0.0003795304725
0.0004424395658
0.0004813932127
0.0004710714193
0.000430186923
0.0004154971462
0.0004753308027
0.000617147549
0.0007840954378
0.0009229410925
0.001050926549
0.001169785628
0.001269787105
0.00136679154
0.001440048043
0.001537830312
0.001934451676
0.00247779545
0.002193175302
0.00165663483
0.001576181915
0.001575888394
0.0001163814778
0.0002040324855
0.0002478511197
0.0002832133263
0.0003249033378
0.0003911001289
0.0004693038418
0.0005062142368
0.0004779536309
0.0004258844055
0.0004147263947
0.0004921738724
0.0006450108463
0.0007942475675
0.0009346886523
0.001066383118
0.001151851778
0.001267755269
0.00135297547
0.00151359574
0.002127544274
0.003285798343
0.002367341854
0.001539738837
0.001441426882
0.001469582698
0.0001206922737
0.0001999563027
0.000231433557
0.0002569942869
0.0002809324655
0.0003302912608
0.0004223089927
0.0005078164833
0.0005289743117
0.0004909935449
0.0004283222409
0.0004142711046
0.000498583908
0.0006546766845
0.0008473983003
0.001067408533
0.00102376885
0.001150665126
0.001202993403
0.001289145443
0.001455756747
0.001767520331
0.00147662065
0.001213100448
0.001245032226
0.001316433837
0.000126971248
0.0002051379607
0.00021960325
0.0002374277919
0.0002530000745
0.0002769387225
0.0003470343094
0.0004524066053
0.0005178295971
0.0005328747939
0.0004778846522
0.0003977918578
0.0003843574096
0.0004921609641
0.0008609136174
0.001311272254
0.001158464923
0.001055990025
0.001079329236
0.001131185085
0.001183419821
0.001225470671
0.001122806264
0.001004876864
0.00110843801
0.001152206069
0.0001388651306
0.0002258916425
0.0002204717959
0.0002217176868
0.0002338642554
0.000241357475
0.0002613191059
0.0003375897021
0.000433587065
0.0004747140911
0.0004484023296
0.0003655133096
0.0003070560582
0.0003791444889
0.0007044079878
0.001141362081
0.001253122354
0.001068706499
0.0009294683585
0.001039443315
0.001223677954
0.001274691324
0.001155231731
0.0009143165657
0.0009410733207
0.0009660905027
0.0001529783529
0.0002549110831
0.0002375799787
0.0002145313883
0.0002186778694
0.0002306058697
0.0002269311676
0.000226642642
0.0002660195394
0.0003238539215
0.0003310477232
0.0002985722416
0.0002651212276
0.0002725210189
0.0003442998147
0.0005419261031
0.0006882821076
0.0006872985553
0.0008063967265
0.001067431075
0.001342348569
0.001418608881
0.001240908954
0.0008896839399
0.000737665254
0.0007591503994
0.0001620650019
0.0002760479905
0.0002554221499
0.0002136302176
0.0002065067581
0.0002231873
0.0002330047624
0.0002156472522
0.0001959634333
0.0001915017147
0.0001951129902
0.0001978669072
0.0002083520102
0.0002271428166
0.0002569187536
0.0003086379738
0.000380178739
0.0004633273526
0.0006277949954
0.0009223950223
0.00121992778
0.001297315627
0.001121228118
0.0007245999274
0.00055081466
0.0005726738834
0.0001617535479
0.0002769480522
0.0002484220855
0.0002099081771
0.000200688544
0.0002192438271
0.0002406184265
0.000218782341
0.0002007134321
0.0001724668822
0.0001506850959
0.0001439048303
0.0001544205763
0.0001811551746
0.0002051959449
0.000230063632
0.0002607886624
0.0003056818108
0.0003757969278
0.0004838553105
0.0006419944635
0.0007179129826
0.0005895491219
0.0004275358322
0.0003770198758
0.0003997150213
0.0001508748277
0.0002507606246
0.0002237682542
0.0002099418618
0.0002143276699
0.0002398523312
0.0002532025303
0.0002242319037
0.0001968169233
0.0001687503302
0.0001438842049
0.0001299099408
0.0001312955674
0.0001514929613
0.0001794412354
0.0002102840685
0.0002504017778
0.0003113691153
0.0004029999413
0.000543729735
0.0007486713909
0.0008435330771
0.0005031941063
0.0002790320651
0.0002539809583
0.0001343684809
0.0002125984001
0.0002107946399
0.0002325602591
0.0002693112295
0.0003269381182
0.0003517207603
0.0003104149958
0.0002207790524
0.0001724671878
0.0001449351446
0.0001276029539
0.0001271517771
0.0001454099057
0.0001849503531
0.0002491784391
0.000353031339
0.0005140197649
0.0007336045731
0.001033904999
0.001414881478
0.001588358239
0.00119391553
0.0004127227328
0.0002380969908
0.0001271530227
0.0001896451823
0.0002170519581
0.0002780633986
0.0003520002792
0.0004318015867
0.0004582731316
0.0004106847963
0.0002985807809
0.0001962583163
0.0001562461744
0.0001342116539
0.0001334341913
0.0001547346984
0.0002020348658
0.0002932207037
0.0004471884638
0.0006316788505
0.0008539300188
0.00116897752
0.001608453735
0.001782943625
0.001392563006
0.0006085122514
0.0002699802951
0.0001334680303
0.0001901880374
0.000233336
0.0003207437906
0.0004103283106
0.0004710895183
0.0004983946742
0.0004410783645
0.0003298591865
0.0002279503863
0.0001716857715
0.0001446667126
0.0001387117335
0.0001543758266
0.0001944395912
0.0002764442869
0.0004112026565
0.0005616652635
0.0007165268779
0.0009118961559
0.001182464714
0.001336185602
0.0009789231324
0.0003652686939
0.0002676262857
0.0001418572602
0.0002107271889
0.0002533283251
0.0003336404542
0.0004339365929
0.0004914709772
0.000517092622
0.0004645273885
0.0003932581955
0.0002834603468
0.0001974328661
0.0001598615882
0.0001489951431
0.0001578481138
0.0001813876791
0.0002235805011
0.0002910671367
0.0003755428124
0.0004507581039
0.0004956202446
0.0005199380969
0.0005091211407
0.0003696021759
0.0003161638346
0.0003940095977
0.0005357478868
0.0001506629475
0.0002550396834
0.0003108764561
0.0003983559474
0.0004763237203
0.000526328203
0.0005815117466
0.0005380809755
0.0004699398437
0.0003563617424
0.0002413694485
0.0001852477628
0.0001700990873
0.0001820791737
0.0002069839406
0.000238620473
0.0002768936232
0.0003160737298
0.0003496638786
0.0003697882261
0.0003870978322
0.0004354358984
0.0003995634722
0.0004312307351
0.0005932532923
0.0007556408569
9.727070234e-05
0.0001235466486
0.0001364891718
0.0001465211117
0.0001534977627
0.0001572325908
0.0001581373521
0.0001574394883
0.0001573976638
0.0001608258224
0.0001695733573
0.0001832370561
0.0001997539479
0.0002168547548
0.0002327133983
0.0002459511522
0.0002556256876
0.0002612938571
0.0002631130212
0.0002619467819
0.0002593933843
0.000257516158
0.0002580475632
0.0002615034471
0.0002670574447
0.0002734967365
0.0001003277078
0.0002404633625
0.0003342217233
0.000418781808
0.0004831891779
0.0005169467685
0.0005196462246
0.0004980314224
0.000465583025
0.0004413405894
0.0004452567537
0.0004905953346
0.0005788353495
0.0006985896268
0.0008289813058
0.0009476908101
0.00103877647
0.001095573827
0.001119962689
0.00112126425
0.001114871253
0.00111716165
0.001137132661
0.001174859309
0.001225891366
0.001284180348
9.999103093e-05
0.0002772906547
0.0004126144194
0.0005429967878
0.0006439903716
0.0006987154796
0.0007059970467
0.00067649763
0.0006326700421
0.000605917771
0.0006263522519
0.0007098174722
0.000851172665
0.001025863287
0.001201552395
0.00135196422
0.001462364072
0.001528418226
0.001552740206
0.001545810938
0.001529458411
0.001530194615
0.001561720221
0.001620664543
0.001698361302
0.001786762996
9.761056443e-05
0.000281971348
0.0004362790846
0.0005910853764
0.0007138924563
0.000784133267
0.000800464389
0.0007770223596
0.0007433072498
0.0007378848718
0.0007922690398
0.000915182972
0.001088399953
0.001278337593
0.001455173642
0.001600911577
0.001709195314
0.001780658581
0.001813336834
0.001810228929
0.001791417581
0.001787661218
0.001819324394
0.001883111276
0.001968309776
0.002069444983
9.474174718e-05
0.0002741577655
0.0004319448622
0.0005944274469
0.0007267743687
0.000807089861
0.0008348292937
0.0008277198079
0.0008196869608
0.0008494046412
0.000940696326
0.001089320065
0.001268099164
0.001445895321
0.001605105312
0.001742362106
0.001849951845
0.001926166655
0.001971380763
0.001988237916
0.001982925459
0.001981469982
0.002008542927
0.002066580376
0.002148800041
0.002261032184
9.184146061e-05
0.000262769686
0.0004136623669
0.0005702039063
0.0007011985108
0.0007862693001
0.0008268342653
0.00084331411
0.000869398536
0.0009365993915
0.001056222346
0.001214200884
0.001383858877
0.001544891714
0.001695109453
0.001825491406
0.00193209655
0.00201358484
0.002070198948
0.002103974495
0.002120557777
0.002130228161
0.002153584184
0.002203346508
0.002286552855
0.002414792513
8.884219655e-05
0.0002509265454
0.0003862269154
0.000526417558
0.000647573159
0.0007337764499
0.0007890417245
0.0008338419182
0.000896062758
0.0009955643691
0.001132661546
0.001290776949
0.001449511003
0.001601130412
0.001742907283
0.001869027735
0.001976461225
0.002063723608
0.002130362021
0.002177170986
0.002208244025
0.002231505057
0.002258437796
0.002304787174
0.002396846466
0.002603102897
8.702791372e-05
0.0002403725093
0.0003538489723
0.0004702334212
0.0005759457007
0.0006617819323
0.0007337206239
0.0008083033681
0.0009031793434
0.001026303057
0.001172222329
0.001327873018
0.001480671284
0.001625512207
0.001762221045
0.001886941838
0.001996892286
0.002090243657
0.002165352064
0.002221233637
0.002263155671
0.002297971285
0.002332428673
0.002373738101
0.002443553938
0.003195096898
8.693826646e-05
0.0002313960723
0.0003220126733
0.0004126119917
0.0005010749119
0.0005858334396
0.0006736974167
0.00077434715
0.000893940813
0.001031269183
0.001179721821
0.001332147147
0.001482863446
0.001625850457
0.00176083791
0.001886515599
0.00200086625
0.002102970386
0.002188400149
0.002246644419
0.002298391117
0.002352767261
0.002397829104
0.002395411193
0.002532334728
0.002696908964
8.803553159e-05
0.0002243550641
0.0002980798784
0.0003680251402
0.0004411141365
0.0005224378849
0.0006196094735
0.0007365137894
0.0008705738657
0.001014858552
0.001163148956
0.001312887985
0.001462633233
0.001607080332
0.001742768817
0.001871831755
0.001996345129
0.002124603964
0.002244462077
0.002277135457
0.002330780588
0.002423326256
0.0025116062
0.002495302894
0.002555598912
0.002598051349
9.041771683e-05
0.0002201487553
0.0002868629939
0.0003469164107
0.0004095702886
0.0004831364427
0.0005773495144
0.0006956264776
0.0008328413137
0.0009795018558
0.001128800572
0.001279337144
0.001430194913
0.001574530169
0.001711447719
0.001848468283
0.002002230716
0.002228609668
0.002598873496
0.002383708573
0.00238253459
0.002573606818
0.002928144593
0.003103444942
0.002860902395
0.002633566061
9.432294101e-05
0.0002221695881
0.0002913192929
0.000353255289
0.0004126957026
0.000475518123
0.0005534385415
0.0006551577183
0.0007809489935
0.0009233713527
0.001074202563
0.001229235665
0.001384105424
0.001528686203
0.001668656176
0.001820059579
0.002033408846
0.002563549538
0.003237268164
0.002700699828
0.002437998949
0.002763563197
0.003602422031
0.003552119687
0.003422606377
0.002781209096
9.91328145e-05
0.00023265174
0.0003127673808
0.0003860895771
0.000450144875
0.0005041948006
0.0005587085213
0.0006285500656