/*--------------------------------*- C++ -*----------------------------------*\
  =========                 |
  \\      /  F ield         | OpenFOAM: The Open Source CFD Toolbox
   \\    /   O peration     | Website:  https://openfoam.org
    \\  /    A nd           | Version:  8
     \\/     M anipulation  |
\*---------------------------------------------------------------------------*/
FoamFile
{
    version     2.0;
    format      ascii;
    class       surfaceScalarField;
    location    "1.2";
    object      phi;
}
// * * * * * * * * * * * * * * * * * * * * * * * * * * * * * * * * * * * * * //

dimensions      [1 0 -1 0 0 0 0];

internalField   nonuniform List<scalar> 
197783
(
-1.87045954e-05
2.886218731e-06
1.581831107e-05
-2.961322873e-05
-3.098144905e-06
1.400671304e-05
-3.674644345e-05
-5.499632404e-06
1.263278179e-05
-4.185342321e-05
-6.632938439e-06
1.173985346e-05
-4.612906551e-05
-7.132982471e-06
1.140856194e-05
-5.055274641e-05
-7.284604049e-06
1.170822525e-05
-5.592778198e-05
-7.305767757e-06
1.268074875e-05
-6.266522088e-05
-7.575520298e-06
1.431291336e-05
-7.043467596e-05
-8.679299803e-06
1.644872284e-05
-7.808507969e-05
-1.109676998e-05
1.874715983e-05
-8.41374509e-05
-1.47001313e-05
2.075250826e-05
-8.753654338e-05
-1.870659428e-05
2.210571058e-05
-8.796124419e-05
-2.221478535e-05
2.263952478e-05
-8.561805837e-05
-2.469980531e-05
2.235667011e-05
-8.108224124e-05
-2.606321763e-05
2.152746025e-05
-7.511086604e-05
-2.638147036e-05
2.041016045e-05
-6.860778565e-05
-2.574335028e-05
1.924033597e-05
-6.255437429e-05
-2.428229812e-05
1.822894792e-05
-5.774829197e-05
-2.230407684e-05
1.749804502e-05
-5.446954336e-05
-2.036664753e-05
1.708793442e-05
-5.23777807e-05
-1.905600914e-05
1.696426211e-05
-5.065719014e-05
-1.858630436e-05
1.68657045e-05
-4.860144637e-05
-1.87636353e-05
1.670785238e-05
-4.573624486e-05
-1.93914856e-05
1.65262115e-05
-4.187370199e-05
-2.035809518e-05
1.649544581e-05
-2.162680889e-05
1.677332794e-05
-1.650957937e-05
4.142085787e-06
1.525364584e-05
-2.774948357e-05
-3.8894217e-06
1.203111451e-05
-3.565522848e-05
-7.32361914e-06
9.729664393e-06
-4.160602882e-05
-9.134493599e-06
8.452288255e-06
-4.669332891e-05
-1.017135236e-05
8.125604165e-06
-5.176007192e-05
-1.090208547e-05
8.68416161e-06
-5.73648367e-05
-1.172465856e-05
1.002359874e-05
-6.364196172e-05
-1.318960767e-05
1.189116698e-05
-7.022804188e-05
-1.59073781e-05
1.381413171e-05
-7.638204421e-05
-2.012766162e-05
1.518489112e-05
-8.126377538e-05
-2.537572031e-05
1.555734044e-05
-8.421096e-05
-3.066734848e-05
1.490797587e-05
-8.481435768e-05
-3.512128516e-05
1.350994497e-05
-8.304903244e-05
-3.835639288e-05
1.189131631e-05
-7.919672828e-05
-4.038326668e-05
1.046780322e-05
-7.3781625e-05
-4.13254642e-05
9.528951053e-06
-6.756124772e-05
-4.124177396e-05
9.278105549e-06
-6.146876547e-05
-4.020582904e-05
9.831101677e-06
-5.643303588e-05
-3.843394131e-05
1.109417663e-05
-5.298877909e-05
-3.638430937e-05
1.257343126e-05
-5.092216584e-05
-3.474624277e-05
1.362362599e-05
-4.919923613e-05
-3.403271359e-05
1.37234579e-05
-4.696102737e-05
-3.421733816e-05
1.321543981e-05
-4.387327105e-05
-3.506036718e-05
1.258103476e-05
-3.975260332e-05
-3.647013147e-05
1.199124111e-05
-3.836643779e-05
1.150540939e-05
-1.560604561e-05
4.201364755e-06
1.554669853e-05
-2.658757374e-05
-4.024725906e-06
1.111676411e-05
-3.438210926e-05
-7.670114301e-06
8.140961732e-06
-4.035585761e-05
-9.696045557e-06
6.535231493e-06
-4.560975357e-05
-1.106224836e-05
6.14472464e-06
-5.100542221e-05
-1.2346885e-05
6.840404208e-06
-5.707146817e-05
-1.405110802e-05
8.39243882e-06
-6.383392113e-05
-1.673932641e-05
1.031212961e-05
-7.075993318e-05
-2.081870463e-05
1.183731888e-05
-7.697801335e-05
-2.614683334e-05
1.223725744e-05
-8.163821494e-05
-3.194579062e-05
1.123029779e-05
-8.412552428e-05
-3.728646894e-05
9.106468463e-06
-8.418051135e-05
-4.161340269e-05
6.547150969e-06
-8.187607536e-05
-4.480396774e-05
4.143191086e-06
-7.751042541e-05
-4.705781154e-05
2.308952115e-06
-7.157048033e-05
-4.85838578e-05
1.318508694e-06
-6.479384659e-05
-4.941183146e-05
1.393482378e-06
-5.815789641e-05
-4.952882045e-05
2.687091909e-06
-5.276743519e-05
-4.896341993e-05
5.139053545e-06
-4.949968269e-05
-4.780858639e-05
8.156541794e-06
-4.820054381e-05
-4.658008666e-05
1.053469973e-05
-4.743234557e-05
-4.599468433e-05
1.119373427e-05
-4.587683253e-05
-4.629057537e-05
1.051764534e-05
-4.318350472e-05
-4.724810305e-05
9.494284233e-06
-3.923793721e-05
-4.882087017e-05
8.404999702e-06
-5.095487172e-05
7.287763152e-06
-1.524111054e-05
3.63030942e-06
1.581209524e-05
-2.607226633e-05
-3.886908628e-06
1.069326794e-05
-3.376869854e-05
-7.316679172e-06
7.342925931e-06
-3.978617774e-05
-9.203992339e-06
5.52535517e-06
-4.527258825e-05
-1.064346429e-05
5.06755747e-06
-5.111220242e-05
-1.231951764e-05
5.812182251e-06
-5.776937794e-05
-1.477593085e-05
7.381943757e-06
-6.509039952e-05
-1.845560987e-05
9.037268742e-06
-7.23383257e-05
-2.342343197e-05
9.852641726e-06
-7.852114893e-05
-2.913107794e-05
9.167078998e-06
-8.280383707e-05
-3.46927355e-05
7.029660156e-06
-8.471247716e-05
-3.94400463e-05
4.062254351e-06
-8.41212237e-05
-4.314676689e-05
9.42155042e-07
-8.122036966e-05
-4.606285667e-05
-1.641913221e-06
-7.636995235e-05
-4.845315773e-05
-3.455012024e-06
-7.00346533e-05
-5.052696222e-05
-4.392131521e-06
-6.284875443e-05
-5.230783496e-05
-4.28983477e-06
-5.572687659e-05
-5.370894608e-05
-2.941703662e-06
-4.985370473e-05
-5.458071945e-05
-2.558473061e-07
-4.646721396e-05
-5.481722982e-05
3.622148812e-06
-4.558582133e-05
-5.451680056e-05
7.055295841e-06
-4.563138986e-05
-5.443538647e-05
8.486205511e-06
-4.487608591e-05
-5.501321034e-05
7.967212473e-06
-4.277364684e-05
-5.610879583e-05
6.758073795e-06
-3.918314368e-05
-5.772052508e-05
5.308902243e-06
-5.998920545e-05
3.643074836e-06
-1.500577852e-05
2.837312627e-06
1.579870121e-05
-2.566534659e-05
-3.749215938e-06
1.052180159e-05
-3.347764755e-05
-6.706720927e-06
7.202268699e-06
-3.981258759e-05
-8.271931835e-06
5.402806157e-06
-4.580625795e-05
-9.619978571e-06
4.970113773e-06
-5.229300545e-05
-1.153292746e-05
5.700092749e-06
-5.957504788e-05
-1.454540684e-05
7.051467168e-06
-6.727608864e-05
-1.887838426e-05
8.123785073e-06
-7.451016764e-05
-2.420841991e-05
8.019060513e-06
-8.032140057e-05
-2.972726173e-05
6.407429505e-06
-8.403154037e-05
-3.464288018e-05
3.660310258e-06
-8.529122522e-05
-3.859158385e-05
4.112577209e-07
-8.425439036e-05
-4.169643125e-05
-2.487125154e-06
-8.112988446e-05
-4.437797829e-05
-4.809328091e-06
-7.616433731e-05
-4.696375757e-05
-6.454881562e-06
-6.972114675e-05
-4.962043956e-05
-7.349642823e-06
-6.236724551e-05
-5.233521302e-05
-7.326456769e-06
-5.497566174e-05
-5.494685561e-05
-6.153624466e-06
-4.874120978e-05
-5.71752433e-05
-3.63991451e-06
-4.484955718e-05
-5.871307122e-05
4.121050884e-09
-4.373622896e-05
-5.952921832e-05
3.899031718e-06
-4.398510825e-05
-6.00766741e-05
5.890062489e-06
-4.376409073e-05
-6.098590372e-05
5.751498249e-06
-4.224297493e-05
-6.220587538e-05
4.575697441e-06
-3.915101078e-05
-6.365142072e-05
2.838556399e-06
-6.615529304e-05
6.882034508e-07
-1.444712676e-05
1.89032778e-06
1.539403278e-05
-2.517276337e-05
-3.671309726e-06
1.064765223e-05
-3.342885498e-05
-6.094056955e-06
7.643349629e-06
-4.0411402e-05
-7.309156342e-06
6.019694646e-06
-4.715195586e-05
-8.531171689e-06
5.651673865e-06
-5.432076689e-05
-1.061404143e-05
6.24986084e-06
-6.20007583e-05
-1.401155518e-05
7.146092093e-06
-6.968288077e-05
-1.865485407e-05
7.458566569e-06
-7.654713808e-05
-2.390541568e-05
6.561248464e-06
-8.184857802e-05
-2.889893263e-05
4.473122498e-06
-8.509291697e-05
-3.306015126e-05
1.661634267e-06
-8.614511767e-05
-3.630368993e-05
-1.235657171e-06
-8.515478223e-05
-3.897961147e-05
-3.707106083e-06
-8.224891145e-05
-4.16156129e-05
-5.668173567e-06
-7.754953605e-05
-4.455197924e-05
-7.111080226e-06
-7.129866181e-05
-4.791297989e-05
-7.958255345e-06
-6.396971547e-05
-5.160501576e-05
-8.059069585e-06
-5.63599007e-05
-5.534235344e-05
-7.214260956e-06
-4.96175895e-05
-5.868588119e-05
-5.231651605e-06
-4.499332384e-05
-6.118899376e-05
-2.148371826e-06
-4.300495584e-05
-6.28230842e-05
1.305419285e-06
-4.27742712e-05
-6.391496454e-05
3.60745062e-06
-4.263702154e-05
-6.50415028e-05
3.918086243e-06
-4.155186276e-05
-6.610285265e-05
2.811425151e-06
-3.932225412e-05
-6.652496556e-05
6.43360924e-07
-6.915635998e-05
-2.118907169e-06
-1.297119665e-05
-3.343875231e-08
1.489487819e-05
-2.401990064e-05
-3.80391628e-06
1.118122669e-05
-3.318480061e-05
-5.608188927e-06
8.678948972e-06
-4.120426474e-05
-6.609053862e-06
7.319280824e-06
-4.886259849e-05
-7.860307209e-06
6.987394244e-06
-5.660622509e-05
-1.016559526e-05
7.295117396e-06
-6.438263263e-05
-1.379873422e-05
7.563541942e-06
-7.176838081e-05
-1.841826551e-05
7.149135622e-06
-7.821010147e-05
-2.325258674e-05
5.7888859e-06
-8.323369378e-05
-2.757963151e-05
3.704300379e-06
-8.650293735e-05
-3.108930306e-05
1.298418503e-06
-8.788823826e-05
-3.391970391e-05
-9.986471648e-07
-8.742178334e-05
-3.652971303e-05
-2.916299259e-06
-8.509109287e-05
-3.944796272e-05
-4.49827052e-06
-8.088510109e-05
-4.298651702e-05
-5.771370695e-06
-7.492995493e-05
-4.718628506e-05
-6.681750855e-06
-6.760162416e-05
-5.182577176e-05
-7.107488917e-06
-5.961205135e-05
-5.647290292e-05
-6.858958252e-06
-5.208240592e-05
-6.052292671e-05
-5.692574945e-06
-4.64215812e-05
-6.339894766e-05
-3.450902502e-06
-4.320232374e-05
-6.542131977e-05
-6.211366861e-07
-4.19712912e-05
-6.701343654e-05
1.867219701e-06
-4.129151503e-05
-6.850795363e-05
2.78629212e-06
-4.034405254e-05
-6.875277205e-05
1.701887704e-06
-4.031506182e-05
-6.52206918e-05
-1.334182194e-06
-6.620156962e-05
-6.653157293e-06
-1.115124393e-05
-3.264096654e-06
1.438180816e-05
-2.252280178e-05
-4.422663362e-06
1.199021341e-05
-3.275620819e-05
-5.530498062e-06
1.015562649e-05
-4.191824687e-05
-6.547034426e-06
9.099934518e-06
-5.04212645e-05
-8.068313136e-06
8.710947661e-06
-5.852585992e-05
-1.063047888e-05
8.569417658e-06
-6.622138978e-05
-1.426461328e-05
8.161365786e-06
-7.333789309e-05
-1.850668733e-05
7.204899949e-06
-7.962911618e-05
-2.270477086e-05
5.74339791e-06
-8.483524633e-05
-2.64089705e-05
4.03547508e-06
-8.869593124e-05
-2.955553077e-05
2.32693516e-06
-9.09296219e-05
-3.241974919e-05
7.337772412e-07
-9.132338772e-05
-3.544269534e-05
-6.931901356e-07
-8.970945464e-05
-3.901902407e-05
-2.042789131e-06
-8.599186259e-05
-4.327875927e-05
-3.425249765e-06
-8.02162533e-05
-4.820269017e-05
-4.759094331e-06
-7.267890777e-05
-5.348319172e-05
-5.879820464e-06
-6.398702949e-05
-5.864145755e-05
-6.523246968e-06
-5.525846763e-05
-6.296208406e-05
-6.289384529e-06
-4.847093096e-05
-6.555602726e-05
-4.630505511e-06
-4.408696274e-05
-6.787651464e-05
-1.928931806e-06
-4.151527198e-05
-7.065337978e-05
1.067958202e-06
-3.856561744e-05
-7.467277547e-05
3.214636897e-06
-3.652895686e-05
-7.285825187e-05
2.068114802e-06
-4.148389409e-05
-5.763723732e-05
-2.630029161e-06
-4.996650318e-05
-1.456078241e-05
-9.971597245e-06
-7.295594615e-06
1.400299218e-05
-2.109806689e-05
-5.974240832e-06
1.267794628e-05
-3.190805028e-05
-6.349540455e-06
1.16289296e-05
-4.188626193e-05
-7.479225904e-06
1.091031489e-05
-5.102602464e-05
-9.296599646e-06
1.036797324e-05
-5.943086573e-05
-1.191323329e-05
9.687535041e-06
-6.717521927e-05
-1.519168206e-05
8.671378023e-06
-7.431284976e-05
-1.875730763e-05
7.388221489e-06
-8.081744206e-05
-2.224737792e-05
6.047184795e-06
-8.656266087e-05
-2.550762014e-05
4.84387072e-06
-9.129298415e-05
-2.864307759e-05
3.817892967e-06
-9.461617183e-05
-3.192599112e-05
2.829476858e-06
-9.605958029e-05
-3.563344253e-05
1.634229655e-06
-9.513755779e-05
-3.990169386e-05
-3.925144398e-08
-9.181295708e-05
-4.46670084e-05
-1.936229367e-06
-8.611289372e-05
-4.985874799e-05
-4.043870964e-06
-7.827057438e-05
-5.527756994e-05
-6.047812322e-06
-6.867811e-05
-6.063175483e-05
-7.602080171e-06
-5.83354662e-05
-6.517605771e-05
-8.128677586e-06
-5.09900771e-05
-6.678639571e-05
-6.115108031e-06
-4.636707088e-05
-6.989789514e-05
-2.601856237e-06
-4.264466695e-05
-7.64855542e-05
2.109459232e-06
-3.138720653e-05
-9.232952347e-05
6.398736556e-06
-2.265516925e-05
-8.587181679e-05
4.281354062e-06
-2.445957933e-05
-5.776833234e-05
1.934825186e-06
-5.122618382e-05
-1.256948083e-06
-9.731115717e-06
-1.15472591e-05
1.398266704e-05
-2.006672118e-05
-8.547207494e-06
1.290846124e-05
-3.050665723e-05
-8.255559823e-06
1.234585068e-05
-4.061312993e-05
-9.277375779e-06
1.190452865e-05
-5.011591607e-05
-1.105660765e-05
1.126271467e-05
-5.889118016e-05
-1.334028622e-05
1.020225282e-05
-6.694581716e-05
-1.594217204e-05
8.805076921e-06
-7.441389481e-05
-1.866656833e-05
7.377301648e-06
-8.139787248e-05
-2.143938734e-05
6.175965404e-06
-8.786198297e-05
-2.435947471e-05
5.315962653e-06
-9.352119583e-05
-2.761791227e-05
4.634069849e-06
-9.784561806e-05
-3.136854836e-05
3.767030944e-06
-0.0001001907969
-3.561692592e-05
2.328744242e-06
-9.994418348e-05
-4.020680632e-05
5.86076938e-08
-9.707634521e-05
-4.500010346e-05
-2.534605943e-06
-9.164305063e-05
-4.993693992e-05
-5.354946821e-06
-8.381367014e-05
-5.503533938e-05
-8.071452751e-06
-7.349251677e-05
-6.048601509e-05
-1.046678141e-05
-6.077133888e-05
-6.585967871e-05
-1.203762483e-05
-5.475003689e-05
-6.511034897e-05
-7.697514789e-06
-5.327870182e-05
-6.912433424e-05
-2.245278165e-06
-5.17051498e-05
-8.309666515e-05
5.037288222e-06
-2.059757683e-05
-0.0001292178559
5.779715079e-06
-4.870598034e-06
-9.770810701e-05
-3.889884561e-06
-8.932568303e-06
-5.826650024e-05
4.559418567e-06
-5.051491655e-05
2.347601304e-06
-1.043903745e-05
-1.545379107e-05
1.434544538e-05
-1.988803536e-05
-1.174422377e-05
1.264589302e-05
-2.915464066e-05
-1.093271696e-05
1.194364734e-05
-3.849068453e-05
-1.152692119e-05
1.158548467e-05
-4.779822959e-05
-1.283572064e-05
1.108656773e-05
-5.680691518e-05
-1.444161539e-05
1.010993965e-05
-6.534439162e-05
-1.614542837e-05
8.740671796e-06
-7.345639932e-05
-1.788570398e-05
7.331096168e-06
-8.12562645e-05
-1.983460725e-05
6.195054129e-06
-8.870187325e-05
-2.231783515e-05
5.403959707e-06
-9.54071139e-05
-2.558218144e-05
4.669527988e-06
-0.0001006674979
-2.961509953e-05
3.506985351e-06
-0.0001036751863
-3.412466836e-05
1.515513811e-06
-0.000103953483
-3.866327752e-05
-1.265118059e-06
-0.0001015155141
-4.303203671e-05
-4.405893223e-06
-9.660347665e-05
-4.710871715e-05
-7.740090796e-06
-8.946257695e-05
-5.099011839e-05
-1.118592133e-05
-7.91687935e-05
-5.538612897e-05
-1.539347574e-05
-6.17581216e-05
-6.121900653e-05
-2.205159478e-05
-6.146871334e-05
-5.629663382e-05
-9.103395848e-06
-7.18716036e-05
-5.760352113e-05
-1.118473896e-06
-8.318296143e-05
-7.162962557e-05
-1.566117104e-07
-6.956537839e-06
-0.0001598554213
-4.559499121e-05
2.537660679e-05
-8.138809639e-05
-4.865193793e-05
1.486862744e-05
-4.76413767e-05
-1.174658015e-07
-4.07344607e-05
6.644985825e-06
-1.180258973e-05
-1.842311033e-05
1.477177259e-05
-2.06447754e-05
-1.485818092e-05
1.195600967e-05
-2.848231533e-05
-1.378452616e-05
1.068922122e-05
-3.634307132e-05
-1.392101949e-05
1.025473484e-05
-4.472528487e-05
-1.459711905e-05
1.014350518e-05
-5.361724967e-05
-1.534217097e-05
9.792429109e-06
-6.277804678e-05
-1.596458362e-05
8.979877116e-06
-7.199382141e-05
-1.653234225e-05
7.862353545e-06
-8.113259093e-05
-1.748921069e-05
6.793331526e-06
-8.992838256e-05
-1.940226994e-05
5.880208149e-06
-9.777446321e-05
-2.256199785e-05
4.825908154e-06
-0.0001037835079
-2.67466305e-05
3.140619731e-06
-0.0001070491369
-3.133904975e-05
4.800872829e-07
-0.0001073922762
-3.558827015e-05
-2.731761381e-06
-0.0001049708636
-3.914550274e-05
-6.307815763e-06
-0.0001004310593
-4.14428557e-05
-1.020552351e-05
-9.471973989e-05
-4.17047272e-05
-1.499657955e-05
-8.66529007e-05
-3.867210052e-05
-2.478093502e-05
-5.998558397e-05
-3.127694327e-05
-5.661109951e-05
-7.551275822e-05
-3.064898173e-05
-1.012107863e-05
-0.0001111886045
-2.125845032e-05
-6.686258353e-07
-0.0001346616483
-1.034583487e-05
-3.781358702e-05
1.445272528e-05
-8.942730006e-06
-0.0003000375374
6.635546308e-05
-2.169501758e-06
-0.0001311192125
4.716397724e-05
-1.080763193e-05
-1.76412779e-05
-1.457356245e-05
9.779978256e-06
-1.27938542e-05
-2.059627595e-05
1.496686815e-05
-2.11880249e-05
-1.746353647e-05
1.099937733e-05
-2.784554402e-05
-1.617228023e-05
9.045128768e-06
-3.422452667e-05
-1.591643951e-05
8.374265079e-06
-4.139390176e-05
-1.604240376e-05
8.614533096e-06
-4.989258646e-05
-1.602617185e-05
9.182574335e-06
-5.969765058e-05
-1.56125371e-05
9.452925139e-06
-7.036081138e-05
-1.498626365e-05
9.117009288e-06
-8.125559162e-05
-1.491194859e-05
8.317465736e-06
-9.16312458e-05
-1.62574795e-05
7.230836092e-06
-0.0001005611127
-1.93052611e-05
5.673132862e-06
-0.0001070114482
-2.356516698e-05
3.268908202e-06
-0.0001100321778
-2.813508143e-05
-1.831683144e-07
-0.0001096342834
-3.214608064e-05
-3.839981672e-06
-0.0001058891475
-3.518136072e-05
-7.709136695e-06
-9.91645611e-05
-3.645610835e-05
-1.171114516e-05
-8.960755829e-05
-3.516318102e-05
-1.609830148e-05
-7.547200311e-05
-3.114215552e-05
-2.166516864e-05
-5.383170084e-05
-2.530015015e-05
-2.761671489e-05
-4.375275389e-05
-2.457246574e-05
-1.615514835e-05
-3.554502667e-05
-1.856596189e-05
-1.089979029e-05
-3.048095352e-05
-3.141176407e-06
-1.226954791e-05
-3.37110998e-05
3.517540981e-05
-4.089244225e-05
3.964398356e-07
2.861553455e-05
-6.489350909e-05
2.801179574e-06
6.088387663e-08
-1.327162288e-05
-4.916364155e-06
2.310543527e-06
-1.289216033e-05
-2.27098097e-05
1.500552283e-05
-2.091148251e-05
-1.968155527e-05
1.023717169e-05
-2.686116169e-05
-1.788140286e-05
7.658637023e-06
-3.222639671e-05
-1.708652689e-05
6.535164251e-06
-3.8331285e-05
-1.666068846e-05
6.723024643e-06
-4.619808759e-05
-1.611898732e-05
7.959484208e-06
-5.626684882e-05
-1.508568461e-05
9.541795291e-06
-6.81435965e-05
-1.367837834e-05
1.056877349e-05
-8.075298186e-05
-1.281447751e-05
1.051185094e-05
-9.271101474e-05
-1.364307808e-05
9.343595239e-06
-0.0001026429403
-1.645155982e-05
7.07821783e-06
-0.0001093380174
-2.053543619e-05
3.665370044e-06
-0.000111894
-2.491931067e-05
-6.597350252e-07
-0.0001103731553
-2.888277231e-05
-4.784072071e-06
-0.0001048247269
-3.20339442e-05
-8.695728813e-06
-9.57300055e-05
-3.320151123e-05
-1.234916811e-05
-8.397588338e-05
-3.128852315e-05
-1.562862125e-05
-6.946866661e-05
-2.755688279e-05
-1.809237705e-05
-5.298814288e-05
-2.258421283e-05
-1.919649213e-05
-4.33387356e-05
-1.878702707e-05
-1.543485881e-05
-3.921162654e-05
-1.322765558e-05
-9.465481074e-06
-2.946565781e-05
-1.138529452e-05
-1.502354888e-06
-7.683290353e-06
9.016534518e-06
4.375732927e-06
4.707610948e-07
2.369004978e-05
-3.228544005e-06
-8.193805686e-06
6.1231985e-06
2.603542154e-06
2.5351678e-06
1.733288889e-06
-1.205966382e-05
-2.581073017e-05
1.516038887e-05
-1.974143796e-05
-2.213106511e-05
1.013108978e-05
-2.537882398e-05
-1.936889889e-05
7.12469349e-06
-3.018081805e-05
-1.772590916e-05
5.441195701e-06
-3.541609848e-05
-1.65345449e-05
5.108966624e-06
-4.231129083e-05
-1.552316621e-05
6.299214586e-06
-5.180257231e-05
-1.428528351e-05
8.690743337e-06
-6.400566687e-05
-1.264954066e-05
1.117414758e-05
-7.78441964e-05
-1.130893332e-05
1.23329088e-05
-9.133845408e-05
-1.146924095e-05
1.132037594e-05
-0.0001024335921
-1.35607989e-05
8.204360473e-06
-0.0001095859494
-1.696644125e-05
3.583369099e-06
-0.0001120098116
-2.095594128e-05
-1.539477307e-06
-0.0001097480588
-2.522244433e-05
-5.922022236e-06
-0.0001026994258
-2.933552674e-05
-9.746946933e-06
-9.142376049e-05
-3.109265307e-05
-1.33843664e-05
-7.871758779e-05
-2.700158364e-05
-1.699292755e-05
-6.399436362e-05
-2.309168732e-05
-1.918821429e-05
-4.877909907e-05
-1.858134161e-05
-1.921791846e-05
-3.696420948e-05
-1.474483549e-05
-1.585681446e-05
-2.867013929e-05
-1.108989807e-05
-1.043139305e-05
-1.183602314e-05
-2.469323358e-05
-3.527194729e-06
-1.144833071e-05
9.31783317e-06
-6.887624933e-07
-9.006440582e-06
1.796166176e-05
3.287431318e-06
-1.810715385e-05
1.4412766e-05
8.122901467e-07
1.267699578e-05
-3.356984444e-06
-1.038607859e-05
-3.095447648e-05
1.55296014e-05
-1.773853429e-05
-2.565740441e-05
1.087857164e-05
-2.334371463e-05
-2.148564501e-05
7.72171074e-06
-2.802929974e-05
-1.874757719e-05
5.707047884e-06
-3.272160747e-05
-1.653871671e-05
4.696287212e-06
-3.850187713e-05
-1.483686233e-05
5.093788348e-06
-4.668215937e-05
-1.331425906e-05
7.209099319e-06
-5.829553474e-05
-1.144902258e-05
1.041272685e-05
-7.281899499e-05
-9.49414702e-06
1.270858105e-05
-8.770397581e-05
-8.606372615e-06
1.202205468e-05
-9.990060049e-05
-9.593196526e-06
8.228988364e-06
-0.0001075727108
-1.207883147e-05
2.784483327e-06
-0.0001103167093
-1.578902989e-05
-2.42291034e-06
-0.0001080041519
-2.122906878e-05
-6.305897246e-06
-9.949123541e-05
-2.85531121e-05
-9.295236508e-06
-8.447749896e-05
-3.356983805e-05
-1.253636914e-05
-7.248869715e-05
-2.15682858e-05
-1.742190609e-05
-5.894787694e-05
-1.674773712e-05
-1.98845394e-05
-4.647450631e-05
-1.166331022e-05
-1.939114897e-05
-3.705570504e-05
-9.158755035e-06
-1.500452965e-05
-3.027062072e-05
-8.863373856e-06
-9.010990377e-06
3.662004937e-06
-4.900268737e-05
-9.622569427e-06
1.892901579e-06
9.154819843e-06
1.930552107e-06
-8.093658683e-06
2.212538988e-05
5.827357007e-06
-1.985045662e-05
2.543076647e-05
7.402710258e-07
2.571662996e-05
-5.992151417e-06
-8.020953296e-06
-3.838428176e-05
1.545050561e-05
-1.51301401e-05
-3.095332567e-05
1.240485173e-05
-2.099183682e-05
-2.501137892e-05
9.387184108e-06
-2.621117672e-05
-2.095382543e-05
7.425356244e-06
-3.113926413e-05
-1.759639095e-05
5.985547445e-06
-3.61142673e-05
-1.500147727e-05
5.13942297e-06
-4.211907664e-05
-1.300804442e-05
5.698419512e-06
-5.099957079e-05
-1.081493331e-05
8.246254139e-06
-6.404271398e-05
-7.97442875e-06
1.152331018e-05
-7.968891481e-05
-5.259769921e-06
1.229952251e-05
-9.391649462e-05
-4.295809551e-06
8.930140004e-06
-0.0001037582864
-5.630550337e-06
3.393470937e-06
-0.0001086080195
-9.386093889e-06
-1.55322839e-06
-0.0001076409042
-1.797797887e-05
-4.218205119e-06
-9.652091144e-05
-3.432774754e-05
-5.345279167e-06
-7.33767433e-05
-4.877635103e-05
-7.937400761e-06
-6.449575071e-05
-1.477378163e-05
-1.567535338e-05
-5.325061856e-05
-8.807437018e-06
-1.918525928e-05
-4.651884897e-05
6.276991332e-07
-1.902272663e-05
-5.156271289e-05
9.559721654e-06
-1.367490924e-05
-5.86205054e-05
1.846179944e-05
-2.026672096e-05
4.087202224e-05
2.730557371e-05
-0.0001757944177
2.517278474e-05
2.959347202e-05
-4.736796021e-06
7.887464318e-08
3.784208152e-05
9.38080596e-06
-1.373245551e-05
3.642370609e-05
2.817459083e-06
3.759056682e-05
-3.564093861e-06
-4.909830452e-06
-4.651038284e-05
1.303564863e-05
-1.177045735e-05
-3.806743995e-05
1.397445071e-05
-1.814177772e-05
-3.03749796e-05
1.173463998e-05
-2.44022156e-05
-2.4594117e-05
9.900469064e-06
-3.04227522e-05
-1.982627353e-05
8.250184223e-06
-3.557004492e-05
-1.59877735e-05
6.13337987e-06
-3.985201099e-05
-1.317878852e-05
4.45252437e-06
-4.505683729e-05
-1.065280077e-05
5.042528813e-06
-5.397039495e-05
-7.56549168e-06
8.504481967e-06
-6.81546998e-05
-3.427864002e-06
1.235229865e-05
-8.494388415e-05
1.756059587e-07
1.231768478e-05
-9.95130733e-05
3.752987821e-07
8.563267484e-06
-0.0001095626854
-4.500393215e-06
5.163863509e-06
-0.0001117389809
-2.01122322e-05
4.31048715e-06
-9.547824225e-05
-5.236590618e-05
1.777283642e-06
-5.974692442e-05
-7.567516123e-05
-8.832442519e-06
-5.423365692e-05
-9.747708928e-06
-1.053936687e-05
-4.82346748e-05
-3.442316308e-08
-1.477172399e-05
-4.842905101e-05
1.743762265e-05
-1.661519002e-05
-5.526437709e-05
3.067665224e-05
-1.428098553e-05
-4.778216679e-05
4.399933206e-05
-3.301884714e-05
2.833474125e-05
6.891262776e-05
-0.0001177201464
3.40004414e-05
5.562885582e-05
-3.169980816e-05
1.1781261e-05
5.406098107e-05
6.001628724e-06
-5.388274717e-06
4.878804115e-05
4.805514068e-06
4.797288703e-05
-3.968533677e-07
-6.949594143e-07
-5.264367833e-05
6.827932023e-06
-6.614244253e-06
-4.563861237e-05
1.349013254e-05
-1.367815573e-05
-3.73179071e-05
1.400652067e-05
-2.111201743e-05
-2.963192887e-05
1.247138113e-05
-2.842137464e-05
-2.296598025e-05
1.044880783e-05
-3.447634059e-05
-1.729417543e-05
7.36114738e-06
-3.837657715e-05
-1.294872731e-05
3.669984038e-06
-4.13866654e-05
-9.271615243e-06
1.628733958e-06
-4.64128737e-05
-5.953755025e-06
3.414325918e-06
-5.728453407e-05
-1.520738966e-06
8.964428528e-06
-7.526367509e-05
3.961452531e-06
1.419325698e-05
-9.66055249e-05
7.12513977e-06
1.45920025e-05
-0.0001173221018
4.393637718e-06
1.182245583e-05
-0.0001301091353
-1.140117831e-05
4.075520063e-06
-0.0001086526691
-5.126400478e-05
-2.255917227e-05
-3.407774448e-05
-7.976933077e-05
-7.047960755e-05
-1.788743744e-05
-1.969449955e-05
-6.243787655e-06
-2.927665231e-05
1.490124801e-05
-3.546240485e-06
-2.866916702e-05
2.61827089e-05
-9.352529991e-06
-2.613593312e-05
3.460237354e-05
-6.458995603e-06
-1.797408399e-05
3.746229527e-05
-1.624664668e-06
1.030726612e-05
4.462116401e-05
-3.988904789e-06
1.12552727e-05
4.940589009e-05
5.275321707e-06
1.114368145e-06
5.059044966e-05
1.361168978e-05
-5.461218811e-06
4.847108336e-05
6.892653112e-06
5.150130454e-05
2.357566287e-06
4.460325503e-06
-5.527490791e-05
-1.82948965e-06
1.285078576e-06
-5.120449802e-05
8.740758858e-06
-5.827897212e-06
-4.439964798e-05
1.419435797e-05
-1.430515056e-05
-3.61077642e-05
1.495275776e-05
-2.261925658e-05
-2.769337488e-05
1.304121851e-05
-2.986837007e-05
-1.999184678e-05
9.946552642e-06
-3.495367891e-05
-1.305129648e-05
5.18768399e-06
-3.803314487e-05
-6.297063388e-06
1.047411565e-07
-4.081821313e-05
-1.996773067e-06
-1.172056088e-06
-4.895978276e-05
3.220870773e-06
3.399819222e-06
-6.98380522e-05
1.100646916e-05
1.383317445e-05
-0.0001063741435
2.059639743e-05
2.306490011e-05
-0.0001474369548
2.834751535e-05
1.710887218e-05
-0.0001677896791
3.117197487e-05
-2.222141899e-05
-0.0001324300226
2.896167111e-05
-0.0001155840476
-2.979410218e-06
7.611844131e-06
-0.0002168222654
3.643520761e-05
-9.722837525e-06
-4.938615316e-05
-1.201189426e-05
5.192193917e-05
1.142687382e-05
-2.602802834e-05
3.783808218e-05
2.360710335e-06
-3.164013462e-05
3.64407187e-05
3.773876147e-06
-2.362660364e-05
2.127329003e-05
8.175764757e-06
5.802704731e-06
4.334420187e-06
1.085809182e-05
1.038327044e-05
3.128510357e-05
1.354041414e-05
1.754501741e-06
4.382273213e-05
1.539650269e-05
-1.620158385e-06
4.704931175e-05
4.796413715e-06
5.196052191e-05
3.773660323e-06
9.619449032e-06
-5.468910371e-05
-1.020576056e-05
1.00342378e-05
-5.336837426e-05
1.748614447e-06
4.783824325e-06
-4.933489846e-05
1.018523861e-05
-4.231603113e-06
-4.289116518e-05
1.579844757e-05
-1.314728336e-05
-3.475066488e-05
1.597265298e-05
-2.001297756e-05
-2.745790555e-05
1.433150938e-05
-2.583234412e-05
-1.888783613e-05
1.165572196e-05
-3.163248327e-05
-5.922506345e-06
5.425444633e-06
-3.496010637e-05
1.274378261e-06
5.639939881e-08
-3.923190073e-05
6.872774823e-06
6.19767362e-07
-4.986425195e-05
1.312312513e-05
8.51556698e-06
-7.082444612e-05
2.245903471e-05
1.909744089e-05
-9.799633805e-05
3.46912354e-05
2.082790436e-05
-0.0001185569062
5.125823396e-05
4.730488615e-07
-0.0001115457768
7.282942433e-05
-5.087991557e-05
-6.536248621e-05
8.119293638e-05
-0.0001197639488
-1.118630515e-05
5.150664857e-05
-0.0001154046564
-1.645120542e-05
6.02759282e-05
-3.089292217e-06
-3.969928472e-05
4.821547976e-05
1.287062315e-05
-4.205684252e-05
3.089983454e-05
7.89840171e-06
-2.874359547e-05
1.092605325e-05
-2.965995401e-06
1.861344333e-06
-4.450624749e-06
-2.181980071e-05
1.528047397e-05
1.852220105e-05
-6.562075708e-07
9.388663684e-06
3.606799811e-05
1.364644963e-05
3.639536605e-06
4.540029018e-05
7.398018923e-06
4.983859723e-05
6.263524624e-06
1.303742886e-05
-5.135564617e-05
-1.637157837e-05
1.600779817e-05
-5.269181961e-05
-3.647581187e-06
1.296186825e-05
-5.178466254e-05
5.495114168e-06
4.294041633e-06
-4.804741678e-05
1.382359851e-05
-5.743434607e-06
-4.250991749e-05
1.779635683e-05
-9.607219768e-06
-3.940082821e-05
1.580644679e-05
-1.09630353e-05
-3.248579534e-05
1.495359704e-05
-1.790941098e-05
-1.343950135e-05
1.446324099e-05
-2.445908948e-05
-3.039508081e-06
1.086346314e-05
-2.979416742e-05
4.74590355e-06
7.461831792e-06
-3.666234906e-05
9.111050684e-06
1.088011369e-05
-4.906572418e-05
1.521446865e-05
1.96477833e-05
-6.711354185e-05
2.584711263e-05
2.689177775e-05
-8.277420291e-05
4.086500414e-05
2.605365044e-05
-8.26909018e-05
6.057344719e-05
1.217237283e-05
-6.333943435e-05
7.671942089e-05
-1.487836806e-05
-5.274553185e-05
6.567123283e-05
-2.475877773e-05
-5.990170205e-05
5.42453773e-05
1.318652558e-05
-6.891691331e-05
4.786244248e-05
9.36811408e-06
-6.192540368e-05
3.446958661e-05
-1.056133764e-05
-3.309953758e-05
2.331330678e-05
-4.121303228e-05
1.074862162e-05
1.614553936e-05
-6.444405557e-05
3.349752515e-05
2.563890873e-05
-2.986556735e-05
2.885658882e-05
3.824995524e-05
2.458878642e-06
1.449322212e-05
4.695345001e-05
1.281006161e-05
4.708783597e-05
1.230109728e-05
1.357508238e-05
-4.611884999e-05
-1.88129124e-05
1.705658065e-05
-5.026876767e-05
-5.905559465e-06
1.361761821e-05
-5.293882555e-05
4.592202893e-06
4.28958063e-06
-5.165776468e-05
1.293764153e-05
-6.287538238e-06
-4.997433351e-05
1.804103631e-05
-8.461584647e-06
-5.095806498e-05
1.373099379e-05
-4.063621856e-06
-4.594037822e-05
9.056465173e-06
-5.543739048e-06
-2.494899918e-05
1.29895125e-05
-1.244533132e-05
-1.32278118e-05
1.708981143e-05
-1.961036989e-05
-4.623351703e-06
1.653420566e-05
-2.622997151e-05
-7.277253217e-07
1.645826722e-05
-3.572958678e-05
4.457515775e-06
2.025643944e-05
-4.88828943e-05
1.425749109e-05
2.47428048e-05
-6.152016922e-05
2.732675536e-05
2.617541564e-05
-6.660919851e-05
4.100702803e-05
2.46553466e-05
-6.181681438e-05
5.298948226e-05
1.893738648e-05
-6.171454915e-05
5.113586809e-05
1.443294154e-05
-6.87075521e-05
4.031655615e-05
2.092167086e-05
-7.069927627e-05
3.61575043e-05
1.369650948e-05
-6.131849694e-05
2.873596785e-05
-3.647307606e-06
-3.254602657e-05
2.358634751e-05
-2.904559882e-05
9.938457161e-06
1.985308937e-05
-4.619201659e-05
2.841396752e-05
2.627759917e-05
-1.91143039e-05
2.166197091e-05
3.554487191e-05
9.456915673e-06
8.856241592e-06
4.041682675e-05