/*--------------------------------*- C++ -*----------------------------------*\
  =========                 |
  \\      /  F ield         | OpenFOAM: The Open Source CFD Toolbox
   \\    /   O peration     | Website:  https://openfoam.org
    \\  /    A nd           | Version:  8
     \\/     M anipulation  |
\*---------------------------------------------------------------------------*/
FoamFile
{
    version     2.0;
    format      ascii;
    class       volScalarField;
    location    "1.3/wallFilmRegion";
    object      alpha;
}
// * * * * * * * * * * * * * * * * * * * * * * * * * * * * * * * * * * * * * //

dimensions      [0 0 0 0 0 0 0];

internalField   nonuniform List<scalar> 
1369
(
9.201033663
7.913654409
7.733944778
7.225532363
5.308952945
4.143984236
4.126012596
4.87154961
6.09755131
8.590970601
6.003762995
3.706297513
3.244724185
3.548202735
3.669010486
3.455575792
2.803322269
1.84934204
1.006168916
0.4186816593
0.2242939645
0.1153690113
0.1267726313
0.2773504905
0.7536672598
1.831930352
3.502050887
5.238154935
4.687945853
4.800281245
4.331974783
4.691309047
3.659309743
1.481212073
1.293181351
2.024728652
1.695162585
2.651661484
3.093825339
3.131407453
3.274420882
3.384159787
2.990780742
2.625070519
2.454641309
2.538623315
2.931235866
3.612569938
4.464628989
5.540156406
7.60457509
10.98466254
10.73189901
10.18976735
9.880738148
9.667941506
9.328985884
8.480373247
7.78890176
8.449803433
9.071693311
5.672326693
2.997387271
1.339848881
0.5797018359
0.1219678095
0.1096879772
0.1961481783
0.3036953949
1.70194024
1.466055281
0.5456527276
0.3767946537
0.4087563634
0.3953012533
0.3491301191
0.2765745643
0.1851576891
0.1381883892
0.08765185001
0.1166235027
0.04835064476
0.02631218312
0.0460767913
0.07368227588
0.0860337885
0.1098104338
0.2340517405
0.5660340713
0.8772741969
0.7559028495
0.5119078387
0.5962396526
0.3236908759
0.2415024834
0.2129977377
0.1281498774
0.05445132883
0.1117726167
0.1387738248
0.1531527515
0.3158347733
0.1611670596
0.133954502
0.1640955706
0.20888415
0.2366145085
0.2392552615
0.2307476855
0.2651928598
0.5964400299
3.390602128
1.706458001
1.530574671
1.436740901
1.856974065
3.380330209
4.104801689
5.596437296
7.974266104
10.13361325
5.481912542
4.68285887
3.434084918
2.297076218
1.514203796
1.605198499
2.096731099
2.724420288
4.481300569
2.4590329
0.5498257057
0.3218293139
0.2485180346
0.1895156825
0.1612650316
0.1679206344
0.2134279328
0.1011192896
0.07745480852
0.1017918638
0.09252131651
0.04768097707
0.08676340835
0.09486617927
0.06553845094
0.06089866596
0.1216888934
0.2715617251
0.3197746985
0.3184958512
0.3130463237
0.4178093879
0.2595433426
0.1821290454
0.1282779886
0.09645937749
0.1055887441
0.1357527465
0.1110724092
0.07034385553
0.2970483942
0.05405026532
0.04475212919
0.05499323974
0.06508509364
0.06641030039
0.05988857394
0.05300130033
0.07416647565
0.523956096
6.910539105
5.463884034
3.918711078
4.88745837
4.31942006
5.000395406
5.272681955
5.761148638
9.485907084
8.654978706
3.27656838
4.175100419
3.931680797
3.346737145
2.862143467
2.799694107
3.028601631
2.881844148
3.975265069
1.973048838
0.1631667863
0.07346322303
0.05580706182
0.04320986624
0.03430050661
0.02496317707
0.03178289113
0.04118998147
0.04583041902
0.09150578985
0.1488142246
0.1304808752
0.1891838377
0.1218750732
0.0539659924
0.04131664502
0.04677825448
0.04805874825
0.04776727415
0.04173407833
0.0488641975
0.1339099396
0.03132534575
0.01495567795
0.008493754319
0.01194835538
0.1151604782
0.1632277667
0.1483961223
0.09511320505
0.2531811154
0.03633830037
0.01371855818
0.01501867625
0.01646511543
0.01721894114
0.01748145404
0.01831007471
0.03044775697
0.09748487457
4.382049654
4.396295141
4.526713073
4.878077277
4.510832152
4.398626357
4.021424035
3.343186778
9.073404835
8.172926616
1.737260929
3.424470006
3.872895754
3.635087793
3.503089918
3.650530146
3.95660733
4.154925087
5.313480481
1.459163909
0.1120598288
0.05502089593
0.03486822469
0.02224705043
0.01795726215
0.01671557793
0.0223403138
0.02486864901
0.03566461943
0.3514516994
2.148354611
0.7143961112
0.3202800557
0.1137447089
0.04269570687
0.03478981042
0.03469684922
0.029178503
0.03228945697
0.03386351856
0.04695709149
0.1771593334
0.04355761849
0.01527148344
0.001544394799
0.0002438428823
0.1536752956
0.250422637
0.2068634596
0.07027209312
0.1932874902
0.03756848257
0.01024625382
0.009804614967
0.01001317367
0.01057677416
0.01144101523
0.01387040936
0.0339452491
0.1224378535
3.942630879
6.134174624
5.874765002
5.426232813
4.668294427
4.366617883
3.870164837
2.554641
9.866605083
7.577372768
1.073938461
1.863583306
2.63127522
3.101052515
3.63496859
4.200912355
4.972032788
5.295044118
5.140696803
0.2339140425
0.1070341213
0.06960594185
0.03808313265
0.01398642535
0.01103486881
0.01506751331
0.02269907845
0.0266113723
0.05454552257
0.176659869
0.4707065103
0.736621939
0.131745807
0.05555633336
0.0303056962
0.02830854489
0.02789874751
0.02323284675
0.02598281115
0.0283235244
0.03759610347
0.180776558
0.1404655857
0.05226617001
0.005929210825
0.0007413326199
0.1792500659
0.3013630693
0.2587479384
0.2846235789
0.143083322
0.041496943
0.0138850075
0.01091076709
0.009742101181
0.009486646447
0.009804121076
0.01326579016
0.05639854267
0.178668966
0.2864936506
4.82952742
5.866342225
5.507577588
5.285619542
4.318637262
3.422925344
1.747882114
10.41497294
7.140579923
0.8753623227
1.962765536
1.886398718
2.918712349
4.077936879
4.397766236
5.069463109
6.532656248
0.3924216929
0.1563643048
0.1192278376
0.09506329786
0.06486695927
0.01640169754
0.01023834953
0.0135613886
0.02595575027
0.0421026762
0.08085835086
0.1549173656
0.267190126
0.33268213
0.1132062833
0.03556967627
0.02017238827
0.01994278785
0.01941528499
0.01650258227
0.01878389663
0.02107013864
0.02488184257
0.06164321808
0.1016084724
0.09815856364
0.01921564695
0.002136029878
0.1628361332
0.271017868
0.3236624582
0.8567650844
0.05952622243
0.03990022786
0.02042908668
0.01370692243
0.01029813536
0.008826030016
0.008409742299
0.01325838411
0.1251801417
0.2640953396
0.1551515046
1.379278006
6.902322864
6.875976844
5.292644694
3.490461071
3.325462288
1.826003257
11.71815219
6.785149892
1.189493454
2.787966834
1.41685598
3.05600533
4.48784475
5.542353967
5.577826982
1.616328585
0.1692482341
0.1299144429
0.1237211728
0.1182595323
0.1447638311
0.1678723041
0.07903742353
0.03842784501
0.03913955308
0.06358687269
0.09252259295
0.1324974447
0.1825629146
0.2177320034
0.1546378949
0.03185708079
0.01094923563
0.01070450891
0.01035870822
0.008755485006
0.01020526903
0.0122546179
0.01460384124
0.02146576693
0.05090984398
0.1900299653
0.09777791568
0.004794562975
0.1276140895
0.1539754128
0.07511447915
0.0551131138
0.03076870499
0.03081800483
0.02553024006
0.01654944918
0.01071004916
0.008032231792
0.007045026604
0.01346176336
0.2734927987
0.2537132475
0.0268180825
0.03675213536
0.8018520752
5.973153266
8.330332065
6.278140589
6.155552285
3.885653086
13.67774503
6.920131583
2.597216066
4.45085603
3.944248756
4.865307752
5.342344254
3.90666825
1.127722667
0.1245202604
0.09255248612
0.106508956
0.09606460697
0.07922676716
0.09124885381
0.1585770453
0.2169318921
0.1270567851
0.06270003344
0.08228372825
0.09850611092
0.1227351759
0.1563149253
0.1779127394
0.1780276811
0.06016295197
0.003826542074
0.003290579662
0.003201795889
0.002614421171
0.003300633065
0.005333596046
0.007001814176
0.009838032962
0.03123539425
0.5612629832
0.8160273092
0.1390039184
0.1669058499
0.1197919134
0.03196473605
0.01829688416
0.01539693589
0.01889771977
0.0256457254
0.01838237008
0.01079039888
0.007150010119
0.005851546588
0.01414263957
0.4089335059
0.2001882909
0.02307336321
0.01898909495
0.05911564044
0.1448353908
0.7717987655
0.6300380429
1.054268038
1.81774717
12.66590951
6.025102036
0.8811164078
0.4617831344
0.3408530682
0.7041982228
0.7574254439
0.08184216733
0.06031699463
0.05169212526
0.06635249797
0.07561157052
0.06709661473
0.04536083304
0.02986062156
0.02873087752
0.04439657075
0.06944800112
0.08094213229
0.09031789995
0.09920205535
0.1162193057
0.1425108267
0.1576224973
0.1359032783
0.1937014694
0.002159775035
0.002631679016
0.003625773552
0.0008895677462
0.0007910477811
0.005353672195
0.005613148774
0.005923098647
0.02967591033
0.2089667537
0.1880159333
0.1164079429
0.2367176556
0.1339258893
0.02178151359
0.008461553716
0.006879153994
0.009271653729
0.02246699046
0.01942773513
0.01074527723
0.006369393054
0.004954570559
0.01792612057
0.4426427579
0.1807621561
0.02903600042
0.02652794416
0.04267842889
0.08214589819
0.1326434128
0.1603156298
0.2318092223
0.4628175363
9.407338002
5.343483268
0.3329918209
0.0863399957
0.03771191084
0.03633745926
0.03341452122
0.02834313678
0.0290968417
0.03618927744
0.04450312877
0.05007775523
0.04581007533
0.03067005318
0.01741740637
0.01587475853
0.02941208945
0.05306851694
0.06745971548
0.07242508164
0.07676866232
0.08484198606
0.1020456722
0.1144016902
0.07622139272
0.176573712
0.1665473783
0.06105579017
0.01699885112
0.003475254526
0.007654419364
0.05973910943
0.01203827756
0.01104672344
0.0547817454
0.2583594206
0.2392266654
0.1702692451
0.2217332425
0.1438555079
0.01694378996
0.004718303158
0.003133909032
0.003917078402
0.0214027771
0.02376417531
0.01247602822
0.006516354552
0.004617320598
0.03722908822
0.4052060297
0.2085927425
0.04693327153
0.03885123926
0.04482759889
0.05737146153
0.07405153054
0.09222429154
0.1453676598
0.2971442673
8.024394524
5.158597914
0.1978852759
0.04090208444
0.01808580101
0.01785758783
0.01879993934
0.02044675341
0.02261302344
0.02545489351
0.02897234131
0.03149631765
0.02896604014
0.01994571604
0.01110179734
0.007994224949
0.00863850559
0.01083898295
0.01449072878
0.02111575257
0.02480147741
0.03091292787
0.05670485211
0.07434865153
0.04070961883
0.05935894879
0.01730591228
0.02427276628
0.02589611477
0.005866485681
0.06657715514
0.09593408887
0.0173329048
0.03071180252
0.1799796662
0.3474638698
0.2233143531
0.1623997052
0.1825812669
0.1084290843
0.01121110124
0.002886057641
0.00145632772
0.001512540313
0.03059083687
0.05690128385
0.04394881126
0.02934989734
0.01914459956
0.1484983279
0.3885820163
0.2675621212
0.09053716083
0.05615616177
0.04545879717
0.04366033326
0.04875768458
0.0598598499
0.1063980296
0.2376774536
7.270828639
0.01897994745
0.01876830533
0.01890408883
0.01893014204
0.01695690094
0.01194809162
0.00691597363
0.005012001986
0.005690314816
0.00849084434
0.01532953639
0.033960772
0.06947917315
0.08510036035
0.1330590745
0.1565530354
0.07756728725
0.05752158426
0.008446255868
0.02197871433
0.0430952149
0.01617626577
0.07211327713
0.04900775735
0.07866645298
0.2783322233
0.5176184456
0.2911160023
0.1697836407
0.1195005678
0.1337333768
0.04395690228
0.005003385006
0.001363290114
0.0005260852501
0.000512672672
0.07515861977
0.3430771003
0.5986475989
0.6896444381
0.6648808276
0.5184610941
0.4390639182
0.2838058093
0.1276756381
0.07487674247
0.05195873448
0.03436628805
0.0280644227
0.03422900788
0.08234755276
0.2088128124
6.644571696
0.009589524307
0.006985151544
0.0044046298
0.003226602773
0.003474352792
0.005268658105
0.01167519099
0.03917410779
0.2919809983
0.5459729411
0.4365928197
0.3692805337
0.1040860925
0.0485098245
0.005443529598
0.02105205562
0.1447397068
0.3695142332
0.4590917705
0.3718355128
0.4167233866
0.5995155869
0.4955342742
0.263597743
0.1236685986
0.08462715535
0.06692552834
0.008866565318
0.001366293887
0.0003998366596
0.0001338750625
0.0001742393932
0.001233980262
0.003910860234
0.009386640124
0.01889983242
0.03487129957
0.07951915085
0.1409941524
0.1124883079
0.07003274131
0.06800429159
0.08673471197
0.09157622002
0.09519404103
0.1035806506
0.1783659065
0.3013474193
6.287216438
0.00326762834
0.002607302665
0.00247579732
0.002468458243
0.002739330035
0.007282898115
0.03440810759
0.591860769
1.441161105
3.637016485
0.4631711033
0.09162734275
0.02000651461
0.1961268237
1.229887312
2.216675947
1.519429772
1.066494492
0.8552223228
0.7746675241
0.4799284716
0.1657363567
0.05381520255
0.03330823432
0.01753287815
0.001268563601
0.0002724691655
9.616119968e-05
3.437412258e-05
6.469227071e-05
0.0001316389085
0.0002803403839
0.0006099830797
0.001296975273
0.004415409475
0.05637855127
0.1115467085
0.04218161263
0.01986819454
0.03325617124
0.1172128744
0.268720939
0.4003149583
0.4619052079
0.476732015
0.516976808
6.152486804
0.0009465209297
0.002100223648
2.17972514e-07
0.000184311871
0.09533183137
0.6916097818
2.054139293
1.949877042
1.144422154
1.086440984
2.329032784
1.930419391
1.704407819
1.481518441
1.130969
0.7851604774
0.3183277531
0.05446235854
0.0130373211
0.005957652899
0.002842169848
0.00102114849
9.162836073e-05
2.923274933e-05
1.256035821e-05
3.030700353e-05
6.556286991e-05
0.0001425072739
0.0003171560364
0.0006981015228
0.003444297091
0.1236696961
0.1068191584
0.006329755832
0.003778079091
0.006304568095
0.01106969177
0.01954101021
0.03288387412
0.05112802807
0.09393812327
0.2263888295
5.785848658
0.0007086774019
0.001727747208
0.176640865
0.8137466408
1.441323168
1.988268529
0.9710626428
1.008659633
1.449370781
1.545671944
1.679746758
1.664556484
1.328193319
0.5978629103
0.1416316435
0.03687524456
0.01498594273
0.006743602018
0.003729209351
0.001856672618
4.766101627e-05
1.277531272e-05
6.91569655e-06
1.722651499e-05
3.750701563e-05
8.718117786e-05
0.0002185549922
0.0005578390645
0.00381224184
0.1669764047
0.04632224205
0.00406827609
0.003459816706
0.00904689887
0.005039848825
0.005140068048
0.005972611422
0.007941350263
0.01962365933
0.09731870355
5.621732006
1.029945866
1.61946027
0.9521059823
0.3440021509
0.920645418
1.418308756
1.433298206
1.415274261
1.187574546
0.6258142959
0.2097392833
0.09387931584
0.0352911458
0.01115154853
0.006574916454
0.004127806112
4.030676328e-05
7.390191967e-06
4.9974587e-06
1.042833174e-05
2.190340068e-05
5.847723488e-05
0.0001792908696
0.0005484696638
0.003810279116
0.06782787
0.02342386999
0.009077014085
0.008679397005
0.06478671419
0.01153718517
0.005058307755
0.003609772461
0.003018868244
0.00705331155
0.08562656744
5.812376081
0.6744366328
0.09271290752
0.4902850459
0.9873892834
0.9156064871
1.105785892
1.093479161
0.7795693313
0.4984350652
0.3239994478
0.1275378215
0.02110648347
0.01120181042
0.01107882534
4.90356339e-05
4.523015269e-06
3.647717219e-06
5.1790257e-06
1.12507638e-05
4.339445287e-05
0.0001788384029
0.0006714957012
0.002250483782
0.005420057001
0.01486450044
0.02824741258
0.03123393159
0.3066166211
0.06487795283
0.02030867255
0.01527955503
0.01393188181
0.02508604977
0.1628823026
6.559783422
0.04071673689
0.1792385271
0.323674158
0.2515448711
0.555645247
0.7867636981
0.7854952235
0.859740372
0.7535389608
0.3817488615
0.05689950245
0.02696870894
0.03641603053
5.145740309e-05
2.22239011e-06
5.631085283e-06
1.226856334e-05
3.360813305e-05
0.0001189926483
0.0005008531584
0.002178880586
0.008685906019
0.03030789735
0.08945480108
0.2055930661
0.3274956519
0.9191323905
0.4074548399
0.297939437
0.3013533957
0.3736056788
0.6485833738
1.584300078
7.830068871
0.0354564334
0.07182116276
0.1854805688
0.0950261378
0.06903763631
0.05700996573
0.06411648214
0.5438087999
1.007996448
0.6434319081
0.1583092005
0.6716042005
0.1304605039
4.73717007e-05
1.135008465e-06
1.066285017e-05
3.73094581e-05
0.0001202545277
0.0004006150533
0.001393106683
0.004506172755
0.01202971079
0.02724206808
0.06354923647
0.2359876288
0.5777715222
2.215204852
1.227126645
0.9007240619
0.832116511
0.8205513918
0.9358616193
0.9678869182
5.675495182
0.08772951669
0.1444574226
0.2120534855
0.2378297111
0.2259092887
0.2769651043
0.2311567748
0.5231942861
1.0029092
0.06296123926
0.02406996102
0.3121069875
5.386290366e-05
9.494361136e-07
2.12463418e-05
0.0001010940312
0.0003713539257
0.001246414793
0.003669258389
0.008883230955
0.0200106002
0.04554041408
0.1105576076
0.1730128255
0.2078219668
0.8106659353
0.3670069209
0.3492159069
0.3316013364
0.2963158506
0.327890976
0.3912499387
4.500108873
0.130509607
0.476555385
0.4365360693
0.08584115853
0.07011145857
0.09951888111
0.1572235717
0.8214964547
1.047239137
0.1308311915
0.05170111792
0.3806790324
6.121411378e-05
8.314031484e-07
6.557663114e-05
0.0003432084948
0.001261669898
0.003946540382
0.01153371479
0.03777179363
0.1313596676
0.3156953307
0.3910891557
0.3680626988
0.3182732469
0.4561119844
0.2556151703
0.2037344707
0.1495484271
0.22541492
0.1821555534
0.3072351203
3.883984089
0.4250526802
0.5928052608
0.2867836585
0.0263143288
0.02451975155
0.1070989151
0.3146389509
0.859430193
0.4091408734
0.1968022215
0.1023748356
0.2702377491
6.252042303e-05
8.586629889e-07
0.000720669244
0.003191869036
0.008629919862
0.02173778483
0.07765118069
0.3053683425
0.4881797064
0.4629874483
0.3935385
0.3324520446
0.2740252262
0.2311756
0.1582126874
0.1077241055
0.06299085316
0.3034792309
0.2220359911
0.2672057135
3.509284135
0.7286957464
0.3891855808
0.2059016778
0.1196632317
0.03252152672
0.1990741032
0.5312006241
0.7258316293
0.3406238028
0.3251431819
0.2160640298
6.333669833e-05
1.390006368e-06
0.0001791031257
0.002493637294
0.03022652658
0.1552672379
0.400373056
0.4341059632
0.3482148861
0.2732847906
0.234615608
0.2202130744
0.2030956757
0.1645780309
0.1204021534
0.07798528752
0.04599614581
0.4940974202
0.3744030789
0.2873627993
3.431423411
0.2748366761
0.5503055717
0.765788042
0.5375176731
0.2032196795
0.283611524
0.7866924713
0.3199633983
0.4346891289
0.4263599617
0.0001694522937
2.411624385e-05
4.602128781e-05
0.000369678686
0.09772178698
0.294058962
0.3659312906
0.3116107737
0.2084219118
0.139077796
0.1178496785
0.129144183
0.1527214105
0.1627553203
0.1777975331
0.1832874931
0.2244533922
1.072371921
0.7527086707
0.5720969882
3.532690354
0.5045967226
0.4521999381
0.3781354633
0.6875316998
0.6190556007
0.6226905193
0.9158480658
0.7478700735
0.503487647
1.54441606
0.5137647942
0.01094613963
0.002573463843
0.06820180499
0.2418292297
0.318648411
0.2880624394
0.181430203
0.09371684293
0.05627407461
0.0506383883
0.06644771321
0.1009407825
0.1397005736
0.1554624397
0.1376012369
0.09311988437
0.4566183135
0.3183819862
0.1135773908
2.765226948
0.6057175041
0.3431812573
0.1198353259
0.3084507987
0.6230498287
1.216823329
1.296959233
0.9953555472
0.5053133523
0.6725700466
0.2887776286
0.03691452367
0.02342778939
0.1006150165
0.1913320425
0.1736308138
0.1021249845
0.05074164324
0.02779190011
0.02044376479
0.02234546903
0.03325910306
0.05645972535
0.09202230172
0.1271136742
0.138410574
0.1152120968
0.3148026409
0.1883223209
0.05278123747
2.12476172
0.6808215464
0.7553148738
0.7879304249
0.8478832555
0.449910307
0.06437092719
0.05122135342
0.6395248083
0.4382646457
0.1268091701
0.04152604176
0.0184308494
0.01003492517
0.007371199254
0.008008361363
0.01132302255
0.01797401718
0.02991193578
0.04936691411
0.07580713323
0.1002128919
0.1056930411
0.1883014133
0.1057861883
0.04915566434
1.589652434
0.370059474
0.6695004796
1.366253541
1.246126679
0.2050871915
0.1160336348
0.2397091744
0.00108368417
0.129954132
0.02682546486
0.008246513518
0.005015000801
0.003095280837
0.002889373995
0.004279163972
0.007072972007
0.01128512036
0.01748020661
0.02687873693
0.04073822122
0.05732869128
0.0712086874
0.08562226777
0.07571855785
0.05592823455
1.274628699
)
;

boundaryField
{
    walls
    {
        type            zeroGradient;
    }
    wallFilmFace_top
    {
        type            zeroGradient;
    }
    region0_to_wallFilmRegion_wallFilmFace
    {
        type            zeroGradient;
    }
    mirrorFace_top
    {
        type            zeroGradient;
    }
    region0_to_wallFilmRegion_mirrorFace
    {
        type            zeroGradient;
    }
    procBoundary0to1
    {
        type            processor;
        value           nonuniform List<scalar> 
52
(
4.931231694
0.1336552494
0.03345983624
0.01783956107
0.01820127243
0.0187989897
0.01911074669
0.01911074669
0.01653862169
0.01424117922
0.01248668278
0.01121721195
0.01121721195
0.005708919721
0.004434167053
0.004434167053
0.003021574839
0.002874472067
0.002864324918
0.002469825855
0.002469825855
0.001327468573
0.007448252158
0.007448252158
0.001674530971
0.003039803351
0.1640818816
0.5566678397
0.5566678397
0.9509304889
0.5174983738
0.5174983738
0.1450058186
0.1450058186
0.1070706342
0.05789344006
0.05789344006
0.04466638641
0.2219882275
1.000037621
1.000037621
0.4859784043
0.4859784043
0.9855727007
0.9422549063
0.6511995854
0.4136683287
0.2941149368
0.4826192656
0.5026229117
0.5026229117
0.4021766497
)
;
    }
    procBoundary0to2
    {
        type            processor;
        value           nonuniform List<scalar> 
26
(
0.5276270598
1.244447124
1.876341275
0.8602891476
0.2569197819
0.2197865915
0.3273314668
0.002808633596
0.2558588972
0.06589460965
0.01067781561
0.003169925864
0.001377146267
0.001469368829
0.002762705828
0.005018086242
0.008068498599
0.01202366449
0.01752011308
0.02554761582
0.03651926811
0.0494115629
0.06024506218
0.06613999878
0.06248674257
1.160811425
)
;
    }
}


// ************************************************************************* //
