/*--------------------------------*- C++ -*----------------------------------*\
  =========                 |
  \\      /  F ield         | OpenFOAM: The Open Source CFD Toolbox
   \\    /   O peration     | Website:  https://openfoam.org
    \\  /    A nd           | Version:  8
     \\/     M anipulation  |
\*---------------------------------------------------------------------------*/
FoamFile
{
    version     2.0;
    format      ascii;
    class       volScalarField;
    location    "1.3/wallFilmRegion";
    object      delta;
}
// * * * * * * * * * * * * * * * * * * * * * * * * * * * * * * * * * * * * * //

dimensions      [0 1 0 0 0 0 0];

internalField   nonuniform List<scalar> 
1369
(
0.009201033663
0.007913654409
0.007733944778
0.007225532363
0.005308952945
0.004143984236
0.004126012596
0.00487154961
0.00609755131
0.008590970601
0.006003762995
0.003706297513
0.003244724185
0.003548202735
0.003669010486
0.003455575792
0.002803322269
0.00184934204
0.001006168916
0.0004186816593
0.0002242939645
0.0001153690113
0.0001267726313
0.0002773504905
0.0007536672598
0.001831930352
0.003502050887
0.005238154935
0.004687945853
0.004800281245
0.004331974783
0.004691309047
0.003659309743
0.001481212073
0.001293181351
0.002024728652
0.001695162585
0.002651661484
0.003093825339
0.003131407453
0.003274420882
0.003384159787
0.002990780742
0.002625070519
0.002454641309
0.002538623315
0.002931235866
0.003612569938
0.004464628989
0.005540156406
0.00760457509
0.01098466254
0.01073189901
0.01018976735
0.009880738148
0.009667941506
0.009328985884
0.008480373247
0.00778890176
0.008449803433
0.009071693311
0.005672326693
0.002997387271
0.001339848881
0.0005797018359
0.0001219678095
0.0001096879772
0.0001961481783
0.0003036953949
0.00170194024
0.001466055281
0.0005456527276
0.0003767946537
0.0004087563634
0.0003953012533
0.0003491301191
0.0002765745643
0.0001851576891
0.0001381883892
8.765185001e-05
0.0001166235027
4.835064476e-05
2.631218312e-05
4.60767913e-05
7.368227588e-05
8.60337885e-05
0.0001098104338
0.0002340517405
0.0005660340713
0.0008772741969
0.0007559028495
0.0005119078387
0.0005962396526
0.0003236908759
0.0002415024834
0.0002129977377
0.0001281498774
5.445132883e-05
0.0001117726167
0.0001387738248
0.0001531527515
0.0003158347733
0.0001611670596
0.000133954502
0.0001640955706
0.00020888415
0.0002366145085
0.0002392552615
0.0002307476855
0.0002651928598
0.0005964400299
0.003390602128
0.001706458001
0.001530574671
0.001436740901
0.001856974065
0.003380330209
0.004104801689
0.005596437296
0.007974266104
0.01013361325
0.005481912542
0.00468285887
0.003434084918
0.002297076218
0.001514203796
0.001605198499
0.002096731099
0.002724420288
0.004481300569
0.0024590329
0.0005498257057
0.0003218293139
0.0002485180346
0.0001895156825
0.0001612650316
0.0001679206344
0.0002134279328
0.0001011192896
7.745480852e-05
0.0001017918638
9.252131651e-05
4.768097707e-05
8.676340835e-05
9.486617927e-05
6.553845094e-05
6.089866596e-05
0.0001216888934
0.0002715617251
0.0003197746985
0.0003184958512
0.0003130463237
0.0004178093879
0.0002595433426
0.0001821290454
0.0001282779886
9.645937749e-05
0.0001055887441
0.0001357527465
0.0001110724092
7.034385553e-05
0.0002970483942
5.405026532e-05
4.475212919e-05
5.499323974e-05
6.508509364e-05
6.641030039e-05
5.988857394e-05
5.300130033e-05
7.416647565e-05
0.000523956096
0.006910539105
0.005463884034
0.003918711078
0.00488745837
0.00431942006
0.005000395406
0.005272681955
0.005761148638
0.009485907084
0.008654978706
0.00327656838
0.004175100419
0.003931680797
0.003346737145
0.002862143467
0.002799694107
0.003028601631
0.002881844148
0.003975265069
0.001973048838
0.0001631667863
7.346322303e-05
5.580706182e-05
4.320986624e-05
3.430050661e-05
2.496317707e-05
3.178289113e-05
4.118998147e-05
4.583041902e-05
9.150578985e-05
0.0001488142246
0.0001304808752
0.0001891838377
0.0001218750732
5.39659924e-05
4.131664502e-05
4.677825448e-05
4.805874825e-05
4.776727415e-05
4.173407833e-05
4.88641975e-05
0.0001339099396
3.132534575e-05
1.495567795e-05
8.493754319e-06
1.194835538e-05
0.0001151604782
0.0001632277667
0.0001483961223
9.511320505e-05
0.0002531811154
3.633830037e-05
1.371855818e-05
1.501867625e-05
1.646511543e-05
1.721894114e-05
1.748145404e-05
1.831007471e-05
3.044775697e-05
9.748487457e-05
0.004382049654
0.004396295141
0.004526713073
0.004878077277
0.004510832152
0.004398626357
0.004021424035
0.003343186778
0.009073404835
0.008172926616
0.001737260929
0.003424470006
0.003872895754
0.003635087793
0.003503089918
0.003650530146
0.00395660733
0.004154925087
0.005313480481
0.001459163909
0.0001120598288
5.502089593e-05
3.486822469e-05
2.224705043e-05
1.795726215e-05
1.671557793e-05
2.23403138e-05
2.486864901e-05
3.566461943e-05
0.0003514516994
0.002148354611
0.0007143961112
0.0003202800557
0.0001137447089
4.269570687e-05
3.478981042e-05
3.469684922e-05
2.9178503e-05
3.228945697e-05
3.386351856e-05
4.695709149e-05
0.0001771593334
4.355761849e-05
1.527148344e-05
1.544394799e-06
2.438428823e-07
0.0001536752956
0.000250422637
0.0002068634596
7.027209312e-05
0.0001932874902
3.756848257e-05
1.024625382e-05
9.804614967e-06
1.001317367e-05
1.057677416e-05
1.144101523e-05
1.387040936e-05
3.39452491e-05
0.0001224378535
0.003942630879
0.006134174624
0.005874765002
0.005426232813
0.004668294427
0.004366617883
0.003870164837
0.002554641
0.009866605083
0.007577372768
0.001073938461
0.001863583306
0.00263127522
0.003101052515
0.00363496859
0.004200912355
0.004972032788
0.005295044118
0.005140696803
0.0002339140425
0.0001070341213
6.960594185e-05
3.808313265e-05
1.398642535e-05
1.103486881e-05
1.506751331e-05
2.269907845e-05
2.66113723e-05
5.454552257e-05
0.000176659869
0.0004707065103
0.000736621939
0.000131745807
5.555633336e-05
3.03056962e-05
2.830854489e-05
2.789874751e-05
2.323284675e-05
2.598281115e-05
2.83235244e-05
3.759610347e-05
0.000180776558
0.0001404655857
5.226617001e-05
5.929210825e-06
7.413326199e-07
0.0001792500659
0.0003013630693
0.0002587479384
0.0002846235789
0.000143083322
4.1496943e-05
1.38850075e-05
1.091076709e-05
9.742101181e-06
9.486646447e-06
9.804121076e-06
1.326579016e-05
5.639854267e-05
0.000178668966
0.0002864936506
0.00482952742
0.005866342225
0.005507577588
0.005285619542
0.004318637262
0.003422925344
0.001747882114
0.01041497294
0.007140579923
0.0008753623227
0.001962765536
0.001886398718
0.002918712349
0.004077936879
0.004397766236
0.005069463109
0.006532656248
0.0003924216929
0.0001563643048
0.0001192278376
9.506329786e-05
6.486695927e-05
1.640169754e-05
1.023834953e-05
1.35613886e-05
2.595575027e-05
4.21026762e-05
8.085835086e-05
0.0001549173656
0.000267190126
0.00033268213
0.0001132062833
3.556967627e-05
2.017238827e-05
1.994278785e-05
1.941528499e-05
1.650258227e-05
1.878389663e-05
2.107013864e-05
2.488184257e-05
6.164321808e-05
0.0001016084724
9.815856364e-05
1.921564695e-05
2.136029878e-06
0.0001628361332
0.000271017868
0.0003236624582
0.0008567650844
5.952622243e-05
3.990022786e-05
2.042908668e-05
1.370692243e-05
1.029813536e-05
8.826030016e-06
8.409742299e-06
1.325838411e-05
0.0001251801417
0.0002640953396
0.0001551515046
0.001379278006
0.006902322864
0.006875976844
0.005292644694
0.003490461071
0.003325462288
0.001826003257
0.01171815219
0.006785149892
0.001189493454
0.002787966834
0.00141685598
0.00305600533
0.00448784475
0.005542353967
0.005577826982
0.001616328585
0.0001692482341
0.0001299144429
0.0001237211728
0.0001182595323
0.0001447638311
0.0001678723041
7.903742353e-05
3.842784501e-05
3.913955308e-05
6.358687269e-05
9.252259295e-05
0.0001324974447
0.0001825629146
0.0002177320034
0.0001546378949
3.185708079e-05
1.094923563e-05
1.070450891e-05
1.035870822e-05
8.755485006e-06
1.020526903e-05
1.22546179e-05
1.460384124e-05
2.146576693e-05
5.090984398e-05
0.0001900299653
9.777791568e-05
4.794562975e-06
0.0001276140895
0.0001539754128
7.511447915e-05
5.51131138e-05
3.076870499e-05
3.081800483e-05
2.553024006e-05
1.654944918e-05
1.071004916e-05
8.032231792e-06
7.045026604e-06
1.346176336e-05
0.0002734927987
0.0002537132475
2.68180825e-05
3.675213536e-05
0.0008018520752
0.005973153266
0.008330332065
0.006278140589
0.006155552285
0.003885653086
0.01367774503
0.006920131583
0.002597216066
0.00445085603
0.003944248756
0.004865307752
0.005342344254
0.00390666825
0.001127722667
0.0001245202604
9.255248612e-05
0.000106508956
9.606460697e-05
7.922676716e-05
9.124885381e-05
0.0001585770453
0.0002169318921
0.0001270567851
6.270003344e-05
8.228372825e-05
9.850611092e-05
0.0001227351759
0.0001563149253
0.0001779127394
0.0001780276811
6.016295197e-05
3.826542074e-06
3.290579662e-06
3.201795889e-06
2.614421171e-06
3.300633065e-06
5.333596046e-06
7.001814176e-06
9.838032962e-06
3.123539425e-05
0.0005612629832
0.0008160273092
0.0001390039184
0.0001669058499
0.0001197919134
3.196473605e-05
1.829688416e-05
1.539693589e-05
1.889771977e-05
2.56457254e-05
1.838237008e-05
1.079039888e-05
7.150010119e-06
5.851546588e-06
1.414263957e-05
0.0004089335059
0.0002001882909
2.307336321e-05
1.898909495e-05
5.911564044e-05
0.0001448353908
0.0007717987655
0.0006300380429
0.001054268038
0.00181774717
0.01266590951
0.006025102036
0.0008811164078
0.0004617831344
0.0003408530682
0.0007041982228
0.0007574254439
8.184216733e-05
6.031699463e-05
5.169212526e-05
6.635249797e-05
7.561157052e-05
6.709661473e-05
4.536083304e-05
2.986062156e-05
2.873087752e-05
4.439657075e-05
6.944800112e-05
8.094213229e-05
9.031789995e-05
9.920205535e-05
0.0001162193057
0.0001425108267
0.0001576224973
0.0001359032783
0.0001937014694
2.159775035e-06
2.631679016e-06
3.625773552e-06
8.895677462e-07
7.910477811e-07
5.353672195e-06
5.613148774e-06
5.923098647e-06
2.967591033e-05
0.0002089667537
0.0001880159333
0.0001164079429
0.0002367176556
0.0001339258893
2.178151359e-05
8.461553716e-06
6.879153994e-06
9.271653729e-06
2.246699046e-05
1.942773513e-05
1.074527723e-05
6.369393054e-06
4.954570559e-06
1.792612057e-05
0.0004426427579
0.0001807621561
2.903600042e-05
2.652794416e-05
4.267842889e-05
8.214589819e-05
0.0001326434128
0.0001603156298
0.0002318092223
0.0004628175363
0.009407338002
0.005343483268
0.0003329918209
8.63399957e-05
3.771191084e-05
3.633745926e-05
3.341452122e-05
2.834313678e-05
2.90968417e-05
3.618927744e-05
4.450312877e-05
5.007775523e-05
4.581007533e-05
3.067005318e-05
1.741740637e-05
1.587475853e-05
2.941208945e-05
5.306851694e-05
6.745971548e-05
7.242508164e-05
7.676866232e-05
8.484198606e-05
0.0001020456722
0.0001144016902
7.622139272e-05
0.000176573712
0.0001665473783
6.105579017e-05
1.699885112e-05
3.475254526e-06
7.654419364e-06
5.973910943e-05
1.203827756e-05
1.104672344e-05
5.47817454e-05
0.0002583594206
0.0002392266654
0.0001702692451
0.0002217332425
0.0001438555079
1.694378996e-05
4.718303158e-06
3.133909032e-06
3.917078402e-06
2.14027771e-05
2.376417531e-05
1.247602822e-05
6.516354552e-06
4.617320598e-06
3.722908822e-05
0.0004052060297
0.0002085927425
4.693327153e-05
3.885123926e-05
4.482759889e-05
5.737146153e-05
7.405153054e-05
9.222429154e-05
0.0001453676598
0.0002971442673
0.008024394524
0.005158597914
0.0001978852759
4.090208444e-05
1.808580101e-05
1.785758783e-05
1.879993934e-05
2.044675341e-05
2.261302344e-05
2.545489351e-05
2.897234131e-05
3.149631765e-05
2.896604014e-05
1.994571604e-05
1.110179734e-05
7.994224949e-06
8.63850559e-06
1.083898295e-05
1.449072878e-05
2.111575257e-05
2.480147741e-05
3.091292787e-05
5.670485211e-05
7.434865153e-05
4.070961883e-05
5.935894879e-05
1.730591228e-05
2.427276628e-05
2.589611477e-05
5.866485681e-06
6.657715514e-05
9.593408887e-05
1.73329048e-05
3.071180252e-05
0.0001799796662
0.0003474638698
0.0002233143531
0.0001623997052
0.0001825812669
0.0001084290843
1.121110124e-05
2.886057641e-06
1.45632772e-06
1.512540313e-06
3.059083687e-05
5.690128385e-05
4.394881126e-05
2.934989734e-05
1.914459956e-05
0.0001484983279
0.0003885820163
0.0002675621212
9.053716083e-05
5.615616177e-05
4.545879717e-05
4.366033326e-05
4.875768458e-05
5.98598499e-05
0.0001063980296
0.0002376774536
0.007270828639
1.897994745e-05
1.876830533e-05
1.890408883e-05
1.893014204e-05
1.695690094e-05
1.194809162e-05
6.91597363e-06
5.012001986e-06
5.690314816e-06
8.49084434e-06
1.532953639e-05
3.3960772e-05
6.947917315e-05
8.510036035e-05
0.0001330590745
0.0001565530354
7.756728725e-05
5.752158426e-05
8.446255868e-06
2.197871433e-05
4.30952149e-05
1.617626577e-05
7.211327713e-05
4.900775735e-05
7.866645298e-05
0.0002783322233
0.0005176184456
0.0002911160023
0.0001697836407
0.0001195005678
0.0001337333768
4.395690228e-05
5.003385006e-06
1.363290114e-06
5.260852501e-07
5.12672672e-07
7.515861977e-05
0.0003430771003
0.0005986475989
0.0006896444381
0.0006648808276
0.0005184610941
0.0004390639182
0.0002838058093
0.0001276756381
7.487674247e-05
5.195873448e-05
3.436628805e-05
2.80644227e-05
3.422900788e-05
8.234755276e-05
0.0002088128124
0.006644571696
9.589524307e-06
6.985151544e-06
4.4046298e-06
3.226602773e-06
3.474352792e-06
5.268658105e-06
1.167519099e-05
3.917410779e-05
0.0002919809983
0.0005459729411
0.0004365928197
0.0003692805337
0.0001040860925
4.85098245e-05
5.443529598e-06
2.105205562e-05
0.0001447397068
0.0003695142332
0.0004590917705
0.0003718355128
0.0004167233866
0.0005995155869
0.0004955342742
0.000263597743
0.0001236685986
8.462715535e-05
6.692552834e-05
8.866565318e-06
1.366293887e-06
3.998366596e-07
1.338750625e-07
1.742393932e-07
1.233980262e-06
3.910860234e-06
9.386640124e-06
1.889983242e-05
3.487129957e-05
7.951915085e-05
0.0001409941524
0.0001124883079
7.003274131e-05
6.800429159e-05
8.673471197e-05
9.157622002e-05
9.519404103e-05
0.0001035806506
0.0001783659065
0.0003013474193
0.006287216438
3.26762834e-06
2.607302665e-06
2.47579732e-06
2.468458243e-06
2.739330035e-06
7.282898115e-06
3.440810759e-05
0.000591860769
0.001441161105
0.003637016485
0.0004631711033
9.162734275e-05
2.000651461e-05
0.0001961268237
0.001229887312
0.002216675947
0.001519429772
0.001066494492
0.0008552223228
0.0007746675241
0.0004799284716
0.0001657363567
5.381520255e-05
3.330823432e-05
1.753287815e-05
1.268563601e-06
2.724691655e-07
9.616119968e-08
3.437412258e-08
6.469227071e-08
1.316389085e-07
2.803403839e-07
6.099830797e-07
1.296975273e-06
4.415409475e-06
5.637855127e-05
0.0001115467085
4.218161263e-05
1.986819454e-05
3.325617124e-05
0.0001172128744
0.000268720939
0.0004003149583
0.0004619052079
0.000476732015
0.000516976808
0.006152486804
9.465209297e-07
2.100223648e-06
2.17972514e-10
1.84311871e-07
9.533183137e-05
0.0006916097818
0.002054139293
0.001949877042
0.001144422154
0.001086440984
0.002329032784
0.001930419391
0.001704407819
0.001481518441
0.001130969
0.0007851604774
0.0003183277531
5.446235854e-05
1.30373211e-05
5.957652899e-06
2.842169848e-06
1.02114849e-06
9.162836073e-08
2.923274933e-08
1.256035821e-08
3.030700353e-08
6.556286991e-08
1.425072739e-07
3.171560364e-07
6.981015228e-07
3.444297091e-06
0.0001236696961
0.0001068191584
6.329755832e-06
3.778079091e-06
6.304568095e-06
1.106969177e-05
1.954101021e-05
3.288387412e-05
5.112802807e-05
9.393812327e-05
0.0002263888295
0.005785848658
7.086774019e-07
1.727747208e-06
0.000176640865
0.0008137466408
0.001441323168
0.001988268529
0.0009710626428
0.001008659633
0.001449370781
0.001545671944
0.001679746758
0.001664556484
0.001328193319
0.0005978629103
0.0001416316435
3.687524456e-05
1.498594273e-05
6.743602018e-06
3.729209351e-06
1.856672618e-06
4.766101627e-08
1.277531272e-08
6.91569655e-09
1.722651499e-08
3.750701563e-08
8.718117786e-08
2.185549922e-07
5.578390645e-07
3.81224184e-06
0.0001669764047
4.632224205e-05
4.06827609e-06
3.459816706e-06
9.04689887e-06
5.039848825e-06
5.140068048e-06
5.972611422e-06
7.941350263e-06
1.962365933e-05
9.731870355e-05
0.005621732006
0.001029945866
0.00161946027
0.0009521059823
0.0003440021509
0.000920645418
0.001418308756
0.001433298206
0.001415274261
0.001187574546
0.0006258142959
0.0002097392833
9.387931584e-05
3.52911458e-05
1.115154853e-05
6.574916454e-06
4.127806112e-06
4.030676328e-08
7.390191967e-09
4.9974587e-09
1.042833174e-08
2.190340068e-08
5.847723488e-08
1.792908696e-07
5.484696638e-07
3.810279116e-06
6.782787e-05
2.342386999e-05
9.077014085e-06
8.679397005e-06
6.478671419e-05
1.153718517e-05
5.058307755e-06
3.609772461e-06
3.018868244e-06
7.05331155e-06
8.562656744e-05
0.005812376081
0.0006744366328
9.271290752e-05
0.0004902850459
0.0009873892834
0.0009156064871
0.001105785892
0.001093479161
0.0007795693313
0.0004984350652
0.0003239994478
0.0001275378215
2.110648347e-05
1.120181042e-05
1.107882534e-05
4.90356339e-08
4.523015269e-09
3.647717219e-09
5.1790257e-09
1.12507638e-08
4.339445287e-08
1.788384029e-07
6.714957012e-07
2.250483782e-06
5.420057001e-06
1.486450044e-05
2.824741258e-05
3.123393159e-05
0.0003066166211
6.487795283e-05
2.030867255e-05
1.527955503e-05
1.393188181e-05
2.508604977e-05
0.0001628823026
0.006559783422
4.071673689e-05
0.0001792385271
0.000323674158
0.0002515448711
0.000555645247
0.0007867636981
0.0007854952235
0.000859740372
0.0007535389608
0.0003817488615
5.689950245e-05
2.696870894e-05
3.641603053e-05
5.145740309e-08
2.22239011e-09
5.631085283e-09
1.226856334e-08
3.360813305e-08
1.189926483e-07
5.008531584e-07
2.178880586e-06
8.685906019e-06
3.030789735e-05
8.945480108e-05
0.0002055930661
0.0003274956519
0.0009191323905
0.0004074548399
0.000297939437
0.0003013533957
0.0003736056788
0.0006485833738
0.001584300078
0.007830068871
3.54564334e-05
7.182116276e-05
0.0001854805688
9.50261378e-05
6.903763631e-05
5.700996573e-05
6.411648214e-05
0.0005438087999
0.001007996448
0.0006434319081
0.0001583092005
0.0006716042005
0.0001304605039
4.73717007e-08
1.135008465e-09
1.066285017e-08
3.73094581e-08
1.202545277e-07
4.006150533e-07
1.393106683e-06
4.506172755e-06
1.202971079e-05
2.724206808e-05
6.354923647e-05
0.0002359876288
0.0005777715222
0.002215204852
0.001227126645
0.0009007240619
0.000832116511
0.0008205513918
0.0009358616193
0.0009678869182
0.005675495182
8.772951669e-05
0.0001444574226
0.0002120534855
0.0002378297111
0.0002259092887
0.0002769651043
0.0002311567748
0.0005231942861
0.0010029092
6.296123926e-05
2.406996102e-05
0.0003121069875
5.386290366e-08
9.494361136e-10
2.12463418e-08
1.010940312e-07
3.713539257e-07
1.246414793e-06
3.669258389e-06
8.883230955e-06
2.00106002e-05
4.554041408e-05
0.0001105576076
0.0001730128255
0.0002078219668
0.0008106659353
0.0003670069209
0.0003492159069
0.0003316013364
0.0002963158506
0.000327890976
0.0003912499387
0.004500108873
0.000130509607
0.000476555385
0.0004365360693
8.584115853e-05
7.011145857e-05
9.951888111e-05
0.0001572235717
0.0008214964547
0.001047239137
0.0001308311915
5.170111792e-05
0.0003806790324
6.121411378e-08
8.314031484e-10
6.557663114e-08
3.432084948e-07
1.261669898e-06
3.946540382e-06
1.153371479e-05
3.777179363e-05
0.0001313596676
0.0003156953307
0.0003910891557
0.0003680626988
0.0003182732469
0.0004561119844
0.0002556151703
0.0002037344707
0.0001495484271
0.00022541492
0.0001821555534
0.0003072351203
0.003883984089
0.0004250526802
0.0005928052608
0.0002867836585
2.63143288e-05
2.451975155e-05
0.0001070989151
0.0003146389509
0.000859430193
0.0004091408734
0.0001968022215
0.0001023748356
0.0002702377491
6.252042303e-08
8.586629889e-10
7.20669244e-07
3.191869036e-06
8.629919862e-06
2.173778483e-05
7.765118069e-05
0.0003053683425
0.0004881797064
0.0004629874483
0.0003935385
0.0003324520446
0.0002740252262
0.0002311756
0.0001582126874
0.0001077241055
6.299085316e-05
0.0003034792309
0.0002220359911
0.0002672057135
0.003509284135
0.0007286957464
0.0003891855808
0.0002059016778
0.0001196632317
3.252152672e-05
0.0001990741032
0.0005312006241
0.0007258316293
0.0003406238028
0.0003251431819
0.0002160640298
6.333669833e-08
1.390006368e-09
1.791031257e-07
2.493637294e-06
3.022652658e-05
0.0001552672379
0.000400373056
0.0004341059632
0.0003482148861
0.0002732847906
0.000234615608
0.0002202130744
0.0002030956757
0.0001645780309
0.0001204021534
7.798528752e-05
4.599614581e-05
0.0004940974202
0.0003744030789
0.0002873627993
0.003431423411
0.0002748366761
0.0005503055717
0.000765788042
0.0005375176731
0.0002032196795
0.000283611524
0.0007866924713
0.0003199633983
0.0004346891289
0.0004263599617
1.694522937e-07
2.411624385e-08
4.602128781e-08
3.69678686e-07
9.772178698e-05
0.000294058962
0.0003659312906
0.0003116107737
0.0002084219118
0.000139077796
0.0001178496785
0.000129144183
0.0001527214105
0.0001627553203
0.0001777975331
0.0001832874931
0.0002244533922
0.001072371921
0.0007527086707
0.0005720969882
0.003532690354
0.0005045967226
0.0004521999381
0.0003781354633
0.0006875316998
0.0006190556007
0.0006226905193
0.0009158480658
0.0007478700735
0.000503487647
0.00154441606
0.0005137647942
1.094613963e-05
2.573463843e-06
6.820180499e-05
0.0002418292297
0.000318648411
0.0002880624394
0.000181430203
9.371684293e-05
5.627407461e-05
5.06383883e-05
6.644771321e-05
0.0001009407825
0.0001397005736
0.0001554624397
0.0001376012369
9.311988437e-05
0.0004566183135
0.0003183819862
0.0001135773908
0.002765226948
0.0006057175041
0.0003431812573
0.0001198353259
0.0003084507987
0.0006230498287
0.001216823329
0.001296959233
0.0009953555472
0.0005053133523
0.0006725700466
0.0002887776286
3.691452367e-05
2.342778939e-05
0.0001006150165
0.0001913320425
0.0001736308138
0.0001021249845
5.074164324e-05
2.779190011e-05
2.044376479e-05
2.234546903e-05
3.325910306e-05
5.645972535e-05
9.202230172e-05
0.0001271136742
0.000138410574
0.0001152120968
0.0003148026409
0.0001883223209
5.278123747e-05
0.00212476172
0.0006808215464
0.0007553148738
0.0007879304249
0.0008478832555
0.000449910307
6.437092719e-05
5.122135342e-05
0.0006395248083
0.0004382646457
0.0001268091701
4.152604176e-05
1.84308494e-05
1.003492517e-05
7.371199254e-06
8.008361363e-06
1.132302255e-05
1.797401718e-05
2.991193578e-05
4.936691411e-05
7.580713323e-05
0.0001002128919
0.0001056930411
0.0001883014133
0.0001057861883
4.915566434e-05
0.001589652434
0.000370059474
0.0006695004796
0.001366253541
0.001246126679
0.0002050871915
0.0001160336348
0.0002397091744
1.08368417e-06
0.000129954132
2.682546486e-05
8.246513518e-06
5.015000801e-06
3.095280837e-06
2.889373995e-06
4.279163972e-06
7.072972007e-06
1.128512036e-05
1.748020661e-05
2.687873693e-05
4.073822122e-05
5.732869128e-05
7.12086874e-05
8.562226777e-05
7.571855785e-05
5.592823455e-05
0.001274628699
)
;

boundaryField
{
    walls
    {
        type            zeroGradient;
    }
    wallFilmFace_top
    {
        type            zeroGradient;
    }
    region0_to_wallFilmRegion_wallFilmFace
    {
        type            zeroGradient;
    }
    mirrorFace_top
    {
        type            zeroGradient;
    }
    region0_to_wallFilmRegion_mirrorFace
    {
        type            zeroGradient;
    }
    procBoundary0to1
    {
        type            processor;
        value           nonuniform List<scalar> 
52
(
0.004931231694
0.0001336552494
3.345983624e-05
1.783956107e-05
1.820127243e-05
1.87989897e-05
1.911074669e-05
1.911074669e-05
1.653862169e-05
1.424117922e-05
1.248668278e-05
1.121721195e-05
1.121721195e-05
5.708919721e-06
4.434167053e-06
4.434167053e-06
3.021574839e-06
2.874472067e-06
2.864324918e-06
2.469825855e-06
2.469825855e-06
1.327468573e-06
7.448252158e-06
7.448252158e-06
1.674530971e-06
3.039803351e-06
0.0001640818816
0.0005566678397
0.0005566678397
0.0009509304889
0.0005174983738
0.0005174983738
0.0001450058186
0.0001450058186
0.0001070706342
5.789344006e-05
5.789344006e-05
4.466638641e-05
0.0002219882275
0.001000037621
0.001000037621
0.0004859784043
0.0004859784043
0.0009855727007
0.0009422549063
0.0006511995854
0.0004136683287
0.0002941149368
0.0004826192656
0.0005026229117
0.0005026229117
0.0004021766497
)
;
    }
    procBoundary0to2
    {
        type            processor;
        value           nonuniform List<scalar> 
26
(
0.0005276270598
0.001244447124
0.001876341275
0.0008602891476
0.0002569197819
0.0002197865915
0.0003273314668
2.808633596e-06
0.0002558588972
6.589460965e-05
1.067781561e-05
3.169925864e-06
1.377146267e-06
1.469368829e-06
2.762705828e-06
5.018086242e-06
8.068498599e-06
1.202366449e-05
1.752011308e-05
2.554761582e-05
3.651926811e-05
4.94115629e-05
6.024506218e-05
6.613999878e-05
6.248674257e-05
0.001160811425
)
;
    }
}


// ************************************************************************* //
