/*--------------------------------*- C++ -*----------------------------------*\
  =========                 |
  \\      /  F ield         | OpenFOAM: The Open Source CFD Toolbox
   \\    /   O peration     | Website:  https://openfoam.org
    \\  /    A nd           | Version:  8
     \\/     M anipulation  |
\*---------------------------------------------------------------------------*/
FoamFile
{
    version     2.0;
    format      ascii;
    class       volScalarField;
    location    "1.3/wallFilmRegion";
    object      mu;
}
// * * * * * * * * * * * * * * * * * * * * * * * * * * * * * * * * * * * * * //

dimensions      [1 -1 -1 0 0 0 0];

internalField   nonuniform List<scalar> 
1369
(
0.0008861473674
0.0008861473671
0.000886147366
0.0008861473643
0.000886147363
0.0008861473624
0.0008861473619
0.0008861473616
0.0008861473615
0.0008861473619
0.0008861473645
0.0008861473697
0.000886147373
0.0008861473744
0.0008861473755
0.000886147376
0.0008861473757
0.0008861473745
0.0008861473723
0.0008861473683
0.0008861473633
0.0008861473591
0.0008861473809
0.0008861473998
0.0008861474099
0.0008861474145
0.000886147417
0.0008861474202
0.0008861474304
0.0008861474334
0.0008861474288
0.0008861474124
0.000886147403
0.0008861473984
0.0008861473929
0.0008861473961
0.0008861474005
0.0008861474058
0.0008861474072
0.0008861474099
0.0008861474108
0.0008861474105
0.0008861474096
0.0008861474083
0.000886147407
0.0008861474075
0.0008861474107
0.0008861474145
0.0008861474166
0.000886147417
0.0008861474158
0.0008861474117
0.0008861474095
0.0008861474058
0.0008861474014
0.0008861473976
0.0008861473971
0.0008861474013
0.0008861474075
0.0008861474097
0.0008861473667
0.0008861473668
0.0008861473666
0.0008861473661
0.0008861473646
0.0008861473575
0.0008861473577
0.0008861473586
0.0008861473592
0.0008861473601
0.0008861473594
0.0008861473676
0.0008861473729
0.0008861473765
0.0008861473787
0.0008861473778
0.0008861473724
0.0008861473642
0.0008861473717
0.000886147376
0.0008861473723
0.0008861473275
0.0008861473329
0.0008861473607
0.0008861473766
0.0008861473885
0.0008861473961
0.0008861474017
0.0008861474099
0.0008861474132
0.0008861474077
0.0008861474067
0.0008861474099
0.0008861474086
0.0008861474059
0.0008861474015
0.0008861473964
0.0008861473983
0.0008861473941
0.0008861473978
0.0008861473984
0.0008861474053
0.0008861474014
0.0008861473981
0.0008861473971
0.0008861473974
0.000886147398
0.0008861473984
0.0008861473984
0.0008861473972
0.000886147395
0.0008861473914
0.0008861474002
0.0008861474008
0.0008861473984
0.0008861473955
0.0008861474009
0.0008861474051
0.0008861474068
0.0008861474055
0.0008861473669
0.0008861473663
0.0008861473661
0.000886147366
0.0008861473654
0.0008861473643
0.0008861473616
0.0008861473532
0.0008861473607
0.0008861473607
0.0008861473616
0.0008861473728
0.0008861473765
0.0008861473813
0.0008861473843
0.0008861473828
0.0008861473759
0.0008861473682
0.0008861473791
0.0008861473819
0.0008861473796
0.0008861473491
0.0008861473469
0.0008861473649
0.0008861473789
0.0008861473904
0.0008861473949
0.0008861473957
0.0008861473935
0.0008861473987
0.000886147404
0.0008861474065
0.0008861474102
0.0008861474088
0.0008861474064
0.0008861474035
0.0008861473969
0.0008861473949
0.0008861473859
0.0008861473964
0.0008861473979
0.000886147409
0.0008861473936
0.0008861473857
0.0008861473834
0.0008861473825
0.0008861473806
0.0008861473771
0.0008861473728
0.0008861473712
0.0008861473839
0.0008861473882
0.0008861473896
0.0008861473932
0.0008861473948
0.0008861473962
0.0008861473989
0.0008861473988
0.0008861473976
0.0008861473974
0.0008861473678
0.0008861473663
0.0008861473658
0.0008861473656
0.0008861473653
0.0008861473648
0.0008861473633
0.0008861473622
0.0008861473618
0.0008861473613
0.0008861473636
0.0008861473847
0.000886147389
0.0008861473919
0.000886147392
0.0008861473887
0.0008861473812
0.0008861473711
0.0008861473795
0.0008861473808
0.0008861473772
0.000886147363
0.0008861473593
0.0008861473659
0.0008861473805
0.0008861473916
0.0008861473941
0.0008861473972
0.0008861473924
0.0008861473874
0.0008861473801
0.0008861473676
0.0008861474064
0.0008861473828
0.0008861473364
0.00088614734
0.0008861473515
0.0008861473965
0.0008861473883
0.0008861474029
0.0008861474043
0.0008861474092
0.0008861473884
0.0008861473488
0.0008861473375
0.0008861473341
0.000886147333
0.000886147333
0.0008861473345
0.0008861473473
0.0008861473698
0.0008861473862
0.0008861473878
0.0008861473903
0.0008861473928
0.0008861473945
0.000886147396
0.0008861473962
0.0008861473979
0.0008861474027
0.0008861473683
0.0008861473663
0.0008861473652
0.0008861473652
0.0008861473651
0.0008861473648
0.000886147364
0.0008861473633
0.0008861473627
0.0008861473618
0.0008861473637
0.0008861473767
0.000886147379
0.0008861473822
0.0008861473816
0.0008861473757
0.0008861473661
0.0008861473562
0.0008861473642
0.0008861473706
0.0008861473731
0.000886147373
0.0008861473688
0.000886147367
0.0008861473829
0.0008861473912
0.0008861473923
0.0008861473954
0.0008861473933
0.0008861473896
0.0008861473839
0.0008861473726
0.000886147403
0.0008861473339
0.0008861472916
0.0008861471717
0.0008861456236
0.0008861473975
0.0008861473934
0.0008861474068
0.000886147406
0.0008861474077
0.0008861473879
0.0008861473368
0.0008861473165
0.0008861473079
0.0008861473066
0.0008861473094
0.0008861473164
0.0008861473483
0.0008861473761
0.000886147385
0.0008861473861
0.0008861473863
0.0008861473893
0.0008861473917
0.0008861473936
0.0008861473958
0.0008861474006
0.000886147404
0.0008861473693
0.0008861473657
0.0008861473626
0.0008861473636
0.0008861473641
0.0008861473642
0.0008861473639
0.0008861473634
0.0008861473627
0.0008861473621
0.0008861473696
0.0008861473718
0.0008861473731
0.0008861473751
0.0008861473711
0.0008861473626
0.0008861473564
0.0008861473514
0.00088614736
0.0008861473776
0.000886147383
0.0008861473818
0.0008861473801
0.0008861473803
0.0008861473872
0.0008861473877
0.0008861473884
0.0008861473914
0.000886147392
0.0008861473889
0.0008861473841
0.000886147376
0.0008861473837
0.0008861473388
0.0008861473302
0.0008861472995
0.0008861468929
0.0008861473953
0.0008861473966
0.0008861474081
0.000886147399
0.0008861474035
0.0008861473857
0.000886147352
0.0008861473301
0.0008861473134
0.0008861473034
0.0008861472999
0.0008861473071
0.0008861473605
0.0008861473831
0.0008861473832
0.0008861473882
0.0008861473868
0.0008861473861
0.0008861473886
0.0008861473914
0.000886147395
0.0008861474014
0.0008861474046
0.0008861473707
0.0008861473643
0.0008861473611
0.000886147362
0.0008861473633
0.0008861473637
0.0008861473634
0.0008861473623
0.0008861473619
0.0008861473656
0.0008861473702
0.0008861473705
0.000886147371
0.0008861473733
0.0008861473642
0.0008861473548
0.0008861473512
0.0008861473574
0.0008861473743
0.0008861473897
0.0008861473962
0.0008861473997
0.0008861474018
0.0008861473918
0.0008861473845
0.0008861473798
0.0008861473808
0.0008861473834
0.0008861473884
0.0008861473852
0.0008861473795
0.0008861473707
0.000886147359
0.000886147345
0.0008861473527
0.0008861473357
0.0008861471782
0.000886147387
0.0008861473977
0.0008861474073
0.0008861474098
0.0008861473905
0.0008861473791
0.0008861473626
0.0008861473433
0.0008861473215
0.0008861473024
0.00088614729
0.0008861472992
0.000886147374
0.0008861473883
0.0008861473859
0.0008861473908
0.0008861473905
0.000886147387
0.0008861473865
0.0008861473889
0.0008861473936
0.0008861473976
0.0008861474052
0.0008861473717
0.0008861473638
0.0008861473605
0.0008861473614
0.0008861473627
0.0008861473623
0.0008861473621
0.0008861473611
0.0008861473628
0.0008861473682
0.0008861473697
0.0008861473691
0.0008861473693
0.0008861473759
0.0008861473847
0.0008861473884
0.0008861473805
0.0008861473741
0.0008861473876
0.0008861473973
0.0008861474021
0.000886147405
0.0008861474067
0.0008861473986
0.0008861473797
0.0008861473626
0.0008861473643
0.0008861473662
0.0008861473737
0.0008861473743
0.0008861473629
0.0008861473464
0.0008861473442
0.0008861473468
0.0008861473824
0.0008861473865
0.0008861471061
0.0008861473869
0.0008861473961
0.0008861473882
0.0008861473851
0.000886147368
0.000886147364
0.0008861473669
0.0008861473526
0.0008861473286
0.0008861473014
0.0008861472783
0.0008861472944
0.0008861473834
0.0008861473909
0.0008861473746
0.0008861473839
0.0008861473944
0.0008861473918
0.0008861473885
0.0008861473885
0.000886147391
0.0008861473935
0.0008861474049
0.0008861473721
0.0008861473645
0.0008861473619
0.0008861473625
0.0008861473623
0.0008861473626
0.0008861473644
0.0008861473623
0.0008861473621
0.0008861473654
0.000886147367
0.0008861473638
0.0008861473567
0.000886147358
0.0008861473702
0.00088614738
0.0008861473806
0.0008861473859
0.0008861473965
0.0008861474025
0.0008861474056
0.0008861474074
0.0008861474087
0.0008861474042
0.0008861473847
0.0008861473178
0.0008861473177
0.0008861473195
0.0008861473296
0.0008861473452
0.0008861473033
0.0008861472524
0.0008861472844
0.00088614734
0.0008861473992
0.0008861474089
0.0008861474132
0.0008861474252
0.0008861474024
0.0008861473577
0.0008861473383
0.0008861473193
0.0008861473293
0.0008861473647
0.0008861473581
0.0008861473345
0.0008861473011
0.0008861472667
0.0008861472992
0.0008861473874
0.0008861473917
0.0008861473752
0.0008861473802
0.000886147393
0.0008861473992
0.0008861473936
0.0008861473986
0.0008861473981
0.0008861473972
0.0008861474049
0.0008861473741
0.0008861473749
0.0008861473728
0.0008861473664
0.0008861473628
0.0008861473616
0.0008861473489
0.0008861473495
0.0008861473545
0.0008861473601
0.0008861473618
0.0008861473566
0.0008861473389
0.0008861473104
0.000886147307
0.00088614734
0.0008861473737
0.0008861473938
0.0008861474014
0.0008861474051
0.0008861474072
0.0008861474084
0.0008861474093
0.0008861474072
0.000886147394
0.0008861471108
0.0008861472338
0.0008861473137
0.0008861471155
0.0008861469547
0.0008861471387
0.0008861470159
0.0008861472341
0.0008861473825
0.0008861474249
0.0008861474457
0.0008861474551
0.0008861474431
0.000886147412
0.0008861473236
0.0008861472547
0.0008861472061
0.000886147245
0.0008861473582
0.0008861473617
0.0008861473411
0.0008861473056
0.0008861472619
0.0008861473232
0.0008861473887
0.0008861473911
0.0008861473779
0.0008861473827
0.0008861473908
0.0008861473967
0.0008861473997
0.000886147401
0.000886147402
0.0008861474024
0.0008861474051
0.0008861473746
0.000886147373
0.0008861473595
0.0008861473389
0.0008861473334
0.0008861473308
0.0008861473316
0.0008861473374
0.0008861473448
0.0008861473506
0.0008861473523
0.0008861473454
0.0008861473206
0.0008861472714
0.000886147268
0.0008861473364
0.0008861473782
0.0008861473945
0.0008861474012
0.0008861474046
0.0008861474073
0.0008861474086
0.0008861474092
0.000886147406
0.000886147401
0.0008861473958
0.0008861473832
0.000886147371
0.0008861472335
0.0008861471734
0.0008861472331
0.0008861471171
0.0008861472847
0.0008861474063
0.0008861474443
0.0008861474615
0.0008861474659
0.0008861474557
0.0008861474169
0.0008861472877
0.0008861471279
0.0008861469826
0.0008861470411
0.0008861473551
0.0008861473695
0.000886147355
0.0008861473254
0.0008861472795
0.0008861473633
0.0008861473891
0.0008861473903
0.0008861473813
0.0008861473838
0.0008861473893
0.0008861473939
0.0008861473969
0.0008861473988
0.0008861474004
0.0008861474016
0.0008861474028
0.0008861473751
0.0008861473709
0.0008861473476
0.0008861473233
0.0008861473199
0.0008861473205
0.0008861473232
0.000886147327
0.0008861473316
0.0008861473358
0.0008861473361
0.000886147326
0.0008861472911
0.000886147215
0.0008861471632
0.000886147202
0.0008861472751
0.0008861473367
0.0008861473686
0.0008861473747
0.0008861473818
0.0008861474013
0.0008861474034
0.0008861473824
0.0008861473853
0.0008861473669
0.0008861473558
0.0008861473847
0.0008861472227
0.0008861472581
0.0008861472983
0.0008861471999
0.0008861473449
0.0008861474193
0.0008861474581
0.0008861474705
0.0008861474691
0.0008861474574
0.0008861474096
0.0008861472237
0.0008861469428
0.0008861465654
0.0008861465585
0.0008861473664
0.000886147387
0.0008861473844
0.0008861473745
0.0008861473553
0.0008861473894
0.0008861473904
0.0008861473895
0.0008861473844
0.0008861473838
0.0008861473865
0.0008861473898
0.000886147393
0.0008861473957
0.0008861473985
0.0008861474004
0.0008861473994
0.000886147318
0.000886147316
0.0008861473141
0.0008861473094
0.0008861472926
0.0008861472432
0.0008861471375
0.0008861470576
0.0008861471103
0.0008861472294
0.0008861473344
0.0008861473821
0.0008861473918
0.0008861473742
0.0008861473956
0.0008861474023
0.0008861473831
0.0008861473806
0.000886147317
0.0008861473285
0.0008861473903
0.0008861472426
0.0008861473125
0.0008861474138
0.000886147425
0.0008861474483
0.0008861474553
0.0008861474687
0.0008861474677
0.0008861474582
0.0008861474475
0.0008861473702
0.0008861470301
0.0008861464911
0.0008861454436
0.0008861453012
0.0008861473764
0.0008861473989
0.0008861474023
0.0008861474017
0.0008861473994
0.0008861473959
0.000886147392
0.0008861473885
0.000886147384
0.0008861473831
0.0008861473849
0.0008861473856
0.000886147387
0.0008861473909
0.0008861473963
0.000886147399
0.0008861473953
0.0008861472392
0.0008861471745
0.0008861470538
0.0008861469546
0.0008861469821
0.00088614712
0.0008861473003
0.000886147388
0.0008861474265
0.0008861474217
0.000886147402
0.0008861473974
0.000886147383
0.0008861473745
0.0008861472169
0.000886147286
0.000886147398
0.0008861474244
0.0008861474806
0.0008861474786
0.0008861474699
0.0008861474669
0.000886147469
0.0008861474617
0.0008861474421
0.0008861474286
0.0008861474153
0.0008861471633
0.0008861462637
0.0008861448473
0.0008861416261
0.0008861422206
0.0008861461294
0.0008861468925
0.0008861471587
0.0008861472713
0.0008861473209
0.0008861473549
0.0008861473723
0.0008861473751
0.0008861473738
0.0008861473793
0.0008861473869
0.0008861473911
0.000886147394
0.0008861473957
0.0008861473979
0.0008861473989
0.0008861473914
0.0008861470214
0.0008861469731
0.0008861469599
0.000886146922
0.0008861470052
0.0008861472524
0.0008861473775
0.000886147414
0.000886147413
0.00088614741
0.0008861473893
0.0008861473763
0.0008861473267
0.0008861474155
0.0008861474443
0.0008861474749
0.0008861474845
0.0008861474839
0.000886147478
0.0008861474732
0.0008861474613
0.0008861474285
0.0008861473794
0.000886147343
0.0008861472715
0.0008861460675
0.0008861430565
0.0008861393761
0.0008861317619
0.000886136461
0.0008861409335
0.0008861438377
0.0008861455144
0.0008861464122
0.0008861469874
0.0008861473348
0.0008861473702
0.0008861473632
0.0008861473501
0.0008861473699
0.0008861473899
0.0008861473959
0.0008861473982
0.0008861473992
0.0008861473996
0.0008861473996
0.0008861473886
0.0008861466533
0.000886147163
0.0008860974178
0.0008861450789
0.000886147411
0.0008861474245
0.0008861474205
0.0008861474174
0.0008861474142
0.0008861474284
0.000886147452
0.0008861474694
0.0008861474733
0.0008861474786
0.0008861474763
0.0008861474619
0.0008861474338
0.0008861473638
0.0008861472161
0.000886147019
0.0008861467552
0.0008861461525
0.0008861369056
0.0008861283031
0.0008861188297
0.0008861293178
0.0008861367909
0.0008861415867
0.000886144379
0.0008861458484
0.0008861468849
0.0008861473529
0.0008861473767
0.0008861472971
0.0008861472555
0.0008861472877
0.0008861473222
0.0008861473503
0.0008861473692
0.0008861473808
0.000886147389
0.0008861473948
0.0008861473861
0.0008861467829
0.0008861470309
0.0008861474464
0.000886147457
0.0008861474621
0.0008861474348
0.0008861474236
0.0008861474881
0.0008861474643
0.0008861474684
0.0008861474701
0.0008861474722
0.0008861474688
0.0008861474493
0.0008861474091
0.0008861473666
0.0008861472901
0.0008861471489
0.0008861470266
0.0008861468247
0.0008861303253
0.0008861159741
0.0008861102215
0.0008861223694
0.0008861320668
0.0008861392331
0.0008861435115
0.0008861456162
0.0008861469157
0.000886147362
0.0008861473706
0.0008861472675
0.0008861472539
0.0008861473212
0.0008861472686
0.000886147269
0.000886147285
0.0008861473126
0.0008861473536
0.0008861473856
0.0008861473842
0.0008861474999
0.0008861474833
0.000886147438
0.0008861475076
0.000886147488
0.0008861474734
0.000886147469
0.0008861474687
0.000886147464
0.0008861474501
0.0008861474281
0.0008861474169
0.0008861473807
0.0008861472779
0.0008861472299
0.0008861472163
0.0008861282465
0.0008861066639
0.0008861057521
0.0008861155015
0.000886126482
0.0008861370309
0.0008861431115
0.0008861456843
0.0008861469474
0.0008861473498
0.000886147352
0.0008861473134
0.0008861473073
0.0008861473819
0.0008861473313
0.0008861472789
0.0008861472497
0.0008861472308
0.0008861472863
0.0008861473779
0.0008861473832
0.0008861474803
0.0008861475098
0.0008861475325
0.0008861474863
0.000886147466
0.0008861474642
0.0008861474593
0.0008861474516
0.000886147448
0.0008861474435
0.0008861474327
0.0008861473708
0.0008861473517
0.0008861474066
0.000886129851
0.0008860998451
0.0008861024764
0.0008861075588
0.000886119943
0.0008861362425
0.0008861435893
0.0008861460799
0.0008861469069
0.0008861471783
0.0008861472985
0.0008861473359
0.0008861473416
0.0008861473956
0.000886147376
0.0008861473485
0.000886147345
0.0008861473477
0.000886147362
0.0008861473816
0.0008861473823
0.0008861474961
0.0008861475301
0.0008861475168
0.0008861474566
0.0008861474627
0.0008861474622
0.0008861474605
0.000886147466
0.000886147459
0.0008861474534
0.0008861474284
0.0008861474277
0.0008861474953
0.0008861314056
0.0008860962071
0.0008861061524
0.0008861202381
0.0008861337474
0.0008861423619
0.0008861458335
0.0008861469312
0.0008861472441
0.000886147335
0.0008861473637
0.0008861473751
0.0008861473809
0.000886147402
0.0008861473902
0.0008861473864
0.0008861473866
0.0008861473863
0.0008861473849
0.0008861473809
0.0008861473812
0.0008861474934
0.0008861475042
0.0008861475115
0.0008861474929
0.0008861474733
0.0008861474436
0.0008861474564
0.0008861474985
0.0008861474749
0.0008861474642
0.0008861474494
0.0008861474494
0.0008861475318
0.0008861320111
0.0008860933386
0.0008861163497
0.0008861322616
0.0008861410928
0.0008861451826
0.0008861466387
0.000886147108
0.0008861472587
0.0008861473158
0.0008861473463
0.0008861473825
0.0008861474006
0.0008861474085
0.0008861474007
0.0008861473881
0.0008861473833
0.0008861473811
0.0008861473753
0.000886147367
0.0008861473797
0.0008861475037
0.0008861475027
0.0008861475061
0.0008861475062
0.0008861475031
0.000886147487
0.0008861475155
0.0008861475054
0.0008861474725
0.0008861474561
0.0008861474612
0.0008861475522
0.00088613339
0.0008860932337
0.0008861272027
0.0008861397777
0.0008861445937
0.0008861464435
0.0008861470341
0.0008861472281
0.0008861473037
0.0008861473431
0.0008861473695
0.0008861473789
0.0008861473816
0.0008861474019
0.0008861473831
0.0008861473759
0.0008861473723
0.0008861473714
0.0008861473575
0.0008861473534
0.0008861473794
0.00088614753
0.0008861475229
0.0008861475141
0.0008861474904
0.0008861475093
0.000886147522
0.0008861475339
0.0008861475101
0.0008861474792
0.0008861474738
0.0008861474953
0.0008861475596
0.0008861348313
0.0008860928335
0.0008861388161
0.0008861444758
0.0008861463767
0.0008861470113
0.0008861472407
0.0008861473267
0.0008861473632
0.0008861473809
0.0008861473883
0.0008861473928
0.0008861473945
0.000886147395
0.0008861473886
0.0008861473825
0.0008861473753
0.0008861473919
0.0008861473606
0.0008861473514
0.0008861473782
0.0008861475352
0.0008861475251
0.0008861475096
0.0008861474338
0.000886147454
0.0008861475228
0.0008861475311
0.0008861474598
0.0008861474546
0.0008861474594
0.0008861474847
0.0008861475546
0.0008861362535
0.0008860933166
0.0008861460783
0.0008861468384
0.0008861471289
0.0008861472649
0.0008861473385
0.0008861473765
0.0008861473876
0.0008861473937
0.0008861474004
0.0008861474079
0.0008861474138
0.0008861474136
0.0008861474086
0.0008861473971
0.0008861473818
0.000886147407
0.0008861473906
0.0008861473485
0.0008861473765
0.0008861475204
0.0008861475067
0.0008861474968
0.0008861475093
0.0008861474834
0.0008861475239
0.0008861474632
0.0008861474568
0.0008861474581
0.0008861474739
0.0008861475173
0.0008861381092
0.0008861005759
0.0008861447363
0.0008861468315
0.0008861472978
0.0008861473758
0.0008861473936
0.0008861473968
0.0008861473968
0.0008861473988
0.0008861474067
0.0008861474204
0.0008861474361
0.0008861474489
0.0008861474558
0.0008861474419
0.0008861474137
0.0008861474104
0.0008861474068
0.0008861473648
0.0008861473741
0.0008861475212
0.0008861475307
0.0008861475262
0.0008861475192
0.00088614751
0.0008861474776
0.0008861474673
0.0008861474578
0.000886147472
0.000886147458
0.0008861424534
0.0008861339633
0.0008861383341
0.0008861448363
0.0008861473899
0.0008861474034
0.0008861474028
0.0008861473986
0.0008861473933
0.0008861473911
0.0008861473984
0.0008861474164
0.0008861474381
0.0008861474574
0.0008861474714
0.0008861474381
0.0008861474159
0.0008861474109
0.0008861474105
0.0008861474007
0.0008861473735
0.000886147527
0.0008861475387
0.0008861475315
0.0008861475339
0.000886147524
0.0008861475151
0.0008861474916
0.0008861474829
0.0008861474874
0.0008861474671
0.0008861474259
0.0008861473235
0.0008861470553
0.0008861473916
0.0008861474064
0.0008861474066
0.0008861474009
0.0008861473917
0.000886147379
0.0008861473699
0.0008861473765
0.0008861473989
0.0008861474246
0.000886147446
0.0008861474619
0.0008861474729
0.0008861474795
0.0008861474146
0.0008861474149
0.0008861473747
0.0008861473717
0.0008861475042
0.0008861475397
0.0008861475283
0.0008861475437
0.0008861475356
0.0008861475282
0.0008861475143
0.0008861475091
0.0008861475019
0.0008861474827
0.0008861474582
0.0008861474156
0.0008861473716
0.0008861474042
0.0008861474078
0.0008861473993
0.0008861473841
0.0008861473619
0.0008861473383
0.0008861473298
0.0008861473461
0.0008861473747
0.0008861474027
0.0008861474248
0.0008861474406
0.0008861474511
0.000886147458
0.0008861474226
0.0008861474316
0.0008861474292
0.0008861473706
0.0008861475272
0.0008861475145
0.0008861474872
0.0008861474763
0.0008861474622
0.0008861474356
0.0008861474026
0.0008861474138
0.0008861474113
0.0008861473942
0.0008861473644
0.0008861473261
0.000886147278
0.0008861472493
0.0008861472712
0.0008861473123
0.0008861473473
0.0008861473743
0.000886147395
0.0008861474097
0.0008861474196
0.0008861474259
0.0008861474302
0.0008861474365
0.0008861474418
0.0008861473722
0.0008861475352
0.000886147515
0.0008861474822
0.0008861474662
0.0008861474764
0.0008861474461
0.0008861474186
0.0008861463676
0.0008861474022
0.0008861473673
0.0008861473022
0.0008861472449
0.0008861471618
0.000886147143
0.0008861472161
0.0008861472813
0.0008861473216
0.0008861473475
0.0008861473654
0.0008861473779
0.0008861473859
0.0008861473908
0.0008861473943
0.000886147398
0.000886147404
0.0008861473728
)
;

boundaryField
{
    walls
    {
        type            zeroGradient;
    }
    wallFilmFace_top
    {
        type            zeroGradient;
    }
    region0_to_wallFilmRegion_wallFilmFace
    {
        type            zeroGradient;
    }
    mirrorFace_top
    {
        type            zeroGradient;
    }
    region0_to_wallFilmRegion_mirrorFace
    {
        type            zeroGradient;
    }
    procBoundary0to1
    {
        type            processor;
        value           nonuniform List<scalar> 
52
(
0.0008861473757
0.0008861473676
0.0008861473409
0.000886147323
0.0008861473211
0.0008861473206
0.0008861473197
0.0008861473197
0.0008861473093
0.0008861472974
0.000886147284
0.0008861472679
0.0008861472679
0.0008861471698
0.0008861471046
0.0008861471046
0.0008861470713
0.0008861471095
0.0008861471512
0.0008861471107
0.0008861471107
0.000886147174
0.0008861473708
0.0008861473708
0.000886146973
0.000886147138
0.0008861474623
0.0008861474828
0.0008861474828
0.0008861475417
0.0008861475169
0.0008861475169
0.0008861475125
0.0008861475125
0.0008861475119
0.0008861475063
0.0008861475063
0.0008861475022
0.0008861475215
0.0008861475269
0.0008861475269
0.0008861475194
0.0008861475194
0.000886147522
0.0008861475107
0.0008861475306
0.0008861475392
0.0008861475393
0.0008861475463
0.0008861475445
0.0008861475445
0.0008861475434
)
;
    }
    procBoundary0to2
    {
        type            processor;
        value           nonuniform List<scalar> 
26
(
0.0008861475269
0.0008861475008
0.0008861474709
0.0008861474563
0.0008861475684
0.0008861474681
0.0008861474205
0.000886147199
0.0008861474091
0.0008861473963
0.0008861473519
0.000886147224
0.0008861470062
0.0008861470025
0.0008861471543
0.000886147248
0.0008861472977
0.000886147327
0.0008861473462
0.000886147359
0.0008861473668
0.0008861473706
0.0008861473718
0.0008861473718
0.0008861473724
0.0008861473701
)
;
    }
}


// ************************************************************************* //
