/*--------------------------------*- C++ -*----------------------------------*\
  =========                 |
  \\      /  F ield         | OpenFOAM: The Open Source CFD Toolbox
   \\    /   O peration     | Website:  https://openfoam.org
    \\  /    A nd           | Version:  8
     \\/     M anipulation  |
\*---------------------------------------------------------------------------*/
FoamFile
{
    version     2.0;
    format      ascii;
    class       volScalarField;
    location    "1.3/wallFilmRegion";
    object      sigma;
}
// * * * * * * * * * * * * * * * * * * * * * * * * * * * * * * * * * * * * * //

dimensions      [1 0 -2 0 0 0 0];

internalField   nonuniform List<scalar> 
1369
(
0.07244713438
0.07244713437
0.07244713436
0.07244713435
0.07244713433
0.07244713433
0.07244713432
0.07244713432
0.07244713432
0.07244713432
0.07244713435
0.0724471344
0.07244713444
0.07244713445
0.07244713446
0.07244713447
0.07244713446
0.07244713445
0.07244713443
0.07244713439
0.07244713433
0.07244713429
0.07244713452
0.07244713471
0.07244713482
0.07244713487
0.07244713489
0.07244713493
0.07244713503
0.07244713506
0.07244713502
0.07244713484
0.07244713475
0.0724471347
0.07244713464
0.07244713468
0.07244713472
0.07244713478
0.07244713479
0.07244713482
0.07244713483
0.07244713483
0.07244713482
0.0724471348
0.07244713479
0.07244713479
0.07244713483
0.07244713487
0.07244713489
0.07244713489
0.07244713488
0.07244713484
0.07244713481
0.07244713478
0.07244713473
0.07244713469
0.07244713469
0.07244713473
0.07244713479
0.07244713482
0.07244713437
0.07244713437
0.07244713437
0.07244713436
0.07244713435
0.07244713427
0.07244713428
0.07244713429
0.07244713429
0.0724471343
0.07244713429
0.07244713438
0.07244713444
0.07244713447
0.07244713449
0.07244713449
0.07244713443
0.07244713434
0.07244713442
0.07244713447
0.07244713443
0.07244713396
0.07244713402
0.07244713431
0.07244713447
0.0724471346
0.07244713468
0.07244713473
0.07244713482
0.07244713485
0.0724471348
0.07244713479
0.07244713482
0.07244713481
0.07244713478
0.07244713473
0.07244713468
0.0724471347
0.07244713466
0.07244713469
0.0724471347
0.07244713477
0.07244713473
0.0724471347
0.07244713469
0.07244713469
0.0724471347
0.0724471347
0.0724471347
0.07244713469
0.07244713466
0.07244713463
0.07244713472
0.07244713472
0.0724471347
0.07244713467
0.07244713473
0.07244713477
0.07244713479
0.07244713477
0.07244713437
0.07244713437
0.07244713436
0.07244713436
0.07244713436
0.07244713435
0.07244713432
0.07244713423
0.07244713431
0.07244713431
0.07244713432
0.07244713443
0.07244713447
0.07244713452
0.07244713455
0.07244713454
0.07244713447
0.07244713439
0.0724471345
0.07244713453
0.0724471345
0.07244713419
0.07244713416
0.07244713435
0.0724471345
0.07244713462
0.07244713466
0.07244713467
0.07244713465
0.0724471347
0.07244713476
0.07244713478
0.07244713482
0.07244713481
0.07244713478
0.07244713475
0.07244713468
0.07244713466
0.07244713457
0.07244713468
0.07244713469
0.07244713481
0.07244713465
0.07244713457
0.07244713454
0.07244713453
0.07244713451
0.07244713448
0.07244713443
0.07244713442
0.07244713455
0.07244713459
0.07244713461
0.07244713465
0.07244713466
0.07244713468
0.07244713471
0.0724471347
0.07244713469
0.07244713469
0.07244713438
0.07244713437
0.07244713436
0.07244713436
0.07244713436
0.07244713435
0.07244713434
0.07244713432
0.07244713432
0.07244713431
0.07244713434
0.07244713456
0.0724471346
0.07244713463
0.07244713463
0.0724471346
0.07244713452
0.07244713442
0.0724471345
0.07244713452
0.07244713448
0.07244713433
0.07244713429
0.07244713436
0.07244713451
0.07244713463
0.07244713466
0.07244713469
0.07244713464
0.07244713459
0.07244713451
0.07244713438
0.07244713478
0.07244713454
0.07244713406
0.07244713409
0.07244713421
0.07244713468
0.0724471346
0.07244713475
0.07244713476
0.07244713481
0.0724471346
0.07244713418
0.07244713407
0.07244713403
0.07244713402
0.07244713402
0.07244713404
0.07244713417
0.0724471344
0.07244713457
0.07244713459
0.07244713462
0.07244713464
0.07244713466
0.07244713467
0.07244713468
0.07244713469
0.07244713474
0.07244713439
0.07244713437
0.07244713436
0.07244713435
0.07244713435
0.07244713435
0.07244713434
0.07244713434
0.07244713433
0.07244713432
0.07244713434
0.07244713447
0.0724471345
0.07244713453
0.07244713453
0.07244713446
0.07244713436
0.07244713426
0.07244713434
0.07244713441
0.07244713444
0.07244713444
0.07244713439
0.07244713437
0.07244713454
0.07244713462
0.07244713464
0.07244713467
0.07244713465
0.07244713461
0.07244713455
0.07244713443
0.07244713475
0.07244713403
0.07244713359
0.07244713235
0.07244711627
0.07244713469
0.07244713465
0.07244713479
0.07244713478
0.0724471348
0.07244713459
0.07244713406
0.07244713385
0.07244713376
0.07244713375
0.07244713378
0.07244713385
0.07244713418
0.07244713447
0.07244713456
0.07244713457
0.07244713457
0.0724471346
0.07244713463
0.07244713465
0.07244713467
0.07244713472
0.07244713476
0.0724471344
0.07244713436
0.07244713433
0.07244713434
0.07244713434
0.07244713434
0.07244713434
0.07244713434
0.07244713433
0.07244713432
0.0724471344
0.07244713442
0.07244713444
0.07244713446
0.07244713442
0.07244713433
0.07244713426
0.07244713421
0.0724471343
0.07244713448
0.07244713454
0.07244713453
0.07244713451
0.07244713451
0.07244713458
0.07244713459
0.0724471346
0.07244713463
0.07244713463
0.0724471346
0.07244713455
0.07244713447
0.07244713455
0.07244713408
0.07244713399
0.07244713367
0.07244712945
0.07244713467
0.07244713468
0.0724471348
0.07244713471
0.07244713475
0.07244713457
0.07244713422
0.07244713399
0.07244713382
0.07244713371
0.07244713368
0.07244713375
0.07244713431
0.07244713454
0.07244713454
0.07244713459
0.07244713458
0.07244713457
0.0724471346
0.07244713463
0.07244713466
0.07244713473
0.07244713476
0.07244713441
0.07244713435
0.07244713431
0.07244713432
0.07244713434
0.07244713434
0.07244713434
0.07244713433
0.07244713432
0.07244713436
0.07244713441
0.07244713441
0.07244713441
0.07244713444
0.07244713434
0.07244713425
0.07244713421
0.07244713427
0.07244713445
0.07244713461
0.07244713468
0.07244713471
0.07244713474
0.07244713463
0.07244713456
0.07244713451
0.07244713452
0.07244713454
0.0724471346
0.07244713456
0.0724471345
0.07244713441
0.07244713429
0.07244713414
0.07244713423
0.07244713405
0.07244713241
0.07244713458
0.07244713469
0.07244713479
0.07244713482
0.07244713462
0.0724471345
0.07244713433
0.07244713413
0.0724471339
0.0724471337
0.07244713357
0.07244713367
0.07244713445
0.0724471346
0.07244713457
0.07244713462
0.07244713462
0.07244713458
0.07244713458
0.0724471346
0.07244713465
0.07244713469
0.07244713477
0.07244713442
0.07244713434
0.07244713431
0.07244713431
0.07244713433
0.07244713432
0.07244713432
0.07244713431
0.07244713433
0.07244713439
0.0724471344
0.0724471344
0.0724471344
0.07244713447
0.07244713456
0.0724471346
0.07244713451
0.07244713445
0.07244713459
0.07244713469
0.07244713474
0.07244713477
0.07244713479
0.0724471347
0.07244713451
0.07244713433
0.07244713435
0.07244713437
0.07244713444
0.07244713445
0.07244713433
0.07244713416
0.07244713414
0.07244713416
0.07244713453
0.07244713458
0.07244713166
0.07244713458
0.07244713468
0.07244713459
0.07244713456
0.07244713438
0.07244713434
0.07244713437
0.07244713422
0.07244713397
0.07244713369
0.07244713345
0.07244713362
0.07244713454
0.07244713462
0.07244713445
0.07244713455
0.07244713466
0.07244713463
0.0724471346
0.0724471346
0.07244713462
0.07244713465
0.07244713477
0.07244713443
0.07244713435
0.07244713432
0.07244713433
0.07244713432
0.07244713433
0.07244713435
0.07244713432
0.07244713432
0.07244713436
0.07244713437
0.07244713434
0.07244713427
0.07244713428
0.07244713441
0.07244713451
0.07244713451
0.07244713457
0.07244713468
0.07244713474
0.07244713477
0.07244713479
0.07244713481
0.07244713476
0.07244713456
0.07244713386
0.07244713386
0.07244713388
0.07244713398
0.07244713415
0.07244713371
0.07244713318
0.07244713352
0.07244713409
0.07244713471
0.07244713481
0.07244713485
0.07244713498
0.07244713474
0.07244713428
0.07244713408
0.07244713388
0.07244713398
0.07244713435
0.07244713428
0.07244713404
0.07244713369
0.07244713333
0.07244713367
0.07244713459
0.07244713463
0.07244713446
0.07244713451
0.07244713464
0.07244713471
0.07244713465
0.0724471347
0.0724471347
0.07244713469
0.07244713477
0.07244713445
0.07244713446
0.07244713443
0.07244713437
0.07244713433
0.07244713432
0.07244713419
0.07244713419
0.07244713424
0.0724471343
0.07244713432
0.07244713427
0.07244713408
0.07244713379
0.07244713375
0.07244713409
0.07244713444
0.07244713465
0.07244713473
0.07244713477
0.07244713479
0.0724471348
0.07244713481
0.07244713479
0.07244713465
0.07244713171
0.07244713299
0.07244713382
0.07244713176
0.07244713009
0.072447132
0.07244713073
0.07244713299
0.07244713453
0.07244713497
0.07244713519
0.07244713529
0.07244713516
0.07244713484
0.07244713392
0.07244713321
0.0724471327
0.07244713311
0.07244713428
0.07244713432
0.0724471341
0.07244713374
0.07244713328
0.07244713392
0.0724471346
0.07244713462
0.07244713449
0.07244713454
0.07244713462
0.07244713468
0.07244713471
0.07244713473
0.07244713474
0.07244713474
0.07244713477
0.07244713445
0.07244713444
0.0724471343
0.07244713408
0.07244713402
0.072447134
0.07244713401
0.07244713407
0.07244713414
0.0724471342
0.07244713422
0.07244713415
0.07244713389
0.07244713338
0.07244713335
0.07244713406
0.07244713449
0.07244713466
0.07244713473
0.07244713476
0.07244713479
0.07244713481
0.07244713481
0.07244713478
0.07244713473
0.07244713467
0.07244713454
0.07244713441
0.07244713299
0.07244713236
0.07244713298
0.07244713178
0.07244713352
0.07244713478
0.07244713518
0.07244713535
0.0724471354
0.07244713529
0.07244713489
0.07244713355
0.07244713189
0.07244713038
0.07244713099
0.07244713425
0.0724471344
0.07244713425
0.07244713394
0.07244713347
0.07244713434
0.0724471346
0.07244713462
0.07244713452
0.07244713455
0.0724471346
0.07244713465
0.07244713468
0.0724471347
0.07244713472
0.07244713473
0.07244713474
0.07244713446
0.07244713441
0.07244713417
0.07244713392
0.07244713388
0.07244713389
0.07244713392
0.07244713396
0.07244713401
0.07244713405
0.07244713405
0.07244713395
0.07244713359
0.07244713279
0.07244713226
0.07244713266
0.07244713342
0.07244713406
0.07244713439
0.07244713445
0.07244713453
0.07244713473
0.07244713475
0.07244713453
0.07244713456
0.07244713437
0.07244713426
0.07244713456
0.07244713287
0.07244713324
0.07244713366
0.07244713264
0.07244713414
0.07244713492
0.07244713532
0.07244713545
0.07244713543
0.07244713531
0.07244713482
0.07244713289
0.07244712997
0.07244712605
0.07244712598
0.07244713437
0.07244713458
0.07244713455
0.07244713445
0.07244713425
0.07244713461
0.07244713462
0.07244713461
0.07244713455
0.07244713455
0.07244713458
0.07244713461
0.07244713464
0.07244713467
0.0724471347
0.07244713472
0.07244713471
0.07244713386
0.07244713384
0.07244713382
0.07244713378
0.0724471336
0.07244713309
0.07244713199
0.07244713116
0.07244713171
0.07244713294
0.07244713404
0.07244713453
0.07244713463
0.07244713445
0.07244713467
0.07244713474
0.07244713454
0.07244713451
0.07244713385
0.07244713397
0.07244713462
0.07244713308
0.07244713381
0.07244713486
0.07244713498
0.07244713522
0.07244713529
0.07244713543
0.07244713542
0.07244713532
0.07244713521
0.07244713441
0.07244713087
0.07244712528
0.0724471144
0.07244711292
0.07244713447
0.0724471347
0.07244713474
0.07244713473
0.07244713471
0.07244713467
0.07244713463
0.0724471346
0.07244713455
0.07244713454
0.07244713456
0.07244713457
0.07244713458
0.07244713462
0.07244713468
0.07244713471
0.07244713467
0.07244713305
0.07244713237
0.07244713112
0.07244713009
0.07244713038
0.07244713181
0.07244713368
0.07244713459
0.07244713499
0.07244713494
0.07244713474
0.07244713469
0.07244713454
0.07244713445
0.07244713282
0.07244713353
0.0724471347
0.07244713497
0.07244713555
0.07244713553
0.07244713544
0.07244713541
0.07244713543
0.07244713536
0.07244713515
0.07244713501
0.07244713488
0.07244713226
0.07244712292
0.07244710821
0.07244707476
0.07244708094
0.07244712152
0.07244712945
0.07244713221
0.07244713338
0.0724471339
0.07244713425
0.07244713443
0.07244713446
0.07244713444
0.0724471345
0.07244713458
0.07244713462
0.07244713465
0.07244713467
0.07244713469
0.07244713471
0.07244713463
0.07244713079
0.07244713028
0.07244713015
0.07244712975
0.07244713062
0.07244713318
0.07244713448
0.07244713486
0.07244713485
0.07244713482
0.07244713461
0.07244713447
0.07244713396
0.07244713488
0.07244713518
0.07244713549
0.07244713559
0.07244713559
0.07244713553
0.07244713548
0.07244713535
0.07244713501
0.0724471345
0.07244713412
0.07244713338
0.07244712088
0.07244708961
0.0724470514
0.07244697234
0.07244702113
0.07244706757
0.07244709773
0.07244711514
0.07244712446
0.07244713043
0.07244713404
0.07244713441
0.07244713433
0.0724471342
0.0724471344
0.07244713461
0.07244713467
0.0724471347
0.07244713471
0.07244713471
0.07244713471
0.0724471346
0.07244712696
0.07244713226
0.0724466157
0.07244711062
0.07244713483
0.07244713497
0.07244713493
0.0724471349
0.07244713486
0.07244713501
0.07244713526
0.07244713544
0.07244713548
0.07244713553
0.07244713551
0.07244713536
0.07244713507
0.07244713434
0.07244713281
0.07244713076
0.07244712802
0.07244712176
0.07244702575
0.07244693642
0.07244683805
0.07244694696
0.07244702456
0.07244707435
0.07244710335
0.0724471186
0.07244712937
0.07244713423
0.07244713447
0.07244713365
0.07244713322
0.07244713355
0.07244713391
0.0724471342
0.0724471344
0.07244713452
0.0724471346
0.07244713466
0.07244713457
0.07244712831
0.07244713088
0.0724471352
0.07244713531
0.07244713536
0.07244713508
0.07244713496
0.07244713563
0.07244713538
0.07244713543
0.07244713544
0.07244713547
0.07244713543
0.07244713523
0.07244713481
0.07244713437
0.07244713357
0.07244713211
0.07244713084
0.07244712874
0.07244695742
0.0724468084
0.07244674866
0.07244687481
0.0724469755
0.07244704991
0.07244709434
0.07244711619
0.07244712969
0.07244713432
0.07244713441
0.07244713334
0.0724471332
0.0724471339
0.07244713335
0.07244713336
0.07244713352
0.07244713381
0.07244713423
0.07244713457
0.07244713455
0.07244713575
0.07244713558
0.07244713511
0.07244713583
0.07244713563
0.07244713548
0.07244713543
0.07244713543
0.07244713538
0.07244713524
0.07244713501
0.07244713489
0.07244713452
0.07244713345
0.07244713295
0.07244713281
0.07244693583
0.07244671172
0.07244670225
0.07244680349
0.07244691751
0.07244702705
0.07244709019
0.0724471169
0.07244713002
0.0724471342
0.07244713422
0.07244713382
0.07244713375
0.07244713453
0.072447134
0.07244713346
0.07244713316
0.07244713296
0.07244713354
0.07244713449
0.07244713454
0.07244713555
0.07244713586
0.07244713609
0.07244713561
0.0724471354
0.07244713538
0.07244713533
0.07244713525
0.07244713521
0.07244713517
0.07244713506
0.07244713441
0.07244713421
0.07244713479
0.07244695249
0.07244664091
0.07244666823
0.07244672101
0.07244684961
0.07244701886
0.07244709515
0.07244712101
0.0724471296
0.07244713241
0.07244713366
0.07244713405
0.07244713411
0.07244713467
0.07244713447
0.07244713418
0.07244713415
0.07244713417
0.07244713432
0.07244713453
0.07244713453
0.07244713571
0.07244713607
0.07244713593
0.0724471353
0.07244713537
0.07244713536
0.07244713534
0.0724471354
0.07244713533
0.07244713527
0.07244713501
0.072447135
0.07244713571
0.07244696864
0.07244660313
0.07244670641
0.07244685267
0.07244699295
0.0724470824
0.07244711845
0.07244712985
0.0724471331
0.07244713404
0.07244713434
0.07244713446
0.07244713452
0.07244713474
0.07244713461
0.07244713458
0.07244713458
0.07244713457
0.07244713456
0.07244713452
0.07244713452
0.07244713569
0.0724471358
0.07244713587
0.07244713568
0.07244713548
0.07244713517
0.0724471353
0.07244713574
0.07244713549
0.07244713538
0.07244713523
0.07244713523
0.07244713608
0.07244697492
0.07244657334
0.0724468123
0.07244697752
0.07244706923
0.07244711169
0.07244712681
0.07244713168
0.07244713325
0.07244713384
0.07244713416
0.07244713453
0.07244713472
0.0724471348
0.07244713472
0.07244713459
0.07244713454
0.07244713452
0.07244713446
0.07244713437
0.07244713451
0.07244713579
0.07244713578
0.07244713582
0.07244713582
0.07244713579
0.07244713562
0.07244713592
0.07244713581
0.07244713547
0.0724471353
0.07244713535
0.0724471363
0.07244698924
0.07244657225
0.07244692499
0.07244705557
0.07244710558
0.07244712478
0.07244713092
0.07244713293
0.07244713372
0.07244713413
0.0724471344
0.0724471345
0.07244713452
0.07244713474
0.07244713454
0.07244713447
0.07244713443
0.07244713442
0.07244713428
0.07244713423
0.0724471345
0.07244713607
0.07244713599
0.0724471359
0.07244713566
0.07244713585
0.07244713598
0.07244713611
0.07244713586
0.07244713554
0.07244713548
0.07244713571
0.07244713637
0.07244700421
0.0724465681
0.07244704558
0.07244710435
0.07244712409
0.07244713068
0.07244713306
0.07244713396
0.07244713433
0.07244713452
0.07244713459
0.07244713464
0.07244713466
0.07244713466
0.0724471346
0.07244713453
0.07244713446
0.07244713463
0.07244713431
0.07244713421
0.07244713449
0.07244713612
0.07244713602
0.07244713585
0.07244713507
0.07244713528
0.07244713599
0.07244713608
0.07244713534
0.07244713528
0.07244713533
0.0724471356
0.07244713632
0.07244701898
0.07244657312
0.07244712099
0.07244712888
0.0724471319
0.07244713331
0.07244713408
0.07244713447
0.07244713459
0.07244713465
0.07244713472
0.0724471348
0.07244713486
0.07244713486
0.07244713481
0.07244713469
0.07244713453
0.07244713479
0.07244713462
0.07244713418
0.07244713447
0.07244713597
0.07244713582
0.07244713572
0.07244713585
0.07244713558
0.072447136
0.07244713537
0.07244713531
0.07244713532
0.07244713548
0.07244713593
0.07244703824
0.0724466485
0.07244710706
0.07244712881
0.07244713366
0.07244713447
0.07244713465
0.07244713468
0.07244713468
0.0724471347
0.07244713479
0.07244713493
0.07244713509
0.07244713522
0.0724471353
0.07244713515
0.07244713486
0.07244713482
0.07244713479
0.07244713435
0.07244713445
0.07244713597
0.07244713607
0.07244713603
0.07244713595
0.07244713586
0.07244713552
0.07244713542
0.07244713532
0.07244713546
0.07244713532
0.07244708335
0.07244699519
0.07244704058
0.0724471081
0.07244713461
0.07244713475
0.07244713474
0.0724471347
0.07244713465
0.07244713462
0.0724471347
0.07244713489
0.07244713511
0.07244713531
0.07244713546
0.07244713511
0.07244713488
0.07244713483
0.07244713483
0.07244713472
0.07244713444
0.07244713603
0.07244713616
0.07244713608
0.07244713611
0.072447136
0.07244713591
0.07244713567
0.07244713558
0.07244713562
0.07244713541
0.07244713499
0.07244713392
0.07244713114
0.07244713463
0.07244713478
0.07244713479
0.07244713473
0.07244713463
0.0724471345
0.0724471344
0.07244713447
0.0724471347
0.07244713497
0.07244713519
0.07244713536
0.07244713547
0.07244713554
0.07244713487
0.07244713487
0.07244713445
0.07244713442
0.0724471358
0.07244713617
0.07244713605
0.07244713621
0.07244713612
0.07244713605
0.0724471359
0.07244713585
0.07244713577
0.07244713558
0.07244713532
0.07244713488
0.07244713442
0.07244713476
0.0724471348
0.07244713471
0.07244713455
0.07244713432
0.07244713408
0.07244713399
0.07244713416
0.07244713445
0.07244713474
0.07244713497
0.07244713514
0.07244713525
0.07244713532
0.07244713495
0.07244713504
0.07244713502
0.07244713441
0.07244713604
0.07244713591
0.07244713562
0.07244713551
0.07244713536
0.07244713509
0.07244713474
0.07244713486
0.07244713483
0.07244713466
0.07244713435
0.07244713395
0.07244713345
0.07244713315
0.07244713338
0.07244713381
0.07244713417
0.07244713445
0.07244713466
0.07244713482
0.07244713492
0.07244713498
0.07244713503
0.07244713509
0.07244713515
0.07244713443
0.07244713612
0.07244713591
0.07244713557
0.0724471354
0.07244713551
0.07244713519
0.07244713491
0.072447124
0.07244713474
0.07244713438
0.0724471337
0.07244713311
0.07244713224
0.07244713205
0.07244713281
0.07244713348
0.0724471339
0.07244713417
0.07244713436
0.07244713449
0.07244713457
0.07244713462
0.07244713466
0.0724471347
0.07244713476
0.07244713443
)
;

boundaryField
{
    walls
    {
        type            zeroGradient;
    }
    wallFilmFace_top
    {
        type            zeroGradient;
    }
    region0_to_wallFilmRegion_wallFilmFace
    {
        type            zeroGradient;
    }
    mirrorFace_top
    {
        type            zeroGradient;
    }
    region0_to_wallFilmRegion_mirrorFace
    {
        type            zeroGradient;
    }
    procBoundary0to1
    {
        type            processor;
        value           nonuniform List<scalar> 
52
(
0.07244713446
0.07244713438
0.0724471341
0.07244713392
0.0724471339
0.07244713389
0.07244713388
0.07244713388
0.07244713377
0.07244713365
0.07244713351
0.07244713334
0.07244713334
0.07244713233
0.07244713165
0.07244713165
0.0724471313
0.0724471317
0.07244713213
0.07244713171
0.07244713171
0.07244713237
0.07244713441
0.07244713441
0.07244713028
0.072447132
0.07244713536
0.07244713558
0.07244713558
0.07244713619
0.07244713593
0.07244713593
0.07244713588
0.07244713588
0.07244713588
0.07244713582
0.07244713582
0.07244713578
0.07244713598
0.07244713603
0.07244713603
0.07244713596
0.07244713596
0.07244713598
0.07244713587
0.07244713607
0.07244713616
0.07244713616
0.07244713624
0.07244713622
0.07244713622
0.0724471362
)
;
    }
    procBoundary0to2
    {
        type            processor;
        value           nonuniform List<scalar> 
26
(
0.07244713603
0.07244713576
0.07244713545
0.0724471353
0.07244713646
0.07244713542
0.07244713493
0.07244713263
0.07244713481
0.07244713468
0.07244713422
0.07244713289
0.07244713063
0.07244713059
0.07244713217
0.07244713314
0.07244713365
0.07244713396
0.07244713416
0.07244713429
0.07244713437
0.07244713441
0.07244713442
0.07244713442
0.07244713443
0.07244713441
)
;
    }
}


// ************************************************************************* //
