/*--------------------------------*- C++ -*----------------------------------*\
  =========                 |
  \\      /  F ield         | OpenFOAM: The Open Source CFD Toolbox
   \\    /   O peration     | Website:  https://openfoam.org
    \\  /    A nd           | Version:  8
     \\/     M anipulation  |
\*---------------------------------------------------------------------------*/
FoamFile
{
    version     2.0;
    format      ascii;
    class       volVectorField;
    location    "1.3/wallFilmRegion";
    object      U;
}
// * * * * * * * * * * * * * * * * * * * * * * * * * * * * * * * * * * * * * //

dimensions      [0 1 -1 0 0 0 0];

internalField   nonuniform List<vector> 
1369
(
(0.06530220838 -0.04509034223 0)
(-0.03208889186 -0.09089300823 0)
(-0.1790854029 -0.09240017938 0)
(-0.3738133766 -0.0880614326 0)
(-0.4946479149 -0.1564492133 0)
(-0.4997608664 -0.2329139441 0)
(-0.4769514559 -0.2500506753 0)
(-0.4630738507 -0.2393314486 0)
(-0.4679326352 -0.2147839457 0)
(-0.4785074321 -0.1424336261 0)
(-0.6526320637 -0.2724049488 0)
(-0.6575333673 -0.4594583306 0)
(-0.6116641118 -0.4564281415 0)
(-0.561770066 -0.458796343 0)
(-0.5232230649 -0.4547540899 0)
(-0.4873007177 -0.4532506676 0)
(-0.4458944772 -0.4723245784 0)
(-0.432691528 -0.5400242065 0)
(-0.5170946788 -0.6218853235 0)
(-0.6966217895 -0.6294639487 0)
(-0.8446615735 -0.4498867778 0)
(-0.7741254969 -0.6512666324 0)
(-0.8511279153 -0.4790911507 0)
(-0.8716912964 -0.3469571954 0)
(-0.8580202048 -0.3051940783 0)
(-0.8406539108 -0.2768277554 0)
(-0.7894807665 -0.2346048234 0)
(-0.6604803341 -0.1569475318 0)
(-0.2178721503 -0.08960105499 0)
(-0.1762769358 -0.03515466937 0)
(-0.2881918311 0.0723593677 0)
(-0.5212246248 0.03819006223 0)
(-1.662856626 0.0888511106 0)
(-1.540593621 0.3765212568 0)
(-1.421843749 0.557969952 0)
(-1.24914859 -0.1119699456 0)
(-1.263598003 -0.2447726606 0)
(-1.777455533 0.1742834469 0)
(-1.163541018 0.3043791412 0)
(-0.8060502141 0.3329838137 0)
(-0.7590267775 0.353118489 0)
(-0.7850709705 0.3561700252 0)
(-0.7883409888 0.4021141439 0)
(-0.7684532268 0.4635805084 0)
(-0.739062388 0.5158397363 0)
(-0.7019937482 0.5312677232 0)
(-0.640087472 0.5017322016 0)
(-0.5552060302 0.4601184885 0)
(-0.4731998663 0.4366725529 0)
(-0.408529271 0.4198131211 0)
(-0.3584269018 0.3749218681 0)
(-0.2834556636 0.2933794776 0)
(-0.2716193803 0.3105130155 0)
(-0.2603774866 0.3246289422 0)
(-0.2415825614 0.3197174901 0)
(-0.206581776 0.2788329546 0)
(-0.1583790683 0.2110574731 0)
(-0.08700713615 0.1660936674 0)
(-0.017183707 0.1248172668 0)
(0.05611003754 0.06541723164 0)
(0.003226463214 0.08109022024 0)
(0.1157818501 0.1510894194 0)
(0.2131199782 0.1812021574 0)
(0.3897591578 0.1889312236 0)
(0.5137920251 0.1169482817 0)
(0.5231139461 -0.2479522787 0)
(0.5008632002 -0.2020236801 0)
(0.4901129135 -0.1482473419 0)
(0.4976224453 -0.1597834355 0)
(0.03463490056 0.1367576154 0)
(-0.2957557022 -0.1237649411 0)
(-0.5404793407 -0.8207569804 0)
(-0.5332785931 -0.7431869656 0)
(-0.5907616493 -0.6839078199 0)
(-0.6376680405 -0.6154872288 0)
(-0.619701458 -0.5351171246 0)
(-0.4910660859 -0.440857077 0)
(-0.3044614051 -0.3059668107 0)
(-0.6362772406 -0.0786529298 0)
(-0.8490470194 0.2038262868 0)
(-0.9462265348 0.3509319045 0)
(-0.4849530069 -0.4178057084 0)
(-0.6305964217 -0.6753331546 0)
(-0.7561545257 -0.5867698363 0)
(-0.9921737038 -0.5432584617 0)
(-1.28914647 -0.4391948227 0)
(-1.318985023 -0.2260803275 0)
(-0.881566888 -0.1963001842 0)
(0.03761789712 -0.185482779 0)
(0.07792971292 -0.1236031544 0)
(-0.4284546185 -0.45875805 0)
(-1.098174716 -0.740300519 0)
(-1.647757734 0.09629221402 0)
(-1.502348944 0.8009697295 0)
(-1.372355455 1.289202451 0)
(-1.19606259 0.9201971537 0)
(-1.096001721 0.558261793 0)
(-0.5312580505 0.3634776573 0)
(-0.6411317791 0.2849726618 0)
(-0.6783954727 0.4117302634 0)
(-0.7053156018 0.725661577 0)
(-0.7204444297 0.249817512 0)
(-0.6972934322 0.356241335 0)
(-0.7222244957 0.5088340583 0)
(-0.7654248316 0.6276854496 0)
(-0.7971026792 0.6679116543 0)
(-0.806650436 0.6660433854 0)
(-0.7712759237 0.6562782529 0)
(-0.6549731962 0.6595675606 0)
(-0.4720948806 0.6901748895 0)
(-0.2613164418 0.4395610057 0)
(0.01630927529 -0.04971949027 0)
(0.3415040565 0.1677103441 0)
(0.3523006388 0.2450079282 0)
(0.3285911293 0.2670280978 0)
(0.304647808 0.19927111 0)
(0.2524175866 -0.02500631555 0)
(0.1792751691 -0.09137704594 0)
(0.1172178087 -0.1112352372 0)
(0.03438383136 -0.06479028383 0)
(-0.1547743509 -0.02419614245 0)
(0.03908904051 0.1888148484 0)
(0.09861304435 0.1976657387 0)
(0.180721956 0.2234641031 0)
(0.2298146171 0.2267022196 0)
(0.2047162711 0.2091165779 0)
(0.1695430968 0.1473133719 0)
(-0.01422342876 -0.0761676299 0)
(-0.1078108569 0.04290867022 0)
(-0.1917325197 0.1495377553 0)
(-0.3835380425 -0.06503679384 0)
(-0.7446700438 -0.8810154535 0)
(-0.7436669401 -0.8126137676 0)
(-0.8111376385 -0.7399003946 0)
(-0.8747558199 -0.6436088049 0)
(-0.8470561917 -0.517933387 0)
(-0.6749165263 -0.364746609 0)
(-0.4580540634 -0.1766423122 0)
(-0.8617731126 0.1619730761 0)
(-0.9241893578 0.3607475364 0)
(-0.9773478749 0.4049901547 0)
(-0.4073763711 -0.1791836658 0)
(-0.4404771826 -0.5336923681 0)
(-0.6018697345 -0.5439348632 0)
(-0.9098179066 -0.5990037297 0)
(-1.337362753 -0.5101001348 0)
(-1.501699565 -0.2952817302 0)
(-1.419041694 -0.2865533077 0)
(-1.114688871 -0.6745393858 0)
(-1.075797963 -1.242628517 0)
(-1.087350271 -1.417847583 0)
(-1.090397448 -0.9207318778 0)
(-1.092834965 0.09649413799 0)
(-1.075124103 0.8913012576 0)
(-1.083410515 1.452908194 0)
(-1.096760285 1.781100001 0)
(-1.07454673 1.683047825 0)
(-0.09353738271 0.8860396815 0)
(-0.4862487241 -0.1281077206 0)
(-0.6271847718 -0.2860342489 0)
(-0.7658349859 -0.127621748 0)
(-0.8079253702 -0.2658429009 0)
(-0.8914523954 0.05307905078 0)
(-0.9185964718 0.4045497848 0)
(-0.9577385387 0.592160498 0)
(-1.007391999 0.6691727854 0)
(-1.058358176 0.6935878466 0)
(-1.110493279 0.7210400135 0)
(-1.150063139 0.7758231488 0)
(-1.164530309 0.8644336214 0)
(-0.5483733711 -0.1498399557 0)
(-0.2003216485 -0.1924515939 0)
(-0.08000520403 -0.08962382647 0)
(0.02529605255 0.1258513724 0)
(0.1101956815 -0.02505525084 0)
(0.1529398768 -0.09739031666 0)
(0.1472669659 -0.1544859859 0)
(0.08506687228 -0.1638128254 0)
(0.01809827241 -0.1637347666 0)
(-0.1583748002 -0.01084292892 0)
(-0.1994500907 -0.1387027072 0)
(0.008499292178 0.23813085 0)
(0.09202476149 0.1954854389 0)
(0.1447308316 0.2147926302 0)
(0.1646551295 0.2337382211 0)
(0.1482578589 0.239197051 0)
(0.1173052798 0.2108970313 0)
(0.02056914316 0.2013167637 0)
(-0.05406638253 0.1548865866 0)
(-0.1188129252 0.1685839931 0)
(-0.3305882757 -0.0005031112298 0)
(-0.9620542669 -1.022138635 0)
(-0.9401923316 -0.9434751328 0)
(-0.9444402472 -0.8459765914 0)
(-0.9774647677 -0.7250009952 0)
(-0.9917917582 -0.5847634887 0)
(-0.9756662274 -0.4043939059 0)
(-1.002208679 0.2070310404 0)
(-1.025403592 0.3521543112 0)
(-1.032253068 0.4521011299 0)
(-0.6404482494 0.1856942401 0)
(-0.2232261539 -0.1552564689 0)
(-0.2194705841 -0.4235286569 0)
(-0.4727138476 -0.5155584438 0)
(-0.8256361129 -0.6605241378 0)
(-1.271564215 -0.5488271862 0)
(-1.387699496 -0.3038282047 0)
(-1.443061805 -0.1168336466 0)
(-1.232762092 0.09400082893 0)
(-1.124604823 0.1856092968 0)
(-1.042898549 0.3310090954 0)
(-0.9628421096 0.4872649786 0)
(1.073041753 0.08237870809 0)
(0.3867801377 0.2212358828 0)
(-0.6646214247 0.4054470207 0)
(-0.9263515145 0.831407285 0)
(-0.966226729 1.038484347 0)
(0.6813271942 0.4719343995 0)
(-0.4227038666 -0.1129847666 0)
(-0.6686408363 -0.2874018664 0)
(-0.7595074125 -0.2840906086 0)
(-0.836804151 -0.3613599305 0)
(-0.9423362247 -0.1871030104 0)
(-1.056007129 0.3233917253 0)
(-1.114740059 0.5218979738 0)
(-1.15709173 0.6320251667 0)
(-1.182786707 0.715324174 0)
(-1.188891914 0.7977418806 0)
(-1.173612625 0.8876561129 0)
(-1.087618597 0.9403912136 0)
(-0.9450890469 0.1856132846 0)
(-0.06957258385 -0.1848596291 0)
(-0.0237975213 -0.1771652385 0)
(0.03232954251 -0.1443546353 0)
(0.1067334558 -0.1480321626 0)
(0.1498297981 -0.1657141344 0)
(0.153236057 -0.1773165993 0)
(0.115921481 -0.1767901375 0)
(0.04675977148 -0.2195305296 0)
(-0.1987631343 0.1087697351 0)
(-0.2531517348 -0.2087138712 0)
(-0.2012549554 0.2950547009 0)
(-0.004580256854 0.2139059214 0)
(0.1040526433 0.2154632719 0)
(0.1396620684 0.2314748295 0)
(0.1330580639 0.2376914096 0)
(0.09793040212 0.2224161071 0)
(0.02916485789 0.2066798376 0)
(-0.04701262374 0.1571602533 0)
(-0.09148195556 0.1641658385 0)
(-0.3447763203 0.0008574783903 0)
(-0.8805314727 -0.9215396982 0)
(-0.7621193273 -0.8469188677 0)
(-0.6969381265 -0.7976186315 0)
(-0.7535396642 -0.710608117 0)
(-0.7937968298 -0.5607162792 0)
(-0.793892596 -0.3624707976 0)
(-0.9775858058 -0.06499293525 0)
(-0.986575207 0.09569967937 0)
(-0.9888688645 0.0730045244 0)
(-0.06411455336 -0.3052707574 0)
(0.1698100707 -0.3309678528 0)
(-0.1750089272 -0.3723365109 0)
(-0.4943814685 -0.5401415003 0)
(-0.8961407774 -0.7069821296 0)
(-1.207703742 -0.564161472 0)
(-1.262748439 -0.3169962936 0)
(-1.304261769 -0.1152421913 0)
(-1.186510197 0.264060033 0)
(-1.119702582 0.4685140968 0)
(-1.049112787 0.6452792753 0)
(-0.9646311181 0.8027958799 0)
(1.317453151 0.1310214837 0)
(0.5739991088 0.2187935755 0)
(-0.7488810713 -0.03065520398 0)
(-1.040698563 0.2576596919 0)
(-1.043430769 0.3439315969 0)
(1.021123358 0.3509387947 0)
(-0.5481478391 -0.1741406315 0)
(-0.6688842925 -0.2826456272 0)
(-0.7782656335 -0.341502826 0)
(-0.9020782013 -0.3907046151 0)
(-0.9924911472 -0.1989283417 0)
(-1.137187967 0.3050333605 0)
(-1.147560158 0.4800905884 0)
(-1.144539064 0.6057166838 0)
(-1.135588321 0.7188925907 0)
(-1.120254174 0.8259934237 0)
(-1.091251967 0.9291389169 0)
(-0.9411593872 0.8260039476 0)
(-0.7581272652 0.1122333311 0)
(-0.1133195386 -0.1783361275 0)
(-0.04955095206 -0.1566545759 0)
(0.004670877479 -0.1298038632 0)
(0.09495326456 -0.1685752241 0)
(0.1317400505 -0.1773331708 0)
(0.1310876459 -0.1969808176 0)
(0.0695227921 -0.216095037 0)
(-0.0890805969 -0.2896047949 0)
(-0.2489062351 0.1783403998 0)
(-0.2826879862 -0.2682222062 0)
(-0.2900146318 0.3374230125 0)
(-0.1458855613 0.2120160112 0)
(0.05759328904 0.2048522874 0)
(0.1244390552 0.2074834411 0)
(0.1177020853 0.2039645165 0)
(0.0948589838 0.1926900995 0)
(0.05781401356 0.1811711817 0)
(-0.04431334027 0.1553740389 0)
(-0.09479995213 0.1090071366 0)
(-0.9582582017 -0.4990527115 0)
(-0.8916051256 -0.8138563788 0)
(-0.7033621732 -0.7478344199 0)
(-0.4934260723 -0.7089865096 0)
(-0.5166230998 -0.6865036568 0)
(-0.6008898728 -0.5426389473 0)
(-0.6379766053 -0.3753861187 0)
(-0.9592948074 -0.2757064545 0)
(-1.014813755 -0.2999282176 0)
(-1.238378166 -0.5292296845 0)
(-1.258285667 -0.5614191501 0)
(-1.046274931 -0.5106413231 0)
(-0.8349896083 -0.4735445871 0)
(-0.7948229308 -0.7612540055 0)
(-0.9593941062 -0.7868341239 0)
(-1.122580998 -0.5655514603 0)
(-1.148649078 -0.326485478 0)
(-1.182326184 -0.1159084837 0)
(-1.092888152 0.2786228939 0)
(-1.041590442 0.4960793369 0)
(-0.9850676593 0.6865095512 0)
(-0.9223352117 0.8564959915 0)
(0.6431405393 0.4384853112 0)
(-0.07400793232 0.5682490092 0)
(-0.3740265367 0.4173773603 0)
(-0.8900844454 0.2559296397 0)
(-0.9529528292 0.3488840422 0)
(1.112345211 0.3081800077 0)
(-0.6326122268 -0.2075281351 0)
(-0.6723947213 -0.2652854717 0)
(0.7539138833 0.3002676659 0)
(-0.9887053243 -0.3409571865 0)
(-1.02956198 -0.1076572228 0)
(-0.9466279352 0.2208052099 0)
(-0.9793059854 0.4159359179 0)
(-1.017894337 0.5773854969 0)
(-1.03661728 0.7161218887 0)
(-1.036483147 0.8390044397 0)
(-1.007143982 0.9510774279 0)
(-0.7911409232 0.5328992104 0)
(-0.7267758403 0.01696069365 0)
(-0.3270295793 -0.1157955231 0)
(-0.08670106034 -0.06835949931 0)
(-0.03522831845 -0.1398312621 0)
(0.09148259182 -0.1395739277 0)
(0.1299411662 -0.1514444778 0)
(0.115811573 -0.1669975815 0)
(-0.006258327733 -0.1991033928 0)
(-0.2047508526 -0.3097838124 0)
(-0.29480729 0.2068985663 0)
(-0.3248120647 -0.3136546949 0)
(-0.3271271382 0.3231707534 0)
(-0.1628669509 0.06727733933 0)
(0.04620525518 0.1232593748 0)
(0.1206033586 0.1251233498 0)
(0.09774615768 0.12967085 0)
(0.06680868632 0.1413651928 0)
(-0.02686403012 0.06842094336 0)
(-0.01138183734 0.06244595675 0)
(-0.6474026054 -0.09066478763 0)
(-1.038785169 -0.7150917891 0)
(-0.9515562866 -0.7444286406 0)
(-0.6972331615 -0.6886753632 0)
(-0.3364469191 -0.614557069 0)
(0.2552801419 -0.5364345757 0)
(0.2820997018 -0.4911660761 0)
(-0.3500815551 -0.4484339152 0)
(-0.9372214122 -0.5081330538 0)
(-1.11544283 -0.7561619572 0)
(-1.395218508 -0.8646054949 0)
(-1.579929339 -0.7617623173 0)
(-1.707798191 -0.6428173778 0)
(-1.757742159 -0.4919881626 0)
(-0.8658591369 -0.5240769001 0)
(-0.8444267767 -0.81511303 0)
(-1.025280197 -0.5803391566 0)
(-1.045944132 -0.338128181 0)
(-1.072492668 -0.1151740947 0)
(-1.012298608 0.2953391575 0)
(-0.9718672837 0.5243539465 0)
(-0.9197531318 0.7221624442 0)
(-0.8703576625 0.8966811445 0)
(-0.744207423 1.00136232 0)
(-0.7348913337 0.9232047585 0)
(-0.4720713254 0.5379143313 0)
(0.2034184002 0.372988344 0)
(-0.4123482096 0.3353194868 0)
(1.014729696 0.3076422952 0)
(-0.6553199823 -0.2210928194 0)
(-0.653405814 -0.2553449075 0)
(-0.4999181202 -0.1941018867 0)
(-1.037975487 -0.2066095008 0)
(-1.061652128 -0.02162995199 0)
(-0.846778702 0.1824228573 0)
(-0.8394166575 0.3457134802 0)
(-0.8976480362 0.5316100799 0)
(-0.9419027467 0.7032982111 0)
(-0.9557105458 0.849123378 0)
(-0.9165321938 0.969064201 0)
(-0.6828360758 0.1900540178 0)
(-0.7211937834 -0.2687328987 0)
(-0.3947722784 -0.1296882355 0)
(-0.07441495181 -0.2043585725 0)
(0.02838632136 -0.03466869356 0)
(0.07033765493 0.01290129746 0)
(0.03871468236 -0.06132670645 0)
(0.0704914834 -0.09646563034 0)
(-0.1013331136 -0.02656109246 0)
(-0.1998441719 -0.2589840771 0)
(-0.3300077404 0.2218736566 0)
(-0.3635006538 -0.339061041 0)
(-0.2691729461 -0.02438864451 0)
(-0.1020636087 -0.117431734 0)
(-0.0006715330256 0.04679994957 0)
(0.02111125745 -0.01109765902 0)
(0.0142050055 -0.01014411533 0)
(0.1104089704 -0.05063127364 0)
(0.07466145176 0.0542643034 0)
(-0.01786268172 0.1093094512 0)
(-1.101247222 -0.6418420521 0)
(-1.118956373 -0.6633531785 0)
(-1.048803552 -0.7108003717 0)
(-0.733119997 -0.6782843239 0)
(-0.3250505362 -0.6005065485 0)
(0.19835178 -0.5665242322 0)
(0.5659963514 -0.5649144115 0)
(0.1516436503 -0.5382182458 0)
(-0.9224281633 -0.8469616928 0)
(-1.117706461 -1.086542678 0)
(-1.335634631 -1.063488278 0)
(-1.500139045 -0.8626505945 0)
(-1.623918442 -0.6369464544 0)
(-1.684685029 -0.3715243126 0)
(-1.020580601 0.03401347716 0)
(-0.6427701737 -0.7178363387 0)
(-0.937275868 -0.6164953541 0)
(-0.9513841686 -0.3571561048 0)
(-0.9699183544 -0.1121905534 0)
(-0.9381676656 0.3187948016 0)
(-0.9045811498 0.5660538953 0)
(-0.8395935031 0.7631152357 0)
(-0.7989123216 0.9292914135 0)
(-0.7606700816 1.062805906 0)
(-0.6448874045 0.9537267237 0)
(-0.2219982382 0.2053601771 0)
(-0.1358732737 -0.03185330979 0)
(0.2267245539 0.1891223009 0)
(0.04966342747 0.1124059268 0)
(-0.6724442367 -0.2578296616 0)
(-0.9232273951 -0.3126744892 0)
(-0.9500118913 -0.2762894527 0)
(-1.045275637 -0.1333268425 0)
(-1.088144522 0.06101734244 0)
(-0.7956745057 0.1951789363 0)
(-0.732625388 0.3054702776 0)
(-0.7843156962 0.4876420751 0)
(-0.8481980032 0.6922738439 0)
(-0.8734127313 0.8655867501 0)
(-0.8057704449 0.9751820947 0)
(-0.6561714491 -0.09723436072 0)
(-0.743469477 -0.5014097563 0)
(-0.7893141708 -0.4109606772 0)
(-0.810251427 0.5668313199 0)
(0.1663770128 0.0519628414 0)
(-0.02778659104 0.06875462428 0)
(0.1098877877 0.08107183916 0)
(0.1224145007 0.1215426099 0)
(0.09089984455 0.2379936779 0)
(-0.125007737 0.1475798587 0)
(-0.3281885728 0.2635541098 0)
(-0.3744255217 -0.3699257861 0)
(-0.1702451656 -0.3210500952 0)
(-0.01143855399 -0.3196688493 0)
(0.06862408216 -0.191765434 0)
(0.09415423414 -0.1590863081 0)
(0.07414661264 -0.07674950082 0)
(0.0170442737 -0.1095267805 0)
(0.1028968995 -0.09941825891 0)
(-1.089317514 -0.628603338 0)
(-1.147446386 -0.5903393531 0)
(-1.218158045 -0.6109833473 0)
(-1.210673954 -0.7000797341 0)
(-1.064440053 -0.6882124159 0)
(-0.7235493246 -0.614306252 0)
(-0.3691635584 -0.536842887 0)
(-0.03402339348 -0.5789812429 0)
(-0.1383839161 -0.7765918283 0)
(-0.8890461565 -1.270735465 0)
(-1.028936361 -1.379392667 0)
(-1.166043425 -1.231974608 0)
(-1.27343406 -0.9521267335 0)
(-1.350074686 -0.6536725706 0)
(-1.408378048 -0.3453096396 0)
(-1.117773274 0.4543266778 0)
(-0.3983950815 -0.1735919281 0)
(-0.8469200109 -0.6994111537 0)
(-0.8530001349 -0.3975670986 0)
(-0.8612151788 -0.1107813526 0)
(-0.8529476679 0.3617800604 0)
(-0.8162068288 0.6422569266 0)
(-0.6714176208 0.7806720056 0)
(-0.6609540941 0.8794667088 0)
(-0.6586559417 0.971366234 0)
(-0.4984531855 0.6908372377 0)
(-0.1939396768 -0.006904912627 0)
(-0.219001216 -0.169193273 0)
(-0.1869029771 -0.2378031596 0)
(-0.3116137163 0.009073236925 0)
(-0.5606907108 -0.2518322261 0)
(-0.8266629913 -0.2338885084 0)
(-0.9428125089 -0.1799129812 0)
(-1.046605658 -0.04036074522 0)
(-1.104828993 0.135748721 0)
(-0.7273693008 0.2382976942 0)
(-0.6270972346 0.3010045676 0)
(-0.6680911725 0.4565519663 0)
(-0.7512256221 0.6908111436 0)
(-0.7837233053 0.893263043 0)
(-0.6481902496 0.9392898366 0)
(-0.6382657002 -0.2102792346 0)
(-0.7438117687 -0.5945044055 0)
(-0.8047476297 -0.4131856433 0)
(-0.7367501346 0.5757875767 0)
(-0.7575706792 0.8366548959 0)
(-0.06625058946 1.014156815 0)
(0.1655472345 0.4883879766 0)
(-0.1035789618 0.9469736442 0)
(-0.2989009455 1.048302719 0)
(-0.4707176724 0.696243915 0)
(-0.3655367909 0.3741344867 0)
(-0.4170147355 -0.4148712865 0)
(-0.5337687695 -0.565744685 0)
(-0.2933052267 -0.9374186444 0)
(-0.002331088534 -0.6500328298 0)
(0.1491919607 -0.3270888868 0)
(0.1428238324 -0.2303809925 0)
(-0.4292265292 -0.7353825896 0)
(-1.011656888 -0.6434422588 0)
(-1.071656024 -0.5754424259 0)
(-1.140786115 -0.5512209948 0)
(-1.212717992 -0.5675845445 0)
(-1.243844767 -0.6322932835 0)
(-1.233546193 -0.6788524962 0)
(-1.161548341 -0.6925735258 0)
(-0.9980909126 -0.6618819981 0)
(-0.8265280562 -0.8086975695 0)
(-0.7598695542 -1.233876988 0)
(-0.8043350252 -1.583438078 0)
(-0.8787548971 -1.571379677 0)
(-0.9469286987 -1.321750031 0)
(-1.010648048 -1.02612571 0)
(-1.038773226 -0.6772641163 0)
(-1.059267509 -0.3386491272 0)
(-1.021424492 0.5489616564 0)
(-0.3590923178 0.2958467575 0)
(0.8211088291 -0.2615697824 0)
(0.8475900015 -0.1635375316 0)
(0.8574797506 -0.05291971243 0)
(0.8433865329 0.1344614966 0)
(0.3445450074 0.2181256093 0)
(0.1350236161 0.1814446025 0)
(-0.2390340003 -0.05775711223 0)
(-0.3375567599 -0.1132029456 0)
(-0.1719480667 -0.06133143869 0)
(-0.1928041787 -0.05007693206 0)
(-0.2270400719 -0.2076480894 0)
(-0.2796261099 -0.1069706166 0)
(-0.3334705549 0.02552601157 0)
(-0.5004558926 -0.2131494233 0)
(-0.7299967898 -0.1848913383 0)
(-0.8687454393 -0.1161528341 0)
(-1.046580219 0.06198101551 0)
(-1.109521865 0.2035172586 0)
(-0.5971764269 0.3003245626 0)
(-0.4797823899 0.323942804 0)
(-0.5172716178 0.4398476638 0)
(-0.6307040127 0.7031930287 0)
(-0.6654725541 0.929956158 0)
(-0.4159933929 0.819238524 0)
(-0.5821468039 -0.1468935435 0)
(-0.7128110347 -0.4777026938 0)
(-0.7766378707 -0.1387912479 0)
(-0.6806034769 0.4895697753 0)
(-0.6731918057 0.761405666 0)
(-0.7018824264 0.9608493366 0)
(-0.7159024393 1.089043753 0)
(-0.7010108103 1.170581292 0)
(-0.6891236895 1.280298823 0)
(-0.7101999902 0.7130801105 0)
(-0.3754724365 0.3968067352 0)
(-0.4031495829 -0.4303197408 0)
(-0.7171108397 -0.3886154066 0)
(-0.8966729396 -1.158699698 0)
(-0.9328463953 -1.031468454 0)
(-0.9334673387 -0.9389220832 0)
(-0.9322051914 -0.8400609229 0)
(-0.94820328 -0.7346721732 0)
(-0.9831838137 -0.6440642759 0)
(-1.042771817 -0.577463935 0)
(-1.11522871 -0.5406201648 0)
(-1.185234954 -0.5424836234 0)
(-1.236137798 -0.5836293125 0)
(-1.25161691 -0.6469640095 0)
(-1.211488105 -0.6958565061 0)
(-1.030261443 -0.7325814434 0)
(-0.7724917397 -1.069033485 0)
(-0.6819103794 -1.506372562 0)
(-0.6913567084 -1.686342077 0)
(-0.7197039131 -1.603847021 0)
(-0.7516021074 -1.367449031 0)
(-0.7905082354 -1.056344426 0)
(-0.8065804737 -0.687470271 0)
(-0.7954555115 -0.3491766009 0)
(-0.729396055 0.5113809593 0)
(-0.4072496602 0.7614688793 0)
(-0.2411082307 0.7057569437 0)
(0.04097097413 0.5415231309 0)
(0.8515365795 0.03291650088 0)
(0.7999874789 0.09968178481 0)
(0.3673969097 0.1674372112 0)
(0.1493641755 0.1269658222 0)
(-0.06078164303 -0.01155222735 0)
(-0.02817511332 -0.1236078341 0)
(-0.1052220564 -0.08170009321 0)
(-0.1831692746 -0.105945082 0)
(-0.2571306704 -0.1798569997 0)
(-0.28763123 -0.119886951 0)
(-0.3615809631 -0.01407996932 0)
(-0.5099890976 -0.1898594774 0)
(-0.6727058693 -0.163432319 0)
(-0.7703844152 -0.04396965763 0)
(-1.035583729 0.1601976536 0)
(-1.108747251 0.2687921259 0)
(-0.3848864435 0.3743941059 0)
(-0.2616027621 0.3631772489 0)
(-0.2681278087 0.4216926423 0)
(-0.3975473759 0.689614185 0)
(-0.4322812285 0.9180003236 0)
(-0.1908567587 0.6566170701 0)
(-0.4694336604 0.09854418664 0)
(-0.6314496346 -0.1979637752 0)
(-0.6928946578 0.1296870012 0)
(-0.631316852 0.4345755409 0)
(-0.6190083609 0.6908315212 0)
(-0.6364734796 0.8906233391 0)
(-0.6538506836 1.048642114 0)
(-0.660361644 1.173700942 0)
(-0.6294184753 1.279636191 0)
(-0.6350706317 0.6218104839 0)
(-0.3651575491 0.4000168063 0)
(-0.3824790194 -0.4637694841 0)
(-0.6835231515 -0.3004560365 0)
(-0.7949390899 -1.180855804 0)
(-0.8255694068 -1.066366567 0)
(-0.8340853968 -0.9711503802 0)
(-0.8473547136 -0.8741606356 0)
(-0.8752164535 -0.7807971914 0)
(-0.9246825519 -0.6929177643 0)
(-0.994995335 -0.6149639766 0)
(-1.076023403 -0.5591299609 0)
(-1.152307503 -0.5398275552 0)
(-1.212940712 -0.5626975297 0)
(-1.252103684 -0.622073465 0)
(-1.250274539 -0.685282221 0)
(-1.145057087 -0.6703766765 0)
(-0.9230371013 -0.5587977713 0)
(-0.6510240517 -0.4175285648 0)
(-0.4191960463 -0.267441046 0)
(-0.2688402822 -0.174672983 0)
(-0.0168563998 -0.1845426296 0)
(0.6823310536 -0.4467678729 0)
(0.8150317378 -0.505394894 0)
(0.7994901121 -0.4019887217 0)
(0.426859889 -0.3765002089 0)
(0.30533036 -0.2697384004 0)
(0.3145851514 0.3273996689 0)
(0.6162740645 0.1399050095 0)
(1.086513981 -0.05367733599 0)
(0.6979487262 0.0688357708 0)
(0.2411682326 0.1066455028 0)
(0.02171588546 -0.009352455163 0)
(0.082943785 -0.07871373731 0)
(0.005027456325 -0.0639266461 0)
(0.05234932356 0.01756199719 0)
(-0.1717116568 -0.1873104249 0)
(-0.2637627288 -0.1981424856 0)
(-0.3180634754 -0.1349492458 0)
(-0.3577168202 -0.0449630273 0)
(-0.5947792887 -0.2064067956 0)
(-0.6659773298 -0.1681820101 0)
(-0.7069258502 0.008213730303 0)
(-1.014622258 0.2293132045 0)
(-1.107526131 0.3200597172 0)
(-0.156814355 0.4603394608 0)
(-0.04965770261 0.4067016944 0)
(0.08654309347 0.3795018115 0)
(0.2171254487 0.3826668339 0)
(0.2736526495 0.414891033 0)
(-0.1187456001 0.5925105599 0)
(-0.327813511 0.4092013642 0)
(-0.4972174447 0.1651917807 0)
(-0.5904536471 0.2533781585 0)
(-0.5582755194 0.4481552641 0)
(-0.5220144175 0.6354733113 0)
(-0.5414155388 0.824867156 0)
(-0.5648176793 1.001759492 0)
(-0.5604473783 1.141966091 0)
(-0.5439966974 1.27657536 0)
(-0.5304057534 0.5255655189 0)
(-0.3387577281 0.4065549631 0)
(-0.8564692528 -0.771878415 0)
(-0.9374091238 -0.6889750015 0)
(-1.028201646 -0.6140022563 0)
(-1.112602995 -0.5686569929 0)
(-1.181453481 -0.5671815166 0)
(-1.237488293 -0.6094175629 0)
(-1.272124847 -0.6796681234 0)
(-1.222444494 -0.6925750873 0)
(-1.003322182 -0.5861480071 0)
(-0.651636191 -0.4290109931 0)
(-0.3313556264 -0.2409633855 0)
(-0.1657991872 -0.1338413565 0)
(0.01810816203 -0.1273407771 0)
(0.5854251464 -0.3022791234 0)
(1.04556348 -0.3959086389 0)
(1.112160411 -0.3924660135 0)
(0.5269699145 -0.4600578423 0)
(0.4128526018 -0.4137795894 0)
(0.7825116416 -0.0693637022 0)
(0.8027861239 0.02607814687 0)
(1.220535866 -0.07947997235 0)
(0.6184585582 0.02013603332 0)
(0.01340442345 0.002127115799 0)
(-0.1088116282 -0.08713559918 0)
(0.0293854441 -0.05701695183 0)
(0.1352331815 -0.06093997303 0)
(-0.04665379876 -0.2140296331 0)
(-0.164874574 -0.2498420588 0)
(-0.2726265494 -0.2497710598 0)
(-0.339330243 -0.1744342271 0)
(-0.3796094472 -0.1449443772 0)
(-0.6154428134 -0.1998381826 0)
(-0.6877036082 -0.1940385235 0)
(-0.731481605 -0.02970903863 0)
(-1.042972727 0.2325763525 0)
(-1.118332012 0.3220359112 0)
(-0.05057466773 0.5949149272 0)
(-0.0515773917 0.4612206457 0)
(-0.06842213829 0.4345157997 0)
(-0.103405791 0.4548009946 0)
(-0.1603808772 0.4920142036 0)
(-0.2250272477 0.5369033644 0)
(-0.3084285043 0.5307204191 0)
(-0.4130705954 0.4499751616 0)
(-0.5166473086 0.3641984447 0)
(-0.4758081481 0.5214637911 0)
(-0.3547612105 0.6484243205 0)
(-0.3380121849 0.771058392 0)
(-0.382516909 0.941535394 0)
(-0.357537291 1.088275863 0)
(-0.296668504 1.182665685 0)
(-0.3526351424 0.4205816826 0)
(-0.3065258154 0.4053181189 0)
(-1.138986259 -0.5994497096 0)
(-1.205543638 -0.6148055597 0)
(-1.270476159 -0.6762814729 0)
(-1.295492687 -0.714929371 0)
(-1.156214591 -0.6299668031 0)
(-0.7602513502 -0.4869170083 0)
(-0.2966538516 -0.2427947069 0)
(-0.1030905309 -0.08406894892 0)
(0.04739985885 0.01063686906 0)
(0.2007640797 -0.2117806704 0)
(0.5398201489 -0.2882708611 0)
(0.9272572313 -0.3588834728 0)
(0.5936529094 -0.5061091464 0)
(0.4906035983 -0.4759292751 0)
(0.8755983257 -0.1637800177 0)
(0.7094221502 0.06464678304 0)
(1.162572065 -0.05107290868 0)
(0.180237948 -0.08950282566 0)
(0.09981399056 -0.166606312 0)
(0.1287176261 -0.1850986159 0)
(0.1136041946 -0.1887207659 0)
(0.05583081386 -0.2027551596 0)
(-0.05238565634 -0.2806939646 0)
(-0.1932898463 -0.3348408567 0)
(-0.3496926379 -0.3530695761 0)
(-0.3605111599 -0.2707440367 0)
(-0.3688261144 -0.2403395416 0)
(-0.6386385098 -0.2504838723 0)
(-0.7214482322 -0.2484975021 0)
(-0.7657778056 -0.08627105453 0)
(-1.090315514 0.2590074139 0)
(-1.120327081 0.413294195 0)
(-1.048444127 0.5181396633 0)
(-0.905951223 0.5743355364 0)
(-0.7805805601 0.6241908634 0)
(-0.7153645648 0.6694362717 0)
(-0.6766588767 0.714625826 0)
(-0.604708809 0.6638107995 0)
(-0.5407184543 0.5099092096 0)
(-0.5778028008 0.4675208486 0)
(-0.578972729 0.5242342341 0)
(-0.4220584407 0.6749863876 0)
(-0.1101830599 0.7795077558 0)
(0.1831992288 0.8121595884 0)
(0.3443009617 0.8498691405 0)
(0.3270360984 0.9054640283 0)
(0.05388001782 0.9942953907 0)
(-0.17392377 0.5496966504 0)
(-0.2839757191 0.4063012624 0)
(-1.235048779 -0.6835897785 0)
(-1.312167461 -0.7270503841 0)
(-1.325251316 -0.6616632794 0)
(-1.136383712 -0.6420690157 0)
(-0.5797102216 -0.5543654513 0)
(-0.3596482965 -0.2227460275 0)
(-0.08382459174 -0.06687210067 0)
(-0.008076181459 0.01973877988 0)
(0.01937050229 -0.06312173489 0)
(0.05668463466 0.04768236553 0)
(0.4756268742 -0.1478987484 0)
(0.4437425623 -0.5036273053 0)
(0.4874054612 -0.09376064381 0)
(0.4534106248 -0.06730449394 0)
(0.3845745382 -0.1263730614 0)
(-0.01391892962 -0.153121049 0)
(0.006370388813 -0.1526992206 0)
(0.06037721115 -0.1930846085 0)
(0.06432942466 -0.2342041777 0)
(0.01347576525 -0.2793132753 0)
(-0.09237473995 -0.3606546751 0)
(-0.2897546024 -0.4945185125 0)
(-0.3871939135 -0.4824790543 0)
(-0.3626123829 -0.4177541865 0)
(-0.3495345757 -0.3987350417 0)
(-0.7375367215 -0.496914068 0)
(-0.7799941449 -0.3678133054 0)
(-0.8116845254 -0.1807033549 0)
(-1.122613057 0.3111213219 0)
(-1.091687447 0.478644162 0)
(-1.024776899 0.5918973251 0)
(-0.9274875431 0.6942600529 0)
(-0.8352081983 0.7721322878 0)
(-0.7673174472 0.8294169171 0)
(-0.689855565 0.8877778908 0)
(-0.4258674238 0.392515938 0)
(-0.4919248764 0.126905733 0)
(-0.5041973712 0.2344925355 0)
(-0.5742765633 0.3801405044 0)
(-0.411621419 0.7264603831 0)
(-0.2086008039 0.942174105 0)
(-0.1156081131 0.931576536 0)
(-0.1156523539 0.9627960199 0)
(-0.1611808956 1.005091698 0)
(-0.2125435421 1.058502962 0)
(-0.2589470406 0.83828219 0)
(-0.2736006259 0.4190364567 0)
(-0.5456017904 -0.940582475 0)
(-0.5483891159 -0.6659761908 0)
(-0.5324226199 -0.3938732221 0)
(-0.1175790299 0.9022089097 0)
(0.06684049337 0.2642524288 0)
(0.08722580904 0.2465371849 0)
(0.04465836812 0.2151063561 0)
(0.04569610309 0.2262027781 0)
(0.08852446614 0.2399139964 0)
(0.1776328911 -0.0315006933 0)
(0.1609229798 -0.1218218111 0)
(-0.03577606512 -0.1470382837 0)
(-0.03270309102 -0.1585253532 0)
(0.01944690203 -0.1830376014 0)
(0.04678761544 -0.2374763427 0)
(-0.004538823883 -0.321431565 0)
(-0.1266836016 -0.4641390655 0)
(-0.3522581673 -0.638642193 0)
(-0.4652056687 -0.6817894043 0)
(-0.5987576771 -0.7231689462 0)
(-0.6980780955 -0.710808308 0)
(-0.7593660155 -0.6071167261 0)
(-0.7947487727 -0.4717871059 0)
(-0.8354875503 -0.3117439847 0)
(-1.078169476 0.3906963572 0)
(-1.004487758 0.5602799187 0)
(-0.9263610757 0.6844693266 0)
(-0.8465096108 0.7938322382 0)
(-0.7644409077 0.8801274952 0)
(-0.6820388007 0.9428799937 0)
(-0.560385963 0.9825178363 0)
(-0.3523301776 0.2243136176 0)
(-0.5187052503 -0.2963255061 0)
(-0.4237104935 -0.1995879362 0)
(-0.6323571747 0.4512618274 0)
(-0.7189001533 0.7641797015 0)
(-0.7309100588 0.9389315292 0)
(-0.7091285283 1.065645348 0)
(-0.669532719 1.16326552 0)
(-0.6225204663 1.235657135 0)
(-0.5755469776 1.319081633 0)
(-0.4220068729 0.7740601652 0)
(-0.2667912435 0.3876804022 0)
(0.8112926458 -0.2422131169 0)
(0.1643856206 0.2776679737 0)
(-0.09830092004 0.3169981424 0)
(-0.1488971611 0.2233984179 0)
(-0.09880449033 0.1897008683 0)
(0.04198174243 0.1762884201 0)
(0.1174915775 0.1844647996 0)
(-0.1324434646 -0.07759873038 0)
(0.005776088912 -0.1494627702 0)
(-0.04948395368 -0.1735395787 0)
(-0.04511970805 -0.1776603278 0)
(-0.01788394439 -0.1865060506 0)
(0.006995549595 -0.2284975576 0)
(-0.02638728411 -0.351598851 0)
(-0.1475633989 -0.5485031678 0)
(-0.2312304902 -0.507441012 0)
(-0.3220048317 -0.5699485813 0)
(-0.5218637367 -0.6765417073 0)
(-0.6607764694 -0.7336866027 0)
(-0.7493275099 -0.7198894997 0)
(-0.7878335491 -0.5830856677 0)
(-0.8274854081 -0.4372815245 0)
(-0.9223143086 0.475329581 0)
(-0.8517848499 0.6348105797 0)
(-0.78065965 0.7641418209 0)
(-0.6975068674 0.8688100609 0)
(-0.6060599003 0.9425498204 0)
(-0.5158835313 0.9861422081 0)