/*--------------------------------*- C++ -*----------------------------------*\
  =========                 |
  \\      /  F ield         | OpenFOAM: The Open Source CFD Toolbox
   \\    /   O peration     | Website:  https://openfoam.org
    \\  /    A nd           | Version:  8
     \\/     M anipulation  |
\*---------------------------------------------------------------------------*/
FoamFile
{
    version     2.0;
    format      ascii;
    class       volScalarField;
    location    "1.3/wallFilmRegion";
    object      alpha;
}
// * * * * * * * * * * * * * * * * * * * * * * * * * * * * * * * * * * * * * //

dimensions      [0 0 0 0 0 0 0];

internalField   nonuniform List<scalar> 
1342
(
2.992366481e-08
1.6489306
3.638083725
4.768053929e-05
0.0001494129225
0.00477358597
0.04139439629
0.118789487
0.443868215
1.311507294
2.538542282
0.0013722575
0.01630430992
0.03816715178
0.09129385829
0.2015074784
0.3461113118
0.3481300953
1.730929907e-10
1.742974473e-09
3.340577984e-09
5.140137888e-09
3.109096161e-09
2.446666807e-09
1.29814937e-09
0.03398017106
0.1436081638
0.4245671351
0.8290462147
2.058976559e-08
4.896130235e-08
1.126502101e-10
3.393583973e-11
5.330227699e-11
1.737053291e-10
3.394352796e-10
1.083693101e-10
3.245384284e-10
5.788148417e-10
1.79855602e-09
3.697168249e-09
2.431076394e-09
5.04283795e-10
0.1315499727
0.2601120149
1.611710161e-08
4.115853409e-08
8.977121498e-11
1.424371553e-11
3.057687112e-12
6.545675248e-11
2.877948242e-15
4.020455377e-16
3.578900633e-17
1.77099058e-19
1.227819792e-11
2.542579282e-11
4.262239747e-11
6.727027689e-11
1.799575783e-10
5.489983294e-10
3.944618673e-10
3.438136522e-10
1.366045257e-10
2.258260152e-16
3.302073902e-17
3.286825845e-18
1.806221211e-20
1.415646432e-11
2.851526883e-11
4.609970243e-11
7.016484563e-11
1.028678158e-10
2.840536901e-10
3.361644735e-10
9.759908027e-11
9.236691275e-18
1.654917515e-18
2.043572235e-19
9.538329868e-22
1.862856974e-11
3.510159538e-11
5.35335116e-11
7.690025414e-11
1.273903332e-10
1.727703604e-10
2.364039618e-10
5.430082763e-10
2.842026176e-09
8.714025279e-10
1.54924712e-09
3.818420131e-09
2.67495204e-08
7.346806812e-14
1.420846903e-14
1.271093832e-15
5.525336996e-11
1.189620903e-10
1.33022673e-10
5.835596976e-07
1.886318051e-10
3.337522517e-10
4.999323347e-08
1.309038585e-07
1.457629057
11.49962316
5.045465772e-08
1.314315032e-07
7.312294075e-05
6.851505489e-09
6.69390797e-09
0.8188411186
0.535722384
0.5509078413
0.7293168519
0.2908771698
0.02710456543
0.02788596665
0.003091244011
0.0008596156842
0.003564567884
0.0007093521479
0.001062575301
0.005770763088
0.003806626124
0.02573261261
0.007257316333
0.01614735895
0.007351207597
0.06243811782
0.07310939604
0.05395029645
0.1288026456
0.01982688324
0.01055602115
0.0004973538749
0.006874686288
0.002098311343
0.05064448037
0.00338898644
0.007499923387
0.8283023928
0.1056491161
0.08249718062
0.2000183985
0.04738359077
0.02322745204
0.004946720854
0.004694217683
0.002306120976
0.001010095643
0.001436965544
0.0009084145572
0.0005200573974
0.0005388103954
0.0002922090686
0.01261908428
0.0001678498819
0.007305263818
0.05310281535
0.0258054046
0.05917587037
0.02090181237
0.01589648559
0.01324958084
0.01514535864
0.01353817624
0.013830792
0.01128665013
0.01352760319
0.01227552102
0.008942632425
0.009920737253
0.05892293707
0.01540090888
0.1702206326
0.01034744226
0.1311170271
0.009587227838
0.02366736395
0.003015431348
1.384450497
0.528828846
0.06920267652
0.5138686778
0.9487575563
0.007887037517
1.832047149
0.1331547898
0.001310607927
0.006505500758
0.002054516609
0.0006093014808
0.001585453579
0.0002709264275
0.002412863052
1.651217517e-07
0.000737825005
0.01219606215
0.01087339205
0.009308415927
0.005561767171
0.001678591432
0.001211135221
0.006987722279
0.001387102453
0.001686928219
0.006328919993
0.001976866553
0.002148827626
0.04257050869
0.002494537047
0.01452469917
0.0001008414047
0.006969098413
0.001018898426
0.006082679745
0.0008487062861
0.002170099963
1.70136527
0.7401979287
0.4878898893
2.080466006
0.446107284
0.7186451801
0.08512278645
0.09731391064
0.003075595344
0.002635081681
0.007878715319
0.003758848597
0.001605927423
0.003020121875
0.002168757807
0.0007568891955
0.001297005087
0.001769817827
0.008046825931
0.00942858994
0.007275663914
0.0002267928927
0.0005821931752
3.393990546e-05
0.0003030716869
7.43409172e-06
1.111693996e-05
0.0006462090839
2.349324762e-05
5.06448159e-05
0.001012742644
0.0001026634837
0.0002101349797
0.001512761297
0.0005063258028
0.000991547697
0.001502881021
2.761662674e-05
0.002027634741
3.031130705
1.044655335
8.358829241
0.05526739238
0.05365475326
0.01124330911
0.05223195013
0.003152544651
0.0639827557
0.0002880435988
0.02306200268
7.60234123e-05
0.003139978131
0.001567041573
0.002557525659
0.002319323644
0.002697937544
0.002235105464
0.001429490372
0.001679601493
0.001460828294
0.006882214644
0.004565046066
0.007749586843
2.083341814e-05
0.0006627314155
1.270164308e-05
1.331606197e-07
5.239906756e-07
5.723961878e-08
1.610221893e-07
4.717946858e-08
1.251090344e-07
8.977363468e-07
3.753640251e-07
1.153986844e-06
1.570586722e-05
5.828766538e-06
5.056784909e-05
0.3701675267
0.0008346811032
0.01781708136
1.044373169
0.7929537761
0.1274999404
0.00201616062
0.0002092209228
4.89947078e-05
3.497334649e-07
1.694813715e-11
1.098481492e-16
4.277463586e-05
8.850806584e-17
2.991430442e-05
0.002131049568
0.000858490074
0.0018208422
0.002048497597
0.002070714106
0.001870750862
0.001562749749
0.001689040996
0.001670698524
0.004040924266
0.002372500623
0.001451299005
5.689025742e-06
3.595836969e-05
1.270489219e-06
1.362429243e-08
2.096877634e-08
1.940789974e-09
2.822112052e-10
7.202779931e-10
1.523552231e-10
5.241263396e-14
1.207157672e-11
2.895538536e-16
0.000168576024
7.392835002e-05
0.0007494461738
0.02700220801
0.003960756598
0.04382816792
0.0002200330784
0.000590810048
7.395873519e-05
0.0005508473163
0.0001288075733
7.927805291e-12
5.062956425e-07
1.033590332e-06
2.756068691e-05
4.269525472e-06
3.070766725e-05
0.001654764553
0.0008178651791
0.001722132362
0.001971527932
0.002162770954
0.002561090226
0.001761713134
0.001978931744
0.001231853842
0.0003968918908
0.0007370273275
0.0001610797305
4.868947666e-07
5.462061487e-06
4.088411674e-07
1.491217949e-09
3.271004408e-07
7.379393519e-07
4.483968953e-11
1.783432688e-06
4.472851876e-06
1.750463909e-29
1.21659048e-05
3.224722143e-05
0.002505475366
0.001435198003
0.01153872028
0.08003469898
0.5089450513
0.1198918576
0.002517859716
0.01291600146
0.0002943473164
0.006381416844
0.004651299482
1.163568803e-05
0.005128485117
0.0001963337688
0.0001331907426
0.0004585253762
0.001126345914
0.001999142991
0.003090390761
0.00589041788
0.002113533386
0.006325585773
0.004061568687
0.0007199036301
0.002028624404
0.0009699741973
8.515237162e-05
0.0004425104132
0.0003446459587
4.520950058e-07
0.001231737394
0.00506479132
7.799240749e-07
0.01876679826
0.06353454826
1.169509205e-06
0.1710985085
0.2869190187
0.002325253298
0.3397021505
0.4106875767
6.388339514e-13
2.68225477e-13
2.323530398e-13
1.427740484e-13
7.162217049e-14
2.933272209e-14
2.690525727e-14
8.557529211e-15
1.834742917e-15
2.481723389e-15
5.615819269e-16
5.143207829e-12
3.346698056e-17
5.5335378e-12
1.4129186e-11
1.016027873e-11
1.512570307e-11
2.594479154e-11
2.093831253e-11
2.787217478e-11
4.316841106e-11
3.61133661e-11
4.610337923e-11
7.102863024e-11
5.902908433e-11
7.432921933e-11
1.398930052e-10
1.784994811e-10
2.545873533e-10
4.804193519e-10
1.308100917e-09
1.007751198e-09
1.144500957e-13
2.542220108e-14
2.941781022e-15
1.942063128e-16
5.859512615e-12
1.607610785e-11
2.964999724e-11
4.858875231e-11
5.393371873e-14
2.54045576e-14
8.148939346e-17
1.406365323e-18
6.167162033e-12
1.132157082e-11
5.085544126e-11
8.423133315e-11
6.457509599e-11
8.370384132e-11
1.387714704e-10
1.055962793e-10
2.4340144e-10
1.815035642e-10
2.996713354e-10
6.859150368e-15
1.137305886e-15
1.274530898e-16
2.002716065e-16
6.392518035e-17
7.802983638e-18
1.806599688e-17
6.681342229e-12
1.842420281e-11
1.288657198e-11
1.927414607e-11
3.344472653e-11
2.645510234e-11
3.457913465e-11
5.362346589e-11
8.273350187e-11
1.356074726e-10
1.023657126e-10
2.206650489e-10
1.640590622e-10
2.127270276e-10
3.826198107e-10
5.468070587e-16
2.418514475e-18
7.445203051e-19
7.545844135e-19
1.586320688e-11
2.320086253e-11
3.683739459e-11
3.103718155e-11
3.952955435e-11
5.685211965e-11
4.882685267e-11
8.529888162e-11
1.118536488e-10
2.498772679e-10
2.358012856e-18
3.772837473e-19
2.96372744e-11
9.450255418e-11
1.691988011e-10
0.3736457286
1.969437102e-09
0.3587784294
2.047430254e-09
0.325270821
1.221614548e-09
0.2953376039
8.847637408e-10
0.2722313897
7.62634537e-10
0.2540432563
7.554858321e-10
0.245510331
8.213896544e-10
0.2789873005
1.243133013e-09
1.359140242e-08
0.4768242588
1.996997392e-09
0.4722650607
1.092494967
0.1937280942
0.007702079972
0.002130428386
0.006974391492
0.0141146698
0.1018789246
0.009863981264
0.02916263952
0.3661615724
0.9843693032
1.463594078
0.4032068719
0.88280649
0.5429585089
0.03294378645
0.00168863719
0.0007338319246
0.0006760040493
0.02462642656
0.07622529925
0.01747410708
0.01319531459
0.01046095982
0.01664422717
0.03871788454
1.340762629
1.651115874
0.282673679
0.2279197599
0.00103839705
0.127125284
0.00240830841
0.0008305410607
0.0001925209148
0.01586546366
0.005295547019
0.006286637637
0.007273293342
0.002870616913
0.09787451577
0.001769557878
0.04659435593
1.664698834
1.920573361
1.101779524
0.00928036013
0.002450068825
0.0005849818991
0.01067015257
0.0007985821172
0.0002129179368
0.0004592433516
0.0008606446707
0.0009636797294
0.000144476529
0.1487351286
0.2035489079
0.06036735207
0.002508050921
0.002777090997
0.002978750542
0.001589712569
0.007476151248
0.0005699040035
1.125543515e-06
7.926401793e-08
3.862956512e-07
2.306371173e-06
0.0002796937554
1.896562544
0.01897630166
1.587879716e-05
8.347968372e-07
0.001087356711
0.002367071923
0.001673181522
0.002866518524
0.001206877657
1.648547032e-07
1.991039281e-09
2.151095462e-11
1.896269215e-05
0.001959058244
1.525834527
0.0003294099766
2.276343749e-11
3.127864544e-15
0.000764714502
0.001954919305
0.001889629598
0.001818872553
1.059637781e-05
1.22548e-08
3.811171657e-10
1.452472456e-15
0.0002931541559
0.01315902279
0.07665845693
0.007191716109
0.001504366138
4.768506638e-06
3.496510945e-05
0.0008815602477
0.002548273247
0.001261837842
0.0003599661879
3.381815674e-06
4.721368874e-07
1.158214695e-06
1.750056693e-06
0.008724588851
0.7500190911
0.2516406723
0.4948226921
0.6239580381
0.7912391051
0.9610800801
0.3715486498
0.09497199427
0.08194248746
0.09154453179
0.4080813783
1.333116966
0.06566496794
0.8373002093
1.147687567e-12
3.831358569e-13
9.138398666e-14
8.743160036e-15
2.87021171e-16
9.526328305e-12
1.95005089e-11
3.367131286e-11
5.533139268e-11
8.829201347e-11
1.305371937e-10
1.077052768e-10
3.51724172e-10
5.087271809e-10
9.10533947e-10
7.587947086e-10
9.948569061e-10
5.883084087e-10
5.613059808e-14
9.309374175e-15
3.99881983e-15
8.398042729e-16
3.574942316e-16
3.215336561e-18
1.074595414e-11
2.229871585e-11
2.354148108e-11
3.829235998e-11
4.014491507e-11
6.082503453e-11
9.000162805e-10
1.021937696e-09
1.039726544e-09
1.811786841e-10
1.091256426e-10
2.694510376e-10
2.894534003e-10
9.227190547e-10
7.247932136e-10
2.318869411e-09
1.628588623e-08
3.153643528e-09
2.251249573e-08
1.077668386e-08
9.565812506e-09
3.407494581e-08
4.121399016e-11
2.723257046e-11
7.326553025e-12
7.386106323e-13
5.265358217e-13
3.068798236e-11
1.573006643e-10
1.594807512e-10
5.004337445e-10
2.490769516e-09
1.31621953e-09
2.730047949e-09
3.719993119e-09
2.78009526e-09
2.726472334e-08
1.66813161e-12
1.555647186e-12
3.791112052e-14
6.329846584e-11
5.423391127e-11
1.259311171e-18
2.559672666e-19
3.435188918e-20
5.518585039e-22
1.179850812e-22
2.095048278e-11
2.722262223e-11
4.777891252e-11
6.886926381e-11
9.36868832e-11
3.287355317e-19
6.993195018e-20
9.644676098e-21
2.786155294e-23
4.525531534e-11
7.353147165e-11
1.001104575e-10
1.301735528e-10
1.699424207e-10
5.002864969e-20
1.10491622e-20
1.569151856e-21
3.450211772e-24
1.109502677e-10
1.568137281e-10
1.936764069e-10
2.34799711e-10
2.935933398e-10
4.897142813e-22
8.262342783e-23
8.079255417e-24
1.608729516e-28
2.047396759e-09
2.631765092e-09
3.302300267e-09
3.741169832e-09
3.879003556e-09
0.2299787838
1.106905085e-09
0.4942046718
1.38231463e-12
0.3639382543
2.330317761e-09
0.8696764314
0.7987534712
9.381531615e-13
6.985224406e-13
0.3439492104
1.550805824e-09
0.895781468
0.8200483315
2.909069071e-13
9.467092261e-14
0.3092969902
1.02224045e-09
0.6764863993
0.5481960489
2.947350371e-14
5.650523737e-15
0.2830267852
8.04819052e-10
0.4469999749
0.3641297218
1.533534426e-15
4.734546159e-12
0.2625874485
7.488519924e-10
0.3015779239
0.2551790732
8.828158074e-12
1.296162994e-11
0.2481730547
7.798969057e-10
0.2227302262
0.2126347784
1.7710321e-11
2.341531074e-11
0.2491855879
9.131937229e-10
0.2302598711
0.2420863944
3.030564261e-11
3.880860183e-11
0.3531207205
1.383076206e-09
0.2034546327
0.1865681127
4.969957288e-11
6.34967618e-11
0.2893421761
0.5055470293
8.285937803e-11
1.208862842
0.7929613273
0.0440173049
0.05237335205
0.2612857315
0.586716323
1.963821724e-09
0.1379844835
1.021038663e-07
1.329592963e-07
0.1026310895
0.02003017524
2.079162494
0.7172022356
9.201504176e-08
8.419438355e-08
0.2053517092
0.3714690459
0.0003219506494
0.000615503654
0.2376079615
6.624610595e-09
7.401535133e-09
8.568557666e-09
0.002114982244
0.02263539042
9.213780955e-09
0.7689511031
0.5858469537
0.05353549549
0.7716867652
0.03075141446
0.2283245728
0.8118857689
8.629611835e-09
6.271302667e-09
4.45721078e-09
0.1928508896
0.9421011246
0.05876752638
0.01905066617
0.3652339738
1.055518989
1.236329501
0.2380668287
0.04305168063
0.0926466819
0.5822132169
1.541520973
2.046186214
0.7782903753
0.1771752949
0.3125073327
0.6857466477
2.850511575
3.96437372
2.06758378
0.5262187493
0.8305848378
0.8754371874
4.669249614
2.363670416
0.0003351781284
1.026110216
1.212647383e-06
0.6981535869
2.361160588
2.226799396
0.007582593681
2.825311223e-08
6.67965999e-08
0.1563965306
1.902342101
1.600248665
0.02402809792
1.143175944e-07
6.507246865e-09
0.08206636926
1.464736582
1.526098397
0.05993303031
7.905640681e-10
7.20417929e-10
0.0845892735
1.685411801
1.860681148
0.138305402
7.620076648e-10
8.912193911e-10
0.1212913233
1.999141154
2.080530961
0.2726492087
1.103806452e-09
1.399306879e-09
1.255336924
2.122781781
2.247498343
0.3814195597
1.76668243e-09
2.195946147e-09
0.2424422446
0.9127251299
2.124089293
4.377428715e-09
3.022750371e-09
3.627230903e-09
1.937322387e-09
2.69847602e-10
3.823537397e-10
7.499505233e-10
5.562213337e-10
4.599280572e-10
2.436081374e-09
1.317485756e-09
1.019970784e-09
1.67751297e-09
4.422746333e-09
2.42802762e-09
3.406178814e-09
4.383199294e-09
4.366660724e-09
3.937479257e-09
2.496251077e-09
2.388300008e-09
2.669006587e-09
1.903530683e-09
1.692189092e-09
2.412004648e-09
1.582606815e-09
1.831249298e-09
1.246148403e-09
1.587981011e-09
1.627853573e-09
0.01456363556
0.07475259022
0.2527941098
0.1589208419
0.6693497871
0.2681264302
0.4234142709
9.157048324e-07
0.5262061562
5.241509233e-07
2.996451497e-08
1.81730334e-08
2.647270689e-08
2.42866994e-09
4.476382842e-08
2.215214146e-09
5.374759663e-11
9.988849269e-11
4.205974742e-11
3.516511626e-11
1.874131416e-11
1.203846545e-11
9.573055156e-11
1.55416746e-11
3.434588063e-11
2.444150918e-10
9.814273191e-11
1.700739232e-10
4.252739075e-10
2.433374749e-10
3.483791281e-10
8.154433088e-10
5.079569896e-10
1.103845812e-14
1.26091273e-15
1.698360754e-11
3.120792981e-11
1.940900487e-10
1.442791692e-10
2.437886392e-10
3.752991369e-10
4.317604075e-10
3.650709226e-10
5.813916489e-10
7.066179309e-10
1.228396022e-09
6.767090429e-10
9.806827774e-10
1.319332182e-09
2.581400149e-09
1.969796815e-09
1.61697224e-09
3.649522783e-09
3.375553028e-09
3.099694327e-09
2.481090724e-09
1.723789086e-09
2.523894403e-09
1.413640845e-09
7.174017462e-10
5.566232601e-10
4.297890292e-10
4.879895572e-10
8.587388975e-10
6.66360581e-10
6.217266078e-10
6.089787887e-10
0.03308719278
0.0772362707
0.2088800281
0.0563666067
0.09021160344
0.1124051358
8.239278788e-08
2.023532762e-07
1.444624223e-08
2.102850481e-08
2.347276576e-08
1.929093597e-09
3.822079911e-08
1.538945971e-09
7.429460988e-11
3.136339293e-11
3.714565483e-11
4.057795337e-12
5.367902842e-12
1.203052263e-11
1.123762327e-12
6.45925722e-12
1.879759211e-13
1.032283264e-10
3.928693503e-11
8.165521589e-11
2.89123358e-10
1.571511081e-10
2.398273649e-10
3.574121406e-10
3.476147577e-15
1.442026018e-15
5.652974624e-16
3.950063437e-18
9.12952023e-20
7.010793058e-12
4.377414807e-11
5.462919589e-11
6.801114462e-11
8.392888229e-11
8.967552201e-17
1.109578114e-17
7.738733313e-12
2.100016226e-11
1.366402253e-10
1.332653612e-10
2.02044248e-10
3.497862942e-10
4.05723828e-10
6.249728077e-10
5.439136865e-10
7.62368271e-10
1.123915055e-09
1.91497966e-09
1.37122222e-09
2.883442098e-09
2.470709449e-09
3.074433216e-09
1.685475897e-09
1.525162649e-09
2.444962582e-09
1.667959015e-10
3.88919984e-10
2.568148855e-10
2.322190725e-09
3.868670629e-09
2.875586553e-09
4.966299595e-09
6.566274749e-09
7.621289089e-09
1.309616476e-08
3.215120827e-08
2.919711388e-08
8.047321073e-12
1.220815519e-11
3.696312951e-12
5.006493669e-12
1.809489995e-12
1.724395787e-13
2.635690061e-14
2.792911978e-11
2.157195187e-11
2.530086218e-10
2.149088769e-10
1.241034976e-10
8.648096468e-11
3.172865253e-10
1.709004049e-10
1.484932805e-10
1.165058013e-08
2.662728886e-09
2.174244842e-08
7.476581486e-09
1.753407322e-08
1.583195705e-08
8.038867297e-10
5.257207931e-10
1.819407173e-11
2.592503457e-12
1.098199633e-13
7.878435191e-14
6.945789885e-11
5.894392448e-11
1.005044822e-16
4.247780537e-17
1.749031516e-17
6.787854755e-18
1.775690703e-19
4.015276274e-21
8.766921908e-12
5.94203492e-11
7.218732982e-11
8.612236479e-11
1.042723973e-10
2.088298419e-17
1.195292476e-17
4.013216097e-18
5.352206705e-18
6.251817302e-19
9.86407465e-19
4.951112161e-20
1.244012601e-19
3.02607276e-20
1.049629677e-11
1.19884182e-11
2.67167243e-11
4.398230256e-11
3.847532735e-11
4.769485095e-11
6.423522494e-11
5.748902428e-11
6.831030905e-11
9.04263166e-11
8.108227972e-11
1.319975815e-10
1.133695476e-10
1.68267951e-10
1.345869515e-10
1.961411751e-10
2.580674436e-10
1.500549982e-10
2.201298502e-10
1.984507348e-10
3.916476944e-10
2.924402671e-10
3.556818574e-10
2.730781159e-10
3.703230426e-10
5.283951862e-10
9.702025411e-10
6.142514083e-10
1.492437267e-09
2.083136233e-09
1.02463068e-09
2.551668826e-09
9.033747921e-10
3.000315178e-10
1.096994927e-09
9.382913187e-10
1.677081321e-09
1.157860309e-09
2.109425259e-09
1.486021208e-09
2.007481758e-09
2.910878423e-09
7.846949141e-09
6.024802234e-09
4.697387095e-09
9.101999126e-09
2.67696702e-08
3.322939616e-11
3.626547763e-12
3.417722912e-14
1.599298926e-13
7.428913827e-14
4.991467518e-15
3.350851517e-13
3.101076433e-14
1.263828009e-13
1.103479449e-14
2.892789066e-15
2.426139266e-17
2.21218939e-11
3.550939028e-11
4.217357704e-11
8.432011749e-11
8.851518417e-11
8.683297116e-11
1.452321806e-10
3.407115737e-10
9.323098052e-11
1.941782471e-09
1.383099392e-09
5.100539331e-09
3.903723633e-09
1.087738174e-08
1.557486703e-10
7.813486658e-13
5.777147472e-13
5.217848106e-15
4.042525788e-11
3.227728769e-11
2.667343837e-18
1.442686563e-18
5.841519368e-19
6.918220409e-19
3.252447586e-19
1.016118814e-19
1.44028053e-19
5.763659051e-20
8.447398633e-21
1.959340007e-20
4.829940267e-21
1.600554285e-11
6.237296734e-23
2.047333021e-11
3.759241488e-11
3.401694911e-11
4.611145413e-11
5.812585834e-11
5.770938831e-11
6.92681828e-11
8.052161719e-11
8.107683214e-11
9.374021639e-11
1.08490291e-10
1.080566584e-10
1.246690395e-10
1.426714013e-10
6.74597938e-19
2.769426639e-19
1.564670723e-19
1.370644367e-19
6.601176887e-20
2.819355351e-20
2.977843507e-20
1.210334468e-20
2.38682826e-21
4.169526457e-21
1.036523664e-21
2.80851731e-11
1.065310785e-23
4.292019168e-11
5.990337121e-11
6.620802818e-11
8.488056617e-11
8.680350425e-11
1.015520289e-10
1.173307676e-10
1.141817836e-10
1.327606222e-10
1.488327041e-10
1.486138565e-10
1.673303981e-10
1.887055082e-10
1.90639387e-10
2.130580281e-10
2.371570207e-10
3.194077762e-10
9.982772774e-20
2.790600661e-20
2.431332836e-20
1.410107464e-20
6.884086633e-21
4.523273374e-21
3.13745142e-21
1.287484698e-21
3.917754956e-22
4.473519661e-22
1.116145677e-22
7.683714485e-11
8.036161586e-25
1.873127942e-10
1.358919267e-10
2.41976815e-10
2.758559293e-10
1.757733604e-10
3.008482537e-10
3.215199538e-10
2.12076238e-10
3.394142325e-10
3.583028239e-10
2.607534927e-10
3.967538122e-10
4.231862068e-10
3.245467706e-10
5.593329175e-10
5.718178903e-10
1.429326927e-09
2.616190363e-09
1.065326814e-21
2.814290447e-10
6.997888462e-10
2.105445495e-22
3.738011967e-10
5.216718181e-10
1.130669349e-09
2.853045912e-23
7.780186626e-10
1.27545215e-09
2.29230194e-09
1.559164959e-24
2.425863042e-09
6.067512824e-09
1.822267806e-09
3.323413447e-08
1.198529619e-07
1.68468622e-12
2.328499947e-09
2.186655469e-08
1.489212053e-08
2.957983009e-09
9.168367285e-09
5.025083178e-09
3.647471189e-09
2.199769562e-09
1.361684856e-19
1.4626612e-18
3.854327041e-09
2.202898369e-10
2.493302092e-10
8.708971372e-10
5.328053373e-11
)
;

boundaryField
{
    walls
    {
        type            zeroGradient;
    }
    wallFilmFace_top
    {
        type            zeroGradient;
    }
    region0_to_wallFilmRegion_wallFilmFace
    {
        type            zeroGradient;
    }
    mirrorFace_top
    {
        type            zeroGradient;
    }
    region0_to_wallFilmRegion_mirrorFace
    {
        type            zeroGradient;
    }
    procBoundary3to2
    {
        type            processor;
        value           nonuniform List<scalar> 
64
(
0.03359626664
0.007105156495
0.01981436012
0.08965566863
0.04335910427
1.61215844e-14
1.320541332e-15
4.799163798e-17
5.808348778e-10
0.3204795257
0.3793199445
0.453626181
0.453626181
0.1113206754
0.07684176981
0.1700423377
1.011100173
2.248152637
1.257976691
0.6598086249
0.1930335188
0.05935156033
0.0001018726412
0.0001018726412
0.0004760050675
0.001555677917
0.001555677917
0.0343903494
0.0332666731
0.0332666731
2.171439639e-12
5.148291391e-13
5.148291391e-13
2.321788023e-13
1.131755303e-13
0.1663565134
7.424218848e-10
0.2332491125
0.1997009181
2.324560076e-12
8.527373361e-09
2.721007474e-17
5.775617238e-18
1.413376672e-18
2.019672105e-19
2.221318044e-21
0.2332491125
2.324560076e-12
0.9801198632
0.009766509739
0.008481291135
0.04558900976
0.08965566863
0.01854322022
8.268407499e-15
2.316020345e-09
1.672004097e-09
2.395606241e-16
1.175691029e-09
7.849010097e-10
3.077907679e-18
5.693749365e-19
5.573542349e-20
2.204191374e-10
)
;
    }
}


// ************************************************************************* //
