/*--------------------------------*- C++ -*----------------------------------*\
  =========                 |
  \\      /  F ield         | OpenFOAM: The Open Source CFD Toolbox
   \\    /   O peration     | Website:  https://openfoam.org
    \\  /    A nd           | Version:  8
     \\/     M anipulation  |
\*---------------------------------------------------------------------------*/
FoamFile
{
    version     2.0;
    format      ascii;
    class       volScalarField;
    location    "1.3/wallFilmRegion";
    object      delta;
}
// * * * * * * * * * * * * * * * * * * * * * * * * * * * * * * * * * * * * * //

dimensions      [0 1 0 0 0 0 0];

internalField   nonuniform List<scalar> 
1342
(
2.478643025e-11
0.001368430007
0.002812345991
3.685858091e-08
1.153755767e-07
3.72903447e-06
3.426252342e-05
9.279855129e-05
0.000346628167
0.001024155094
0.001982344075
1.071601781e-06
1.273225222e-05
2.980516425e-05
7.129117273e-05
0.0001572440318
0.0002673582244
0.0002889031722
1.692012636e-13
1.705859823e-12
3.276014967e-12
5.039158583e-12
3.050106882e-12
2.397510085e-12
1.267733116e-12
3.370036061e-05
0.0001424109484
0.0004210666006
0.0008220720273
2.042138745e-11
4.856192561e-11
1.117284682e-13
3.365642811e-14
5.283773221e-14
1.704929963e-13
3.323676075e-13
1.061032144e-13
3.171818167e-13
5.65623197e-13
1.75756431e-12
3.616988702e-12
2.37256845e-12
4.936687e-13
0.0001298583501
0.0002567802716
1.591007231e-11
4.06231852e-11
8.860491348e-14
1.405503356e-14
3.016878337e-15
6.390162608e-14
2.833236008e-18
3.958711889e-19
3.524608948e-20
1.744041011e-22
1.209129715e-14
2.503814529e-14
4.195858517e-14
6.557859953e-14
1.758953834e-13
5.360539491e-13
3.855584683e-13
3.358443034e-13
1.337592265e-13
2.229826524e-19
3.260576736e-20
3.245563497e-21
1.783081822e-23
1.39774254e-14
2.815320388e-14
4.54991996e-14
6.858449433e-14
1.004882272e-13
2.775647883e-13
3.282699865e-13
9.536285204e-14
9.097009272e-21
1.629821106e-21
2.012812547e-22
9.391981456e-25
1.834672832e-14
3.456008215e-14
5.268212503e-14
7.493497862e-14
1.245024584e-13
1.684390246e-13
2.312968966e-13
5.322276122e-13
2.779544235e-12
8.631025092e-13
1.534707015e-12
3.782528233e-12
2.649896001e-11
7.276994595e-17
1.407204727e-17
1.258256414e-18
5.416451318e-14
1.163494515e-13
1.315572462e-13
4.277925238e-10
1.854484622e-13
3.301504394e-13
4.940975406e-11
1.29390103e-10
0.001066390706
0.008887230726
4.978072478e-11
1.296160472e-10
5.653179453e-08
6.756989828e-12
6.603772656e-12
0.000818841093
0.0005357223038
0.0005509078118
0.0007293167219
0.0002908771885
2.71045657e-05
2.788596313e-05
3.091244007e-06
8.596156968e-07
3.564567699e-06
7.093522927e-07
1.062575477e-06
5.770762697e-06
3.806626833e-06
2.573261522e-05
7.257316391e-06
1.614735827e-05
7.351207971e-06
6.243812374e-05
7.31093847e-05
5.395028941e-05
0.0001288025825
1.9826881e-05
1.055601976e-05
4.973510341e-07
6.874681904e-06
2.098300185e-06
5.064546205e-05
3.388969494e-06
7.49988941e-06
0.0008283023907
0.0001056491254
8.249717481e-05
0.0002000183774
4.738359055e-05
2.322745136e-05
4.946721557e-06
4.694216798e-06
2.30612099e-06
1.010095557e-06
1.436965277e-06
9.084144642e-07
5.200573967e-07
5.388104136e-07
2.922090417e-07
1.261908463e-05
1.67849863e-07
7.305263187e-06
5.310282033e-05
2.580540344e-05
5.917586858e-05
2.090181058e-05
1.589648628e-05
1.324958026e-05
1.514535756e-05
1.353817505e-05
1.383079272e-05
1.128664461e-05
1.352760234e-05
1.227552164e-05
8.942629339e-06
9.920737687e-06
5.892293931e-05
1.540090524e-05
0.0001702206195
1.034743852e-05
0.0001263967282
9.587227682e-06
2.366735983e-05
3.015430906e-06
0.00138445054
0.0005288288321
6.920268451e-05
0.0005138686269
0.0009487575183
7.887036861e-06
0.001832047033
0.0001331547836
1.310607955e-06
6.505500357e-06
2.054516798e-06
6.093013957e-07
1.585453695e-06
2.709264043e-07
2.412862821e-06
1.651217492e-10
7.37825023e-07
1.219606144e-05
1.087339136e-05
9.308415367e-06
5.561767342e-06
1.67859161e-06
1.211135226e-06
6.987721914e-06
1.387102017e-06
1.686928036e-06
6.328919875e-06
1.976866788e-06
2.148827526e-06
4.257050656e-05
2.494536618e-06
1.452469743e-05
1.008413905e-07
6.969098179e-06
1.01889847e-06
6.082680001e-06
8.487064118e-07
2.170100004e-06
0.001701365346
0.0007401978421
0.0004878899427
0.002080465665
0.0004461073086
0.0007186451114
8.512280013e-05
9.731390573e-05
3.075595138e-06
2.635081527e-06
7.878713954e-06
3.758847901e-06
1.605927622e-06
3.020121396e-06
2.168757526e-06
7.568891814e-07
1.297004889e-06
1.769817864e-06
8.046824449e-06
9.428589068e-06
7.275663138e-06
2.267928815e-07
5.821933105e-07
3.393990952e-08
3.030717237e-07
7.434091663e-09
1.111694214e-08
6.462090998e-07
2.349324474e-08
5.064480186e-08
1.012742554e-06
1.026634778e-07
2.101349584e-07
1.512761383e-06
5.06325719e-07
9.915476278e-07
1.502880798e-06
2.761662695e-08
2.027634346e-06
0.002363011895
0.001044655296
0.006553795212
5.526740753e-05
5.365474487e-05
1.124331e-05
5.223194216e-05
3.152544579e-06
6.398275711e-05
2.880435685e-07
2.306200437e-05
7.60234137e-08
3.139977821e-06
1.56704184e-06
2.557525816e-06
2.319323371e-06
2.697937468e-06
2.235105478e-06
1.42949053e-06
1.679601532e-06
1.46082831e-06
6.88221359e-06
4.565046113e-06
7.749587066e-06
2.08334166e-08
6.627313898e-07
1.270164191e-08
1.331606136e-10
5.239905943e-10
5.723961618e-11
1.610221483e-10
4.71794714e-11
1.251090382e-10
8.977364642e-10
3.75364076e-10
1.153986983e-09
1.570586733e-08
5.828766307e-09
5.056784606e-08
0.0003701674933
8.346811063e-07
1.781708149e-05
0.0008190816224
0.0007929538567
9.939248035e-05
2.016160652e-06
2.09220927e-07
4.899470614e-08
3.497335014e-10
1.694813402e-14
1.098481251e-19
4.277463589e-08
8.850805275e-20
2.991430499e-08
2.131049572e-06
8.58489887e-07
1.820841848e-06
2.048497615e-06
2.0707139e-06
1.87075086e-06
1.562749682e-06
1.689041122e-06
1.670698571e-06
4.040924545e-06
2.372500708e-06
1.451298705e-06
5.689026506e-09
3.595836098e-08
1.270489129e-09
1.362429455e-11
2.096877446e-11
1.94078992e-12
2.822111898e-13
7.202779527e-13
1.523552077e-13
5.241263629e-17
1.207157442e-14
2.895538229e-19
1.685759844e-07
7.392835135e-08
7.494461855e-07
2.70022058e-05
3.960756945e-06
4.382816481e-05
2.200330585e-07
5.90810064e-07
7.395873096e-08
5.50847417e-07
1.28807588e-07
7.927803706e-15
5.062956453e-10
1.033590245e-09
2.756069032e-08
4.269524963e-09
3.070766805e-08
1.654764547e-06
8.178651919e-07
1.722132424e-06
1.971527739e-06
2.162771151e-06
2.561090235e-06
1.761712966e-06
1.978931504e-06
1.231853741e-06
3.968918329e-07
7.370272564e-07
1.610797394e-07
4.868947858e-10
5.462062194e-09
4.088411893e-10
1.49121786e-12
3.271004437e-10
7.379393794e-10
4.483968845e-14
1.783432567e-09
4.472850468e-09
1.750463613e-32
1.216590142e-08
3.224720609e-08
2.505475426e-06
1.435197367e-06
1.153871854e-05
8.003467684e-05
0.0005089449644
0.0001155778427
2.517859573e-06
1.291599954e-05
2.94347297e-07
6.381415617e-06
4.651298091e-06
1.163568723e-08
5.128485469e-06
1.963337744e-07
1.33190762e-07
4.585253486e-07
1.126346085e-06
1.999142728e-06
3.090390599e-06
5.890417239e-06
2.113533338e-06
6.325586325e-06
4.061568736e-06
7.199036495e-07
2.028624133e-06
9.699741516e-07
8.515238498e-08
4.425103844e-07
3.44645932e-07
4.520949656e-10
1.231737349e-06
5.064791801e-06
7.799239412e-10
1.876679627e-05
6.353454573e-05
1.169503398e-09
0.0001710984167
0.0002869176893
2.325243367e-06
0.0003397068604
0.000410695929
6.336946251e-16
2.65288676e-16
2.30501814e-16
1.412441597e-16
7.084833156e-17
2.909839956e-17
2.661611053e-17
8.465753108e-18
1.820143336e-18
2.454775926e-18
5.554531759e-19
5.101274769e-15
3.309569854e-20
5.472327158e-15
1.401341412e-14
1.004915934e-14
1.496056642e-14
2.573783938e-14
2.07088053e-14
2.756890824e-14
4.257182873e-14
3.570060175e-14
4.532082581e-14
6.973530545e-14
5.775377436e-14
7.263141116e-14
1.369913104e-13
1.739603393e-13
2.487919167e-13
4.693526596e-13
1.285760396e-12
9.8471944e-13
1.129247149e-16
2.508464627e-17
2.902261534e-18
1.915984422e-19
5.781352708e-15
1.586318589e-14
2.926290516e-14
4.767665009e-14
5.340828545e-17
2.515987492e-17
8.070666717e-20
1.392839847e-21
6.108690542e-15
1.121059691e-14
5.00939543e-14
8.229294951e-14
6.316175277e-14
8.196893983e-14
1.354980908e-13
1.030989868e-13
2.376707411e-13
1.774380896e-13
2.92762897e-13
6.752584401e-18
1.119815619e-18
1.25494921e-19
1.980745847e-19
6.321237317e-20
7.683306375e-21
1.786549911e-20
6.581069758e-15
1.814372374e-14
1.274296189e-14
1.906432058e-14
3.293553954e-14
2.616264333e-14
3.419527126e-14
5.25223029e-14
8.067964617e-14
1.325957447e-13
1.000407157e-13
2.158586395e-13
1.603403917e-13
2.078297267e-13
3.743460237e-13
5.399153208e-19
2.391264433e-21
7.35152193e-22
7.461544572e-22
1.568820201e-14
2.294607724e-14
3.637085442e-14
3.069733562e-14
3.909966574e-14
5.581471601e-14
4.827333596e-14
8.342870218e-14
1.094635271e-13
2.445377994e-13
2.335599057e-21
3.737190033e-22
2.934817335e-14
9.246221171e-14
1.653837907e-13
0.0002915246997
1.535793362e-12
0.0002799123906
1.596602365e-12
0.0002537582682
9.526211889e-13
0.0002303955001
6.899371352e-13
0.0002123607073
5.946888948e-13
0.0001981670197
5.89101335e-13
0.0001914854332
6.400296109e-13
0.000215957894
9.587701694e-13
9.964832669e-12
0.0003060426427
1.655260653e-12
0.0004722650169
0.00109249498
0.0001937280715
7.702080103e-06
2.130428185e-06
6.9743905e-06
1.411467005e-05
0.00010187891
9.863957363e-06
2.916302744e-05
0.0003545429882
0.0007685023789
0.0009866776017
0.0003334081205
0.0008828065112
0.0005429584353
3.294378858e-05
1.6886368e-06
7.338320427e-07
6.760040525e-07
2.462642864e-05
7.622529276e-05
1.74741065e-05
1.319531161e-05
1.046095492e-05
1.664422097e-05
3.871788869e-05
0.001046189399
0.001365796267
0.0001856844663
0.0002279197441
1.038397114e-06
0.0001271252629
2.408308354e-06
8.305410426e-07
1.925208921e-07
1.586546152e-05
5.295547674e-06
6.286636576e-06
7.273293324e-06
2.870616598e-06
9.787451062e-05
1.769558134e-06
4.507083733e-05
0.001664698971
0.001920573073
0.001101779609
9.280359111e-06
2.45006913e-06
5.84981952e-07
1.067015022e-05
7.985822121e-07
2.129178849e-07
4.59243394e-07
8.606447308e-07
9.63679717e-07
1.444765324e-07
0.0001487351006
0.0002035488941
6.03673539e-05
2.508050573e-06
2.777091221e-06
2.978749715e-06
1.589712525e-06
7.476151114e-06
5.699039923e-07
1.125543251e-09
7.926401403e-11
3.862956376e-10
2.306371098e-09
2.796937837e-07
0.001896562641
1.897630203e-05
1.58787971e-08
8.34796909e-10
1.087356619e-06
2.367072149e-06
1.673181374e-06
2.866518882e-06
1.20687761e-06
1.64854745e-10
1.991039317e-12
2.151095437e-14
1.896269013e-08
1.959057898e-06
0.001525834703
3.294099387e-07
2.276343466e-14
3.127864049e-18
7.647145146e-07
1.954919296e-06
1.889629436e-06
1.818872323e-06
1.059637765e-08
1.225479826e-11
3.811171377e-13
1.452472292e-18
2.931541851e-07
1.315902206e-05
6.554410228e-05
7.191715378e-06
1.504366311e-06
4.768506548e-09
3.496510594e-08
8.815602917e-07
2.54827309e-06
1.261837703e-06
3.599662055e-07
3.381815924e-09
4.721368181e-10
1.158214059e-09
1.750048666e-09
8.724535444e-06
0.000723191617
0.0002516406703
0.0004948227306
0.0006239579492
0.0007912388899
0.0009610802808
0.0003715486084
9.497198587e-05
8.194248382e-05
9.154454666e-05
0.0004080794914
0.001290916812
5.445207398e-05
0.0005713076012
1.13845893e-15
3.800983511e-16
9.06550489e-17
8.673029698e-18
2.847117834e-19
9.448221319e-15
1.934269046e-14
3.338171857e-14
5.43154605e-14
8.645952706e-14
1.280713455e-13
1.051939237e-13
3.435261052e-13
4.985159602e-13
8.897494624e-13
7.418140147e-13
9.781192728e-13
5.750329377e-13
5.539432367e-17
9.18451352e-18
3.959777097e-18
8.285323819e-19
3.540897484e-19
3.171939705e-21
1.060295457e-14
2.200567855e-14
2.331347741e-14
3.777857282e-14
3.974613289e-14
5.938465131e-14
8.790782616e-13
9.986521416e-13
1.014584676e-12
1.773449137e-13
1.067047283e-13
2.633951681e-13
2.827488356e-13
9.013035482e-13
7.087463632e-13
2.260703118e-12
1.602848428e-11
3.118921261e-12
2.215763523e-11
1.06059998e-11
9.461457284e-12
3.354494358e-11
4.059062584e-14
2.693362236e-14
7.213126774e-15
7.271334983e-16
5.205053006e-16
2.992117437e-14
1.536652742e-13
1.55832555e-13
4.891966995e-13
2.431248718e-12
1.286177784e-12
2.666202446e-12
3.673702236e-12
2.748832834e-12
2.696315425e-11
1.64997943e-15
1.535770014e-15
3.748014527e-17
6.183230804e-14
5.295690907e-14
1.242710223e-21
2.525160941e-22
3.388654514e-23
5.464872569e-25
1.164071204e-25
2.075023911e-14
2.685853232e-14
4.715378957e-14
6.79265403e-14
9.145930928e-14
3.250466119e-22
6.915418073e-23
9.536778644e-24
2.755017468e-26
4.474379172e-14
7.271089409e-14
9.893407208e-14
1.273638128e-13
1.663243937e-13
4.946552032e-23
1.092449369e-23
1.55163319e-24
3.411144607e-27
1.097058619e-13
1.55023212e-13
1.914115773e-13
2.29704586e-13
2.872159825e-13
4.842954068e-25
8.170743282e-26
7.990374174e-27
1.59103036e-31
2.025335906e-12
2.602847826e-12
3.264175411e-12
3.660987632e-12
3.792103142e-12
0.0001794388347
8.631895017e-13
0.0004942046662
1.378341554e-15
0.0002839441993
1.817204169e-12
0.0008696764572
0.0007987533298
9.354740377e-16
6.965350753e-16
0.0002683364892
1.209328763e-12
0.0008957811819
0.0008200482251
2.900874673e-16
9.440820464e-17
0.0002412909005
7.971455978e-13
0.0006764864541
0.0005481959752
2.939268395e-17
5.63535964e-18
0.0002207866765
6.275905512e-13
0.0004469998873
0.000364129698
1.529485346e-18
4.722244555e-15
0.0002048339704
5.839356135e-13
0.0003015779172
0.000255179061
8.805452845e-15
1.292813747e-14
0.0001935902074
6.081178385e-13
0.0002227301884
0.0002126347825
1.766445717e-14
2.33555295e-14
0.0001940410614
7.08182387e-13
0.0002302598668
0.0002420863517
3.021140739e-14
3.850221628e-14
0.0002693525102
1.06586079e-12
0.0002034539501
0.0001865648293
4.908416318e-14
6.269282449e-14
0.000280182195
0.0004350243591
8.158966465e-14
0.0008232970306
0.0006804656375
4.401702943e-05
5.23732379e-05
0.0002519340655
0.0004391525066
1.930415567e-12
0.0001180049449
1.003739167e-10
1.314342338e-10
6.643124375e-05
2.00301728e-05
0.001605419577
0.0005503085497
9.06081825e-11
8.309698971e-11
0.0001575085955
0.0003593014913
2.671970557e-07
4.504892196e-07
0.0001533518026
6.537108303e-12
7.288811818e-12
8.470051196e-12
1.750187996e-06
1.485071376e-05
9.056756786e-12
0.0007689494629
0.000567277615
3.931608227e-05
0.0006623592112
2.403930022e-05
0.000170997829
0.0005479320974
8.529047134e-12
6.197488743e-12
4.381083706e-12
0.0001928509202
0.0007361148328
4.59368651e-05
1.899211371e-05
0.0003652339247
0.0008241584635
0.0009650275193
0.0001859300757
4.292170364e-05
9.237073803e-05
0.0005822132054
0.001203083675
0.001596859174
0.0006077706987
0.0001766457035
0.0003115821074
0.0006857466011
0.002224492408
0.003093658556
0.001614571401
0.0005246659677
0.0008281480058
0.0008754371522
0.00364363902
0.001844441716
2.617404914e-07
0.001023099056
1.209069541e-09
0.0006981536176
0.001842442305
0.00173756078
5.921312397e-06
2.816920921e-11
6.659640103e-11
0.0001563965058
0.001484354391
0.001248609737
1.876387941e-05
1.139773614e-10
6.488066288e-12
8.206636991e-05
0.001142849664
0.001190704508
4.680217354e-05
7.88271582e-13
7.183766081e-13
8.458927954e-05
0.001314990639
0.001451756108
0.0001079988786
7.598978339e-13
8.88817152e-13
0.0001212913277
0.001559579624
0.001620557001
0.0002117511952
1.100262162e-12
1.388088375e-12
0.001255300523
0.001644075587
0.001715914674
0.0002944330874
1.744477708e-12
2.167413042e-12
0.000178077253
0.0007855468828
0.001366065341
4.328979726e-12
2.976059739e-12
3.587855407e-12
1.904386199e-12
2.65328741e-13
3.738065543e-13
7.349161305e-13
5.435871242e-13
4.488110383e-13
2.390075043e-12
1.285028851e-12
9.970263138e-13
1.640702683e-12
4.3358295e-12
2.37367798e-12
3.328704474e-12
4.298293345e-12
4.267283005e-12
3.849228214e-12
2.44306342e-12
2.347346829e-12
2.610377611e-12
1.856662304e-12
1.654311182e-12
2.356712805e-12
1.546422765e-12
1.794323038e-12
1.218217585e-12
1.551405178e-12
1.590871372e-12
1.444334257e-05
7.413922533e-05
0.0002507068262
0.000157203179
0.0006637859531
0.0002652453169
0.0004188468391
9.080760402e-10
0.0005204555169
5.184711154e-10
2.971946988e-11
1.797862489e-11
2.618942241e-11
2.408727318e-12
4.428571476e-11
2.191220561e-12
5.331007409e-14
9.88056386e-14
4.160487176e-14
3.487329174e-14
1.853596768e-14
1.190566741e-14
9.44026261e-14
1.536552043e-14
3.376700158e-14
2.399422527e-13
9.601835203e-14
1.661954288e-13
4.172036588e-13
2.37654676e-13
3.411287064e-13
7.966540954e-13
4.950198346e-13
1.093258273e-17
1.248585638e-18
1.681552449e-14
3.090960039e-14
1.897595179e-13
1.410389641e-13
2.382943879e-13
3.666458347e-13
4.22002379e-13
3.56659363e-13
5.68179363e-13
6.901668334e-13
1.198836854e-12
6.619075784e-13
9.593530168e-13
1.290915316e-12
2.525447164e-12
1.922138695e-12
1.578832164e-12
3.566303226e-12
3.302845152e-12
3.024700444e-12
2.422567447e-12
1.684971888e-12
2.468944439e-12
1.382710634e-12
7.011107319e-13
5.440321531e-13
4.198796372e-13
4.767508217e-13
8.392774665e-13
6.504531962e-13
6.074000577e-13
5.949687695e-13
3.276278717e-05
7.623535397e-05
0.0002062035244
5.582076887e-05
8.93371658e-05
0.0001113235271
8.158809671e-11
1.997638858e-10
1.430387137e-11
2.082431854e-11
2.316995839e-11
1.903847038e-12
3.784527511e-11
1.523833942e-12
7.359003532e-14
3.105870107e-14
3.665877513e-14
4.01809842e-15
5.297187198e-15
1.191088187e-14
1.112559391e-15
6.338256835e-15
1.85152439e-16
1.008549194e-13
3.842338583e-14
7.995236375e-14
2.824062393e-13
1.535310945e-13
2.338007737e-13
3.492507541e-13
3.438453114e-18
1.426298463e-18
5.590974754e-19
3.906127684e-21
9.027855108e-23
6.932603142e-15
4.327262896e-14
5.371447398e-14
6.654821658e-14
8.19882837e-14
8.853835483e-20
1.095508586e-20
7.640282255e-15
2.073726993e-14
1.334515268e-13
1.302714041e-13
1.973915889e-13
3.416045296e-13
3.965678469e-13
6.092942989e-13
5.312521696e-13
7.447432678e-13
1.098412318e-12
1.871532385e-12
1.339519291e-12
2.819607798e-12
2.415165577e-12
3.003108116e-12
1.645735438e-12
1.492200612e-12
2.388068338e-12
1.629480497e-13
3.798181449e-13
2.510511118e-13
2.29330937e-12
3.825961303e-12
2.840044051e-12
4.911498653e-12
6.493936178e-12
7.526698556e-12
1.293011861e-11
3.180086449e-11
2.883364007e-11
7.9468917e-15
1.207225619e-14
3.649539172e-15
4.94996934e-15
1.789611791e-15
1.702029664e-16
2.587335755e-17
2.732984571e-14
2.108454688e-14
2.474134976e-13
2.100616947e-13
1.211346596e-13
8.448880067e-14
3.103454357e-13
1.669526608e-13
1.451168886e-13
1.146588629e-11
2.633515967e-12
2.139727798e-11
7.357972603e-12
1.726066599e-11
1.565874131e-11
7.913978482e-13
5.198968909e-13
1.791651613e-14
2.552938557e-15
1.075678168e-16
7.745262554e-17
6.771948816e-14
5.756482813e-14
9.937126219e-20
4.200245641e-20
1.729414653e-20
6.712281492e-21
1.755812935e-22
3.969816469e-24
8.670010704e-15
5.842588727e-14
7.064613871e-14
8.410651857e-14
1.018169912e-13
2.056599026e-20
1.183990805e-20
3.952300497e-21
5.302278862e-21
6.157235819e-22
9.76944548e-22
4.876071257e-23
1.232350941e-22
2.997241826e-23
1.033767299e-14
1.187473216e-14
2.63069065e-14
4.330296828e-14
3.81050276e-14
4.723771595e-14
6.288073483e-14
5.690535221e-14
6.726926095e-14
8.806166084e-14
7.948449956e-14
1.290879895e-13
1.108874739e-13
1.645744471e-13
1.312333138e-13
1.916392161e-13
2.520197756e-13
1.469633836e-13
2.152761295e-13
1.940967618e-13
3.822834501e-13
2.85592803e-13
3.473690605e-13
2.659024914e-13
3.60680308e-13
5.169816757e-13
9.492241293e-13
5.982514553e-13
1.453208375e-12
2.034385603e-12
1.003450399e-12
2.497255011e-12
8.834630808e-13
2.934438039e-13
1.069454421e-12
9.237459398e-13
1.658401806e-12
1.139874364e-12
2.085959566e-12
1.462891451e-12
1.975966453e-12
2.865112764e-12
7.772813495e-12
5.957463159e-12
4.6237638e-12
8.959081361e-12
2.635091421e-11
3.286657465e-14
3.569346131e-15
3.384777665e-17
1.574155676e-16
7.312212901e-17
4.944842587e-18
3.313701934e-16
3.052604653e-17
1.249931517e-16
1.086457648e-17
2.846780666e-18
2.374961245e-20
2.164975995e-14
3.460173974e-14
4.107144822e-14
8.251935531e-14
8.657121049e-14
8.488275615e-14
1.416134349e-13
3.32860084e-13
9.10743292e-14
1.917417521e-12
1.367452246e-12
5.037374906e-12
3.860234828e-12
1.075367221e-11
1.538069614e-13
7.727779874e-16
5.704855325e-16
5.13085336e-18
3.954132741e-14
3.152222571e-14
2.631857303e-21
1.426370802e-21
5.763606915e-22
6.839433856e-22
3.215789011e-22
1.00234385e-22
1.424388148e-22
5.699555767e-23
8.333756038e-24
1.937342085e-23
4.776118673e-24
1.579384461e-14
6.168714384e-26
2.024664488e-14
3.708738968e-14
3.363783542e-14
4.559514918e-14
5.737265308e-14
5.707158885e-14
6.851160877e-14
7.900735455e-14
8.013794252e-14
9.218437416e-14
1.058652086e-13
1.057515825e-13
1.220151954e-13
1.39448988e-13
6.670762573e-22
2.739098192e-22
1.547198366e-22
1.355591674e-22
6.528454851e-23
2.787603049e-23
2.944565818e-23
1.196720245e-23
2.36031475e-24
4.123597307e-24
1.025175065e-24
2.776507048e-14
1.053422471e-26
4.243480686e-14
5.923375937e-14
6.547008611e-14
8.392635835e-14
8.58361048e-14
1.003992436e-13
1.160181388e-13
1.122625291e-13
1.312055899e-13
1.463137915e-13
1.453836315e-13
1.636948169e-13
1.845560962e-13
1.860048121e-13
2.084288106e-13
2.314105951e-13
3.130384063e-13
9.870333686e-23
2.759743194e-23
2.404099562e-23
1.394555484e-23
6.808041067e-24
4.472330053e-24
3.102521913e-24
1.273253754e-24
3.874019216e-25
4.42440085e-25
1.103964953e-25
7.596523169e-14
7.947759744e-28
1.85259635e-13
1.343426023e-13
2.393641118e-13
2.728587672e-13
1.738064688e-13
2.975365701e-13
3.179335494e-13
2.084895636e-13
3.354362735e-13
3.522830829e-13
2.550283143e-13
3.881715749e-13
4.139524525e-13
3.167035255e-13
5.474024015e-13
5.579429167e-13
1.398523227e-12
2.557201933e-12
1.053477572e-24
2.77662662e-13
6.931549662e-13
2.082122789e-25
3.688323473e-13
5.147882755e-13
1.12002351e-12
2.821806257e-26
7.677554973e-13
1.258659518e-12
2.27070706e-12
1.541888108e-27
2.393728829e-12
5.986285109e-12
1.802359761e-12
3.279564634e-11
1.182671679e-10
1.668598643e-15
2.303257105e-12
2.157860564e-11
1.469394676e-11
2.925379862e-12
9.046296185e-12
4.95938631e-12
3.586880232e-12
2.169523343e-12
1.336021342e-22
1.440355746e-21
3.772360517e-12
2.150457045e-13
2.433359355e-13
8.512279755e-13
5.212965204e-14
)
;

boundaryField
{
    walls
    {
        type            zeroGradient;
    }
    wallFilmFace_top
    {
        type            zeroGradient;
    }
    region0_to_wallFilmRegion_wallFilmFace
    {
        type            zeroGradient;
    }
    mirrorFace_top
    {
        type            zeroGradient;
    }
    region0_to_wallFilmRegion_mirrorFace
    {
        type            zeroGradient;
    }
    procBoundary3to2
    {
        type            processor;
        value           nonuniform List<scalar> 
64
(
2.629429811e-05
7.047377279e-06
1.960141933e-05
8.867931757e-05
4.279724843e-05
1.587184532e-17
1.303652866e-18
4.726165797e-20
5.753605627e-13
0.0003204795648
0.0003793199569
0.0004536262186
0.0004536262186
0.0001113206669
7.684177017e-05
0.0001700423375
0.001011100093
0.002248152411
0.001257976362
0.0006598085319
0.0001930335015
5.935155745e-05
1.018726462e-07
1.018726462e-07
4.760050097e-07
1.555677874e-06
1.555677874e-06
3.439034813e-05
3.326666896e-05
3.326666896e-05
2.154078152e-15
5.092751946e-16
5.092751946e-16
2.291306262e-16
1.120882881e-16
0.0001298056881
5.789768236e-13
0.0002332491217
0.0001997009819
2.31784653e-15
8.393124043e-12
2.695250744e-20
5.698654576e-21
1.397714284e-21
1.997094947e-22
2.196687474e-24
0.0002332491217
2.31784653e-15
0.0007668965888
9.736068562e-06
8.389662132e-06
4.509838676e-05
8.867931757e-05
1.836432242e-05
8.17823552e-18
2.290412192e-12
1.65090108e-12
2.368056741e-19
1.162471484e-12
7.728448189e-13
3.043603701e-21
5.631348635e-22
5.512417254e-23
2.174709041e-13
)
;
    }
}


// ************************************************************************* //
