/*--------------------------------*- C++ -*----------------------------------*\
  =========                 |
  \\      /  F ield         | OpenFOAM: The Open Source CFD Toolbox
   \\    /   O peration     | Website:  https://openfoam.org
    \\  /    A nd           | Version:  8
     \\/     M anipulation  |
\*---------------------------------------------------------------------------*/
FoamFile
{
    version     2.0;
    format      ascii;
    class       volScalarField;
    location    "1.3/wallFilmRegion";
    object      kappa;
}
// * * * * * * * * * * * * * * * * * * * * * * * * * * * * * * * * * * * * * //

dimensions      [1 1 -3 -1 0 0 0];

internalField   nonuniform List<scalar> 
1342
(
0.6088078319
0.6088099925
0.6088099818
0.6088099536
0.6088099733
0.6088099827
0.6088099867
0.6088099998
0.6088099999
0.6088099999
0.6088099999
0.6088099883
0.6088099899
0.6088099906
0.6088099906
0.6088099903
0.6088099901
0.60880999
0.608808098
0.6088089424
0.6088087481
0.6088088616
0.6088089934
0.6088090451
0.6088087797
0.6088099998
0.6088099999
0.6088099999
0.60881
0.6088085058
0.6088086388
0.6088086542
0.6088086761
0.6088087135
0.6088087142
0.6088087364
0.608808092
0.6088085255
0.6088087794
0.6088085157
0.6088085865
0.6088087919
0.6088086857
0.6088099999
0.6088099999
0.6088081371
0.6088082841
0.608808294
0.6088083327
0.6088083892
0.6088084418
0.6088085981
0.6088085228
0.6088085169
0.6088085024
0.6088084294
0.6088083794
0.60880831
0.6088082173
0.6088082904
0.6088086907
0.6088087032
0.6088086393
0.6088084768
0.6088085025
0.608808439
0.6088084108
0.6088084046
0.6088083849
0.60880838
0.6088083499
0.6088082987
0.6088082504
0.6088085667
0.608808675
0.6088085121
0.6088084482
0.6088083913
0.608808328
0.608808302
0.6088083895
0.6088084154
0.6088084207
0.6088083911
0.6088085595
0.6088084436
0.6088086085
0.6088088346
0.6088091811
0.608808629
0.6088086407
0.6088087092
0.608808767
0.6088086138
0.6088085125
0.6088085192
0.6088085804
0.6088087573
0.6088083064
0.6088086033
0.6088079513
0.6088085315
0.6088090813
0.6088091634
0.6088099927
0.608809976
0.6088089572
0.6088091647
0.6088099672
0.6088090264
0.6088091346
0.6088099955
0.6088099953
0.6088099951
0.6088099937
0.6088099949
0.6088099952
0.6088099928
0.6088099971
0.6088100019
0.6088099948
0.6088100034
0.6088100011
0.6088099955
0.6088099977
0.6088099947
0.6088099952
0.6088099937
0.6088099952
0.6088099965
0.6088099973
0.6088099974
0.608809996
0.6088099964
0.6088099961
0.6088099982
0.608809996
0.6088099959
0.6088099957
0.6088099959
0.6088099955
0.6088099974
0.6088099952
0.608809998
0.6088099971
0.6088099973
0.6088099959
0.6088099991
0.6088100004
0.6088100033
0.6088100049
0.608810006
0.6088100104
0.6088100076
0.6088100178
0.6088100305
0.6088099973
0.6088100612
0.6088100064
0.6088099975
0.6088100014
0.6088099983
0.6088099971
0.6088100007
0.6088099979
0.608809996
0.6088099969
0.6088099963
0.6088099954
0.6088099959
0.6088099955
0.6088099943
0.608809995
0.6088099941
0.6088099941
0.6088099937
0.6088099937
0.6088099937
0.6088099936
0.6088099933
0.6088099993
0.6088099877
0.6088099884
0.608809991
0.6088099897
0.6088099904
0.6088100027
0.6088099904
0.6088099932
0.6088100118
0.6088100038
0.6088100088
0.6088100364
0.6088100178
0.6088102197
0.608810037
0.608810561
0.608810057
0.6088100036
0.6088100045
0.6088100062
0.6088100009
0.608810028
0.6088100151
0.608809998
0.6088100068
0.6088100038
0.6088099969
0.6088100021
0.6088100004
0.6088099944
0.6088099981
0.6088099953
0.6088100095
0.6088099946
0.6088099968
0.6088099932
0.6088099942
0.6088099932
0.608809989
0.6088099884
0.6088099899
0.6088099904
0.6088099909
0.608809991
0.6088099912
0.6088099906
0.6088099944
0.6088100066
0.6088099985
0.6088100025
0.6088100321
0.608810007
0.6088100175
0.6088100588
0.6088100473
0.6088100506
0.6088100083
0.6088100074
0.6088100101
0.6088100746
0.6088100805
0.6088103585
0.6088100188
0.6088104405
0.6088102352
0.6088100071
0.6088101121
0.6088100573
0.6088100025
0.6088100329
0.6088100196
0.6088099971
0.6088100115
0.6088100063
0.6088099931
0.6088100475
0.6088099925
0.6088099722
0.6088099784
0.6088099731
0.6088099894
0.6088099883
0.6088099897
0.6088099908
0.6088099928
0.6088099916
0.6088100394
0.6088099921
0.608810154
0.6088100019
0.6088100009
0.6088100024
0.6088100138
0.6088100058
0.6088100129
0.6088100506
0.6088100275
0.6088100442
0.6088100113
0.6088100187
0.608810011
0.608810431
0.6088100676
0.6088105187
0.6088106763
0.6088106819
0.6088106809
0.608810673
0.6088106806
0.6088106755
0.608810613
0.6088106504
0.6088105318
0.6088101658
0.6088102684
0.6088100356
0.6088099791
0.6088099945
0.6088099883
0.6088099838
0.6088099785
0.6088099822
0.6088099941
0.6088100569
0.6088101576
0.6088106039
0.6088106046
0.6088105711
0.6088102199
0.6088105875
0.6088102691
0.6088100037
0.6088100091
0.6088100057
0.6088100134
0.6088100084
0.6088100148
0.6088100403
0.6088100256
0.6088100378
0.608810018
0.6088100313
0.6088100291
0.608810631
0.6088102264
0.6088106669
0.6088106781
0.6088106692
0.6088106693
0.6088106733
0.6088106684
0.608810666
0.6088106843
0.6088106615
0.6088106648
0.6088100011
0.6088100103
0.6088099922
0.6088099867
0.60880999
0.6088099874
0.6088100236
0.608810009
0.6088101019
0.6088100154
0.6088100564
0.608810602
0.6088105934
0.6088105832
0.6088103012
0.608810472
0.6088103138
0.6088100084
0.6088100184
0.6088100118
0.6088100169
0.608810014
0.6088100199
0.6088100369
0.608810033
0.6088100421
0.6088100453
0.6088100441
0.608810067
0.6088106575
0.6088104552
0.6088106452
0.6088106558
0.6088106417
0.6088106289
0.608810655
0.6088105892
0.608810463
0.6088106482
0.6088102532
0.6088100229
0.6088099902
0.6088099915
0.6088099894
0.6088099868
0.6088099884
0.608809987
0.6088100021
0.6088099995
0.6088100231
0.6088100005
0.6088100011
0.6088103706
0.6088100009
0.6088100974
0.6088101068
0.6088100649
0.6088100383
0.608810015
0.6088100211
0.60881002
0.6088100264
0.6088100267
0.6088100373
0.6088100495
0.6088100519
0.6088100644
0.608810099
0.6088100751
0.608810043
0.6088106266
0.6088099998
0.6088099931
0.6088106375
0.6088099918
0.6088099913
0.6088105752
0.6088099911
0.6088099908
0.6088099907
0.6088099902
0.6088099896
0.6088089541
0.6088088219
0.6088089601
0.608808818
0.608808826
0.6088090063
0.6088088554
0.6088088527
0.6088089459
0.6088088413
0.6088087989
0.6088088593
0.6088087589
0.6088087166
0.608808814
0.60880869
0.6088086513
0.6088086806
0.6088085934
0.6088085287
0.6088085695
0.6088084758
0.6088084284
0.6088083635
0.6088083647
0.6088082556
0.6088081244
0.608808155
0.6088081652
0.6088087691
0.6088090908
0.6088089214
0.6088087536
0.608808766
0.6088087618
0.6088087349
0.6088086332
0.608808562
0.6088084565
0.6088083666
0.6088087815
0.6088087757
0.6088086772
0.6088086636
0.6088086031
0.6088085749
0.608808365
0.6088083867
0.6088082999
0.608808143
0.6088081108
0.6088081033
0.6088081792
0.6088081515
0.6088084011
0.6088086073
0.6088085423
0.6088085332
0.608808517
0.608808491
0.6088085194
0.6088084803
0.6088084512
0.6088084102
0.6088084196
0.6088084075
0.6088083461
0.6088083899
0.6088083668
0.6088082682
0.6088081715
0.6088081415
0.6088081666
0.6088082466
0.6088081717
0.6088083678
0.6088086369
0.6088084885
0.6088083763
0.6088084029
0.6088083489
0.6088083766
0.6088083868
0.6088083684
0.6088083948
0.608808396
0.6088083258
0.6088083896
0.6088082714
0.6088084222
0.6088085974
0.6088084796
0.6088083873
0.608808477
0.6088084457
0.6088086101
0.6088099974
0.6088092588
0.6088099975
0.6088092724
0.6088099976
0.6088092563
0.6088099976
0.608809191
0.6088099976
0.6088091641
0.6088099976
0.6088091395
0.6088099975
0.608808914
0.6088099973
0.6088087894
0.6088084203
0.608809997
0.6088083549
0.6088099958
0.6088099949
0.6088099928
0.6088099937
0.6088099958
0.6088099954
0.6088099952
0.608809996
0.6088099965
0.608809996
0.6088099953
0.6088099939
0.6088099947
0.6088099944
0.6088099975
0.6088099972
0.6088099976
0.608810002
0.6088100073
0.608810005
0.6088099955
0.6088099979
0.6088099964
0.6088099957
0.608809995
0.608809994
0.608809994
0.6088099934
0.6088099931
0.6088099935
0.6088099878
0.6088100061
0.6088099936
0.6088100065
0.6088100199
0.6088102663
0.6088100034
0.6088100065
0.608809999
0.6088099973
0.608809997
0.6088099938
0.6088099939
0.6088099925
0.6088099886
0.6088099899
0.6088099902
0.6088100027
0.6088100111
0.6088101282
0.6088100055
0.6088100618
0.6088100344
0.6088100113
0.6088100044
0.60881
0.6088100003
0.6088099826
0.6088099883
0.6088099915
0.6088099957
0.6088099988
0.6088100058
0.6088100324
0.608810012
0.608810079
0.6088106775
0.6088106768
0.6088106598
0.6088104891
0.6088100079
0.6088099785
0.6088099888
0.608810147
0.6088106035
0.6088100046
0.6088100067
0.6088100258
0.6088100266
0.6088100449
0.6088106775
0.6088106772
0.6088106669
0.6088100873
0.6088099914
0.6088099819
0.6088100325
0.6088106017
0.6088105425
0.6088100141
0.6088100109
0.6088100263
0.6088100356
0.6088103414
0.6088106565
0.6088106548
0.6088106757
0.6088099939
0.6088099893
0.6088099832
0.6088100004
0.6088100053
0.6088105074
0.6088102066
0.6088100227
0.6088100186
0.60881004
0.6088100572
0.6088105459
0.6088106301
0.6088106214
0.6088104526
0.6088099904
0.6088099882
0.6088099982
0.6088099978
0.6088099971
0.6088099962
0.608809995
0.608809994
0.6088099929
0.6088099925
0.6088099922
0.6088099915
0.6088099909
0.6088099879
0.6088099894
0.6088089481
0.6088089575
0.6088089731
0.6088089911
0.6088089168
0.6088088421
0.6088087588
0.6088086172
0.6088085084
0.6088081467
0.6088081709
0.6088083657
0.6088086241
0.608808907
0.6088089914
0.6088089971
0.6088088513
0.6088087377
0.6088087616
0.6088087526
0.6088087194
0.6088087305
0.6088086897
0.6088086862
0.608808603
0.6088085093
0.6088084943
0.6088084119
0.6088084136
0.6088083041
0.6088088791
0.6088088674
0.6088087949
0.6088085108
0.6088082382
0.6088084958
0.6088084835
0.6088084924
0.6088085386
0.6088086489
0.6088079661
0.6088080738
0.6088079838
0.6088079684
0.6088080672
0.6088080893
0.6088080968
0.6088081526
0.6088081348
0.6088082055
0.6088082251
0.6088082745
0.6088083224
0.6088082768
0.60880854
0.6088086764
0.6088087696
0.6088088022
0.6088081247
0.6088082871
0.608808397
0.6088083199
0.6088081818
0.6088082747
0.6088083941
0.6088084646
0.6088085349
0.6088084687
0.6088084098
0.6088083404
0.6088083701
0.6088084594
0.6088084965
0.6088085235
0.6088085473
0.6088085366
0.6088086249
0.6088086214
0.6088085407
0.6088085306
0.6088086656
0.6088086823
0.6088087431
0.6088087817
0.6088086872
0.6088086773
0.6088086605
0.6088086737
0.6088087417
0.6088088106
0.6088088038
0.6088089216
0.6088088233
0.6088083311
0.6088085688
0.6088086541
0.6088087553
0.6088090369
0.6088088621
0.6088087829
0.6088088512
0.6088089584
0.6088091224
0.6088099973
0.6088092485
0.6088099972
0.6088091152
0.6088099975
0.6088092667
0.6088099968
0.6088099965
0.608809122
0.6088091282
0.6088099976
0.6088092703
0.6088099961
0.6088099957
0.6088091358
0.6088091425
0.6088099976
0.6088092293
0.6088099955
0.6088099954
0.6088091592
0.6088091276
0.6088099976
0.6088091598
0.6088099953
0.6088099953
0.6088090576
0.6088090254
0.6088099976
0.6088091719
0.6088099954
0.6088099954
0.6088090213
0.6088090111
0.6088099975
0.6088090173
0.6088099954
0.6088099954
0.6088089658
0.60880887
0.6088099974
0.608808852
0.6088099954
0.6088099953
0.6088087916
0.6088087389
0.6088099971
0.6088086428
0.6088099952
0.6088099954
0.6088086762
0.608808522
0.6088099962
0.6088099959
0.6088082328
0.6088099956
0.6088099949
0.6088099951
0.6088099947
0.6088099944
0.6088099941
0.6088087599
0.6088099927
0.608809124
0.6088092335
0.6088099924
0.6088099922
0.6088099894
0.6088099761
0.6088090894
0.6088090726
0.6088099822
0.6088099826
0.6088099768
0.6088099793
0.6088099824
0.6088091381
0.6088091766
0.6088093451
0.6088099813
0.608809984
0.6088092399
0.6088099884
0.608809989
0.6088099874
0.6088099885
0.6088099864
0.6088099872
0.6088099882
0.6088092399
0.6088090554
0.608808916
0.6088099983
0.6088099979
0.6088099998
0.6088099997
0.608809998
0.608809998
0.6088099981
0.6088099999
0.6088099998
0.6088099999
0.6088099974
0.6088099982
0.6088099984
0.6088099999
0.6088099999
0.6088099999
0.6088099967
0.6088099985
0.6088099985
0.6088099999
0.6088099999
0.6088099999
0.6088099953
0.6088099981
0.608809995
0.6088099654
0.6088099999
0.608808492
0.6088099945
0.6088099944
0.6088099937
0.6088099892
0.6088088429
0.6088089391
0.6088099934
0.6088099931
0.6088099926
0.6088099905
0.6088089139
0.6088089314
0.6088099926
0.6088099923
0.6088099922
0.6088099906
0.6088089248
0.6088089307
0.6088099923
0.6088099921
0.608809992
0.6088099905
0.6088089401
0.6088089516
0.6088099921
0.6088099919
0.6088099918
0.6088099902
0.608808966
0.6088089671
0.6088099912
0.6088099917
0.6088099915
0.60880999
0.6088089351
0.6088089063
0.6088099901
0.6088099902
0.6088099912
0.608809116
0.6088089082
0.6088090823
0.6088089393
0.6088082978
0.6088087885
0.6088089808
0.608808834
0.6088087509
0.6088088692
0.6088088215
0.6088088589
0.6088086906
0.6088088391
0.6088085773
0.6088086255
0.6088089695
0.6088086983
0.6088088162
0.6088090394
0.6088091807
0.6088088692
0.6088089302
0.6088090761
0.608809099
0.6088090125
0.6088088714
0.6088088467
0.6088087598
0.6088088933
0.6088099996
0.6088099998
0.6088099999
0.6088099999
0.6088099999
0.6088099999
0.6088099999
0.6088083436
0.6088099999
0.6088082849
0.6088086487
0.6088082506
0.6088083958
0.608808656
0.6088084069
0.6088084174
0.6088086631
0.6088084199
0.6088084332
0.6088086932
0.6088084516
0.608808474
0.6088087247
0.6088084994
0.60880852
0.6088087145
0.608808534
0.6088085787
0.6088088918
0.608808839
0.6088086517
0.6088086719
0.6088086005
0.6088087371
0.6088086839
0.6088085366
0.6088084544
0.6088082774
0.6088082648
0.6088083776
0.6088085522
0.6088086586
0.6088085972
0.6088087708
0.6088087848
0.6088085981
0.6088086561
0.6088086347
0.6088087216
0.6088085239
0.6088085164
0.6088085468
0.6088087152
0.6088088166
0.6088085454
0.6088085622
0.6088089506
0.6088087672
0.6088087674
0.6088088669
0.6088087517
0.6088087031
0.6088086563
0.6088086243
0.608808594
0.6088086265
0.6088085759
0.6088099998
0.6088099999
0.6088099999
0.6088099999
0.6088099999
0.6088099999
0.6088080825
0.6088080916
0.6088081335
0.608808203
0.6088082514
0.6088082876
0.608808256
0.6088082596
0.6088082642
0.6088082731
0.6088083092
0.6088083262
0.6088083596
0.6088082969
0.6088083587
0.6088084159
0.6088083817
0.6088086876
0.6088084026
0.6088083601
0.608808488
0.6088084039
0.6088084256
0.6088084693
0.6088086082
0.6088085687
0.6088085302
0.6088084867
0.6088084767
0.6088084327
0.6088083382
0.6088083043
0.608808267
0.6088082331
0.6088084795
0.6088084269
0.6088083874
0.6088083848
0.6088082759
0.6088083235
0.6088084101
0.608808547
0.6088085941
0.6088085203
0.6088085467
0.6088085607
0.608808547
0.6088085679
0.6088085913
0.6088086158
0.6088086355
0.6088085855
0.6088087987
0.6088087686
0.6088086605
0.6088086239
0.6088086844
0.6088086576
0.6088081575
0.6088080464
0.6088081304
0.6088080504
0.6088080403
0.6088081587
0.6088082001
0.6088081697
0.6088082435
0.6088081978
0.6088081493
0.6088081814
0.608808164
0.6088081911
0.6088082225
0.6088082504
0.6088082985
0.6088083061
0.6088085645
0.6088084636
0.6088084911
0.6088083313
0.6088084993
0.6088085712
0.6088084264
0.6088080367
0.6088081292
0.6088079364
0.6088079166
0.6088080274
0.6088081159
0.6088080873
0.6088081601
0.6088081077
0.6088081682
0.6088082169
0.6088082262
0.60880832
0.6088083337
0.6088084512
0.6088084474
0.6088084359
0.6088084228
0.6088083478
0.6088083395
0.6088083702
0.6088083751
0.608808353
0.6088083197
0.6088082942
0.6088084218
0.6088085166
0.6088084343
0.6088085282
0.6088083378
0.6088084523
0.608808329
0.6088083855
0.6088083704
0.6088083816
0.6088084498
0.608808403
0.6088084221
0.6088084953
0.608808509
0.6088084099
0.6088085152
0.6088085109
0.6088083634
0.6088084911
0.608808339
0.6088084007
0.6088084602
0.6088083857
0.6088083983
0.6088084699
0.6088084615
0.6088084858
0.6088085144
0.6088085293
0.608808513
0.60880855
0.6088085688
0.6088086589
0.6088085944
0.6088086516
0.6088087566
0.6088089948
0.6088087239
0.608809096
0.6088089679
0.6088088702
0.6088088024
0.6088091433
0.6088084765
0.6088083139
0.6088084566
0.6088082911
0.6088084439
0.6088084471
0.6088084679
0.6088087477
0.6088083308
0.6088085019
0.6088085383
0.6088085652
0.6088083623
0.6088085151
0.6088085571
0.6088084467
0.6088083786
0.6088084871
0.6088082685
0.6088083662
0.6088082526
0.6088083563
0.6088083611
0.60880834
0.6088083605
0.6088084542
0.6088085181
0.6088085986
0.6088085756
0.6088085224
0.6088088319
0.6088087309
0.6088086226
0.6088082023
0.6088083487
0.6088081326
0.6088083017
0.6088083674
0.608808222
0.6088082863
0.6088081999
0.6088082909
0.6088083496
0.6088084057
0.6088085314
0.6088085954
0.6088084949
0.6088085837
0.6088085549
0.6088084461
0.6088085495
0.608808518
0.6088083739
0.6088084624
0.6088084392
0.6088084933
0.6088084435
0.60880858
0.6088085078
0.6088085797
0.6088085879
0.6088085382
0.6088086038
0.6088086235
0.608808548
0.6088086417
0.6088086555
0.6088085156
0.6088086489
0.6088086169
0.6088085803
0.6088086268
0.6088086417
0.608808639
0.6088086772
0.608808681
0.6088085817
0.6088086584
0.6088086207
0.608808523
0.6088086134
0.6088086134
0.6088086732
0.608808624
0.6088087615
0.6088086676
0.6088087442
0.6088087376
0.6088087093
0.6088087506
0.6088087884
0.6088087846
0.6088088433
0.6088089321
0.6088087006
0.6088089031
0.608808592
0.6088086465
0.6088087729
0.6088087694
0.6088087377
0.6088086535
0.608808626
0.6088086721
0.6088086219
0.6088086647
0.6088086678
0.6088086727
0.6088086948
0.608808727
0.6088087773
0.6088088365
0.6088088401
0.6088088994
0.6088089198
0.6088087936
0.6088088744
0.6088088403
0.6088088527
0.6088088402
0.6088089121
0.6088089957
0.6088090317
0.608809298
0.608807952
0.6088086812
0.6088060496
0.6088086462
0.608797868
0.6088093041
0.608809265
0.6088094336
0.6088085626
0.6088086563
0.6088086332
0.6088086241
0.6088086741
0.6088086947
0.6088086286
0.6088086862
0.6088087246
0.6088087658
0.6088086692
0.6088088853
0.6088088139
0.6088088561
0.6088089204
0.6088088701
0.6088088277
0.6088087166
0.6088088095
0.6088087673
0.608808708
0.6088088024
0.6088086675
0.6088086592
0.608809
0.608808678
0.6088085288
0.6088085059
0.6088081418
0.6088087775
0.6088086592
0.6088090672
0.6088086394
)
;

boundaryField
{
    walls
    {
        type            zeroGradient;
    }
    wallFilmFace_top
    {
        type            zeroGradient;
    }
    region0_to_wallFilmRegion_wallFilmFace
    {
        type            zeroGradient;
    }
    mirrorFace_top
    {
        type            zeroGradient;
    }
    region0_to_wallFilmRegion_mirrorFace
    {
        type            zeroGradient;
    }
    procBoundary3to2
    {
        type            processor;
        value           nonuniform List<scalar> 
64
(
0.6088099997
0.6088099993
0.6088099996
0.6088099999
0.6088099998
0.6088086206
0.6088084827
0.6088084059
0.6088086314
0.6088099959
0.6088099958
0.6088099955
0.6088099955
0.6088099975
0.6088099975
0.6088099877
0.6088099873
0.6088099876
0.6088099874
0.6088099879
0.608809988
0.6088099881
0.6088100524
0.6088100524
0.6088100215
0.608810006
0.608810006
0.6088099965
0.6088099989
0.6088099989
0.6088089467
0.608808817
0.608808817
0.6088087519
0.6088087681
0.6088099974
0.6088092369
0.608809997
0.6088099982
0.6088091077
0.6088081209
0.6088084837
0.6088085448
0.6088086155
0.6088086107
0.6088085446
0.608809997
0.6088091077
0.6088099979
0.6088099995
0.6088099994
0.6088099998
0.6088099999
0.6088099997
0.6088085926
0.6088081912
0.6088082518
0.6088084319
0.6088083843
0.6088084926
0.6088085774
0.6088086075
0.6088086048
0.6088086345
)
;
    }
}


// ************************************************************************* //
