/*--------------------------------*- C++ -*----------------------------------*\
  =========                 |
  \\      /  F ield         | OpenFOAM: The Open Source CFD Toolbox
   \\    /   O peration     | Website:  https://openfoam.org
    \\  /    A nd           | Version:  8
     \\/     M anipulation  |
\*---------------------------------------------------------------------------*/
FoamFile
{
    version     2.0;
    format      ascii;
    class       volScalarField;
    location    "1.3/wallFilmRegion";
    object      mu;
}
// * * * * * * * * * * * * * * * * * * * * * * * * * * * * * * * * * * * * * //

dimensions      [1 -1 -1 0 0 0 0];

internalField   nonuniform List<scalar> 
1342
(
0.0008861776777
0.0008861475156
0.000886147665
0.0008861480586
0.000886147783
0.0008861476524
0.0008861475962
0.0008861474125
0.0008861474115
0.0008861474111
0.0008861474111
0.0008861475738
0.0008861475513
0.0008861475412
0.0008861475418
0.0008861475451
0.0008861475489
0.0008861475499
0.0008861739632
0.0008861621748
0.0008861648871
0.0008861633034
0.0008861614634
0.0008861607409
0.000886164446
0.0008861474138
0.0008861474119
0.0008861474113
0.000886147411
0.0008861682705
0.0008861664135
0.0008861661989
0.0008861658932
0.0008861653702
0.0008861653602
0.0008861650506
0.0008861740465
0.0008861679945
0.0008861644499
0.0008861681325
0.0008861671441
0.000886164276
0.0008861657581
0.0008861474118
0.0008861474111
0.0008861734171
0.0008861713649
0.0008861712276
0.0008861706873
0.0008861698981
0.0008861691633
0.0008861669821
0.0008861680333
0.0008861681157
0.0008861683171
0.0008861693362
0.0008861700343
0.0008861710038
0.0008861722983
0.0008861712768
0.000886165689
0.0008861655147
0.000886166406
0.000886168675
0.0008861683157
0.0008861692031
0.0008861695966
0.0008861696836
0.0008861699577
0.0008861700264
0.0008861704461
0.0008861711615
0.0008861718364
0.0008861674197
0.0008861659078
0.0008861681825
0.0008861690742
0.0008861698691
0.0008861707522
0.0008861711153
0.0008861698935
0.0008861695325
0.0008861694588
0.0008861698719
0.0008861675204
0.0008861691392
0.0008861668365
0.0008861636801
0.0008861588424
0.0008861665507
0.0008861663871
0.0008861654306
0.000886164623
0.0008861667629
0.0008861681764
0.0008861680826
0.0008861672294
0.0008861647585
0.0008861710538
0.0008861669096
0.000886176012
0.0008861679116
0.0008861602354
0.0008861590896
0.0008861475122
0.0008861477454
0.0008861619682
0.000886159072
0.0008861478679
0.000886161002
0.0008861594923
0.0008861474725
0.0008861474763
0.0008861474789
0.0008861474976
0.000886147482
0.0008861474777
0.0008861475103
0.0008861474504
0.0008861473844
0.0008861474831
0.0008861473627
0.0008861473949
0.000886147473
0.0008861474431
0.000886147484
0.0008861474767
0.0008861474977
0.0008861474776
0.0008861474598
0.0008861474482
0.0008861474466
0.0008861474665
0.0008861474609
0.0008861474649
0.0008861474358
0.0008861474664
0.0008861474669
0.0008861474699
0.0008861474678
0.0008861474726
0.0008861474464
0.0008861474768
0.0008861474376
0.0008861474504
0.0008861474475
0.0008861474678
0.0008861474227
0.0008861474043
0.0008861473639
0.0008861473417
0.0008861473262
0.0008861472652
0.0008861473047
0.0008861471621
0.0008861469841
0.0008861474477
0.0008861465565
0.0008861473206
0.0008861474448
0.0008861473903
0.0008861474341
0.0008861474506
0.0008861474008
0.000886147439
0.0008861474667
0.000886147453
0.0008861474613
0.000886147475
0.0008861474677
0.0008861474733
0.0008861474904
0.0008861474795
0.0008861474931
0.000886147493
0.0008861474982
0.0008861474985
0.0008861474981
0.0008861474997
0.0008861475034
0.0008861474195
0.0008861475817
0.0008861475721
0.0008861475356
0.000886147554
0.0008861475449
0.0008861473722
0.0008861475439
0.0008861475056
0.0008861472454
0.0008861473578
0.0008861472872
0.0008861469024
0.0008861471617
0.0008861443434
0.0008861468944
0.000886139578
0.0008861466142
0.0008861473598
0.0008861473469
0.0008861473231
0.0008861473971
0.0008861470189
0.0008861471993
0.0008861474387
0.0008861473154
0.0008861473575
0.0008861474539
0.0008861473816
0.0008861474053
0.0008861474884
0.0008861474372
0.000886147476
0.000886147277
0.0008861474857
0.0008861474544
0.0008861475055
0.0008861474911
0.0008861475054
0.0008861475632
0.0008861475725
0.0008861475514
0.000886147544
0.0008861475379
0.0008861475363
0.0008861475331
0.0008861475415
0.000886147488
0.0008861473181
0.0008861474311
0.0008861473748
0.000886146962
0.0008861473125
0.0008861471658
0.0008861465896
0.0008861467505
0.0008861467038
0.0008861472942
0.0008861473073
0.0008861472698
0.0008861463693
0.0008861462861
0.0008861424058
0.0008861471485
0.0008861412609
0.0008861441273
0.0008861473115
0.000886145846
0.0008861466103
0.0008861473752
0.0008861469516
0.0008861471372
0.0008861474511
0.0008861472498
0.0008861473222
0.0008861475068
0.0008861467474
0.0008861475148
0.0008861477991
0.0008861477114
0.0008861477864
0.0008861475577
0.000886147573
0.0008861475547
0.0008861475388
0.0008861475105
0.0008861475278
0.0008861468597
0.0008861475213
0.0008861452609
0.0008861473833
0.0008861473976
0.0008861473766
0.000886147217
0.0008861473295
0.0008861472301
0.0008861467041
0.0008861470264
0.0008861467933
0.0008861472527
0.0008861471499
0.0008861472572
0.0008861413934
0.0008861464672
0.0008861401689
0.0008861379692
0.000886137891
0.0008861379042
0.0008861380154
0.0008861379087
0.0008861379807
0.0008861388527
0.0008861383303
0.0008861399865
0.0008861450958
0.0008861436638
0.0008861469129
0.0008861477015
0.000886147487
0.000886147573
0.0008861476369
0.0008861477099
0.0008861476583
0.0008861474933
0.0008861466165
0.0008861452101
0.0008861389802
0.0008861389706
0.000886139437
0.0008861443404
0.0008861392089
0.0008861436539
0.0008861473589
0.0008861472829
0.0008861473309
0.0008861472234
0.0008861472932
0.0008861472038
0.0008861468476
0.0008861470527
0.0008861468822
0.0008861471597
0.0008861469736
0.0008861470037
0.0008861386007
0.0008861442504
0.0008861380997
0.0008861379445
0.0008861380678
0.0008861380665
0.0008861380102
0.000886138079
0.0008861381123
0.0008861378579
0.0008861381762
0.0008861381301
0.0008861473944
0.0008861472663
0.0008861475186
0.0008861475955
0.0008861475495
0.0008861475866
0.0008861470807
0.0008861472841
0.0008861459873
0.0008861471958
0.0008861466236
0.0008861390063
0.0008861391261
0.0008861392685
0.0008861432058
0.0008861408216
0.000886143029
0.0008861472924
0.0008861471532
0.0008861472462
0.0008861471741
0.0008861472152
0.0008861471322
0.0008861468953
0.00088614695
0.000886146823
0.0008861467781
0.0008861467944
0.0008861464757
0.0008861382311
0.000886141056
0.0008861384027
0.0008861382552
0.0008861384516
0.0008861386306
0.0008861382661
0.0008861391851
0.0008861409468
0.0008861383608
0.0008861438749
0.0008861470905
0.0008861475473
0.0008861475295
0.0008861475584
0.0008861475946
0.0008861475725
0.0008861475916
0.0008861473813
0.0008861474173
0.0008861470882
0.0008861474033
0.0008861473952
0.0008861422362
0.0008861473983
0.0008861460506
0.000886145919
0.000886146505
0.000886146875
0.000886147201
0.0008861471162
0.000886147131
0.0008861470414
0.0008861470378
0.0008861468902
0.0008861467197
0.0008861466856
0.0008861465113
0.0008861460279
0.0008861463616
0.0008861468103
0.0008861386627
0.0008861474132
0.0008861475063
0.0008861385104
0.0008861475254
0.0008861475313
0.0008861393805
0.0008861475348
0.0008861475393
0.0008861475407
0.0008861475465
0.0008861475556
0.0008861620113
0.0008861638574
0.0008861619285
0.0008861639117
0.0008861637999
0.0008861612828
0.0008861633901
0.0008861634277
0.000886162126
0.0008861635859
0.0008861641778
0.0008861633357
0.0008861647373
0.0008861653274
0.0008861639681
0.0008861656993
0.0008861662392
0.0008861658303
0.0008861670473
0.0008861679508
0.0008861673812
0.000886168689
0.0008861693509
0.0008861702572
0.0008861702396
0.0008861717636
0.0008861735946
0.0008861731674
0.0008861730258
0.0008861645941
0.0008861601034
0.0008861624675
0.0008861648102
0.0008861646374
0.0008861646958
0.0008861650724
0.0008861664911
0.0008861674857
0.000886168959
0.0008861702137
0.0008861644216
0.0008861645016
0.0008861658771
0.0008861660675
0.0008861669124
0.0008861673054
0.0008861702355
0.0008861699324
0.0008861711442
0.0008861733355
0.000886173784
0.0008861738899
0.0008861728304
0.0008861732166
0.000886169732
0.0008861668528
0.0008861677606
0.0008861678871
0.0008861681136
0.0008861684764
0.0008861680798
0.0008861686265
0.0008861690329
0.0008861696047
0.0008861694738
0.0008861696421
0.0008861704992
0.0008861698889
0.0008861702112
0.0008861715871
0.000886172937
0.0008861733559
0.0008861730054
0.0008861718893
0.0008861729345
0.0008861701962
0.0008861664401
0.0008861685111
0.0008861700786
0.0008861697074
0.0008861704602
0.0008861700743
0.0008861699315
0.000886170189
0.0008861698201
0.0008861698034
0.0008861707827
0.0008861698928
0.0008861715428
0.0008861694375
0.0008861669919
0.0008861686361
0.0008861699242
0.0008861686716
0.0008861691098
0.0008861668147
0.000886147446
0.0008861577578
0.0008861474448
0.0008861575684
0.0008861474437
0.0008861577929
0.0008861474432
0.0008861587048
0.0008861474434
0.0008861590805
0.0008861474441
0.0008861594236
0.0008861474458
0.0008861625717
0.0008861474486
0.0008861643113
0.0008861694633
0.0008861474523
0.0008861703764
0.0008861474697
0.0008861474821
0.0008861475106
0.000886147498
0.0008861474694
0.0008861474746
0.0008861474778
0.0008861474666
0.0008861474598
0.0008861474659
0.0008861474754
0.0008861474959
0.0008861474848
0.0008861474885
0.0008861474448
0.0008861474493
0.0008861474438
0.000886147383
0.0008861473091
0.0008861473404
0.0008861474729
0.0008861474393
0.0008861474611
0.000886147471
0.0008861474796
0.0008861474936
0.0008861474947
0.0008861475028
0.0008861475066
0.000886147501
0.0008861475812
0.0008861473253
0.0008861475001
0.0008861473201
0.000886147133
0.0008861436929
0.0008861473628
0.0008861473202
0.0008861474249
0.0008861474481
0.0008861474529
0.0008861474962
0.000886147495
0.0008861475147
0.0008861475699
0.0008861475518
0.0008861475476
0.0008861473724
0.0008861472556
0.0008861456207
0.0008861473334
0.0008861465474
0.0008861469301
0.0008861472525
0.0008861473484
0.0008861474108
0.0008861474059
0.0008861476533
0.0008861475742
0.0008861475296
0.0008861474704
0.0008861474272
0.0008861473299
0.000886146958
0.0008861472423
0.0008861463078
0.0008861379523
0.0008861379616
0.0008861381993
0.0008861405829
0.0008861472994
0.0008861477104
0.0008861475666
0.0008861453579
0.0008861389846
0.000886147346
0.0008861473168
0.0008861470504
0.0008861470388
0.0008861467836
0.0008861379528
0.0008861379559
0.0008861380998
0.0008861461918
0.00088614753
0.0008861476637
0.0008861469569
0.0008861390103
0.0008861398366
0.0008861472141
0.0008861472588
0.0008861470432
0.0008861469128
0.0008861426444
0.0008861382455
0.0008861382697
0.0008861379769
0.0008861474959
0.0008861475599
0.0008861476445
0.000886147405
0.0008861473358
0.0008861403266
0.0008861445261
0.000886147094
0.0008861471506
0.0008861468519
0.0008861466124
0.0008861397893
0.000886138614
0.0008861387356
0.0008861410923
0.0008861475439
0.0008861475749
0.0008861474352
0.0008861474416
0.0008861474513
0.0008861474635
0.0008861474796
0.0008861474941
0.0008861475092
0.0008861475155
0.0008861475187
0.0008861475288
0.0008861475372
0.0008861475796
0.000886147559
0.0008861620953
0.0008861619636
0.0008861617468
0.0008861614951
0.0008861625328
0.0008861635749
0.0008861647383
0.0008861667154
0.0008861682338
0.0008861732839
0.0008861729463
0.0008861702265
0.0008861666183
0.0008861626694
0.0008861614915
0.0008861614108
0.0008861634471
0.0008861650322
0.0008861646993
0.0008861648245
0.0008861652875
0.0008861651335
0.0008861657027
0.0008861657512
0.0008861669133
0.0008861682217
0.0008861684307
0.0008861695817
0.0008861695574
0.0008861710858
0.0008861630587
0.0008861632216
0.0008861642342
0.0008861682011
0.0008861720058
0.0008861684091
0.000886168582
0.0008861684576
0.0008861678119
0.0008861662725
0.0008861758047
0.0008861743014
0.0008861755576
0.0008861757731
0.0008861743941
0.0008861740852
0.0008861739801
0.0008861732015
0.0008861734493
0.0008861724627
0.0008861721892
0.0008861714987
0.0008861708304
0.0008861714666
0.000886167793
0.0008861658883
0.0008861645869
0.0008861641318
0.0008861735913
0.0008861713233
0.0008861697885
0.0008861708659
0.0008861727932
0.000886171496
0.0008861698297
0.0008861688457
0.0008861678647
0.0008861687883
0.0008861696098
0.0008861705795
0.0008861701648
0.0008861689176
0.0008861684002
0.0008861680225
0.0008861676914
0.0008861678405
0.0008861666079
0.0008861666567
0.0008861677829
0.0008861679247
0.0008861660389
0.0008861658055
0.000886164958
0.0008861644183
0.000886165738
0.0008861658764
0.0008861661101
0.0008861659266
0.0008861649771
0.000886164015
0.0008861641095
0.0008861624659
0.0008861638379
0.0008861707097
0.0008861673907
0.0008861662003
0.0008861647868
0.0008861608561
0.0008861632965
0.0008861644018
0.0008861634487
0.000886161952
0.0008861596625
0.0008861474474
0.0008861579011
0.0008861474501
0.0008861597632
0.0008861474455
0.0008861576477
0.0008861474555
0.0008861474589
0.0008861596679
0.0008861595818
0.0008861474442
0.0008861575975
0.000886147465
0.0008861474703
0.0008861594756
0.0008861593809
0.0008861474434
0.0008861581694
0.0008861474732
0.0008861474747
0.0008861591489
0.0008861595891
0.0008861474432
0.0008861591399
0.0008861474753
0.0008861474753
0.0008861605663
0.0008861610161
0.0008861474437
0.0008861589708
0.0008861474752
0.0008861474752
0.0008861610729
0.0008861612158
0.0008861474448
0.0008861611287
0.0008861474752
0.000886147475
0.0008861618487
0.0008861631854
0.000886147447
0.0008861634375
0.0008861474751
0.0008861474754
0.0008861642799
0.0008861650166
0.0008861474507
0.0008861663578
0.0008861474768
0.0008861474752
0.0008861658911
0.0008861680437
0.0008861474638
0.0008861474676
0.0008861720814
0.0008861474719
0.0008861474812
0.0008861474793
0.0008861474839
0.000886147489
0.0008861474931
0.0008861647231
0.0008861475119
0.0008861596393
0.0008861581105
0.0008861475167
0.0008861475196
0.0008861475578
0.0008861477436
0.0008861601226
0.0008861603572
0.0008861476595
0.0008861476534
0.0008861477335
0.0008861476992
0.0008861476566
0.0008861594428
0.0008861589058
0.0008861565537
0.0008861476713
0.0008861476341
0.0008861580212
0.0008861475722
0.0008861475644
0.0008861475864
0.0008861475708
0.0008861475999
0.0008861475896
0.0008861475745
0.0008861580214
0.0008861605967
0.0008861625431
0.0008861474343
0.0008861474395
0.0008861474135
0.0008861474148
0.0008861474377
0.0008861474388
0.0008861474374
0.0008861474119
0.0008861474131
0.0008861474122
0.0008861474464
0.0008861474353
0.0008861474331
0.0008861474113
0.0008861474117
0.0008861474114
0.0008861474562
0.0008861474313
0.0008861474312
0.0008861474111
0.0008861474112
0.0008861474112
0.0008861474754
0.0008861474372
0.0008861474805
0.000886147893
0.0008861474111
0.0008861684633
0.0008861474865
0.000886147489
0.000886147498
0.0008861475615
0.0008861635643
0.0008861622209
0.0008861475018
0.0008861475066
0.0008861475136
0.000886147543
0.0008861625732
0.0008861623287
0.0008861475134
0.0008861475178
0.0008861475198
0.0008861475411
0.0008861624212
0.000886162338
0.0008861475171
0.0008861475208
0.0008861475217
0.0008861475432
0.0008861622068
0.0008861620466
0.0008861475212
0.0008861475228
0.0008861475242
0.0008861475471
0.0008861618452
0.0008861618296
0.0008861475327
0.0008861475262
0.0008861475289
0.00088614755
0.0008861622766
0.0008861626793
0.0008861475487
0.0008861475477
0.000886147533
0.0008861597517
0.0008861626529
0.000886160222
0.000886162218
0.0008861711735
0.0008861643232
0.0008861616388
0.0008861636885
0.0008861648487
0.0008861631966
0.0008861638633
0.0008861633407
0.00088616569
0.0008861636178
0.0008861672713
0.0008861665996
0.0008861617962
0.0008861655827
0.0008861639364
0.000886160821
0.0008861588488
0.0008861631972
0.0008861623458
0.0008861603088
0.0008861599891
0.0008861611958
0.000886163166
0.0008861635104
0.0008861647243
0.0008861628606
0.0008861474161
0.0008861474126
0.0008861474115
0.0008861474118
0.0008861474112
0.0008861474115
0.0008861474113
0.0008861705344
0.000886147411
0.0008861713539
0.0008861662757
0.0008861718335
0.0008861698055
0.0008861661735
0.0008861696516
0.000886169505
0.000886166074
0.0008861694691
0.0008861692838
0.0008861656543
0.0008861690264
0.0008861687136
0.0008861652146
0.0008861683592
0.0008861680718
0.0008861653561
0.0008861678759
0.0008861672525
0.0008861628812
0.0008861636184
0.0008861662327
0.0008861659507
0.0008861669483
0.0008861650408
0.0008861657839
0.0008861678396
0.0008861689873
0.0008861714587
0.0008861716345
0.0008861700604
0.0008861676221
0.0008861661373
0.0008861669944
0.0008861645706
0.0008861643745
0.0008861669814
0.0008861661721
0.0008861664705
0.0008861652575
0.0008861680178
0.0008861681225
0.0008861676984
0.0008861653473
0.0008861639316
0.0008861677168
0.0008861674824
0.00088616206
0.000886164621
0.0008861646183
0.0008861632293
0.0008861648379
0.0008861655162
0.0008861661694
0.0008861666161
0.0008861670389
0.0008861665854
0.0008861672912
0.000886147413
0.0008861474123
0.0008861474115
0.0008861474122
0.0008861474117
0.0008861474113
0.0008861741802
0.0008861740525
0.0008861734681
0.0008861724979
0.0008861718223
0.000886171317
0.000886171757
0.0008861717076
0.0008861716437
0.0008861715196
0.0008861710155
0.0008861707775
0.000886170311
0.000886171186
0.0008861703242
0.0008861695255
0.0008861700029
0.0008861657319
0.0008861697106
0.0008861703046
0.0008861685187
0.0008861696924
0.0008861693896
0.0008861687793
0.000886166841
0.0008861673914
0.0008861679296
0.0008861685363
0.0008861686759
0.0008861692912
0.0008861706099
0.000886171083
0.0008861716039
0.0008861720777
0.0008861686368
0.0008861693715
0.0008861699226
0.0008861699597
0.0008861714792
0.0008861708157
0.0008861696062
0.0008861676953
0.0008861670372
0.0008861680677
0.0008861676992
0.0008861675043
0.0008861676952
0.0008861674037
0.0008861670772
0.0008861667345
0.0008861664599
0.0008861671569
0.0008861641816
0.000886164602
0.00088616611
0.0008861666211
0.0008861657773
0.0008861661506
0.0008861731326
0.0008861746837
0.0008861735117
0.0008861746274
0.0008861747696
0.0008861731166
0.0008861725377
0.0008861729618
0.0008861719321
0.0008861725704
0.0008861732478
0.0008861727987
0.0008861730422
0.0008861726632
0.0008861722258
0.0008861718357
0.0008861711637
0.0008861710582
0.0008861674508
0.0008861688591
0.0008861684761
0.000886170706
0.0008861683608
0.0008861673572
0.0008861693786
0.0008861748193
0.0008861735283
0.0008861762193
0.0008861764961
0.0008861749486
0.0008861737138
0.0008861741131
0.0008861730967
0.0008861738285
0.0008861729832
0.0008861723031
0.0008861721742
0.000886170864
0.0008861706723
0.0008861690328
0.0008861690858
0.0008861692465
0.0008861694288
0.000886170476
0.0008861705912
0.0008861701639
0.0008861700951
0.0008861704035
0.0008861708685
0.000886171224
0.0008861694433
0.00088616812
0.000886169269
0.0008861679581
0.0008861706158
0.0008861690167
0.0008861707379
0.0008861699496
0.0008861701602
0.0008861700048
0.0008861690525
0.0008861697061
0.0008861694392
0.0008861684171
0.0008861682255
0.0008861696089
0.0008861681385
0.0008861681985
0.0008861702581
0.0008861684748
0.0008861705987
0.0008861697373
0.0008861689063
0.0008861699466
0.0008861697706
0.000886168772
0.0008861688883
0.0008861685495
0.0008861681499
0.0008861679418
0.0008861681694
0.0008861676527
0.0008861673908
0.0008861661325
0.0008861670327
0.0008861662346
0.0008861647684
0.000886161443
0.0008861652251
0.0008861600309
0.0008861618196
0.0008861631833
0.0008861641292
0.0008861593707
0.0008861686795
0.000886170949
0.0008861689576
0.0008861712675
0.0008861691337
0.0008861690899
0.0008861687986
0.0008861648938
0.000886170713
0.000886168325
0.0008861678166
0.0008861674411
0.0008861702734
0.0008861681405
0.000886167554
0.0008861690952
0.000886170046
0.0008861685319
0.0008861715827
0.0008861702186
0.0008861718053
0.0008861703572
0.0008861702902
0.0008861705849
0.0008861702986
0.0008861689907
0.0008861680983
0.0008861669748
0.0008861672953
0.0008861680391
0.0008861637181
0.0008861651272
0.0008861666402
0.000886172508
0.0008861704633
0.00088617348
0.0008861711193
0.0008861702027
0.0008861722319
0.0008861713343
0.0008861725414
0.0008861712698
0.0008861704509
0.0008861696676
0.0008861679122
0.0008861670193
0.0008861684219
0.0008861671829
0.0008861675845
0.0008861691039
0.0008861676605
0.0008861680995
0.0008861701111
0.000886168876
0.0008861691994
0.0008861684445
0.0008861691396
0.0008861672339
0.0008861682427
0.0008861672387
0.0008861671243
0.0008861678176
0.0008861669025
0.0008861666266
0.0008861676806
0.000886166373
0.0008861661809
0.0008861681335
0.0008861662718
0.0008861667198
0.0008861672299
0.0008861665812
0.0008861663733
0.0008861664111
0.000886165877
0.0008861658246
0.0008861672106
0.0008861661393
0.0008861666662
0.0008861680307
0.0008861667679
0.0008861667681
0.0008861659329
0.0008861666198
0.000886164701
0.0008861660108
0.000886164942
0.0008861650337
0.0008861654285
0.0008861648521
0.0008861643247
0.0008861643777
0.000886163559
0.0008861623184
0.0008861655503
0.0008861627233
0.0008861670674
0.0008861663064
0.0008861645413
0.0008861645898
0.0008861650333
0.0008861662088
0.0008861665925
0.0008861659479
0.0008861666499
0.0008861660515
0.0008861660088
0.00088616594
0.0008861656311
0.0008861651819
0.0008861644805
0.0008861636529
0.0008861636033
0.0008861627751
0.0008861624911
0.000886164253
0.000886163124
0.0008861636011
0.0008861634273
0.0008861636017
0.0008861625985
0.0008861614311
0.0008861609289
0.0008861572107
0.000886176002
0.0008861658221
0.0008862025611
0.0008861663102
0.0008863167943
0.0008861571257
0.0008861576707
0.0008861553174
0.0008861674776
0.0008861661689
0.0008861664921
0.0008861666187
0.000886165921
0.0008861656326
0.0008861665552
0.0008861657518
0.0008861652154
0.00088616464
0.0008861659893
0.0008861629727
0.0008861639695
0.0008861633792
0.0008861624819
0.0008861631838
0.0008861637757
0.0008861653269
0.0008861640307
0.0008861646191
0.0008861654475
0.0008861641295
0.0008861660126
0.0008861661292
0.0008861613707
0.0008861658662
0.0008861679494
0.0008861682694
0.0008861733524
0.0008861644769
0.0008861661282
0.000886160433
0.0008861664052
)
;

boundaryField
{
    walls
    {
        type            zeroGradient;
    }
    wallFilmFace_top
    {
        type            zeroGradient;
    }
    region0_to_wallFilmRegion_wallFilmFace
    {
        type            zeroGradient;
    }
    mirrorFace_top
    {
        type            zeroGradient;
    }
    region0_to_wallFilmRegion_mirrorFace
    {
        type            zeroGradient;
    }
    procBoundary3to2
    {
        type            processor;
        value           nonuniform List<scalar> 
64
(
0.0008861474151
0.0008861474197
0.0008861474152
0.0008861474124
0.0008861474132
0.0008861666671
0.0008861685934
0.0008861696646
0.0008861665161
0.000886147467
0.0008861474687
0.0008861474729
0.0008861474729
0.0008861474455
0.0008861474456
0.0008861475816
0.0008861475881
0.0008861475832
0.0008861475869
0.0008861475798
0.0008861475778
0.000886147576
0.0008861466794
0.0008861466794
0.0008861471099
0.000886147327
0.000886147327
0.0008861474587
0.0008861474253
0.0008861474253
0.0008861621152
0.000886163926
0.000886163926
0.0008861648349
0.0008861646078
0.0008861474469
0.000886158063
0.0008861474516
0.0008861474348
0.0008861598671
0.0008861736432
0.0008861685788
0.0008861677262
0.0008861667387
0.000886166806
0.0008861677284
0.0008861474516
0.0008861598671
0.0008861474399
0.0008861474174
0.0008861474186
0.0008861474134
0.0008861474124
0.0008861474144
0.0008861670583
0.0008861726619
0.0008861718163
0.0008861693025
0.0008861699661
0.0008861684549
0.0008861672705
0.00088616685
0.0008861668882
0.0008861664728
)
;
    }
}


// ************************************************************************* //
