/*--------------------------------*- C++ -*----------------------------------*\
  =========                 |
  \\      /  F ield         | OpenFOAM: The Open Source CFD Toolbox
   \\    /   O peration     | Website:  https://openfoam.org
    \\  /    A nd           | Version:  8
     \\/     M anipulation  |
\*---------------------------------------------------------------------------*/
FoamFile
{
    version     2.0;
    format      ascii;
    class       volScalarField;
    location    "1.3/wallFilmRegion";
    object      rho;
}
// * * * * * * * * * * * * * * * * * * * * * * * * * * * * * * * * * * * * * //

dimensions      [1 -3 0 0 0 0 0];

internalField   nonuniform List<scalar> 
1342
(
994.5118806
994.5114699
994.5114719
994.5114772
994.5114735
994.5114717
994.511471
994.5114685
994.5114684
994.5114684
994.5114684
994.5114706
994.5114703
994.5114702
994.5114702
994.5114703
994.5114703
994.5114703
994.51183
994.5116695
994.5117064
994.5116849
994.5116598
994.51165
994.5117004
994.5114685
994.5114684
994.5114684
994.5114684
994.5117525
994.5117272
994.5117243
994.5117201
994.511713
994.5117129
994.5117087
994.5118312
994.5117488
994.5117005
994.5117506
994.5117372
994.5116981
994.5117183
994.5114684
994.5114684
994.5118226
994.5117947
994.5117928
994.5117854
994.5117747
994.5117647
994.511735
994.5117493
994.5117504
994.5117531
994.511767
994.5117765
994.5117897
994.5118074
994.5117935
994.5117174
994.511715
994.5117271
994.511758
994.5117531
994.5117652
994.5117706
994.5117718
994.5117755
994.5117764
994.5117821
994.5117919
994.5118011
994.5117409
994.5117203
994.5117513
994.5117635
994.5117743
994.5117863
994.5117913
994.5117746
994.5117697
994.5117687
994.5117743
994.5117423
994.5117643
994.511733
994.51169
994.5116241
994.5117291
994.5117269
994.5117138
994.5117028
994.511732
994.5117512
994.51175
994.5117383
994.5117047
994.5117904
994.511734
994.5118579
994.5117476
994.5116431
994.5116275
994.5114698
994.511473
994.5116667
994.5116272
994.5114747
994.5116535
994.511633
994.5114693
994.5114693
994.5114694
994.5114696
994.5114694
994.5114693
994.5114698
994.511469
994.5114681
994.5114694
994.5114678
994.5114682
994.5114693
994.5114689
994.5114694
994.5114693
994.5114696
994.5114693
994.5114691
994.5114689
994.5114689
994.5114692
994.5114691
994.5114692
994.5114688
994.5114692
994.5114692
994.5114692
994.5114692
994.5114693
994.5114689
994.5114693
994.5114688
994.511469
994.5114689
994.5114692
994.5114686
994.5114683
994.5114678
994.5114675
994.5114673
994.5114664
994.511467
994.511465
994.5114626
994.5114689
994.5114568
994.5114672
994.5114689
994.5114681
994.5114687
994.511469
994.5114683
994.5114688
994.5114692
994.511469
994.5114691
994.5114693
994.5114692
994.5114693
994.5114695
994.5114694
994.5114695
994.5114695
994.5114696
994.5114696
994.5114696
994.5114696
994.5114697
994.5114685
994.5114708
994.5114706
994.5114701
994.5114704
994.5114703
994.5114679
994.5114702
994.5114697
994.5114662
994.5114677
994.5114667
994.5114615
994.511465
994.5114267
994.5114614
994.5113618
994.5114576
994.5114677
994.5114676
994.5114672
994.5114682
994.5114631
994.5114655
994.5114688
994.5114671
994.5114677
994.511469
994.511468
994.5114684
994.5114695
994.5114688
994.5114693
994.5114666
994.5114694
994.511469
994.5114697
994.5114695
994.5114697
994.5114705
994.5114706
994.5114703
994.5114702
994.5114702
994.5114701
994.5114701
994.5114702
994.5114695
994.5114672
994.5114687
994.5114679
994.5114623
994.5114671
994.5114651
994.5114572
994.5114594
994.5114588
994.5114668
994.511467
994.5114665
994.5114542
994.5114531
994.5114003
994.5114649
994.5113847
994.5114237
994.5114671
994.5114471
994.5114575
994.5114679
994.5114622
994.5114647
994.511469
994.5114662
994.5114672
994.5114697
994.5114594
994.5114698
994.5114737
994.5114725
994.5114735
994.5114704
994.5114706
994.5114704
994.5114702
994.5114698
994.51147
994.5114609
994.5114699
994.5114391
994.5114681
994.5114682
994.511468
994.5114658
994.5114673
994.511466
994.5114588
994.5114632
994.51146
994.5114663
994.5114649
994.5114663
994.5113865
994.5114556
994.5113698
994.5113398
994.5113388
994.511339
994.5113405
994.511339
994.51134
994.5113519
994.5113448
994.5113673
994.5114369
994.5114174
994.5114616
994.5114724
994.5114695
994.5114706
994.5114715
994.5114725
994.5114718
994.5114696
994.5114576
994.5114385
994.5113536
994.5113535
994.5113598
994.5114266
994.5113567
994.5114173
994.5114677
994.5114667
994.5114673
994.5114659
994.5114668
994.5114656
994.5114608
994.5114636
994.5114612
994.511465
994.5114625
994.5114629
994.5113484
994.5114254
994.5113416
994.5113395
994.5113412
994.5113412
994.5113404
994.5113413
994.5113418
994.5113383
994.5113427
994.511342
994.5114682
994.5114665
994.5114699
994.5114709
994.5114703
994.5114708
994.5114639
994.5114667
994.511449
994.5114655
994.5114577
994.511354
994.5113556
994.5113575
994.5114112
994.5113787
994.5114088
994.5114668
994.5114649
994.5114662
994.5114652
994.5114658
994.5114646
994.5114614
994.5114622
994.5114604
994.5114598
994.51146
994.5114557
994.5113434
994.5113819
994.5113457
994.5113437
994.5113464
994.5113489
994.5113439
994.5113564
994.5113804
994.5113452
994.5114203
994.5114641
994.5114703
994.51147
994.5114704
994.5114709
994.5114706
994.5114709
994.511468
994.5114685
994.511464
994.5114683
994.5114682
994.511398
994.5114683
994.5114499
994.5114481
994.5114561
994.5114611
994.5114656
994.5114644
994.5114646
994.5114634
994.5114633
994.5114613
994.511459
994.5114586
994.5114562
994.5114496
994.5114541
994.5114602
994.5113493
994.5114685
994.5114697
994.5113472
994.51147
994.5114701
994.5113591
994.5114701
994.5114702
994.5114702
994.5114703
994.5114704
994.5116673
994.5116924
994.5116661
994.5116931
994.5116916
994.5116573
994.511686
994.5116866
994.5116688
994.5116887
994.5116968
994.5116853
994.5117044
994.5117124
994.5116939
994.5117175
994.5117248
994.5117193
994.5117359
994.5117482
994.5117404
994.5117582
994.5117672
994.5117796
994.5117793
994.5118001
994.511825
994.5118192
994.5118173
994.5117024
994.5116413
994.5116735
994.5117054
994.511703
994.5117038
994.511709
994.5117283
994.5117418
994.5117619
994.511779
994.5117001
994.5117012
994.5117199
994.5117225
994.511734
994.5117394
994.5117793
994.5117751
994.5117916
994.5118215
994.5118276
994.511829
994.5118146
994.5118199
994.5117724
994.5117332
994.5117456
994.5117473
994.5117504
994.5117553
994.5117499
994.5117574
994.5117629
994.5117707
994.5117689
994.5117712
994.5117829
994.5117745
994.5117789
994.5117977
994.5118161
994.5118218
994.511817
994.5118018
994.511816
994.5117787
994.5117276
994.5117558
994.5117771
994.5117721
994.5117823
994.5117771
994.5117751
994.5117786
994.5117736
994.5117734
994.5117867
994.5117746
994.5117971
994.5117684
994.5117351
994.5117575
994.511775
994.511758
994.5117639
994.5117327
994.5114689
994.5116093
994.5114689
994.5116068
994.5114689
994.5116098
994.5114689
994.5116222
994.5114689
994.5116274
994.5114689
994.511632
994.5114689
994.5116749
994.5114689
994.5116986
994.5117688
994.511469
994.5117812
994.5114692
994.5114694
994.5114698
994.5114696
994.5114692
994.5114693
994.5114693
994.5114692
994.5114691
994.5114692
994.5114693
994.5114696
994.5114694
994.5114695
994.5114689
994.511469
994.5114689
994.511468
994.511467
994.5114675
994.5114693
994.5114688
994.5114691
994.5114692
994.5114694
994.5114696
994.5114696
994.5114697
994.5114697
994.5114697
994.5114707
994.5114673
994.5114696
994.5114672
994.5114646
994.5114178
994.5114678
994.5114672
994.5114686
994.5114689
994.511469
994.5114696
994.5114696
994.5114698
994.5114706
994.5114703
994.5114703
994.5114679
994.5114663
994.511444
994.5114674
994.5114567
994.5114619
994.5114663
994.5114676
994.5114684
994.5114684
994.5114717
994.5114707
994.51147
994.5114692
994.5114687
994.5114673
994.5114623
994.5114661
994.5114534
994.5113396
994.5113397
994.511343
994.5113754
994.5114669
994.5114725
994.5114705
994.5114405
994.5113537
994.5114675
994.5114671
994.5114635
994.5114634
994.5114599
994.5113396
994.5113397
994.5113416
994.5114518
994.5114701
994.5114719
994.5114622
994.511354
994.5113653
994.5114657
994.5114664
994.5114634
994.5114616
994.5114035
994.5113436
994.5113439
994.5113399
994.5114696
994.5114705
994.5114716
994.5114683
994.5114674
994.5113719
994.5114291
994.5114641
994.5114649
994.5114608
994.5114576
994.5113646
994.5113486
994.5113503
994.5113824
994.5114702
994.5114707
994.5114688
994.5114688
994.511469
994.5114691
994.5114694
994.5114696
994.5114698
994.5114699
994.5114699
994.51147
994.5114701
994.5114707
994.5114704
994.5116684
994.5116666
994.5116637
994.5116602
994.5116744
994.5116886
994.5117044
994.5117313
994.511752
994.5118208
994.5118162
994.5117791
994.51173
994.5116762
994.5116602
994.5116591
994.5116868
994.5117084
994.5117039
994.5117056
994.5117119
994.5117098
994.5117175
994.5117182
994.511734
994.5117518
994.5117547
994.5117704
994.51177
994.5117908
994.5116815
994.5116838
994.5116975
994.5117516
994.5118034
994.5117544
994.5117568
994.5117551
994.5117463
994.5117253
994.5118551
994.5118346
994.5118517
994.5118547
994.5118359
994.5118317
994.5118303
994.5118197
994.511823
994.5118096
994.5118059
994.5117965
994.5117874
994.511796
994.511746
994.5117201
994.5117023
994.5116961
994.511825
994.5117941
994.5117732
994.5117879
994.5118141
994.5117964
994.5117737
994.5117603
994.511747
994.5117596
994.5117707
994.511784
994.5117783
994.5117613
994.5117543
994.5117491
994.5117446
994.5117467
994.5117299
994.5117305
994.5117459
994.5117478
994.5117221
994.5117189
994.5117074
994.5117
994.511718
994.5117199
994.5117231
994.5117206
994.5117077
994.5116946
994.5116958
994.5116735
994.5116921
994.5117857
994.5117405
994.5117243
994.5117051
994.5116515
994.5116848
994.5116998
994.5116868
994.5116665
994.5116353
994.5114689
994.5116113
994.511469
994.5116367
994.5114689
994.5116078
994.511469
994.5114691
994.5116354
994.5116342
994.5114689
994.5116072
994.5114692
994.5114692
994.5116327
994.5116314
994.5114689
994.5116149
994.5114693
994.5114693
994.5116283
994.5116343
994.5114689
994.5116282
994.5114693
994.5114693
994.5116476
994.5116537
994.5114689
994.5116259
994.5114693
994.5114693
994.5116545
994.5116564
994.5114689
994.5116552
994.5114693
994.5114693
994.5116651
994.5116833
994.5114689
994.5116867
994.5114693
994.5114693
994.5116982
994.5117082
994.511469
994.5117265
994.5114693
994.5114693
994.5117201
994.5117494
994.5114691
994.5114692
994.5118044
994.5114693
994.5114694
994.5114694
994.5114694
994.5114695
994.5114695
994.5117042
994.5114698
994.511635
994.5116141
994.5114699
994.5114699
994.5114704
994.511473
994.5116415
994.5116447
994.5114718
994.5114717
994.5114728
994.5114724
994.5114718
994.5116323
994.511625
994.5115929
994.511472
994.5114715
994.5116129
994.5114706
994.5114705
994.5114708
994.5114706
994.511471
994.5114709
994.5114707
994.5116129
994.511648
994.5116745
994.5114687
994.5114688
994.5114685
994.5114685
994.5114688
994.5114688
994.5114688
994.5114684
994.5114685
994.5114684
994.5114689
994.5114688
994.5114687
994.5114684
994.5114684
994.5114684
994.511469
994.5114687
994.5114687
994.5114684
994.5114684
994.5114684
994.5114693
994.5114688
994.5114694
994.511475
994.5114684
994.5117551
994.5114695
994.5114695
994.5114696
994.5114705
994.5116884
994.5116701
994.5114697
994.5114697
994.5114698
994.5114702
994.5116749
994.5116716
994.5114698
994.5114699
994.5114699
994.5114702
994.5116729
994.5116717
994.5114699
994.5114699
994.5114699
994.5114702
994.5116699
994.5116677
994.5114699
994.51147
994.51147
994.5114703
994.511665
994.5116648
994.5114701
994.51147
994.51147
994.5114703
994.5116709
994.5116764
994.5114703
994.5114703
994.5114701
994.5116365
994.511676
994.5116429
994.5116701
994.511792
994.5116988
994.5116622
994.5116901
994.5117059
994.5116834
994.5116925
994.5116854
994.5117174
994.5116891
994.5117389
994.5117298
994.5116643
994.5117159
994.5116935
994.5116511
994.5116242
994.5116834
994.5116718
994.5116441
994.5116397
994.5116562
994.511683
994.5116877
994.5117042
994.5116788
994.5114685
994.5114685
994.5114684
994.5114684
994.5114684
994.5114684
994.5114684
994.5117833
994.5114684
994.5117945
994.5117253
994.511801
994.5117734
994.511724
994.5117713
994.5117693
994.5117226
994.5117688
994.5117663
994.5117169
994.5117628
994.5117585
994.5117109
994.5117537
994.5117498
994.5117128
994.5117471
994.5117386
994.5116791
994.5116892
994.5117248
994.5117209
994.5117345
994.5117085
994.5117186
994.5117466
994.5117623
994.5117959
994.5117983
994.5117769
994.5117437
994.5117235
994.5117351
994.5117021
994.5116995
994.511735
994.5117239
994.511728
994.5117115
994.5117491
994.5117505
994.5117447
994.5117127
994.5116934
994.511745
994.5117418
994.5116679
994.5117028
994.5117028
994.5116839
994.5117058
994.511715
994.5117239
994.51173
994.5117357
994.5117296
994.5117392
994.5114685
994.5114684
994.5114684
994.5114684
994.5114684
994.5114684
994.511833
994.5118313
994.5118233
994.5118101
994.5118009
994.511794
994.5118
994.5117993
994.5117984
994.5117968
994.5117899
994.5117867
994.5117803
994.5117922
994.5117805
994.5117696
994.5117761
994.5117179
994.5117721
994.5117802
994.5117559
994.5117719
994.5117677
994.5117594
994.511733
994.5117405
994.5117479
994.5117561
994.511758
994.5117664
994.5117844
994.5117908
994.5117979
994.5118044
994.5117575
994.5117675
994.511775
994.5117755
994.5117962
994.5117872
994.5117707
994.5117447
994.5117357
994.5117497
994.5117447
994.5117421
994.5117447
994.5117407
994.5117363
994.5117316
994.5117279
994.5117373
994.5116968
994.5117026
994.5117231
994.51173
994.5117186
994.5117236
994.5118187
994.5118398
994.5118239
994.5118391
994.511841
994.5118185
994.5118106
994.5118164
994.5118024
994.5118111
994.5118203
994.5118142
994.5118175
994.5118123
994.5118064
994.5118011
994.5117919
994.5117905
994.5117413
994.5117605
994.5117553
994.5117857
994.5117537
994.5117401
994.5117676
994.5118417
994.5118241
994.5118608
994.5118645
994.5118435
994.5118266
994.5118321
994.5118182
994.5118282
994.5118167
994.5118074
994.5118057
994.5117878
994.5117852
994.5117629
994.5117636
994.5117658
994.5117683
994.5117825
994.5117841
994.5117783
994.5117774
994.5117816
994.5117879
994.5117927
994.5117685
994.5117505
994.5117661
994.5117483
994.5117844
994.5117627
994.5117861
994.5117754
994.5117782
994.5117761
994.5117632
994.5117721
994.5117684
994.5117545
994.5117519
994.5117707
994.5117507
994.5117515
994.5117796
994.5117553
994.5117842
994.5117725
994.5117612
994.5117753
994.5117729
994.5117593
994.5117609
994.5117563
994.5117509
994.511748
994.5117511
994.5117441
994.5117405
994.5117234
994.5117357
994.5117248
994.5117048
994.5116595
994.511711
994.5116403
994.5116647
994.5116832
994.5116961
994.5116313
994.5117581
994.511789
994.5117619
994.5117933
994.5117643
994.5117637
994.5117597
994.5117065
994.5117858
994.5117533
994.5117463
994.5117412
994.5117798
994.5117507
994.5117428
994.5117637
994.5117767
994.5117561
994.5117976
994.511779
994.5118006
994.5117809
994.51178
994.511784
994.5117801
994.5117623
994.5117502
994.5117349
994.5117392
994.5117494
994.5116905
994.5117097
994.5117303
994.5118102
994.5117824
994.5118235
994.5117913
994.5117788
994.5118065
994.5117942
994.5118107
994.5117934
994.5117822
994.5117715
994.5117476
994.5117355
994.5117546
994.5117377
994.5117432
994.5117639
994.5117442
994.5117502
994.5117776
994.5117608
994.5117652
994.5117549
994.5117643
994.5117384
994.5117521
994.5117385
994.5117369
994.5117463
994.5117339
994.5117301
994.5117445
994.5117267
994.5117241
994.5117506
994.5117253
994.5117314
994.5117383
994.5117295
994.5117267
994.5117272
994.5117199
994.5117192
994.5117381
994.5117235
994.5117307
994.5117492
994.511732
994.511732
994.5117207
994.51173
994.5117039
994.5117217
994.5117072
994.5117084
994.5117138
994.511706
994.5116988
994.5116995
994.5116883
994.5116715
994.5117155
994.511677
994.5117361
994.5117258
994.5117017
994.5117024
994.5117084
994.5117244
994.5117297
994.5117209
994.5117304
994.5117223
994.5117217
994.5117208
994.5117166
994.5117104
994.5117009
994.5116896
994.5116889
994.5116777
994.5116738
994.5116978
994.5116824
994.5116889
994.5116866
994.5116889
994.5116753
994.5116594
994.5116525
994.5116019
994.5118578
994.5117192
994.5122195
994.5117258
994.5137749
994.5116007
994.5116082
994.5115761
994.5117417
994.5117239
994.5117283
994.51173
994.5117205
994.5117166
994.5117291
994.5117182
994.5117109
994.5117031
994.5117214
994.5116804
994.5116939
994.5116859
994.5116737
994.5116832
994.5116913
994.5117124
994.5116948
994.5117028
994.5117141
994.5116961
994.5117218
994.5117233
994.5116585
994.5117198
994.5117481
994.5117525
994.5118217
994.5117008
994.5117233
994.5116458
994.5117271
)
;

boundaryField
{
    walls
    {
        type            zeroGradient;
    }
    wallFilmFace_top
    {
        type            zeroGradient;
    }
    region0_to_wallFilmRegion_wallFilmFace
    {
        type            zeroGradient;
    }
    mirrorFace_top
    {
        type            zeroGradient;
    }
    region0_to_wallFilmRegion_mirrorFace
    {
        type            zeroGradient;
    }
    procBoundary3to2
    {
        type            processor;
        value           nonuniform List<scalar> 
64
(
994.5114685
994.5114685
994.5114685
994.5114684
994.5114685
994.5117307
994.5117569
994.5117715
994.5117286
994.5114692
994.5114692
994.5114693
994.5114693
994.5114689
994.5114689
994.5114708
994.5114708
994.5114708
994.5114708
994.5114707
994.5114707
994.5114707
994.5114585
994.5114585
994.5114643
994.5114673
994.5114673
994.5114691
994.5114686
994.5114686
994.5116687
994.5116933
994.5116933
994.5117057
994.5117026
994.5114689
994.5116135
994.511469
994.5114688
994.5116381
994.5118257
994.5117567
994.5117451
994.5117316
994.5117326
994.5117451
994.511469
994.5116381
994.5114688
994.5114685
994.5114685
994.5114685
994.5114684
994.5114685
994.511736
994.5118123
994.5118008
994.5117666
994.5117756
994.511755
994.5117389
994.5117332
994.5117337
994.511728
)
;
    }
}


// ************************************************************************* //
