/*--------------------------------*- C++ -*----------------------------------*\
  =========                 |
  \\      /  F ield         | OpenFOAM: The Open Source CFD Toolbox
   \\    /   O peration     | Website:  https://openfoam.org
    \\  /    A nd           | Version:  8
     \\/     M anipulation  |
\*---------------------------------------------------------------------------*/
FoamFile
{
    version     2.0;
    format      ascii;
    class       volScalarField;
    location    "1.3/wallFilmRegion";
    object      sigma;
}
// * * * * * * * * * * * * * * * * * * * * * * * * * * * * * * * * * * * * * //

dimensions      [1 0 -2 0 0 0 0];

internalField   nonuniform List<scalar> 
1342
(
0.0724474491
0.07244713592
0.07244713747
0.07244714155
0.07244713869
0.07244713734
0.07244713675
0.07244713485
0.07244713484
0.07244713483
0.07244713483
0.07244713652
0.07244713629
0.07244713618
0.07244713619
0.07244713622
0.07244713626
0.07244713627
0.07244741053
0.07244728813
0.07244731629
0.07244729985
0.07244728074
0.07244727324
0.07244731171
0.07244713486
0.07244713484
0.07244713483
0.07244713483
0.07244735142
0.07244733214
0.07244732991
0.07244732674
0.07244732131
0.0724473212
0.07244731799
0.0724474114
0.07244734856
0.07244731175
0.07244734999
0.07244733973
0.07244730995
0.07244732534
0.07244713484
0.07244713483
0.07244740486
0.07244738355
0.07244738213
0.07244737652
0.07244736832
0.07244736069
0.07244733804
0.07244734896
0.07244734982
0.07244735191
0.07244736249
0.07244736974
0.0724473798
0.07244739324
0.07244738264
0.07244732462
0.07244732281
0.07244733206
0.07244735562
0.07244735189
0.07244736111
0.07244736519
0.07244736609
0.07244736894
0.07244736965
0.07244737401
0.07244738144
0.07244738845
0.07244734259
0.07244732689
0.07244735051
0.07244735977
0.07244736802
0.07244737719
0.07244738096
0.07244736827
0.07244736453
0.07244736376
0.07244736805
0.07244734363
0.07244736044
0.07244733653
0.07244730376
0.07244725353
0.07244733357
0.07244733187
0.07244732194
0.07244731355
0.07244733577
0.07244735045
0.07244734947
0.07244734061
0.07244731496
0.07244738032
0.07244733729
0.0724474318
0.0724473477
0.07244726799
0.07244725609
0.07244713588
0.0724471383
0.07244728598
0.07244725591
0.07244713957
0.07244727595
0.07244726028
0.07244713547
0.07244713551
0.07244713554
0.07244713573
0.07244713557
0.07244713552
0.07244713586
0.07244713524
0.07244713455
0.07244713558
0.07244713433
0.07244713466
0.07244713547
0.07244713516
0.07244713559
0.07244713551
0.07244713573
0.07244713552
0.07244713534
0.07244713522
0.0724471352
0.07244713541
0.07244713535
0.07244713539
0.07244713509
0.07244713541
0.07244713541
0.07244713544
0.07244713542
0.07244713547
0.0724471352
0.07244713551
0.07244713511
0.07244713524
0.07244713521
0.07244713542
0.07244713495
0.07244713476
0.07244713434
0.07244713411
0.07244713395
0.07244713332
0.07244713373
0.07244713225
0.0724471304
0.07244713521
0.07244712596
0.07244713389
0.07244713518
0.07244713462
0.07244713507
0.07244713524
0.07244713472
0.07244713512
0.07244713541
0.07244713527
0.07244713535
0.0724471355
0.07244713542
0.07244713548
0.07244713565
0.07244713554
0.07244713568
0.07244713568
0.07244713574
0.07244713574
0.07244713573
0.07244713575
0.07244713579
0.07244713492
0.0724471366
0.0724471365
0.07244713612
0.07244713631
0.07244713622
0.07244713443
0.07244713621
0.07244713581
0.07244713311
0.07244713428
0.07244713354
0.07244712955
0.07244713224
0.07244710298
0.07244712947
0.0724470535
0.07244712656
0.0724471343
0.07244713416
0.07244713392
0.07244713469
0.07244713076
0.07244713263
0.07244713512
0.07244713384
0.07244713428
0.07244713528
0.07244713453
0.07244713477
0.07244713563
0.0724471351
0.07244713551
0.07244713344
0.07244713561
0.07244713528
0.07244713581
0.07244713566
0.07244713581
0.07244713641
0.07244713651
0.07244713629
0.07244713621
0.07244713615
0.07244713613
0.0724471361
0.07244713619
0.07244713563
0.07244713387
0.07244713504
0.07244713445
0.07244713017
0.07244713381
0.07244713228
0.0724471263
0.07244712797
0.07244712749
0.07244713362
0.07244713375
0.07244713336
0.07244712401
0.07244712315
0.07244708286
0.0724471321
0.07244707097
0.07244710073
0.0724471338
0.07244711858
0.07244712652
0.07244713446
0.07244713006
0.07244713199
0.07244713525
0.07244713316
0.07244713391
0.07244713583
0.07244712794
0.07244713591
0.07244713886
0.07244713795
0.07244713873
0.07244713635
0.07244713651
0.07244713632
0.07244713616
0.07244713586
0.07244713604
0.07244712911
0.07244713598
0.0724471125
0.07244713454
0.07244713469
0.07244713447
0.07244713282
0.07244713398
0.07244713295
0.07244712749
0.07244713084
0.07244712842
0.07244713319
0.07244713212
0.07244713323
0.07244707235
0.07244712503
0.07244705963
0.07244703679
0.07244703598
0.07244703612
0.07244703727
0.07244703616
0.07244703691
0.07244704596
0.07244704054
0.07244705774
0.07244711079
0.07244709592
0.07244712966
0.07244713785
0.07244713562
0.07244713651
0.07244713718
0.07244713793
0.0724471374
0.07244713568
0.07244712658
0.07244711198
0.07244704729
0.07244704719
0.07244705203
0.07244710295
0.07244704966
0.07244709582
0.07244713429
0.0724471335
0.072447134
0.07244713288
0.07244713361
0.07244713268
0.07244712898
0.07244713111
0.07244712934
0.07244713222
0.07244713029
0.0724471306
0.07244704335
0.07244710201
0.07244703815
0.07244703653
0.07244703781
0.0724470378
0.07244703722
0.07244703793
0.07244703828
0.07244703563
0.07244703894
0.07244703846
0.07244713466
0.07244713333
0.07244713595
0.07244713675
0.07244713627
0.07244713665
0.0724471314
0.07244713351
0.07244712005
0.0724471326
0.07244712665
0.07244704756
0.0724470488
0.07244705028
0.07244709116
0.07244706641
0.07244708933
0.0724471336
0.07244713215
0.07244713312
0.07244713237
0.0724471328
0.07244713194
0.07244712948
0.07244713004
0.07244712872
0.07244712826
0.07244712843
0.07244712512
0.07244703951
0.07244706884
0.07244704129
0.07244703976
0.0724470418
0.07244704366
0.07244703987
0.07244704942
0.07244706771
0.07244704086
0.07244709811
0.0724471315
0.07244713625
0.07244713606
0.07244713636
0.07244713674
0.07244713651
0.07244713671
0.07244713452
0.0724471349
0.07244713148
0.07244713475
0.07244713467
0.0724470811
0.0724471347
0.0724471207
0.07244711934
0.07244712542
0.07244712926
0.07244713265
0.07244713177
0.07244713192
0.07244713099
0.07244713096
0.07244712942
0.07244712765
0.0724471273
0.07244712549
0.07244712047
0.07244712393
0.07244712859
0.07244704399
0.07244713485
0.07244713582
0.07244704241
0.07244713602
0.07244713608
0.07244705144
0.07244713612
0.07244713616
0.07244713618
0.07244713624
0.07244713633
0.07244728643
0.0724473056
0.07244728557
0.07244730616
0.072447305
0.07244727887
0.07244730075
0.07244730114
0.07244728762
0.07244730278
0.07244730893
0.07244730018
0.07244731474
0.07244732086
0.07244730675
0.07244732472
0.07244733033
0.07244732608
0.07244733872
0.0724473481
0.07244734219
0.07244735577
0.07244736264
0.07244737205
0.07244737187
0.07244738769
0.0724474067
0.07244740227
0.0724474008
0.07244731325
0.07244726662
0.07244729117
0.07244731549
0.0724473137
0.07244731431
0.07244731822
0.07244733295
0.07244734327
0.07244735857
0.0724473716
0.07244731146
0.07244731229
0.07244732657
0.07244732855
0.07244733732
0.0724473414
0.07244737183
0.07244736868
0.07244738126
0.07244740401
0.07244740867
0.07244740977
0.07244739877
0.07244740278
0.0724473666
0.0724473367
0.07244734613
0.07244734744
0.07244734979
0.07244735356
0.07244734944
0.07244735512
0.07244735934
0.07244736528
0.07244736392
0.07244736566
0.07244737456
0.07244736823
0.07244737157
0.07244738586
0.07244739988
0.07244740423
0.07244740059
0.072447389
0.07244739985
0.07244737142
0.07244733242
0.07244735392
0.0724473702
0.07244736634
0.07244737416
0.07244737015
0.07244736867
0.07244737134
0.07244736751
0.07244736734
0.07244737751
0.07244736827
0.0724473854
0.07244736354
0.07244733815
0.07244735522
0.07244736859
0.07244735559
0.07244736014
0.07244733631
0.07244713519
0.07244724227
0.07244713518
0.0724472403
0.07244713517
0.07244724263
0.07244713517
0.0724472521
0.07244713517
0.072447256
0.07244713517
0.07244725956
0.07244713519
0.07244729225
0.07244713522
0.07244731031
0.07244736381
0.07244713526
0.07244737329
0.07244713544
0.07244713557
0.07244713586
0.07244713573
0.07244713544
0.07244713549
0.07244713552
0.07244713541
0.07244713534
0.0724471354
0.0724471355
0.07244713571
0.0724471356
0.07244713564
0.07244713518
0.07244713523
0.07244713517
0.07244713454
0.07244713377
0.0724471341
0.07244713547
0.07244713512
0.07244713535
0.07244713545
0.07244713554
0.07244713569
0.0724471357
0.07244713578
0.07244713582
0.07244713576
0.0724471366
0.07244713394
0.07244713576
0.07244713389
0.07244713194
0.07244709622
0.07244713433
0.07244713389
0.07244713497
0.07244713522
0.07244713527
0.07244713572
0.0724471357
0.07244713591
0.07244713648
0.07244713629
0.07244713625
0.07244713443
0.07244713322
0.07244711624
0.07244713402
0.07244712586
0.07244712984
0.07244713318
0.07244713418
0.07244713483
0.07244713478
0.07244713735
0.07244713653
0.07244713606
0.07244713545
0.072447135
0.07244713399
0.07244713013
0.07244713308
0.07244712338
0.07244703662
0.07244703671
0.07244703918
0.07244706393
0.07244713367
0.07244713794
0.07244713645
0.07244711351
0.07244704733
0.07244713416
0.07244713385
0.07244713109
0.07244713097
0.07244712832
0.07244703662
0.07244703665
0.07244703815
0.07244712217
0.07244713607
0.07244713745
0.07244713012
0.0724470476
0.07244705618
0.07244713279
0.07244713325
0.07244713101
0.07244712966
0.07244708534
0.07244703966
0.07244703991
0.07244703687
0.07244713571
0.07244713638
0.07244713726
0.07244713477
0.07244713405
0.07244706127
0.07244710488
0.07244713154
0.07244713213
0.07244712903
0.07244712654
0.07244705569
0.07244704349
0.07244704475
0.07244706922
0.07244713621
0.07244713653
0.07244713508
0.07244713515
0.07244713525
0.07244713538
0.07244713554
0.07244713569
0.07244713585
0.07244713592
0.07244713595
0.07244713605
0.07244713614
0.07244713658
0.07244713637
0.0724472873
0.07244728594
0.07244728368
0.07244728107
0.07244729185
0.07244730267
0.07244731475
0.07244733527
0.07244735104
0.07244740348
0.07244739997
0.07244737173
0.07244733427
0.07244729326
0.07244728103
0.0724472802
0.07244730134
0.0724473178
0.07244731434
0.07244731564
0.07244732045
0.07244731885
0.07244732476
0.07244732526
0.07244733733
0.07244735092
0.07244735309
0.07244736504
0.07244736478
0.07244738065
0.07244729731
0.072447299
0.07244730951
0.0724473507
0.07244739021
0.07244735286
0.07244735466
0.07244735336
0.07244734666
0.07244733068
0.07244742965
0.07244741404
0.07244742709
0.07244742932
0.072447415
0.0724474118
0.07244741071
0.07244740262
0.07244740519
0.07244739495
0.07244739211
0.07244738494
0.072447378
0.07244738461
0.07244734646
0.07244732669
0.07244731317
0.07244730845
0.07244740667
0.07244738312
0.07244736718
0.07244737837
0.07244739838
0.07244738491
0.07244736761
0.07244735739
0.07244734721
0.0724473568
0.07244736533
0.0724473754
0.07244737109
0.07244735814
0.07244735277
0.07244734885
0.07244734541
0.07244734696
0.07244733416
0.07244733467
0.07244734636
0.07244734783
0.07244732825
0.07244732583
0.07244731703
0.07244731142
0.07244732513
0.07244732656
0.07244732899
0.07244732709
0.07244731723
0.07244730724
0.07244730822
0.07244729115
0.0724473054
0.07244737675
0.07244734229
0.07244732993
0.07244731525
0.07244727444
0.07244729978
0.07244731125
0.07244730136
0.07244728582
0.07244726204
0.07244713521
0.07244724375
0.07244713524
0.07244726309
0.07244713519
0.07244724112
0.07244713529
0.07244713533
0.0724472621
0.07244726121
0.07244713517
0.0724472406
0.07244713539
0.07244713545
0.0724472601
0.07244725912
0.07244713517
0.07244724654
0.07244713548
0.07244713549
0.07244725671
0.07244726128
0.07244713516
0.07244725662
0.0724471355
0.0724471355
0.07244727143
0.0724472761
0.07244713517
0.07244725486
0.0724471355
0.0724471355
0.07244727669
0.07244727817
0.07244713518
0.07244727727
0.0724471355
0.07244713549
0.07244728474
0.07244729862
0.0724471352
0.07244730124
0.0724471355
0.0724471355
0.07244730999
0.07244731764
0.07244713524
0.07244733156
0.07244713551
0.0724471355
0.07244732672
0.07244734907
0.07244713538
0.07244713542
0.07244739099
0.07244713546
0.07244713556
0.07244713554
0.07244713559
0.07244713564
0.07244713568
0.07244731459
0.07244713588
0.0724472618
0.07244724593
0.07244713593
0.07244713596
0.07244713635
0.07244713828
0.07244726682
0.07244726926
0.07244713741
0.07244713735
0.07244713818
0.07244713782
0.07244713738
0.07244725976
0.07244725419
0.07244722976
0.07244713753
0.07244713715
0.072447245
0.0724471365
0.07244713642
0.07244713665
0.07244713649
0.07244713679
0.07244713669
0.07244713653
0.072447245
0.07244727174
0.07244729195
0.07244713507
0.07244713513
0.07244713486
0.07244713487
0.07244713511
0.07244713512
0.0724471351
0.07244713484
0.07244713485
0.07244713484
0.0724471352
0.07244713508
0.07244713506
0.07244713483
0.07244713484
0.07244713483
0.0724471353
0.07244713504
0.07244713504
0.07244713483
0.07244713483
0.07244713483
0.0724471355
0.0724471351
0.07244713555
0.07244713984
0.07244713483
0.07244735342
0.07244713561
0.07244713564
0.07244713573
0.07244713639
0.07244730256
0.07244728861
0.07244713577
0.07244713582
0.0724471359
0.0724471362
0.07244729227
0.07244728973
0.07244713589
0.07244713594
0.07244713596
0.07244713618
0.07244729069
0.07244728982
0.07244713593
0.07244713597
0.07244713598
0.0724471362
0.07244728846
0.0724472868
0.07244713597
0.07244713599
0.07244713601
0.07244713624
0.07244728471
0.07244728454
0.07244713609
0.07244713603
0.07244713606
0.07244713627
0.07244728919
0.07244729337
0.07244713626
0.07244713625
0.0724471361
0.07244726297
0.07244729309
0.07244726785
0.07244728858
0.07244738156
0.07244731044
0.07244728256
0.07244730385
0.07244731589
0.07244729874
0.07244730566
0.07244730024
0.07244732463
0.07244730311
0.07244734105
0.07244733407
0.0724472842
0.07244732351
0.07244730642
0.07244727407
0.07244725359
0.07244729875
0.0724472899
0.07244726875
0.07244726543
0.07244727796
0.07244729842
0.072447302
0.0724473146
0.07244729525
0.07244713488
0.07244713485
0.07244713484
0.07244713484
0.07244713483
0.07244713484
0.07244713483
0.07244737493
0.07244713483
0.07244738344
0.07244733071
0.07244738842
0.07244736736
0.07244732965
0.07244736576
0.07244736424
0.07244732862
0.07244736387
0.07244736194
0.07244732426
0.07244735927
0.07244735602
0.07244731969
0.07244735234
0.07244734936
0.07244732116
0.07244734733
0.07244734085
0.07244729546
0.07244730312
0.07244733026
0.07244732734
0.07244733769
0.07244731789
0.0724473256
0.07244734695
0.07244735887
0.07244738453
0.07244738635
0.07244737001
0.07244734469
0.07244732927
0.07244733817
0.07244731301
0.07244731097
0.07244733804
0.07244732963
0.07244733273
0.07244732014
0.0724473488
0.07244734989
0.07244734548
0.07244732107
0.07244730637
0.07244734567
0.07244734324
0.07244728694
0.07244731353
0.0724473135
0.07244729908
0.07244731578
0.07244732282
0.07244732961
0.07244733424
0.07244733863
0.07244733393
0.07244734125
0.07244713485
0.07244713484
0.07244713484
0.07244713484
0.07244713484
0.07244713483
0.07244741278
0.07244741146
0.07244740539
0.07244739532
0.0724473883
0.07244738306
0.07244738762
0.07244738711
0.07244738645
0.07244738516
0.07244737992
0.07244737745
0.07244737261
0.07244738169
0.07244737275
0.07244736445
0.07244736941
0.07244732506
0.07244736638
0.07244737254
0.072447354
0.07244736619
0.07244736304
0.07244735671
0.07244733658
0.07244734229
0.07244734788
0.07244735418
0.07244735563
0.07244736202
0.07244737571
0.07244738063
0.07244738603
0.07244739095
0.07244735523
0.07244736285
0.07244736858
0.07244736896
0.07244738474
0.07244737785
0.07244736529
0.07244734545
0.07244733862
0.07244734932
0.07244734549
0.07244734347
0.07244734545
0.07244734242
0.07244733903
0.07244733547
0.07244733262
0.07244733986
0.07244730897
0.07244731333
0.07244732899
0.0724473343
0.07244732553
0.07244732941
0.07244740191
0.07244741801
0.07244740584
0.07244741743
0.0724474189
0.07244740174
0.07244739573
0.07244740013
0.07244738944
0.07244739607
0.0724474031
0.07244739844
0.07244740097
0.07244739703
0.07244739249
0.07244738844
0.07244738146
0.07244738037
0.07244734291
0.07244735753
0.07244735356
0.07244737671
0.07244735236
0.07244734194
0.07244736293
0.07244741942
0.07244740601
0.07244743396
0.07244743683
0.07244742076
0.07244740794
0.07244741209
0.07244740153
0.07244740913
0.07244740035
0.07244739329
0.07244739196
0.07244737835
0.07244737636
0.07244735934
0.07244735989
0.07244736156
0.07244736345
0.07244737432
0.07244737552
0.07244737108
0.07244737037
0.07244737357
0.0724473784
0.07244738209
0.0724473636
0.07244734986
0.07244736179
0.07244734818
0.07244737577
0.07244735917
0.07244737704
0.07244736886
0.07244737104
0.07244736943
0.07244735954
0.07244736633
0.07244736356
0.07244735294
0.07244735096
0.07244736532
0.07244735005
0.07244735067
0.07244737206
0.07244735354
0.0724473756
0.07244736665
0.07244735802
0.07244736883
0.072447367
0.07244735663
0.07244735784
0.07244735432
0.07244735017
0.07244734801
0.07244735037
0.07244734501
0.07244734229
0.07244732922
0.07244733857
0.07244733028
0.07244731506
0.07244728053
0.0724473198
0.07244726587
0.07244728444
0.0724472986
0.07244730842
0.07244725901
0.07244735567
0.07244737923
0.07244735856
0.07244738254
0.07244736039
0.07244735993
0.07244735691
0.07244731636
0.07244737678
0.07244735199
0.07244734671
0.07244734281
0.07244737222
0.07244735007
0.07244734398
0.07244735998
0.07244736986
0.07244735414
0.07244738581
0.07244737165
0.07244738812
0.07244737309
0.07244737239
0.07244737545
0.07244737248
0.0724473589
0.07244734963
0.07244733797
0.0724473413
0.07244734902
0.07244730415
0.07244731878
0.07244733449
0.07244739542
0.07244737419
0.07244740551
0.072447381
0.07244737148
0.07244739255
0.07244738323
0.07244739577
0.07244738257
0.07244737406
0.07244736593
0.0724473477
0.07244733843
0.07244735299
0.07244734013
0.0724473443
0.07244736008
0.07244734509
0.07244734965
0.07244737053
0.07244735771
0.07244736107
0.07244735323
0.07244736045
0.07244734066
0.07244735113
0.07244734071
0.07244733952
0.07244734672
0.07244733722
0.07244733435
0.0724473453
0.07244733172
0.07244732973
0.07244735
0.07244733067
0.07244733532
0.07244734062
0.07244733388
0.07244733172
0.07244733212
0.07244732657
0.07244732603
0.07244734042
0.07244732929
0.07244733476
0.07244734893
0.07244733582
0.07244733582
0.07244732715
0.07244733428
0.07244731436
0.07244732796
0.07244731686
0.07244731781
0.07244732191
0.07244731593
0.07244731045
0.072447311
0.0724473025
0.07244728962
0.07244732318
0.07244729382
0.07244733893
0.07244733103
0.0724473127
0.0724473132
0.07244731781
0.07244733002
0.072447334
0.07244732731
0.0724473346
0.07244732838
0.07244732794
0.07244732722
0.07244732402
0.07244731935
0.07244731207
0.07244730348
0.07244730296
0.07244729436
0.07244729141
0.07244730971
0.07244729798
0.07244730294
0.07244730113
0.07244730295
0.07244729253
0.07244728041
0.07244727519
0.07244723659
0.0724474317
0.072447326
0.07244770746
0.07244733107
0.0724488934
0.0724472357
0.07244724136
0.07244721693
0.07244734319
0.0724473296
0.07244733296
0.07244733427
0.07244732703
0.07244732403
0.07244733361
0.07244732527
0.0724473197
0.07244731373
0.07244732774
0.07244729641
0.07244730676
0.07244730064
0.07244729132
0.07244729861
0.07244730475
0.07244732086
0.0724473074
0.07244731351
0.07244732211
0.07244730843
0.07244732798
0.07244732919
0.07244727978
0.07244732646
0.07244734809
0.07244735141
0.07244740419
0.07244731203
0.07244732918
0.07244727004
0.07244733205
)
;

boundaryField
{
    walls
    {
        type            zeroGradient;
    }
    wallFilmFace_top
    {
        type            zeroGradient;
    }
    region0_to_wallFilmRegion_wallFilmFace
    {
        type            zeroGradient;
    }
    mirrorFace_top
    {
        type            zeroGradient;
    }
    region0_to_wallFilmRegion_mirrorFace
    {
        type            zeroGradient;
    }
    procBoundary3to2
    {
        type            processor;
        value           nonuniform List<scalar> 
64
(
0.07244713487
0.07244713492
0.07244713487
0.07244713484
0.07244713485
0.07244733477
0.07244735477
0.0724473659
0.07244733321
0.07244713541
0.07244713543
0.07244713547
0.07244713547
0.07244713519
0.07244713519
0.0724471366
0.07244713667
0.07244713662
0.07244713666
0.07244713658
0.07244713656
0.07244713654
0.07244712723
0.07244712723
0.0724471317
0.07244713396
0.07244713396
0.07244713533
0.07244713498
0.07244713498
0.07244728751
0.07244730631
0.07244730631
0.07244731575
0.07244731339
0.0724471352
0.07244724543
0.07244713525
0.07244713508
0.07244726417
0.07244740721
0.07244735462
0.07244734577
0.07244733552
0.07244733622
0.07244734579
0.07244713525
0.07244726417
0.07244713513
0.0724471349
0.07244713491
0.07244713485
0.07244713484
0.07244713487
0.07244733884
0.07244739702
0.07244738824
0.07244736214
0.07244736903
0.07244735334
0.07244734104
0.07244733667
0.07244733707
0.07244733276
)
;
    }
}


// ************************************************************************* //
