/*--------------------------------*- C++ -*----------------------------------*\
  =========                 |
  \\      /  F ield         | OpenFOAM: The Open Source CFD Toolbox
   \\    /   O peration     | Website:  https://openfoam.org
    \\  /    A nd           | Version:  8
     \\/     M anipulation  |
\*---------------------------------------------------------------------------*/
FoamFile
{
    version     2.0;
    format      ascii;
    class       volVectorField;
    location    "0.7/wallFilmRegion";
    object      contactForce:contactAngle;
}
// * * * * * * * * * * * * * * * * * * * * * * * * * * * * * * * * * * * * * //

dimensions      [1 -2 -2 0 0 0 0];

internalField   nonuniform List<vector> 
1369
(
(0 0 0)
(0 0 0)
(0 0 0)
(-247.135034 0 0)
(-540.4922437 0 0)
(-347.9821817 0 0)
(-494.8048118 0 0)
(-415.4350118 0 0)
(0 0 0)
(0 0 0)
(0 0 0)
(0 0 0)
(0 0 0)
(0 0 0)
(-488.0357435 0 0)
(-340.5070142 0 0)
(-306.4223507 0 0)
(-332.2194338 0 0)
(-424.8881427 0 0)
(0 0 0)
(0 0 0)
(-315.5093501 0 0)
(-388.5213515 0 0)
(-607.4040722 0 0)
(-291.4854257 0 0)
(-606.3452917 0 0)
(-584.357446 0 0)
(-277.7938922 0 0)
(-711.0479198 0 0)
(-423.8206478 0 0)
(0 0 0)
(-516.377467 0 0)
(-282.4308071 0 0)
(-545.8822101 0 0)
(-365.84161 0 0)
(-701.4822055 0 0)
(-326.6852844 0 8.854822328e-13)
(-685.6300163 0 0)
(-415.4605695 0 0)
(-282.4785746 0 0)
(-454.5556497 0 0)
(-480.540404 0 0)
(-374.2136261 0 0)
(-404.8775921 0 0)
(-337.8150747 0 0)
(-396.9707067 0 0)
(-479.3879524 0 0)
(-484.7015437 0 0)
(-431.9798762 0 0)
(-320.7511814 0 0)
(-446.2467339 0 0)
(-277.5159663 0 0)
(-427.0962733 0 0)
(-602.3475762 0 0)
(-580.8819071 0 0)
(-566.4140396 0 0)
(0 0 0)
(0 0 0)
(0 0 0)
(0 0 0)
(0 0 0)
(0 0 0)
(0 -459.2958079 0)
(0 0 0)
(0 0 0)
(0 0 0)
(0 0 0)
(0 0 0)
(0 707.4681947 0)
(0 0 0)
(0 0 0)
(0 0 0)
(0 0 0)
(-515.6962927 -472.7216007 0)
(0 0 0)
(0 0 0)
(0 0 0)
(0 0 0)
(0 0 0)
(0 553.6567894 0)
(0 -392.3349707 0)
(0 0 0)
(0 0 0)
(0 0 0)
(0 0 0)
(0 0 0)
(0 0 0)
(0 0 0)
(0 0 0)
(0 0 0)
(0 -1161.641161 0)
(0 0 0)
(0 0 0)
(0 0 0)
(0 0 0)
(0 0 0)
(0 0 0)
(0 0 0)
(0 0 0)
(0 0 0)
(0 0 0)
(0 0 0)
(0 0 0)
(0 0 0)
(0 0 0)
(0 0 0)
(0 0 0)
(0 0 0)
(0 0 0)
(0 0 0)
(0 0 0)
(0 0 0)
(0 0 0)
(0 0 0)
(0 0 0)
(0 0 0)
(-903.6462237 828.3423702 0)
(0 0 0)
(0 0 0)
(0 0 0)
(0 0 0)
(0 0 0)
(0 0 0)
(6.773603204e-06 -1138.341558 -3.365979234e-12)
(0 0 0)
(0 0 0)
(0 0 0)
(9.162517493e-06 1539.815287 4.553102927e-12)
(-394.2997369 0 0)
(-305.4134366 0 8.278247786e-13)
(-559.246871 0 1.515841681e-12)
(-342.6439629 0 9.287383225e-13)
(-567.4278984 -520.1422421 1.538016401e-12)
(0 0 0)
(0 0 0)
(0 0 0)
(0 0 0)
(0 0 0)
(0 0 0)
(-848.4350691 777.7321495 2.299687863e-12)
(-982.9524796 -901.0397762 0)
(0 0 0)
(0 0 0)
(0 0 0)
(0 0 0)
(0 0 0)
(0 0 0)
(0 0 0)
(0 0 0)
(1.093777881e-05 1838.15743 5.435275287e-12)
(-302.8494579 0 8.208751004e-13)
(6.273262909e-06 -1054.256599 3.117347156e-12)
(0 0 0)
(0 0 0)
(0 0 0)
(0 0 0)
(0 0 0)
(0 0 0)
(0 0 0)
(0 0 0)
(1.086313223e-05 1825.614621 5.398187266e-12)
(1.029431114e-05 -1730.018886 5.115518805e-12)
(0 0 0)
(0 0 0)
(0 0 0)
(0 0 0)
(0 0 0)
(0 0 0)
(0 0 0)
(0 0 0)
(0 0 0)
(0 0 0)
(0 0 0)
(0 0 0)
(0 0 0)
(0 0 0)
(0 0 0)
(-834.6406492 765.0872646 2.262298013e-12)
(-387.6099114 0 0)
(0 0 0)
(0 0 0)
(0 0 0)
(-915.4965059 -839.2051289 0)
(0 0 0)
(0 0 0)
(0 0 0)
(0 0 0)
(0 0 0)
(0 0 0)
(0 0 0)
(0 0 0)
(0 0 0)
(0 0 0)
(0 0 0)
(0 0 0)
(0 0 0)
(0 0 0)
(0 0 0)
(0 0 0)
(0 0 0)
(0 0 0)
(0 0 0)
(0 0 0)
(0 0 0)
(0 0 0)
(0 0 0)
(0 0 0)
(0 0 0)
(0 0 0)
(0 0 0)
(0 0 0)
(0 0 0)
(0 0 0)
(0 0 0)
(-1055.892396 -0.001967626199 0)
(0 0 0)
(0 0 0)
(0 0 0)
(0 0 0)
(0 0 0)
(0 0 0)
(0 0 0)
(0 0 0)
(0 0 0)
(0 0 0)
(0 0 0)
(0 0 0)
(0 0 0)
(0 0 0)
(0 0 0)
(0 0 0)
(0 0 0)
(0 0 0)
(0 0 0)
(0 0 0)
(0 0 0)
(0 0 0)
(0 0 0)
(0 0 0)
(0 766.5087595 0)
(0 0 0)
(0 -615.4240515 0)
(0 0 0)
(0 0 0)
(0 0 0)
(0 0 0)
(0 0 0)
(0 0 0)
(0 0 0)
(0 0 0)
(0 0 0)
(0 0 0)
(0 0 0)
(0 0 0)
(0 0 0)
(0 0 0)
(0 0 0)
(0 0 0)
(0 0 0)
(0 0 0)
(0 0 0)
(0 0 0)
(0 0 0)
(0 0 0)
(0 0 0)
(0 0 0)
(1683.248759 8.269449556e-12 -4.562454927e-12)
(0 0 0)
(0 0 0)
(0 0 0)
(0 0 0)
(0 0 0)
(0 0 0)
(0 0 0)
(0 0 0)
(0 0 0)
(0 0 0)
(0 0 0)
(0 0 0)
(0 0 0)
(0 0 0)
(0 0 0)
(0 0 0)
(0 0 0)
(0 0 0)
(0 0 0)
(0 0 0)
(0 0 0)
(0 0 0)
(0 0 0)
(0 0 0)
(0 0 0)
(0 0 0)
(0 0 0)
(0 0 0)
(0 0 0)
(0 0 0)
(0 0 0)
(0 0 0)
(0 262.7202749 0)
(0 0 0)
(0 0 0)
(956.5139477 -876.8044504 0)
(0 0 0)
(0 0 0)
(0 0 0)
(0 0 0)
(0 0 0)
(0 0 0)
(0 0 0)
(0 0 0)
(0 0 0)
(0 0 0)
(0 0 0)
(0 0 0)
(0 0 0)
(0 0 0)
(0 0 0)
(0 0 0)
(0 0 0)
(0 0 0)
(0 0 0)
(0 0 0)
(0 0 0)
(0 0 0)
(0 0 0)
(-936.3792375 858.3476375 0)
(1030.979094 0 0)
(8.473257753e-06 -1423.977969 0)
(0 0 0)
(0 0 0)
(0 0 0)
(0 0 0)
(0 0 0)
(0 0 0)
(0 0 0)
(0 0 0)
(0 0 0)
(0 0 0)
(0 0 0)
(0 0 0)
(0 0 0)
(0 0 0)
(0 0 0)
(0 0 0)
(0 0 0)
(0 0 0)
(0 0 0)
(0 0 0)
(0 0 0)
(0 0 0)
(0 0 0)
(0 0 0)
(0 0 0)
(0 0 0)
(0 0 0)
(0 0 0)
(0 0 0)
(0 0 0)
(0 572.0040052 0)
(0 0 0)
(0 0 0)
(0 -419.0633828 0)
(0 0 0)
(0 0 0)
(0 0 0)
(0 0 0)
(0 0 0)
(0 0 0)
(0 0 0)
(0 0 0)
(0 0 0)
(0 0 0)
(0 0 0)
(0 0 0)
(0 0 0)
(0 0 0)
(0 0 0)
(0 0 0)
(0 0 0)
(0 0 0)
(0 0 0)
(0 0 0)
(0 0 0)
(0 0 0)
(0 0 0)
(0 0 0)
(0 0 0)
(0 0 0)
(0 0 0)
(0 0 0)
(0 0 0)
(0 0 0)
(0 0 0)
(1766.307879 -5.386035487e-11 0)
(0 0 0)
(0 0 0)
(0 0 0)
(0 0 0)
(0 0 0)
(0 0 0)
(0 0 0)
(0 0 0)
(0 0 0)
(0 0 0)
(0 0 0)
(0 0 0)
(0 0 0)
(0 0 0)
(0 0 0)
(0 0 0)
(0 0 0)
(0 0 0)
(0 0 0)
(0 0 0)
(0 0 0)
(0 0 0)
(0 0 0)
(0 0 0)
(0 558.7445844 0)
(0 0 0)
(0 0 0)
(0 -488.3031666 0)
(0 0 0)
(0 0 0)
(0 0 0)
(0 0 0)
(0 0 0)
(0 0 0)
(0 0 0)
(0 0 0)
(0 0 0)
(0 0 0)
(0 0 0)
(0 0 0)
(0 0 0)
(0 0 0)
(0 0 0)
(0 0 0)
(0 0 0)
(0 0 0)
(0 0 0)
(0 0 0)
(0 0 0)
(0 0 0)
(0 0 0)
(0 0 0)
(0 0 0)
(0 0 0)
(0 0 0)
(0 0 0)
(0 0 0)
(0 0 0)
(0 0 0)
(0 694.3281929 0)
(1.227078914e-11 -1897.079739 0)
(0 0 0)
(0 0 0)
(0 0 0)
(0 0 0)
(0 0 0)
(0 0 0)
(0 0 0)
(0 0 0)
(0 0 0)
(1032.325965 946.2987998 0)
(552.0397552 -506.0364414 0)
(0 0 0)
(0 0 0)
(1784.093615 -1.843647019e-11 0)
(0 0 0)
(0 0 0)
(0 0 0)
(0 0 0)
(0 0 0)
(0 0 0)
(0 0 0)
(0 0 0)
(0 0 0)
(0 587.688514 0)
(0 0 0)
(0 0 0)
(-741.2299551 -679.4607946 0)
(0 0 0)
(0 0 0)
(0 0 0)
(0 0 0)
(0 0 0)
(0 0 0)
(0 0 0)
(0 0 0)
(0 0 0)
(0 0 0)
(0 0 0)
(0 0 0)
(0 0 0)
(0 0 0)
(0 0 0)
(0 0 0)
(0 0 0)
(0 0 0)
(0 0 0)
(0 0 0)
(0 0 0)
(0 0 0)
(0 0 0)
(0 0 0)
(0 0 0)
(0 0 0)
(0 0 0)
(0 0 0)
(0 0 0)
(0 0 0)
(0 0 0)
(-1018.461918 1.03520496e-11 0)
(0 0 0)
(0 0 0)
(0 0 0)
(0 0 0)
(0 0 0)
(0 0 0)
(0 0 0)
(0 0 0)
(938.8123024 9.383418376e-12 0)
(0 0 0)
(0 609.0745168 0)
(0 0 0)
(699.7391014 0 0)
(597.2630897 0 0)
(0 0 0)
(311.2358983 0 0)
(1065.08213 -976.3252837 0)
(0 0 0)
(0 0 0)
(0 0 0)
(0 0 0)
(0 0 0)
(0 0 0)
(0 0 0)
(0 432.8329939 0)
(0 0 0)
(-393.3902691 -360.607746 -1.066286455e-12)
(0 0 0)
(0 0 0)
(0 0 0)
(0 0 0)
(0 0 0)
(0 0 0)
(0 0 0)
(0 0 0)
(0 0 0)
(881.9455131 808.4500566 -2.390518103e-12)
(229.0633237 0 -6.20877383e-13)
(404.80964 0 -1.097238728e-12)
(1006.503476 -922.6281901 0)
(0 0 0)
(0 0 0)
(0 0 0)
(0 0 0)
(0 0 0)
(0 0 0)
(0 0 0)
(0 0 0)
(0 0 0)
(0 0 0)
(0 0 0)
(0 0 0)
(0 0 0)
(0 0 0)
(0 0 0)
(0 0 0)
(0 0 0)
(0 0 0)
(0 0 0)
(0 0 0)
(0 0 0)
(0 0 0)
(1177.168849 5.982604799e-11 -3.190722559e-12)
(0 0 0)
(0 0 0)
(0 0 0)
(0 0 0)
(971.5545028 890.5916308 -2.633403757e-12)
(0 0 0)
(589.7458627 0 -1.598509364e-12)
(0 0 0)
(0 0 0)
(0 0 0)
(0 0 0)
(0 0 0)
(0 0 0)
(0 0 0)
(396.0413142 -363.0378727 -1.073472133e-12)
(0 0 0)
(0 0 0)
(0 0 0)
(0 0 0)
(0 0 0)
(0 0 0)
(0 719.8492824 2.128533145e-12)
(0 -547.7031441 -1.619511663e-12)
(0 0 0)
(0 0 0)
(0 0 0)
(0 0 0)
(0 0 0)
(0 0 0)
(0 0 0)
(0 0 0)
(0 0 0)
(734.0060638 672.8388906 0)
(0 0 0)
(0 0 0)
(0 0 0)
(0 -577.7190107 0)
(0 0 0)
(0 0 0)
(0 0 0)
(0 0 0)
(0 0 0)
(0 0 0)
(0 0 0)
(0 0 0)
(0 0 0)
(0 0 0)
(0 0 0)
(0 0 0)
(0 0 0)
(0 0 0)
(0 0 0)
(0 0 0)
(0 0 0)
(0 0 0)
(0 0 0)
(859.138268 787.5434109 0)
(832.756792 -763.3603913 0)
(0 0 0)
(0 1309.279641 0)
(0 0 0)
(0 0 0)
(0 0 0)
(0 0 0)
(-728.8515946 668.1139605 0)
(0 0 0)
(0 0 0)
(0 0 0)
(0 0 0)
(0 0 0)
(0 0 0)
(0 0 0)
(0 0 0)
(0 0 0)
(0 0 0)
(679.6230482 -622.987793 0)
(0 0 0)
(0 0 0)
(0 0 0)
(0 0 0)
(0 0 0)
(0 574.3499778 0)
(0 -596.0257558 0)
(0 0 0)
(0 0 0)
(0 0 0)
(0 0 0)
(0 0 0)
(0 0 0)
(0 0 0)
(0 0 0)
(883.8952315 810.237294 0)
(0 0 0)
(0 0 0)
(0 0 0)
(0 0 0)
(0 -687.7150608 0)
(0 0 0)
(0 0 0)
(0 0 0)
(0 0 0)
(0 0 0)
(0 0 0)
(0 0 0)
(0 0 0)
(0 0 0)
(0 0 0)
(0 0 0)
(0 0 0)
(0 0 0)
(0 0 0)
(0 0 0)
(0 0 0)
(0 0 0)
(0 0 0)
(0 0 0)
(0 255.7085215 0)
(0 0 0)
(486.7532725 0 1.319347382e-12)
(0 -334.0335557 0)
(0 0 0)
(0 0 0)
(0 0 0)
(0 0 0)
(0 0 0)
(0 545.2950066 0)
(0 0 0)
(0 0 0)
(-375.1962393 0 0)
(0 0 0)
(0 0 0)
(0 0 0)
(0 0 0)
(0 0 0)
(0 0 0)
(0 0 0)
(599.1281357 0 0)
(354.8712804 -325.2986731 0)
(0 0 0)
(918.4975513 0 0)
(0 0 0)
(0 560.5529786 0)
(0 0 0)
(779.0524148 714.1313828 0)
(0 0 0)
(0 0 0)
(0 0 0)
(0 0 0)
(0 0 0)
(0 -574.0185612 0)
(0 0 0)
(0 0 0)
(0 0 0)
(0 0 0)
(0 0 0)
(0 0 0)
(0 0 0)
(0 0 0)
(0 0 0)
(0 0 0)
(0 0 0)
(0 0 0)
(0 0 0)
(0 0 0)
(0 0 0)
(0 0 0)
(0 0 0)
(0 0 0)
(0 0 0)
(0 308.1099628 0)
(0 0 0)
(0 0 0)
(0 0 0)
(766.0277885 -702.192142 0)
(0 0 0)
(0 0 0)
(0 0 0)
(0 0 0)
(-713.5058828 654.047058 0)
(-325.6053898 0 0)
(-1071.728621 -982.417901 0)
(0 0 0)
(-1026.514235 940.97138 0)
(0 0 0)
(0 0 0)
(0 0 0)
(0 0 0)
(0 0 0)
(0 0 0)
(0 0 0)
(0 0 0)
(316.9856195 0 0)
(0 0 0)
(507.8529872 0 0)
(0 0 0)
(-292.8004091 0 0)
(-268.114949 0 0)
(-668.2895499 0 0)
(-471.3049778 -432.0295622 0)
(0 0 0)
(0 0 0)
(0 0 0)
(1.145157167e-11 1721.249121 0)
(846.7441356 0 0)
(973.1246476 0 0)
(1.243790748e-11 -1869.502102 0)
(0 0 0)
(0 0 0)
(0 0 0)
(0 0 0)
(0 0 0)
(0 0 0)
(374.3725629 343.1748487 0)
(580.9611958 -532.5477618 0)
(0 0 0)
(0 0 0)
(0 0 0)
(0 0 0)
(0 529.4193749 0)
(-408.6228179 0 0)
(-448.6602297 0 0)
(-660.3465535 0 0)
(-583.1686646 -534.5712749 0)
(0 0 0)
(0 0 0)
(0 0 0)
(0 0 0)
(0 0 0)
(0 0 0)
(0 0 0)
(0 0 0)
(0 0 0)
(0 596.9385351 -1.765096531e-12)
(0 0 0)
(0 0 0)
(0 0 0)
(0 0 0)
(0 0 0)
(0 0 0)
(0 0 0)
(0 0 0)
(0 0 0)
(0 0 0)
(0 0 0)
(0 0 0)
(0 0 0)
(0 0 0)
(0 0 0)
(1335.295676 1.357247311e-11 -3.619326162e-12)
(0 0 0)
(0 0 0)
(0 0 0)
(0 0 0)
(0 0 0)
(0 0 0)
(0 0 0)
(0 0 0)
(0 0 0)
(0 0 0)
(0 334.4287226 -9.88877308e-13)
(-892.5924264 -818.2097227 -2.419376606e-12)
(0 0 0)
(0 0 0)
(0 0 0)
(0 0 0)
(0 -1058.799048 -282.3464128)
(0 0 0)
(0 0 0)
(0 0 0)
(0 0 0)
(0 0 0)
(0 0 0)
(0 0 0)
(0 0 0)
(0 0 0)
(0 0 0)
(0 0 0)
(0 0 0)
(951.6841989 872.3771807 -2.579545176e-12)
(0 0 0)
(0 0 0)
(0 0 0)
(0 0 0)
(0 0 0)
(0 0 0)
(0 0 0)
(0 0 0)
(0 0 0)
(0 0 0)
(0 0 0)
(0 0 0)
(0 -693.9414263 0)
(0 0 0)
(0 0 0)
(0 0 0)
(0 0 0)
(0 0 0)
(0 0 0)
(0 0 0)
(0 0 0)
(931.9512499 854.2886488 -2.526058924e-12)
(357.3597942 0 0)
(-960.0968457 -880.0887744 2.6023477e-12)
(0 0 0)
(0 0 0)
(0 0 0)
(0 0 0)
(0 0 0)
(0 -718.4987214 0)
(0 0 0)
(0 0 0)
(0 0 0)
(0 0 0)
(0 0 0)
(0 0 0)
(0 0 0)
(0 0 0)
(0 0 0)
(0 0 0)
(0 0 0)
(0 0 0)
(0 774.4449035 0)
(0 0 0)
(0 0 0)
(-442.916682 0 0)
(-576.0607437 0 0)
(-456.0858691 0 0)
(0 0 0)
(0 0 0)
(0 0 0)
(0 0 0)
(0 0 0)
(0 0 0)
(0 0 0)
(0 0 0)
(0 0 0)
(0 0 0)
(0 0 0)
(0 0 0)
(0 0 0)
(879.0198821 805.7682252 0)
(0 0 0)
(0 -386.7818207 0)
(0 0 0)
(0 0 0)
(0 0 0)
(0 0 0)
(0 0 0)
(0 0 0)
(0 -512.6395439 -0.0001667409966)
(0 0 0)
(0 0 0)
(0 0 0)
(0 0 0)
(0 0 0)
(0 0 0)
(0 0 0)
(0 0 0)
(0 0 0)
(0 0 0)
(0 0 0)
(0 0 0)
(-471.2284893 431.9594477 0)
(-448.3211252 0 1.215176851e-12)
(-622.2961947 -570.4381775 0)
(0 0 0)
(0 0 0)
(0 0 0)
(-342.146423 313.6342205 0)
(0 0 0)
(0 0 0)
(0 0 0)
(0 0 0)
(0 0 0)
(0 0 0)
(0 0 0)
(0 0 0)
(0 282.0510894 8.340011076e-13)
(0 0 0)
(-526.9641576 -483.0504796 0)
(0 0 0)
(0 0 0)
(0 0 0)
(0 0 0)
(0 0 0)
(0 0 0)
(0 1083.637268 -0.0003204220779)
(0 0 0)
(0 0 0)
(0 0 0)
(0 0 0)
(0 0 0)
(0 0 0)
(0 0 0)
(0 0 0)
(0 0 0)
(0 0 0)
(0 0 0)
(0 0 0)
(0 0 0)
(0 0 0)
(0 0 0)
(0 0 0)
(0 0 0)
(0 0 0)
(0 0 0)
(0 660.104476 0)
(0 0 0)
(0 0 0)
(0 0 0)
(0 0 0)
(0 0 0)
(0 308.1333551 0)
(-510.7421186 -468.1802746 1.384369279e-12)
(0 0 0)
(0 0 0)
(0 0 0)
(0 0 0)
(0 0 0)
(0 0 0)
(0 0 0)
(0 -784.8963081 0)
(0 0 0)
(0 0 0)
(761.6080674 6.346840012e-07 0)
(0 0 0)
(0 0 0)
(0 0 0)
(0 0 0)
(0 0 0)
(0 0 0)
(0 0 0)
(783.3448979 718.0661591 0)
(687.2336536 0 0)
(-1.093428233e-05 -1837.566744 0)
(0 0 0)
(0 0 0)
(0 0 0)
(0 0 0)
(0 0 0)
(0 0 0)
(0 418.9345655 0)
(0 0 0)
(0 0 0)
(0 0 0)
(0 0 0)
(0 0 0)
(0 0 0)
(0 0 0)
(0 0 0)
(0 0 0)
(0 0 0)
(0 0 0)
(0 0 0)
(0 0 0)
(0 -1054.727422 0)
(0 0 0)
(4.919092239e-06 1653.364899 -4.888859532e-12)
(0 0 0)
(586.3160125 -537.4563438 0)
(0 0 0)
(0 0 0)
(0 0 0)
(0 0 0)
(0 0 0)
(977.4757376 896.0194245 0)
(0 0 0)
(0 -774.4856201 0)
(0 0 0)
(0 0 0)
(0 0 0)
(0 0 0)
(0 0 0)
(0 0 0)
(490.9009607 449.9925465 0)
(0 0 0)
(0 0 0)
(0 0 0)
(0 0 0)
(0 0 0)
(0 0 0)
(0 0 0)
(1026.052671 940.5482798 0)
(716.609499 0 0)
(971.6869633 -890.713048 0)
(0 0 0)
(0 0 0)
(0 0 0)
(0 0 0)
(0 354.2866943 0)
(388.0523599 -355.7146626 0)
(0 0 0)
(-662.1019116 606.9267545 0)
(0 0 0)
(1.037124656e-05 -1742.945463 0)
(0 0 0)
(0 0 0)
(0 0 0)
(904.4587058 829.0871455 0)
(0 0 0)
(0 0 0)
(0 -290.609732 0)
(0 0 0)
(0 0 0)
(0 0 0)
(0 0 0)
(0 0 0)
(0 0 0)
(0 547.801445 0)
(0 0 0)
(0 0 0)
(0 0 0)
(0 0 0)
(0 0 0)
(0 0 0)
(0 0 0)
(0 0 0)
(0 0 0)
(477.2305654 0 0)
(-7.367661821e-06 -1238.176362 0)
(0 0 0)
(-8.217337925e-06 1380.967592 0)
(0 0 0)
(-782.8877447 -717.647098 0)
(0 0 0)
(0 0 0)
(0 -966.2170001 0)
(0 0 0)
(0 0 0)
(832.0806922 762.7406373 0)
(443.5697774 0 0)
(0 0 0)
(0 0 0)
(0 0 0)
(0 0 0)
(440.3883947 -403.6893633 0)
(0 0 0)
(0 0 0)
(0 0 0)
(0 0 0)
(1054.977602 967.062805 0)
(0 0 0)
(0 0 0)
(0 0 0)
(0 0 0)
(0 0 0)
(0 0 0)
(0 0 0)
(0 0 0)
(0 0 0)
(0 0 0)
(-713.7927767 -654.3100441 0)
(0 0 0)
(0 0 0)
(0 0 0)
(-985.3854408 -2.003169453e-11 0)
(0 0 0)
(0 0 0)
(556.7438943 510.3485689 0)
(-825.6146736 -756.8134494 0)
(0 0 0)
(0 0 0)
(0 520.3910182 0)
(0 0 0)
(-447.9960932 0 0)
(-373.0410594 0 0)
(0 0 0)
(0 0 0)
(-745.3703282 -683.2561329 0)
(0 0 0)
(0 0 0)
(0 0 0)
(0 0 0)
(-958.486821 878.6129176 0)
(0 0 0)
(0 0 0)
(0 0 0)
(0 0 0)
(0 0 0)
(0 0 0)
(0 0 0)
(-503.5406223 0 0)
(0 0 0)
(-683.8380291 -626.851529 0)
(0 0 0)
(0 0 0)
(0 0 0)
(0 0 0)
(0 0 0)
(0 0 0)
(0 0 0)
(0 -947.265255 0)
(0 0 0)
(634.7444344 581.8490638 0)
(671.4271938 0 0)
(0 0 0)
(0 -722.5080108 0)
(0 0 0)
(0 0 0)
(-429.3837286 393.6017527 0)
(-879.1644454 -805.9007445 0)
(0 0 0)
(0 0 0)
(0 0 0)
(0 0 0)
(0 0 0)
(0 0 0)
(0 463.0144179 0)
(0 0 0)
(0 0 0)
(0 0 0)
(0 0 0)
(0 0 0)
(0 0 0)
(-1596.787345 -4.08464508e-11 0)
(0 0 0)
(0 0 0)
(0 0 0)
(0 0 0)
(0 0 0)
(0 0 0)
(0 0 0)
(0 0 0)
(-371.8169669 340.8322187 0)
(-717.1300938 0 0)
(-593.4378872 0 0)
(-703.6125977 0 0)
(-520.8675507 0 0)
(-666.503594 -610.9616267 0)
(0 0 0)
(0 0 0)
(0 0 0)
(0 0 0)
(0 0 0)
(0 0 0)
(0 0 0)
(0 0 0)
(445.2714946 408.1655382 0)
(479.2609854 0 0)
(0 0 0)
(0 0 0)
(0 0 0)
(0 0 0)
(0 0 0)
(0 0 0)
(0 0 0)
(0 0 0)
(0 0 0)
(0 0 0)
(1071.380777 982.0990436 0)
(369.9060984 0 0)
(5.610491461e-06 -1885.748229 -1.115199459e-11)
(0 0 0)
(0 0 0)
(0 0 0)
(0 0 0)
(0 0 0)
(0 0 0)
(0 0 0)
(0 0 0)
(0 0 0)
(0 0 0)
(0 0 0)
(0 0 0)
(0 0 0)
(0 0 0)
(1065.816462 976.9984215 -2.888901324e-12)
(438.0268644 0 1.187274201e-12)
(0 0 0)
(0 0 0)
(-655.9202771 0 -1.777875483e-12)
(0 0 0)
(0 0 0)
(0 0 0)
(0 0 0)
(0 0 0)
(0 0 0)
(0 0 0)
(0 0 0)
(7.899768114e-06 1327.593932 3.925582371e-12)
(-313.8109387 0 8.505862491e-13)
(-660.6743052 -605.6181191 1.790761283e-12)
(0 0 0)
(0 0 0)
(0 0 0)
(0 0 0)
(0 0 0)
(0 0 0)
(0 0 0)
(0 0 0)
(0 0 0)
(2220.284425 2.25678486e-11 0)
(0 0 0)
(0 0 0)
(567.6746421 520.3684209 0)
(658.2097576 0 0)
(858.2834366 0 0)
(-542.7866511 0 0)
(0 0 0)
(0 0 0)
(0 -540.0937096 0)
(0 0 0)
(0 332.4987369 0)
(0 0 0)
(0 0 0)
(0 0 0)
(0 0 0)
(0 0 0)
(0 0 0)
(0 0 0)
(0 0 0)
(0 0 0)
(0 0 0)
(0 0 0)
(0 0 0)
(0 0 0)
(0 0 0)
(0 0 0)
(0 0 0)
(0 0 0)
(0 0 0)
(0 0 0)
(0 632.2731682 0)
(373.3435841 -342.23162 0)
(0 0 0)
(-568.0542102 520.7163584 0)
(-589.8637472 -540.7084339 0)
(0 0 0)
(0 0 0)
(-743.3128994 681.3701566 0)
(-553.1458987 0 0)
(0 -752.7335719 0)
(0 0 0)
(0 426.8239447 0)
(0 0 0)
(0 0 0)
(0 0 0)
(0 0 0)
(0 0 0)
(0 0 0)
(0 0 0)
(0 0 0)
(2295.979082 9.33489571e-11 0)
(0 0 0)
(0 0 0)
(0 0 0)
(0 0 0)
(608.2340295 557.5478594 0)
(0 0 0)
(0 0 0)
(627.9419497 -575.6134528 0)
(0 0 0)
(0 0 0)
(0 0 0)
(0 0 0)
(0 0 0)
(0 0 0)
(0 318.2372689 0)
(658.5910654 0 0)
(0 0 0)
(0 0 0)
(0 0 0)
(0 0 0)
(0 0 0)
(0 0 0)
(1.164993995e-05 1957.834846 0)
(509.4707386 0 0)
(298.8994396 0 -8.101685501e-13)
(0 -561.8300746 0)
(0 0 0)
(0 0 0)
(0 0 0)
(0 0 0)
(0 523.1531963 0)
(0 0 0)
(0 0 0)
(0 0 0)
(643.0178656 -589.4330424 0)
(0 0 0)
(0 0 0)
(0 0 0)
(0 0 0)
(0 0 0)
(0 727.7560618 0)
(0 0 0)
(0 0 0)
(0 0 0)
(0 0 0)
(-449.5006505 0 0)
(-404.1708987 0 0)
(0 0 0)
)
;

boundaryField
{
    walls
    {
        type            calculated;
        value           uniform (0 0 0);
    }
    wallFilmFace_top
    {
        type            calculated;
        value           uniform (0 0 0);
    }
    region0_to_wallFilmRegion_wallFilmFace
    {
        type            calculated;
        value           uniform (0 0 0);
    }
    mirrorFace_top
    {
        type            calculated;
        value           nonuniform List<vector> 0();
    }
    region0_to_wallFilmRegion_mirrorFace
    {
        type            calculated;
        value           nonuniform List<vector> 0();
    }
    procBoundary0to1
    {
        type            processor;
        value           uniform (0 0 0);
    }
    procBoundary0to2
    {
        type            processor;
        value           uniform (0 0 0);
    }
}


// ************************************************************************* //
