/*--------------------------------*- C++ -*----------------------------------*\
  =========                 |
  \\      /  F ield         | OpenFOAM: The Open Source CFD Toolbox
   \\    /   O peration     | Website:  https://openfoam.org
    \\  /    A nd           | Version:  8
     \\/     M anipulation  |
\*---------------------------------------------------------------------------*/
FoamFile
{
    version     2.0;
    format      ascii;
    class       volScalarField;
    location    "0.7/wallFilmRegion";
    object      sigma;
}
// * * * * * * * * * * * * * * * * * * * * * * * * * * * * * * * * * * * * * //

dimensions      [1 0 -2 0 0 0 0];

internalField   nonuniform List<scalar> 
1369
(
0.07244713451
0.07244713448
0.07244713436
0.07244713432
0.07244713433
0.07244713436
0.07244713438
0.07244713441
0.07244713444
0.07244713444
0.07244713442
0.07244713441
0.07244713444
0.07244713449
0.07244713454
0.07244713459
0.07244713461
0.07244713463
0.07244713464
0.07244713464
0.07244713463
0.0724471346
0.07244713458
0.07244713453
0.07244713451
0.07244713452
0.07244713444
0.07244713398
0.07244713433
0.0724471345
0.07244713451
0.07244713448
0.07244713442
0.0724471344
0.0724471345
0.07244713454
0.07244713455
0.07244713451
0.07244713442
0.07244713445
0.07244713444
0.07244713441
0.07244713435
0.07244713431
0.07244713428
0.07244713431
0.07244713437
0.07244713442
0.07244713443
0.07244713443
0.07244713443
0.07244713441
0.0724471344
0.07244713439
0.07244713437
0.07244713435
0.07244713433
0.07244713434
0.07244713441
0.07244713441
0.07244713443
0.07244713447
0.07244713416
0.07244713335
0.07244713338
0.07244713338
0.07244713344
0.07244713355
0.07244713367
0.07244713374
0.07244713381
0.0724471339
0.07244713405
0.07244713427
0.07244713449
0.07244713458
0.07244713459
0.07244713458
0.07244713452
0.07244713439
0.07244713444
0.07244713424
0.07244713418
0.07244713419
0.07244713425
0.07244713435
0.0724471335
0.07244713281
0.07244713273
0.07244713408
0.07244713439
0.07244713412
0.0724471336
0.07244713341
0.07244713039
0.07244713135
0.07244712828
0.07244713046
0.07244712981
0.07244713145
0.07244713318
0.07244713341
0.0724471342
0.07244713427
0.07244713388
0.07244713447
0.0724471346
0.07244713464
0.07244713465
0.07244713463
0.07244713461
0.07244713457
0.07244713453
0.07244713447
0.07244713439
0.07244713431
0.07244713421
0.07244713434
0.07244713438
0.07244713432
0.07244713438
0.07244713442
0.0724471343
0.07244713424
0.07244713359
0.07244713357
0.07244713357
0.0724471336
0.07244713365
0.07244713371
0.07244713379
0.07244713388
0.07244713403
0.07244713423
0.07244713442
0.07244713449
0.07244713451
0.07244713449
0.07244713446
0.07244713447
0.07244713446
0.07244713418
0.07244713402
0.07244713406
0.07244713419
0.07244713436
0.07244713353
0.07244713232
0.0724471334
0.07244713358
0.07244713381
0.07244713373
0.07244713374
0.07244713365
0.07244713441
0.07244713365
0.07244713047
0.07244713109
0.07244713011
0.07244713172
0.07244713317
0.0724471337
0.07244713434
0.0724471344
0.07244713422
0.07244713448
0.0724471346
0.07244713464
0.07244713464
0.07244713463
0.07244713461
0.07244713457
0.07244713453
0.07244713447
0.07244713439
0.07244713429
0.07244713416
0.07244713433
0.07244713437
0.07244713436
0.07244713434
0.07244713435
0.07244713384
0.07244713393
0.07244713386
0.07244713379
0.07244713374
0.07244713371
0.07244713371
0.07244713373
0.07244713377
0.07244713384
0.07244713396
0.07244713413
0.07244713428
0.07244713434
0.07244713435
0.0724471343
0.07244713423
0.07244713418
0.07244713415
0.07244713393
0.07244713382
0.0724471339
0.0724471341
0.07244713435
0.07244713449
0.07244713395
0.07244713406
0.07244713411
0.07244713411
0.07244713408
0.07244713402
0.07244713387
0.07244713415
0.07244713375
0.07244713033
0.07244712978
0.07244713046
0.07244713234
0.07244713344
0.07244713381
0.07244713438
0.07244713447
0.07244713439
0.07244713452
0.07244713461
0.07244713464
0.07244713464
0.07244713463
0.0724471346
0.07244713456
0.07244713451
0.07244713446
0.07244713438
0.07244713427
0.07244713411
0.0724471339
0.07244713374
0.07244713426
0.07244713425
0.07244713414
0.07244713414
0.0724471341
0.07244713401
0.07244713391
0.0724471338
0.07244713371
0.07244713365
0.0724471336
0.0724471336
0.07244713366
0.07244713379
0.07244713396
0.07244713409
0.07244713414
0.07244713409
0.07244713399
0.07244713388
0.07244713379
0.07244713374
0.07244713361
0.07244713354
0.07244713362
0.07244713391
0.07244713431
0.07244713462
0.072447134
0.07244713424
0.07244713426
0.07244713421
0.07244713414
0.07244713405
0.07244713391
0.07244713385
0.07244713331
0.07244712926
0.07244712855
0.07244713028
0.07244713122
0.0724471331
0.0724471338
0.07244713441
0.07244713451
0.07244713449
0.07244713458
0.07244713463
0.07244713464
0.07244713463
0.07244713461
0.07244713458
0.07244713453
0.07244713449
0.07244713444
0.07244713437
0.07244713426
0.07244713408
0.07244713381
0.07244713349
0.07244713419
0.07244713425
0.07244713429
0.07244713427
0.07244713422
0.07244713413
0.072447134
0.07244713385
0.07244713371
0.0724471336
0.07244713352
0.07244713349
0.07244713354
0.07244713367
0.07244713381
0.07244713388
0.07244713385
0.07244713368
0.07244713344
0.07244713327
0.07244713322
0.07244713324
0.07244713311
0.072447133
0.07244713305
0.07244713346
0.07244713413
0.07244713457
0.07244713446
0.0724471344
0.0724471343
0.07244713415
0.07244713397
0.07244713385
0.07244713378
0.07244713413
0.07244713366
0.07244713187
0.07244713205
0.07244713065
0.07244712962
0.07244713255
0.07244713413
0.07244713447
0.07244713457
0.07244713457
0.07244713464
0.07244713466
0.07244713464
0.07244713462
0.07244713458
0.07244713454
0.07244713448
0.07244713444
0.07244713442
0.07244713437
0.07244713427
0.07244713406
0.07244713373
0.07244713331
0.07244713416
0.07244713427
0.07244713437
0.07244713435
0.0724471343
0.07244713422
0.07244713408
0.07244713391
0.07244713373
0.07244713358
0.07244713345
0.0724471334
0.07244713345
0.07244713355
0.07244713361
0.0724471337
0.07244713343
0.07244713308
0.07244713268
0.07244713243
0.07244713239
0.07244713237
0.07244713213
0.07244713189
0.07244713162
0.07244713126
0.07244713057
0.07244713251
0.07244713263
0.07244713253
0.07244713237
0.07244713229
0.07244713234
0.07244713262
0.07244713333
0.0724471343
0.07244713348
0.07244712891
0.07244713203
0.07244712698
0.0724471301
0.07244712982
0.07244713441
0.07244713457
0.07244713465
0.07244713465
0.07244713472
0.07244713472
0.07244713467
0.07244713463
0.07244713458
0.07244713452
0.07244713444
0.07244713442
0.07244713443
0.0724471344
0.07244713428
0.07244713402
0.07244713368
0.07244713331
0.07244713417
0.07244713429
0.07244713442
0.0724471344
0.07244713436
0.07244713428
0.07244713415
0.07244713397
0.07244713378
0.0724471336
0.07244713343
0.07244713339
0.07244713355
0.07244713372
0.07244713351
0.07244713392
0.07244713211
0.07244713119
0.07244713056
0.07244713026
0.07244713011
0.07244713001
0.07244712991
0.07244712961
0.07244712905
0.07244712751
0.07244712319
0.07244711642
0.07244711888
0.07244712045
0.07244712173
0.07244712425
0.07244712666
0.07244712873
0.07244713223
0.07244713375
0.07244713317
0.0724471318
0.07244713424
0.07244713166
0.0724471322
0.07244712406
0.07244713456
0.07244713466
0.07244713472
0.07244713473
0.07244713479
0.07244713479
0.07244713472
0.07244713469
0.07244713465
0.07244713459
0.07244713451
0.07244713449
0.07244713451
0.07244713446
0.0724471343
0.07244713396
0.07244713379
0.07244713372
0.0724471342
0.07244713431
0.07244713445
0.07244713443
0.07244713439
0.07244713432
0.07244713421
0.07244713405
0.07244713388
0.0724471337
0.07244713357
0.07244713375
0.07244713408
0.07244713423
0.07244713389
0.07244713428
0.07244712893
0.07244712551
0.07244712386
0.07244712333
0.07244712342
0.07244712357
0.07244712439
0.0724471248
0.07244712456
0.07244711916
0.07244710345
0.0724470754
0.07244708995
0.07244709289
0.07244709219
0.07244711137
0.07244711733
0.07244712024
0.07244712825
0.07244713301
0.07244713259
0.07244713285
0.07244713467
0.07244713311
0.07244713321
0.07244713249
0.07244713464
0.07244713472
0.07244713476
0.07244713477
0.07244713481
0.07244713482
0.07244713475
0.07244713475
0.07244713475
0.0724471347
0.07244713464
0.07244713462
0.0724471346
0.07244713451
0.0724471343
0.07244713391
0.07244713408
0.07244713422
0.07244713423
0.07244713432
0.07244713446
0.07244713444
0.0724471344
0.07244713434
0.07244713425
0.07244713414
0.07244713401
0.07244713388
0.07244713392
0.07244713424
0.07244713449
0.07244713456
0.0724471343
0.07244713453
0.07244712329
0.07244710793
0.07244709424
0.07244708398
0.0724470973
0.07244711141
0.07244711963
0.072447125
0.07244712823
0.07244712938
0.07244711363
0.07244663492
0.07244650182
0.07244659255
0.07244680876
0.0724471181
0.07244711868
0.07244711604
0.07244711783
0.07244713343
0.07244713384
0.07244713334
0.07244713487
0.07244713386
0.07244713395
0.07244713397
0.07244713474
0.07244713475
0.07244713478
0.07244713479
0.0724471348
0.0724471348
0.07244713476
0.07244713479
0.07244713481
0.07244713479
0.07244713475
0.07244713472
0.07244713466
0.07244713454
0.07244713433
0.07244713403
0.07244713431
0.07244713445
0.07244713426
0.07244713433
0.07244713445
0.07244713442
0.07244713438
0.07244713433
0.07244713427
0.0724471342
0.07244713413
0.07244713411
0.07244713429
0.07244713455
0.0724471347
0.07244713473
0.07244713459
0.07244713466
0.07244713104
0.0724471301
0.07244713085
0.07244713093
0.07244712374
0.07244712215
0.07244712584
0.07244712953
0.07244713177
0.0724471328
0.07244712836
0.07244676221
0.07244656979
0.072446739
0.07244691159
0.07244712818
0.07244712618
0.07244712405
0.07244712211
0.07244713406
0.07244713443
0.07244713376
0.0724471349
0.07244713428
0.07244713424
0.07244713427
0.07244713474
0.07244713476
0.07244713478
0.07244713479
0.07244713477
0.07244713476
0.07244713475
0.07244713483
0.07244713487
0.07244713484
0.07244713481
0.07244713478
0.07244713472
0.07244713461
0.07244713447
0.07244713433
0.07244713438
0.07244713439
0.07244713427
0.07244713433
0.07244713441
0.07244713436
0.07244713432
0.07244713429
0.07244713426
0.07244713423
0.07244713423
0.07244713432
0.07244713453
0.0724471347
0.07244713478
0.0724471348
0.07244713477
0.07244713479
0.07244713194
0.07244713173
0.07244713359
0.07244713282
0.07244713306
0.07244713256
0.07244712464
0.07244712892
0.07244713054
0.07244712877
0.07244713235
0.07244708373
0.07244703056
0.07244699529
0.07244698907
0.07244713349
0.07244713242
0.07244713086
0.07244712728
0.07244713438
0.07244713466
0.07244713422
0.07244713485
0.07244713453
0.07244713436
0.07244713435
0.07244713473
0.07244713475
0.07244713477
0.07244713477
0.07244713476
0.07244713475
0.07244713477
0.07244713486
0.07244713489
0.07244713487
0.07244713483
0.07244713479
0.07244713476
0.0724471347
0.07244713462
0.07244713456
0.07244713446
0.07244713435
0.07244713428
0.07244713431
0.07244713448
0.07244713465
0.07244713476
0.07244713481
0.07244713482
0.07244713481
0.07244713482
0.07244713436
0.07244713415
0.0724471345
0.07244713303
0.07244713364
0.07244713336
0.07244713289
0.07244712729
0.07244712893
0.07244649708
0.07244713356
0.07244710291
0.0724470802
0.07244704348
0.07244701152
0.07244713603
0.07244713282
0.07244713143
0.0724471302
0.07244713469
0.07244713466
0.07244713479
0.07244713497
0.07244713468
0.07244713443
0.07244713438
0.0724471347
0.07244713474
0.07244713475
0.07244713475
0.07244713474
0.07244713472
0.07244713474
0.07244713481
0.07244713485
0.07244713483
0.07244713479
0.07244713476
0.07244713479
0.07244713478
0.07244713473
0.07244713468
0.0724471346
0.07244713452
0.07244713432
0.07244713482
0.07244713482
0.07244713482
0.07244713483
0.07244713468
0.07244713471
0.07244713467
0.07244713439
0.07244713466
0.07244713468
0.07244713469
0.07244713314
0.07244712599
0.07244649595
0.07244713404
0.07244710956
0.07244709593
0.07244713652
0.07244713699
0.07244713714
0.07244712977
0.07244713089
0.0724471293
0.07244713441
0.07244713447
0.07244713485
0.07244713493
0.07244713472
0.07244713444
0.07244713438
0.07244713467
0.07244713472
0.07244713473
0.07244713473
0.07244713473
0.07244713472
0.07244713474
0.07244713476
0.07244713474
0.07244713472
0.07244713471
0.07244713471
0.0724471348
0.07244713484
0.07244713482
0.07244713478
0.07244713473
0.07244713466
0.07244713437
0.0724471346
0.07244713472
0.07244713479
0.0724471348
0.07244713478
0.07244713195
0.07244712749
0.07244710303
0.07244706399
0.0724471332
0.07244713078
0.07244713408
0.07244713425
0.07244711916
0.07244711358
0.07244713651
0.0724471367
0.07244713483
0.07244712415
0.07244713049
0.07244713038
0.07244713418
0.07244713413
0.07244713437
0.07244713449
0.07244713452
0.07244713439
0.07244713433
0.07244713464
0.07244713469
0.07244713471
0.07244713471
0.07244713471
0.07244713471
0.07244713481
0.07244713486
0.07244713483
0.07244713477
0.07244713472
0.07244713471
0.07244713477
0.07244713482
0.07244713482
0.07244713479
0.07244713475
0.07244713473
0.07244713445
0.0724471348
0.0724471334
0.07244712243
0.07244702961
0.07244692558
0.07244713331
0.07244713208
0.07244713424
0.07244713449
0.07244713522
0.07244713595
0.07244713644
0.07244713647
0.07244710529
0.07244711313
0.07244712933
0.07244713074
0.07244713422
0.07244713404
0.07244713411
0.07244713413
0.07244713417
0.07244713422
0.07244713419
0.0724471346
0.07244713466
0.07244713468
0.07244713469
0.0724471347
0.07244713471
0.0724471349
0.07244713496
0.07244713492
0.07244713482
0.07244713471
0.07244713466
0.07244713466
0.07244713471
0.07244713475
0.07244713474
0.07244713471
0.07244713469
0.0724471345
0.07244712813
0.07244685898
0.07244660229
0.07244713333
0.07244713191
0.07244713424
0.07244713476
0.0724471361
0.07244713632
0.07244713635
0.0724471333
0.07244711631
0.0724471193
0.07244712911
0.07244713064
0.07244713424
0.07244713373
0.07244713365
0.07244713364
0.07244713374
0.07244713381
0.07244713376
0.07244713449
0.0724471346
0.07244713462
0.07244713464
0.07244713465
0.07244713469
0.07244713495
0.07244713499
0.07244713494
0.0724471348
0.07244713463
0.07244713463
0.07244713467
0.07244713473
0.07244713474
0.07244713473
0.0724471347
0.07244713468
0.07244713454
0.07244713186
0.07244713464
0.07244713536
0.07244713613
0.07244713619
0.07244713383
0.07244713113
0.07244712286
0.07244712898
0.07244713039
0.07244713141
0.07244713421
0.0724471279
0.07244713224
0.07244713283
0.07244713337
0.07244713297
0.07244713189
0.07244713388
0.07244713419
0.0724471343
0.0724471344
0.07244713449
0.07244713477
0.07244713484
0.07244713482
0.07244713474
0.07244713455
0.07244713434
0.0724471343
0.07244713456
0.07244713467
0.0724471347
0.07244713469
0.07244713467
0.07244713467
0.07244713456
0.0724471355
0.07244713608
0.07244713551
0.07244713433
0.07244712952
0.07244712811
0.07244713122
0.07244713103
0.07244713237
0.07244713413
0.07244713245
0.07244713342
0.07244713396
0.0724471349
0.07244713423
0.07244713388
0.07244713424
0.07244713446
0.07244713452
0.07244713464
0.07244713481
0.07244713517
0.07244713526
0.07244713531
0.07244713528
0.07244713501
0.07244713453
0.07244713426
0.07244713453
0.07244713462
0.0724471347
0.07244713468
0.07244713464
0.0724471346
0.07244713455
0.07244713552
0.07244713479
0.07244713511
0.072447132
0.07244713054
0.07244713182
0.07244713152
0.07244713298
0.07244713402
0.07244713314
0.07244713396
0.07244713478
0.07244713591
0.07244713512
0.07244713556
0.0724471346
0.07244713463
0.07244713465
0.07244713483
0.0724471351
0.07244713546
0.07244713585
0.07244713604
0.07244713591
0.07244713548
0.07244713483
0.07244713439
0.07244713458
0.07244713463
0.07244713474
0.07244713472
0.07244713466
0.07244713458
0.07244713453
0.07244713438
0.0724471346
0.0724471352
0.07244713487
0.07244713243
0.07244713216
0.07244713232
0.07244713326
0.07244713393
0.07244713349
0.07244713417
0.072447135
0.07244713555
0.07244713528
0.07244713571
0.07244713536
0.07244713521
0.07244713518
0.07244713537
0.07244713579
0.07244713635
0.07244713666
0.07244713667
0.07244713647
0.07244713602
0.07244713527
0.07244713457
0.07244713461
0.07244713468
0.07244713478
0.07244713477
0.07244713473
0.07244713466
0.07244713452
0.07244713541
0.07244713594
0.07244713606
0.07244713546
0.07244713397
0.07244713303
0.07244713454
0.07244713415
0.07244713529
0.07244713479
0.07244713601
0.07244713652
0.07244713517
0.07244713704
0.07244713688
0.07244713662
0.07244713657
0.07244713695
0.07244713691
0.07244713671
0.07244713656
0.07244713645
0.07244713631
0.07244713606
0.07244713557
0.07244713464
0.07244713463
0.07244713473
0.07244713481
0.0724471348
0.07244713478
0.07244713473
0.07244713454
0.07244713549
0.07244713595
0.0724471364
0.07244713592
0.07244713467
0.07244713495
0.07244713472
0.07244713505
0.0724471348
0.07244713353
0.07244713671
0.07244713687
0.07244713547
0.07244713438
0.07244713646
0.07244713698
0.07244713693
0.07244713661
0.07244713553
0.07244713514
0.07244713495
0.07244713475
0.07244713449
0.07244713408
0.07244713318
0.07244713456
0.07244713464
0.07244713475
0.07244713481
0.07244713482
0.07244713481
0.07244713477
0.07244713458
0.07244713509
0.07244713566
0.0724471361
0.07244713566
0.07244713464
0.0724471349
0.07244713444
0.07244713462
0.07244713411
0.07244713329
0.07244713501
0.07244713443
0.07244713586
0.07244713482
0.07244713428
0.07244713422
0.07244713413
0.07244713414
0.07244713431
0.07244713446
0.07244713448
0.07244713436
0.07244713413
0.07244713381
0.07244713332
0.07244713404
0.07244713459
0.07244713476
0.07244713478
0.07244713477
0.07244713474
0.0724471347
0.07244713458
0.07244713477
0.07244713447
0.07244713459
0.07244713431
0.07244713437
0.07244713387
0.07244713378
0.07244713346
0.07244713319
0.07244713509
0.07244713455
0.07244713472
0.0724471345
0.07244713415
0.07244713393
0.07244713388
0.072447134
0.0724471343
0.07244713438
0.07244713433
0.07244713423
0.07244713403
0.07244713388
0.07244713413
0.07244713451
0.07244713468
0.0724471348
0.07244713479
0.07244713477
0.07244713476
0.07244713473
0.07244713461
0.0724471343
0.07244713421
0.07244713405
0.07244713437
0.07244713543
0.07244713464
0.07244713243
0.07244713102
0.07244713378
0.07244713256
0.07244713311
0.07244713361
0.07244713416
0.07244713438
0.07244713443
0.07244713426
0.07244713407
0.07244713415
0.07244713413
0.07244713413
0.07244713417
0.0724471343
0.07244713441
0.07244713466
0.07244713481
0.07244713482
0.07244713482
0.07244713481
0.0724471348
0.07244713478
0.07244713463
0.07244713237
0.07244713354
0.07244713385
0.07244713409
0.07244713436
0.07244713502
0.07244713318
0.07244713169
0.07244713316
0.07244713344
0.0724471335
0.07244713395
0.07244713434
0.07244713458
0.07244713464
0.07244713448
0.07244713387
0.07244713406
0.0724471341
0.07244713412
0.07244713412
0.07244713409
0.07244713407
0.07244713405
0.07244713463
0.0724471348
0.0724471348
0.07244713478
0.07244713476
0.07244713473
0.07244713452
0.07244713268
0.07244712843
0.07244709672
0.0724470543
0.07244713361
0.07244713539
0.07244713468
0.07244713213
0.07244713369
0.07244713374
0.07244713356
0.07244713408
0.07244713437
0.07244713468
0.07244713477
0.07244713467
0.07244713432
0.07244713394
0.07244713396
0.07244713396
0.07244713386
0.07244713422
0.0724471345
0.07244713459
0.07244713467
0.07244713478
0.07244713478
0.07244713478
0.07244713477
0.07244713476
0.07244713456
0.0724471348
0.07244713528
0.07244713369
0.07244713445
0.07244713394
0.07244713343
0.07244713403
0.07244713432
0.07244713473
0.07244713484
0.07244713477
0.07244713458
0.07244713409
0.07244713386
0.07244713384
0.07244713379
0.07244713382
0.07244713388
0.07244713459
0.07244713467
0.07244713477
0.07244713477
0.07244713477
0.07244713476
0.07244713474
0.07244713446
0.07244713592
0.07244713602
0.07244713463
0.07244713462
0.07244713398
0.0724471334
0.07244713406
0.07244713428
0.07244713476
0.07244713485
0.0724471348
0.07244713469
0.07244713438
0.07244713397
0.07244713377
0.07244713367
0.07244713419
0.07244713411
0.07244713475
0.07244713467
0.07244713474
0.07244713475
0.07244713474
0.07244713472
0.07244713466
0.07244713439
)
;

boundaryField
{
    walls
    {
        type            zeroGradient;
    }
    wallFilmFace_top
    {
        type            zeroGradient;
    }
    region0_to_wallFilmRegion_wallFilmFace
    {
        type            zeroGradient;
    }
    mirrorFace_top
    {
        type            zeroGradient;
    }
    region0_to_wallFilmRegion_mirrorFace
    {
        type            zeroGradient;
    }
    procBoundary0to1
    {
        type            processor;
        value           nonuniform List<scalar> 
52
(
0.07244713433
0.07244713435
0.07244713427
0.07244713423
0.07244713422
0.07244713422
0.07244713424
0.07244713424
0.07244713439
0.07244713457
0.0724471347
0.07244713477
0.07244713477
0.07244713459
0.07244713476
0.07244713476
0.07244713465
0.07244713483
0.0724471349
0.07244713485
0.07244713485
0.07244713481
0.07244713451
0.07244713451
0.07244713431
0.07244712833
0.07244708527
0.07244713329
0.07244713329
0.07244713078
0.07244713446
0.07244713446
0.07244713491
0.07244713491
0.07244713435
0.07244713415
0.07244713415
0.07244713449
0.07244713492
0.07244713434
0.07244713434
0.07244713469
0.07244713469
0.07244713154
0.07244713312
0.07244713451
0.0724471333
0.07244709189
0.07244686623
0.07244713275
0.07244713275
0.07244713411
)
;
    }
    procBoundary0to2
    {
        type            processor;
        value           nonuniform List<scalar> 
26
(
0.0724471348
0.07244713476
0.07244713487
0.07244713418
0.07244713162
0.07244713402
0.07244713432
0.07244713437
0.07244713478
0.07244713484
0.0724471348
0.07244713475
0.07244713457
0.07244713419
0.07244713384
0.07244713363
0.07244713353
0.07244713337
0.07244713467
0.07244713459
0.07244713469
0.0724471347
0.07244713469
0.07244713464
0.07244713453
0.07244713434
)
;
    }
}


// ************************************************************************* //
