/*--------------------------------*- C++ -*----------------------------------*\
  =========                 |
  \\      /  F ield         | OpenFOAM: The Open Source CFD Toolbox
   \\    /   O peration     | Website:  https://openfoam.org
    \\  /    A nd           | Version:  8
     \\/     M anipulation  |
\*---------------------------------------------------------------------------*/
FoamFile
{
    version     2.0;
    format      ascii;
    class       volScalarField;
    location    "1.4";
    object      alphat;
}
// * * * * * * * * * * * * * * * * * * * * * * * * * * * * * * * * * * * * * //

dimensions      [1 -1 -1 0 0 0 0];

internalField   nonuniform List<scalar> 
67286
(
0.0005354760412
0.0006108224431
0.0005814806149
0.0005276052722
0.00045756021
0.0003934977759
0.0003793551348
0.00033640413
0.0003069643755
0.0002581205137
0.0002137082586
0.0002035582052
0.0002048301254
0.0002075661573
0.0002104919716
0.0002140643699
0.000218901192
0.000225609433
0.0002349694461
0.0002477964508
0.0002645698602
0.0002811748632
0.0002956852487
0.00031809881
0.0003343844494
0.0003506227948
0.0003657208734
0.0003523341615
0.0004690377614
0.0005328115264
0.0004968812086
0.0004451169679
0.0003851139303
0.0003362994712
0.0003155088918
0.0003066913563
0.0003261657146
0.0002908878027
0.0002357002619
0.0002133562201
0.0002127666428
0.0002158148799
0.0002190476693
0.0002226906841
0.0002271467323
0.0002324294231
0.0002386458625
0.000246436544
0.0002576674444
0.0002762878637
0.0002928496029
0.0003191352529
0.0003459232271
0.0003668406917
0.0003776020606
0.0003642557031
0.0003465594402
0.0003260360347
0.0003032581854
0.0002799113362
0.0004355524606
0.0004779919907
0.0004332485568
0.000377283358
0.0003357711447
0.0003055830616
0.0002977313628
0.0003361249752
0.0003719775415
0.00033455085
0.0002587928016
0.0002224375494
0.0002194202037
0.0002226025222
0.0002261207899
0.0002299480052
0.0002343264373
0.0002387581212
0.0002426386786
0.0002458398857
0.0002497168251
0.0002567466305
0.0002700155899
0.0002950793413
0.0003294982976
0.0003606941734
0.0003759636403
0.0003459167495
0.0003200606866
0.000295579794
0.0002734471826
0.0002555703979
0.0004060628859
0.0004252317868
0.0003717287104
0.0003391990253
0.000323170868
0.0003137163938
0.000336247915
0.0003853057428
0.0004085750703
0.0003652142512
0.0002731873722
0.0002297611445
0.000225239789
0.0002284042274
0.0002323132434
0.0002365521727
0.0002411293668
0.0002454323902
0.0002486821183
0.0002490983591
0.000248825397
0.0002486927678
0.0002500660922
0.0002547825047
0.0002650767629
0.0002863916348
0.0003080284442
0.0002855051074
0.0002688908721
0.0002570806262
0.0002473902928
0.0002382901331
0.0002322910191
0.0003704503268
0.0003727817326
0.0003340692215
0.0003472483992
0.0003304091443
0.0003300194506
0.0003621750132
0.0003979456651
0.0003990165413
0.0003438893603
0.0002672203593
0.0002347849271
0.0002308143103
0.0002335675925
0.000237849393
0.0002428495361
0.000248331325
0.0002534137198
0.0002585255617
0.0002570540987
0.0002566270461
0.0002553325866
0.0002536965956
0.0002523809692
0.0002510888889
0.0002513766056
0.0002534430962
0.0002509537763
0.0002480598191
0.0002490526014
0.0002543815684
0.0002441127858
0.0002426322503
0.0003274933641
0.0003342709444
0.0003541966336
0.0003905808346
0.0003469732607
0.0003083936843
0.0002891434948
0.0003109713281
0.0003062114803
0.0002731483094
0.0002525674801
0.0002412591593
0.0002368869142
0.0002384093449
0.0002428722153
0.0002488983144
0.0002546981283
0.0002594108779
0.0002629928208
0.0002652825021
0.0002669447484
0.0002678711647
0.0002676511995
0.0002655451786
0.0002613712848
0.0002580717025
0.0002569456943
0.0002538824164
0.0002526954229
0.0002649496913
0.000289381343
0.0002650902342
0.0002624954825
0.000292241818
0.0003415922647
0.0004117476702
0.0004948773162
0.0003777651979
0.0002943784609
0.0002612250821
0.0002732484738
0.0002809558424
0.000279314336
0.0002687372776
0.0002539213258
0.0002436952744
0.0002428332423
0.0002469921692
0.0002536044326
0.0002596568556
0.0002647248493
0.0002687790477
0.0002719354373
0.0002744076094
0.0002761957702
0.0002770201215
0.0002764149058
0.0002742240266
0.0002717702744
0.0002692369432
0.000264237369
0.0002631632548
0.0002719154483
0.0002760976796
0.0002760185441
0.000284934199
0.0003045483035
0.0004326398411
0.0005672107743
0.0006422912457
0.0005345632221
0.0003561850467
0.0002887791317
0.0003023801348
0.0003098975682
0.0003078561196
0.0002933206557
0.0002697515913
0.0002511909936
0.0002469020105
0.0002502040677
0.0002567126943
0.0002629405796
0.0002684135198
0.0002729369621
0.0002765034418
0.0002791935489
0.0002810406688
0.000281956834
0.000281930348
0.0002811071842
0.0002795184275
0.0002770888636
0.0002743251187
0.0002780290302
0.0002921999866
0.0003031194764
0.0002997461226
0.0003106636876
0.0002934348535
0.0003912806672
0.0005034465557
0.0005870110911
0.0003443420435
0.0003153598213
0.0003260512676
0.0003364114372
0.0003426649708
0.000339170642
0.0003202012524
0.0002866582633
0.0002590571013
0.0002509431765
0.0002528818325
0.0002587656967
0.0002649106854
0.0002706411718
0.0002755716249
0.0002795299783
0.0002824948143
0.0002844976283
0.0002853973288
0.000285544985
0.0002852027993
0.0002842877927
0.0002827437767
0.0002857442289
0.0002997012499
0.0003187215905
0.0003180773309
0.0003236862954
0.0003377080793
0.0002703214675
0.0003258389037
0.0003776953282
0.0004145022259
0.0003505881581
0.0003545968796
0.0003604630742
0.0003666649731
0.0003699070775
0.0003634563615
0.0003410012077
0.0003011028503
0.0002665110047
0.0002555117753
0.0002559033074
0.0002607458485
0.0002663620127
0.0002719162676
0.000276903152
0.0002809991853
0.0002840500094
0.0002860572799
0.0002871338087
0.0002876562674
0.0002880300462
0.0002882974692
0.0002898840914
0.0003041454438
0.0003280601721
0.0003469592424
0.0003460740282
0.0003486283348
0.0003631737042
0.0002567600814
0.0003042562623
0.0003401452405
0.0003729516195
0.0003936129592
0.0003976863534
0.000393975902
0.0003889281446
0.0003843651223
0.0003723024751
0.0003461708785
0.0003055745111
0.0002737339462
0.0002619217138
0.0002604437854
0.0002637502263
0.0002683551076
0.0002731892116
0.0002777145123
0.0002815630034
0.0002845251183
0.0002865781521
0.0002879668962
0.0002892864572
0.0002911413955
0.0002942132365
0.0003037292105
0.0003308298578
0.0003581120812
0.0003736533632
0.0003729377066
0.0003708960591
0.0003848726933
0.0002629734047
0.0003350669265
0.0003807876158
0.0004156503176
0.000438900774
0.0004347155344
0.000413416144
0.0003913270134
0.0003759170073
0.0003580203369
0.0003321813134
0.0003048460956
0.0002863090158
0.0002739717826
0.0002685118115
0.0002689205304
0.000271722777
0.0002751894467
0.0002787009946
0.0002819010091
0.0002846451121
0.0002869604723
0.0002892258843
0.0002921371603
0.0002966219032
0.0003052519459
0.0003257417182
0.0003592530329
0.0003849808782
0.0003978850316
0.0003965230235
0.000388973039
0.0003996301288
0.0002803722527
0.0003601032027
0.0004020992911
0.0004308698917
0.000440555971
0.0004229510366
0.0003840192417
0.000354591254
0.0003476231799
0.0003616171804
0.0003321130606
0.0003263857249
0.0003152786411
0.0002984515511
0.000283845317
0.0002783913758
0.0002780098311
0.0002792306264
0.0002812023067
0.0002834355417
0.0002861640929
0.0002897088642
0.0002942804566
0.000300270319
0.0003088749196
0.0003234430641
0.0003499763323
0.0003823162716
0.0004052524541
0.0004162590687
0.0004151999516
0.0004020806835
0.0004045080238
0.0002800248965
0.0003550392142
0.000390193755
0.0004100029876
0.000408324264
0.0003811164273
0.0003452562349
0.0003444559829
0.0004126577011
0.0005245458537
0.0003896119434
0.0003721869018
0.0003596594734
0.0003367239491
0.0003092342614
0.0002927143144
0.0002871358311
0.0002847601643
0.0002835874779
0.0002835206544
0.000284748852
0.000288014516
0.0002942920237
0.0003048911816
0.0003219600028
0.0003466032553
0.000375211703
0.0004007119948
0.0004186060999
0.0004274066703
0.000427198129
0.0004134880019
0.0004005793237
0.0002632080476
0.0003312323545
0.0003603435945
0.0003713916336
0.0003628217054
0.0003444965238
0.0003589555285
0.0004696914409
0.0006878143517
0.0008692026983
0.0005402106195
0.0004191970519
0.0004049254257
0.0003823149795
0.0003455872158
0.0003075866913
0.0002897232639
0.0002846184189
0.0002826829136
0.0002816282238
0.0002815039014
0.0002840229106
0.0002918868596
0.0003069174657
0.0003288367531
0.0003548394419
0.0003810017746
0.0004041446385
0.0004210154651
0.0004290339746
0.0004273218589
0.0004116348045
0.0003943857791
0.0002378800462
0.0002981336058
0.0003245092046
0.0003335110796
0.0003297048199
0.0003287510671
0.00036204615
0.000470593344
0.0006948960327
0.0007957575895
0.000532313676
0.0004459601155
0.0004427789806
0.0004295029785
0.0003952498373
0.0003332577467
0.0002892979818
0.0002814300772
0.0002798343743
0.0002783304602
0.0002767109971
0.0002775240919
0.0002855879339
0.0003035001225
0.0003284492395
0.0003551925503
0.00038033495
0.0004024406177
0.0004188324053
0.0004265634066
0.0004230639741
0.0004055893663
0.000383873271
0.000212260913
0.0002643607222
0.0002905663834
0.0003044235072
0.0003134013411
0.0003286800181
0.0003564581111
0.0004009098597
0.0004863476071
0.0005742713618
0.0004608364033
0.0004539694513
0.0004561967802
0.0004476358659
0.0004217965689
0.0003589348939
0.0002879362882
0.0002749631018
0.0002749853975
0.0002737235867
0.0002708363608
0.0002695043224
0.0002763332105
0.0002949299933
0.0003211779549
0.0003490051511
0.0003742485119
0.0003958472307
0.000411966067
0.0004195920799
0.0004141685116
0.0003954305446
0.0003712596752
0.0001929496784
0.0002385546188
0.0002652618389
0.000286342562
0.0003072118847
0.0003323458648
0.00036100538
0.0003906966102
0.0004233849799
0.00045962417
0.0004510838372
0.0004583535728
0.000461359394
0.0004544110292
0.0004315498021
0.0003700940574
0.0002860496479
0.0002670287918
0.0002686267067
0.0002680236648
0.0002647600877
0.0002628662439
0.0002699637291
0.0002870460623
0.000310896844
0.0003381592997
0.0003635124563
0.0003847521617
0.0004005361477
0.0004080242655
0.000400493611
0.0003809277127
0.0003569797442
0.0001810495457
0.0002230919038
0.0002491024387
0.0002741429229
0.0003009168639
0.0003298918569
0.0003592095012
0.000387035768
0.0004118459674
0.000433498467
0.0004469815199
0.0004566477786
0.0004595082245
0.0004524945427
0.0004283918761
0.0003654150875
0.0002820582902
0.0002604509655
0.0002614340729
0.0002618701938
0.000260546292
0.0002626829354
0.0002733719843
0.0002901535461
0.0003103626911
0.0003311399126
0.0003512124325
0.000369708571
0.000384660426
0.0003919208362
0.0003818383356
0.000361849873
0.0003420184503
0.0001736927965
0.0002139767499
0.0002379139979
0.0002626527367
0.000290293422
0.0003199166413
0.0003493265297
0.0003770043499
0.0004020661257
0.0004230167348
0.0004390661087
0.0004493537918
0.0004520855766
0.0004443127865
0.0004165333138
0.0003487788115
0.0002748390509
0.000255101326
0.0002547544547
0.0002565895417
0.0002604104027
0.0002706570514
0.0002880608485
0.0003072631681
0.0003245032436
0.0003371509775
0.0003454683076
0.0003532694325
0.0003644732663
0.0003713166733
0.0003580566229
0.0003397606887
0.0003273286626
0.0001685634579
0.0002080210495
0.0002296538379
0.0002518986047
0.0002776845074
0.0003063465483
0.0003355081651
0.0003632738655
0.000389087419
0.0004115590456
0.0004289710859
0.0004400803717
0.0004430633905
0.0004347142672
0.0004042783982
0.0003308646795
0.0002681904004
0.0002509159138
0.0002504382073
0.0002545964887
0.0002645231847
0.0002822354158
0.0003044697748
0.000325025469
0.0003415922752
0.0003510099833
0.0003508601255
0.0003419221883
0.0003418151615
0.0003467975032
0.0003311205135
0.000318893044
0.0003142527566
0.0001652471267
0.0002051743844
0.0002255340178
0.0002452500716
0.0002684363663
0.000295563555
0.0003244475248
0.0003526624108
0.0003792128306
0.0004033780117
0.0004222174447
0.0004342680469
0.000437695084
0.0004292352605
0.0003987068589
0.0003230206701
0.0002650387538
0.000248253698
0.0002481618404
0.00025503807
0.000269809485
0.0002919111222
0.0003161399951
0.0003366251419
0.0003531874592
0.0003623390776
0.0003601445933
0.0003389561437
0.0003230935615
0.0003219813564
0.0003056962967
0.0003011207121
0.0003066548475
0.00016406248
0.0002057734984
0.0002261503777
0.0002439536689
0.0002642839775
0.0002893025929
0.000317663563
0.0003465212717
0.0003741976123
0.0003996477986
0.0004194396662
0.0004320331788
0.0004356045215
0.0004269876287
0.0003971887194
0.0003223677761
0.0002642001552
0.0002472821055
0.0002478521831
0.000256346993
0.0002732200179
0.0002967142199
0.0003207529459
0.0003408442978
0.0003571926289
0.0003664192563
0.0003640372974
0.0003383807976
0.0003117283907
0.000300105379
0.0002845388464
0.0002924179033
0.0003215745623
0.0001645980786
0.0002083227029
0.0002294237917
0.0002458569953
0.0002627862274
0.0002840972895
0.0003103671294
0.0003390000768
0.000367365376
0.0003936642758
0.0004140446134
0.000426857601
0.0004302211432
0.0004209203509
0.0003904461948
0.0003182649228
0.0002627814703
0.0002479729816
0.0002493214015
0.0002573196374
0.0002729516447
0.0002946287052
0.0003178120673
0.0003375917509
0.0003534058488
0.0003622725476
0.0003593509057
0.0003330378537
0.0003025197336
0.0002814749115
0.0002695697189
0.0002925368914
0.0003448896734
0.0001653170669
0.0002103713732
0.0002323116488
0.0002481292661
0.0002619263697
0.0002780823801
0.0002995371359
0.000325484162
0.0003527801666
0.0003790320233
0.0003998089969
0.0004126781213
0.0004154925454
0.0004046716314
0.0003715219402
0.0003056047169
0.0002597296328
0.0002498989533
0.0002519141612
0.0002574132243
0.0002687676514
0.0002868406465
0.0003075990557
0.0003267129514
0.0003416998732
0.0003496905535
0.0003456853296
0.0003192564876
0.0002900819927
0.0002647981468
0.0002576584871
0.0002872884861
0.0003463338937
0.0001641828745
0.0002099506701
0.0002325834963
0.0002485082658
0.0002605488357
0.0002720722792
0.000286966491
0.0003070521868
0.0003306020016
0.0003541791285
0.0003744527517
0.000386996069
0.0003887427508
0.0003755035457
0.0003397402237
0.0002865282903
0.0002555523112
0.0002516059434
0.0002539117519
0.0002559690862
0.0002610366532
0.0002736146869
0.0002913484749
0.0003085247874
0.0003220480356
0.0003287625037
0.0003232873917
0.0002986197744
0.00027261185
0.0002489247063
0.0002455921011
0.0002714145273
0.0003220133389
0.0001593115485
0.0002057616534
0.000229003161
0.0002453269043
0.0002569435361
0.0002658801157
0.000275176349
0.0002878389039
0.0003046793382
0.0003234343656
0.0003401768357
0.0003505289272
0.0003505501384
0.0003357022696
0.0003028143692
0.0002657925216
0.0002498056175
0.0002502989016
0.0002524213119
0.0002515222111
0.0002506864819
0.0002569510771
0.000271129099
0.0002865638774
0.0002984629929
0.0003038121254
0.0002984128282
0.0002784793874
0.0002557990384
0.0002357500072
0.0002336004816
0.0002513252511
0.0002859274042
0.000149186841
0.0001968638587
0.0002209292867
0.000237585932
0.0002492802779
0.0002573429327
0.0002635476433
0.0002702263027
0.0002793337868
0.0002908664869
0.0003022486327
0.0003092076911
0.0003070744708
0.0002920221397
0.0002660215394
0.000245544117
0.000239953183
0.0002425195821
0.00024440986
0.0002427571842
0.0002404237531
0.0002443207799
0.0002562643769
0.000270304996
0.0002818726792
0.0002887088316
0.0002889997762
0.000283717099
0.000259642073
0.000236710597
0.000226770648
0.0002330798372
0.0002522638454
0.0001324493085
0.0001813380891
0.0002067461887
0.0002237362046
0.0002353391579
0.0002430073348
0.000247886566
0.0002512886337
0.0002546607281
0.0002589019225
0.0002633444396
0.0002653236317
0.0002610567874
0.0002483443477
0.0002318861918
0.0002227490459
0.0002217819019
0.000224993271
0.0002281295201
0.0002302902137
0.0002342655275
0.0002435487566
0.0002571859616
0.000271333875
0.0002840053461
0.0002948227446
0.0003039501503
0.0003106709105
0.0002859841298
0.0002590130354
0.0002363810319
0.0002237096838
0.0002256181336
0.0001116030891
0.0001550810529
0.0001807545977
0.0001977815927
0.0002085976964
0.0002150374073
0.0002183893273
0.000219611546
0.0002195307969
0.0002187873083
0.0002174844246
0.0002147671824
0.0002090280361
0.0001997577638
0.0001904505624
0.000186167009
0.0001871452863
0.0001927782039
0.0002014603534
0.0002124664563
0.0002255385934
0.0002395667848
0.0002530130127
0.0002650764591
0.0002757869283
0.0002854684649
0.0002944804825
0.0003027115588
0.0002870426802
0.0002687154352
0.00024783389
0.0002246658034
0.0002041590107
0.000489753862
0.001271071724
0.001394437771
0.001304305551
0.001121194498
0.0009458358151
0.000839993667
0.0007082052183
0.0005601634486
0.000466438774
0.0004486511713
0.0004710551294
0.0005006684892
0.0005447515439
0.0005923753582
0.0006446186251
0.0007017135591
0.0007736289128
0.0008825950348
0.001035413818
0.00121490653
0.00139132033
0.001513817486
0.001613300574
0.001716777522
0.001818273553
0.001850105701
0.001789781892
0.0004086134887
0.001246007101
0.001405796423
0.001353445886
0.00115374203
0.0008571727706
0.0007298853177
0.000697431378
0.0007273040202
0.0006531541223
0.0005789796968
0.0005679893764
0.0005936386654
0.0006500969492
0.0007036419129
0.000757844175
0.0008199397658
0.0008965334806
0.0009974478171
0.00112252247
0.001297286941
0.001533148776
0.001522145753
0.001606547526
0.001725948394
0.001829441461
0.001873500815
0.001811692916
0.001689147705
0.001547424496
0.001385620121
0.001201044358
0.0003623497858
0.0011365041
0.001313344225
0.001259637679
0.001083918328
0.0008336490073
0.0006783420671
0.0008191076019
0.0009756106888
0.0009074840652
0.0007509202772
0.0006735922575
0.0006832722535
0.0007458899785
0.0008002992116
0.0008546629696
0.0009260983652
0.00101092779
0.001096853497
0.001178424548
0.001268526337
0.001404314661
0.001447500648
0.001558393535
0.001684831535
0.00181809
0.001899754551
0.00180639783
0.001639724874
0.001470129195
0.001263286279
0.001063598145
0.0003279361286
0.001004152239
0.001202670816
0.00122854613
0.001151524248
0.001006266892
0.0008240611463
0.00104681755
0.001197414335
0.00110045199
0.0008995189657
0.0007678997024
0.0007662843676
0.0008356353952
0.0008981655356
0.0009563351396
0.001024667013
0.001102537788
0.001178030859
0.001233029333
0.001276292885
0.001311249245
0.001338388991
0.001397660693
0.001505745638
0.001662684757
0.001785142514
0.001638940068
0.001447469073
0.001303968656
0.001133438344
0.0009762141103
0.0008374729155
0.0003012610126
0.0007911576057
0.001074445501
0.001237304608
0.001174655776
0.0009556148292
0.0008630472195
0.001043981328
0.001154149972
0.001091675184
0.0009150809437
0.0008156651701
0.0008325992658
0.0009049982339
0.0009732035454
0.001032444847
0.001088258192
0.001159764508
0.001245072213
0.001262705902
0.001297612325
0.001329875912
0.001344652087
0.00134717288
0.001357351636
0.001387958198
0.001434316738
0.00137790116
0.001333525441
0.001374038689
0.001253193798
0.001048640734
0.0008849364993
0.0002833117329
0.0008223823556
0.001176501858
0.0013237912
0.001197239626
0.0008012954441
0.0006349373546
0.0008205128805
0.0009459030805
0.0009235183029
0.0008655782631
0.00085241289
0.0008966871138
0.0009663153882
0.001032046163
0.001080223025
0.001126867659
0.001179241589
0.001234913679
0.001271085654
0.001311097158
0.001345633423
0.001372422541
0.001393287582
0.00140989668
0.001417467381
0.001406064734
0.001368820621
0.001373181803
0.001512494616
0.001425960368
0.001172219453
0.0009620009682
0.0002757507473
0.0009909838613
0.001501274534
0.001675008652
0.001425002653
0.0007246129329
0.000465052726
0.0005541483432
0.000718666297
0.0008328713041
0.0008869896343
0.0009206564761
0.0009656908341
0.001027024169
0.001085458398
0.001121425869
0.001159391095
0.001201551411
0.001244619937
0.001285739538
0.001324219989
0.00135747549
0.001383506559
0.001402263266
0.001414030192
0.001417957492
0.001415358462
0.001403504245
0.001392573735
0.001461106701
0.001417259905
0.001161416495
0.001034150735
0.0003026174746
0.00123216124
0.00177330065
0.001913396364
0.001679258719
0.0008567977213
0.0005218004603
0.0006522604263
0.0008440342538
0.0009746228257
0.001024052477
0.00103329061
0.00104709297
0.001087929971
0.001133508265
0.001158898767
0.00118934298
0.001225388821
0.001263355133
0.00130075384
0.001335549065
0.001365760437
0.001388847656
0.001404324656
0.001413291442
0.001417912795
0.001421151856
0.001414858458
0.00138052502
0.0013723819
0.001363401719
0.001245275017
0.001171532723
0.0002674856757
0.000890400348
0.001431487847
0.001566890089
0.001135801328
0.0006349312967
0.00074333007
0.000934262764
0.001070793321
0.001143665644
0.001170379071
0.001163213805
0.001138074546
0.001150730335
0.00117891932
0.001193201032
0.001215976309
0.001246583931
0.001280294136
0.001313956939
0.001345671018
0.001373938461
0.001390377808
0.001401701164
0.00141007942
0.00141924986
0.001430247371
0.001425177611
0.001388690646
0.001355473925
0.001348865974
0.0013227548
0.001315899574
0.0002478366928
0.0005789711199
0.0007822458054
0.0008001232389
0.0007478164958
0.0008490960929
0.001051188973
0.001164006564
0.001240677343
0.001280177905
0.001286424463
0.001267780482
0.001230713115
0.001217682966
0.001223606882
0.001225037277
0.001238530131
0.001262544074
0.001291063372
0.001319665195
0.001345538914
0.001366930571
0.001381118343
0.001390994331
0.001401010437
0.001416267666
0.001432823982
0.001422709568
0.00138140573
0.001355750661
0.00137343449
0.001400322408
0.001433588899
0.0002345319855
0.0004546206907
0.0005785747323
0.0007987520591
0.001036650808
0.001187296522
0.001282413955
0.001342226513
0.001377463919
0.001391082949
0.001383170137
0.001357252329
0.001314365824
0.001287349269
0.001271105995
0.001256754205
0.001257529141
0.001272194847
0.001293889599
0.001316713461
0.001336824345
0.001352115396
0.00136161624
0.001368411775
0.001378661546
0.001396986307
0.001412162119
0.001395404227
0.00136373509
0.001366180291
0.001415785455
0.00147802849
0.001540445773
0.0002315082994
0.0004658687108
0.0007270438241
0.001026037959
0.001222064641
0.001350757494
0.001416043058
0.001451538271
0.001476739061
0.001490586255
0.001478412685
0.00144764365
0.001404420903
0.001369726972
0.001328924178
0.00129418357
0.001276393841
0.001276575372
0.001287888894
0.001302692486
0.001315678201
0.001323733444
0.001326368988
0.001326413527
0.001329569478
0.001339502018
0.001347024825
0.001336522216
0.001336349457
0.001371024195
0.001448434572
0.001537204445
0.001625388599
0.0002368677547
0.0005269586672
0.0008525296345
0.001106994083
0.001283044623
0.00138761286
0.00144442166
0.001486817436
0.001540680279
0.001566627656
0.001579203156
0.001540669893
0.001503028467
0.001451657552
0.001394971629
0.001340357883
0.001300517409
0.001280878667
0.001278042891
0.001284506979
0.001291588586
0.001293120355
0.001287334698
0.001276820768
0.001267540159
0.001266933731
0.001274122216
0.001284791185
0.0013128265
0.001364988326
0.001448938251
0.001559703096
0.001684952934
0.0002347297001
0.0005389305112
0.0008514997373
0.001062430721
0.001210732072
0.001301469424
0.001359716378
0.001492615835
0.001838644231
0.002118035814
0.001867735797
0.001695655356
0.001588210699
0.001520919517
0.001459170447
0.001389105976
0.001331199297
0.001292554952
0.001276015249
0.001275916941
0.001281130646
0.001281797995
0.001272728211
0.001253729191
0.001229616914
0.001213045493
0.001220293505
0.001253045276
0.001298716423
0.001354576798
0.001437160367
0.001544486669
0.001696573235
0.0002216254108
0.0004889123693
0.0007597125944
0.0009469768764
0.00106058933
0.001135740874
0.001262724746
0.001727766585
0.002571272759
0.002883982428
0.002394906589
0.001843424912
0.001654454075
0.001565523049
0.001507640843
0.00143190609
0.00136731928
0.001316570724
0.001286058471
0.001277484053
0.001280558756
0.001281645808
0.001271076432
0.001246395205
0.001214134758
0.001191857896
0.001201342297
0.001242523016
0.00129225357
0.001346612838
0.001419349591
0.001519230296
0.001667379183
0.0002044748296
0.0004313151667
0.0006292834908
0.0007919330812
0.0009013840963
0.001004991323
0.001164560123
0.001550395516
0.002780410312
0.002840894759
0.002555359391
0.001823437239
0.001662248535
0.001578039106
0.001521330721
0.00146019575
0.001396505614
0.001339024449
0.001298792025
0.001282414019
0.001282101918
0.001281660999
0.001268001351
0.001238676563
0.001205512489
0.001186478198
0.00119786729
0.001237316063
0.001282876639
0.001332259461
0.001394109034
0.001480038157
0.001609708128
0.0001900104234
0.0004064296952
0.0005561398727
0.0006921859415
0.0008181398873
0.0009608334519
0.001139106877
0.001344192907
0.001720894809
0.002203946807
0.001863128846
0.001708828137
0.001646850474
0.001594335161
0.001537161599
0.00147545767
0.001412273696
0.001352147765
0.001306808867
0.001284540763
0.001278948151
0.001271698515
0.001248317224
0.001212865398
0.001191239271
0.001187070188
0.001201927132
0.001232690255
0.001267118699
0.001307581254
0.001358848528
0.00142987477
0.001536222271
0.0001807898702
0.0004094021039
0.0005389685956
0.0006570455473
0.0007889558878
0.0009533624378
0.00114155167
0.001303235135
0.001464043833
0.001607831487
0.001667918737
0.001665791903
0.001652503251
0.001614399154
0.001553340736
0.001479489439
0.001399481599
0.001347021433
0.001305351041
0.0012801962
0.001267481487
0.00124764476
0.001204195666
0.001171903609
0.001178317926
0.001195198801
0.001213397439
0.001230174339
0.001245464346
0.001271521825
0.001312557904
0.001372216088
0.00145858613
0.0001756603974
0.0004224688124
0.0005449148798
0.0006485068687
0.0007700434883
0.0009304914703
0.001119031145
0.001277008655
0.00141796224
0.00153444373
0.00161903718
0.001657955295
0.0016626497
0.001629742347
0.001564062115
0.00147399975
0.001356191558
0.001310600602
0.001291236078
0.001266641033
0.00124669535
0.001217872927
0.001180181838
0.001166117932
0.001178746277
0.001206897544
0.001227783705
0.001229416751
0.001218442585
0.001223222269
0.001253159673
0.00130360332
0.001364455189
0.0001724775006
0.0004327614602
0.0005518163107
0.0006431366153
0.0007438713457
0.0008798708911
0.001056257254
0.001237338545
0.001385309063
0.001510354133
0.001602938531
0.001656718719
0.00166820604
0.001636353326
0.001566438194
0.001462078063
0.001307630033
0.001258173469
0.001255680852
0.00123707476
0.001212928535
0.001185201604
0.001160265325
0.001153127031
0.001175472548
0.001210994565
0.001234716891
0.001223854483
0.001182160681
0.001158297515
0.001172471572
0.001204466957
0.001265100513
0.0001699055649
0.0004374886121
0.000556615476
0.0006415653126
0.0007238764355
0.0008311914359
0.0009831275365
0.001171535127
0.001348697242
0.001487063076
0.001588761425
0.001649338515
0.001663642667
0.001630681964
0.001555428485
0.001440088337
0.001258953274
0.00119762733
0.001188414068
0.001173016911
0.00115906602
0.001147599712
0.001137314674
0.001137770656
0.001168711901
0.001206243452
0.001227734137
0.001204573039
0.001126970012
0.001067304336
0.001053360786
0.001079612929
0.001186786643
0.0001675925328
0.000441107152
0.0005676086424
0.0006554809103
0.0007293010141
0.0008162598238
0.0009447963067
0.001122154356
0.001312645208
0.001458436459
0.001565241964
0.001629182049
0.001644514636
0.001609394397
0.001527979157
0.001403927772
0.001208763984
0.001141986794
0.001120282108
0.001100106333
0.001099229858
0.001110199349
0.001120895662
0.001121856616
0.001157859984
0.001192996973
0.00120613111
0.001166331814
0.001035337287
0.0009400827642
0.0009180852688
0.0009830307829
0.001164568432
0.0001655370183
0.0004461715489
0.0005895543942
0.000690199234
0.0007642137512
0.0008375739666
0.0009446395781
0.001102109185
0.001280060134
0.001420630906
0.001527238205
0.001592087016
0.001607486592
0.001570072872
0.001483030099
0.001352173755
0.001159351494
0.00109657671
0.001069266539
0.001043233923
0.001043414015
0.001077758285
0.00108940509
0.001093500378
0.001133017904
0.00116478588
0.00116737135
0.001109507679
0.0009381898022
0.0008130423767
0.0008075369262
0.0009141754746
0.001184368318
0.0001634346219
0.0004478716179
0.0006142629487
0.0007360704292
0.0008173612187
0.0008799034531
0.0009615730885
0.00108920139
0.001243589947
0.001367509582
0.001468260961
0.001531066664
0.001545183941
0.001505183383
0.001412857747
0.001272076623
0.001110235025
0.001063506819
0.001038377022
0.001004501891
0.000983813718
0.001001794682
0.001023044091
0.001040781454
0.001083508918
0.001112516766
0.001105232744
0.001032379905
0.0008470337071
0.0007179736221
0.0007282584373
0.0008594206014
0.001194730605
0.0001605443562
0.0004376349065
0.0006240988268
0.0007708610468
0.0008667400432
0.0009241426038
0.0009785153981
0.001065317374
0.001188786663
0.00129223038
0.001379857764
0.001435435905
0.001445500265
0.001402509522
0.001307574821
0.001163597351
0.001060111322
0.00103915492
0.001021139567
0.000978225621
0.00093038593
0.0009157509272
0.0009402426678
0.0009650305134
0.001005274239
0.001031899236
0.001016670835
0.0009372039102
0.0007612990922
0.0006567013322
0.0006781233743
0.0008013760798
0.001113359082
0.0001557422832
0.0004094303843
0.0006023977535
0.0007691958844
0.0008843412257
0.0009471174718
0.000983304386
0.001028073713
0.00110436317
0.001197335652
0.001260124171
0.001299859131
0.001301653128
0.001256269583
0.00117053084
0.001047295388
0.001003972111
0.001007471954
0.0009963283609
0.0009443384252
0.0008695259866
0.0008161506764
0.0008199794171
0.0008653422496
0.0009162600836
0.000941353746
0.0009211511816
0.0008172496574
0.0006916885324
0.0006235656517
0.0006468264517
0.0007390749216
0.0009482078384
0.000147673617
0.0003628442087
0.0005416404295
0.0007130732484
0.0008437036021
0.0009202851095
0.0009550062096
0.0009734363932
0.001001308002
0.001048970487
0.001102072904
0.001138245071
0.001131115071
0.001073651986
0.0009874080692
0.0009246775596
0.0009229350456
0.0009392029112
0.0009317098475
0.000877061996
0.0007915416627
0.000720423145
0.0007065656746
0.0007505205287
0.0008164987448
0.0008575234706
0.0008380494789
0.0007524635627
0.0006678240295
0.0006135497749
0.0006208826842
0.0006758948653
0.0007806891144
0.0001354098782
0.0003048578183
0.000448495873
0.0006005192452
0.0007302560911
0.0008174758906
0.0008622362848
0.0008773258994
0.0008806073539
0.0008864160214
0.0008975531674
0.0009039755905
0.0008899160984
0.0008501407332
0.0008039100744
0.0007823273805
0.0007915446127