/*--------------------------------*- C++ -*----------------------------------*\
  =========                 |
  \\      /  F ield         | OpenFOAM: The Open Source CFD Toolbox
   \\    /   O peration     | Website:  https://openfoam.org
    \\  /    A nd           | Version:  8
     \\/     M anipulation  |
\*---------------------------------------------------------------------------*/
FoamFile
{
    version     2.0;
    format      ascii;
    class       volScalarField;
    location    "1.4";
    object      epsilon;
}
// * * * * * * * * * * * * * * * * * * * * * * * * * * * * * * * * * * * * * //

dimensions      [0 2 -3 0 0 0 0];

internalField   nonuniform List<scalar> 
67286
(
6.043555156
6.548602904
5.639720784
4.204647727
2.734646951
1.739263022
1.564624005
1.090114765
0.826254059
0.490443377
0.27823882
0.2405992026
0.2451650114
0.2551103982
0.2660315088
0.279780092
0.2991418159
0.3274534128
0.3698877505
0.4338349844
0.5281521836
0.6339237319
0.7367498815
0.9174040792
1.066773304
1.229868366
1.394929411
1.248049536
4.052490142
4.333179312
3.508768054
2.520017639
1.631513462
1.086714473
0.8982541857
0.8236603602
0.9904512724
0.7021544346
0.3735509901
0.2771121054
0.2748296992
0.2868001145
0.2998618801
0.3150495986
0.3343304562
0.3582053878
0.3877234761
0.4268934034
0.487704039
0.600578052
0.7161557765
0.9272111306
1.181370625
1.409309238
1.537055576
1.37966134
1.188250386
0.989403308
0.7962232001
0.6260872989
3.241450904
3.123608127
2.324051463
1.534269951
1.081393099
0.8149372061
0.7534745461
1.084167024
1.471020227
1.070366943
0.4951569761
0.3141346068
0.3014674989
0.3147612828
0.3298972256
0.3469076987
0.3671081605
0.3883693912
0.4076581767
0.4240303174
0.4443161343
0.4825544014
0.5613705907
0.7325329694
1.020291333
1.339074231
1.515578193
1.180226525
0.9355762323
0.7372718141
0.5837722131
0.4765607578
2.622482964
2.197002742
1.465280447
1.114710132
0.9646937326
0.8809517301
1.086403059
1.635949701
1.950178351
1.395495495
0.5834026359
0.3463161571
0.3261242667
0.3400460192
0.3577777828
0.3776941754
0.4000448124
0.4218586978
0.4388277611
0.4411767935
0.4396738774
0.4388971533
0.4461356368
0.4717675634
0.5311403617
0.6695258143
0.8303732631
0.6639692361
0.5550437243
0.4849844369
0.4318929483
0.3859833593
0.3575353096
1.987861978
1.478864709
1.065053432
1.196299831
1.031351905
1.028049965
1.359994705
1.805403497
1.821939166
1.167043508
0.5462343693
0.3695431837
0.3509567404
0.3636419003
0.3839811448
0.4086832354
0.4369737437
0.464253621
0.4924696678
0.4847505925
0.4823342025
0.4750231883
0.4659217843
0.4587071672
0.4516838921
0.4532275798
0.4643513344
0.4510611765
0.4355336729
0.4404202316
0.4684370398
0.4143721806
0.4072347915
1.371960104
1.066894945
1.26911176
1.697994244
1.193842203
0.8387904875
0.6909595928
0.8606056071
0.8222740443
0.5824718212
0.4600702407
0.4008841853
0.3794236009
0.3867436006
0.4088424562
0.4400209572
0.4715234589
0.4981968113
0.5191089779
0.5328015783
0.5428572912
0.5485244701
0.5472048663
0.534411447
0.5095740611
0.4905109276
0.4841597386
0.467014304
0.4602876175
0.5302445273
0.690824645
0.530484083
0.5156445076
0.9756578584
1.137233959
1.983917425
3.451997438
1.533812857
0.7274954938
0.5088895092
0.5826108687
0.6334471681
0.6224358772
0.5543650753
0.4675582573
0.4131545152
0.4086994493
0.4300293714
0.4654953173
0.4996437345
0.5294904753
0.5541967442
0.5739339518
0.5897100544
0.601311451
0.6067343711
0.6027782457
0.588529546
0.5728913514
0.5570976387
0.5265716124
0.5199179788
0.5730947887
0.598783347
0.5995602245
0.6599344529
1.100585306
2.297071802
5.201039797
7.58799712
4.361955987
1.285998859
0.6875247466
0.7898198134
0.8504463431
0.833943163
0.721380232
0.5609149068
0.4525635072
0.4296135385
0.4470374737
0.4828344247
0.5188474946
0.5519407527
0.5803250734
0.6033613558
0.6211208791
0.6335084796
0.6397226927
0.6395447477
0.6339706849
0.6233046982
0.6072406496
0.5891283664
0.6130960028
0.7115062275
0.7935627423
0.7681624668
0.8556304414
0.9836955834
1.694743794
3.617723259
5.783702693
1.161241988
0.8959283841
0.9906447357
1.088298179
1.150424483
1.115956749
0.939252053
0.6736297276
0.4965406799
0.451073072
0.4615479589
0.4945027653
0.5305784565
0.56577387
0.5972723258
0.6233756942
0.643395895
0.6571366709
0.663416102
0.6644562017
0.6620856433
0.6557423349
0.6450721024
0.6655706237
0.7679358223
0.9238766462
0.9182941591
0.9678304684
1.099417445
0.7709780635
0.9812918903
1.524863912
2.02637894
1.231817234
1.275165482
1.339190404
1.40966867
1.447880483
1.374062987
1.135216515
0.7812034095
0.5406954153
0.4761498126
0.4782815097
0.5059311396
0.539328538
0.5737836345
0.6059490995
0.6332468853
0.6540945648
0.6680492419
0.6756236948
0.6793239696
0.6819834735
0.6838527186
0.694981764
0.8024685516
1.007575247
1.19260766
1.183259022
1.209568555
1.367646831
0.6615440192
0.8028405592
1.121589183
1.481546652
1.745734487
1.800394573
1.749633893
1.683170279
1.625294333
1.47778233
1.188103655
0.8164237997
0.5857010404
0.5128307829
0.504167549
0.5236203041
0.551537182
0.5818906675
0.6112961569
0.6370688198
0.6573895869
0.671723103
0.6815448271
0.6909730054
0.7043573701
0.7267745661
0.7992322612
1.033245179
1.311593048
1.490429183
1.481343371
1.456825752
1.628127534
0.711128489
1.07551172
1.580723416
2.05674742
2.422166774
2.353687383
2.023380959
1.715504408
1.521152401
1.31336231
1.048780226
0.8091339765
0.6698368796
0.5868696277
0.552442961
0.5550187813
0.5725951625
0.5948112752
0.6178740231
0.6393968644
0.6582524682
0.6744576952
0.690585415
0.7116911495
0.7449742703
0.811719996
0.9862509316
1.324256115
1.630759051
1.800653403
1.781361185
1.680773328
1.822848545
0.8619590469
1.335306955
1.860832397
2.290825656
2.450236233
2.168899614
1.622404091
1.275168597
1.195939864
1.335598575
1.044240897
0.9919057285
0.8947909846
0.7589279726
0.6526641297
0.6158043241
0.6133571326
0.6215105726
0.6347664534
0.6499831956
0.6689228939
0.6941327475
0.7276157286
0.7730653106
0.8414640697
0.9660667976
1.22412339
1.597277029
1.903332575
2.06284987
2.046150533
1.856879057
1.889851591
0.8579899314
1.27870507
1.699114265
1.972905407
1.95041098
1.586556465
1.175671987
1.154304882
1.946234112
4.03547204
1.677830055
1.471866553
1.329640794
1.090968866
0.8443496725
0.7159793281
0.6759146425
0.6593482385
0.6512206713
0.6506818035
0.6590777285
0.6819614837
0.7275705465
0.809179537
0.9530947016
1.189661904
1.510103198
1.840325738
2.098584293
2.233776969
2.229380633
2.020433385
1.835171236
0.7116008038
1.037143597
1.337122815
1.465513473
1.366849979
1.16597586
1.301126222
2.870794151
9.078502348
18.74064457
4.443188667
2.103098681
1.899057439
1.598887913
1.179697167
0.8310723658
0.6942572465
0.6583064341
0.6450123784
0.6377662125
0.6367828297
0.6538627824
0.7096288296
0.8251890773
1.015451648
1.276703414
1.581311759
1.888165954
2.135193216
2.25956264
2.231645968
1.993632634
1.751440148
0.5247053821
0.7552192138
0.9754047766
1.059917038
1.023824958
1.009949823
1.323392289
2.814338148
8.990541917
14.15629403
4.217249214
2.533006511
2.484759769
2.269014446
1.768149014
1.058479215
0.6911323812
0.6362987725
0.6256564
0.6156203297
0.6047930282
0.609869027
0.6643639086
0.7975250317
1.011500871
1.280224267
1.572735564
1.864083442
2.101905458
2.220560521
2.165469559
1.906981447
1.615139756
0.3726646028
0.5259733716
0.6992931753
0.8048045962
0.8779544685
1.011597413
1.286326924
1.808961173
3.152040255
5.267231491
2.783972194
2.678085565
2.718508297
2.569132981
2.14960212
1.323758056
0.6815354582
0.5932668199
0.5936038201
0.5855271147
0.567084709
0.5584602801
0.6016501907
0.7314720004
0.9451899213
1.213803668
1.49778063
1.77330407
1.999604561
2.112919558
2.031202654
1.766832314
1.46116563
0.2801134867
0.3864447997
0.5315766746
0.6689430548
0.8262408255
1.046278624
1.34130021
1.698831256
2.149847721
2.742122138
2.623779595
2.756512569
2.811513216
2.686872741
2.301358217
1.450733828
0.6684392231
0.5432989813
0.5532838506
0.5496532692
0.5297553945
0.5182413162
0.5611009798
0.6743854006
0.8569571685
1.103391885
1.371680946
1.627445874
1.836867471
1.942130874
1.835737241
1.578777166
1.298831079
0.231610046
0.3162322623
0.4401209114
0.5866018586
0.7759375345
1.022864478
1.321483362
1.65442697
1.993850961
2.324341632
2.553812709
2.724547255
2.776677365
2.651776212
2.249522608
1.395078578
0.6406880687
0.5041609349
0.5099569452
0.5125881408
0.5048486219
0.5173590034
0.5831704491
0.6973943698
0.8534688039
1.036453023
1.236629576
1.442960693
1.625962022
1.720176631
1.589925234
1.352412785
1.142012814
0.2046009283
0.2791710178
0.3834853674
0.5156974656
0.6961657544
0.9321631667
1.214491131
1.527999684
1.855013958
2.161864552
2.41917215
2.594439758
2.642831886
2.509126398
2.066080538
1.211641138
0.5924693431
0.473741936
0.4718560885
0.482153002
0.5040978885
0.5662093997
0.6830184078
0.8293570332
0.9770846422
1.095543427
1.177759713
1.258402094
1.382134322
1.461896172
1.309875914
1.118995297
1.000923908
0.1870350385
0.2565922026
0.3450326932
0.454945013
0.6091555055
0.8180565016
1.075309301
1.366106524
1.67994536
1.989884251
2.254934478
2.436064101
2.486906902
2.34935274
1.888668032
1.033903486
0.5504671205
0.4508412068
0.448286333
0.4710219844
0.5284621838
0.6422149813
0.8068393249
0.9821229005
1.140432663
1.237457876
1.235284279
1.141557948
1.139433066
1.190170922
1.035233663
0.9249384218
0.8856265202
0.1762254886
0.2462841928
0.3269811032
0.4201116012
0.5504984254
0.7347650452
0.9724437462
1.249870952
1.555245697
1.873590922
2.150245723
2.341126315
2.398082719
2.262303509
1.812859105
0.962983355
0.5315139045
0.4367094854
0.4362014796
0.4734876008
0.5608060762
0.7105417034
0.903129105
1.090988818
1.260492806
1.361329358
1.336634951
1.113109066
0.9625626286
0.9521375492
0.8142403087
0.7786872086
0.8230217826
0.1724816358
0.2485351013
0.3298857596
0.4138363361
0.5257395272
0.6893879749
0.9130057284
1.186073206
1.494862345
1.822709255
2.108800598
2.305968478
2.364744051
2.227871404
1.793422076
0.9580667435
0.5266968993
0.4316905506
0.4346376203
0.4808200266
0.5822163899
0.7456772085
0.9428923011
1.132149224
1.303440751
1.407405267
1.380142111
1.107861538
0.8649746521
0.7708271462
0.656593055
0.7134174761
0.9505307055
0.1741998522
0.257954825
0.3445955523
0.4239371407
0.5172776715
0.6531499855
0.8515941601
1.110405313
1.414318537
1.741917378
2.028355784
2.224005869
2.278103066
2.134211723
1.703587374
0.9219114637
0.5182830172
0.4354268889
0.4425445338
0.4863682203
0.580433547
0.7300851214
0.9168719778
1.099563065
1.261830906
1.359482266
1.326831203
1.055876031
0.7906480923
0.6359797944
0.5584338066
0.7143060677
1.172754799
0.1765029759
0.2656687984
0.3578620374
0.4360402322
0.5126295688
0.6129222734
0.7655680897
0.9824156582
1.25176961
1.553822367
1.825194061
2.008598966
2.051031349
1.895475581
1.466617238
0.8155796017
0.5003578101
0.4457606984
0.4566606827
0.4870106562
0.5540346427
0.6734899348
0.8308278243
0.9960266332
1.139838429
1.221904636
1.180309262
0.9294727694
0.6967798339
0.5294700192
0.4876347129
0.6757396897
1.184943731
0.1728766753
0.2640660198
0.3591267811
0.4381402705
0.5048812408
0.5744997612
0.6735028867
0.8246434624
1.029531576
1.266679831
1.498100097
1.655011376
1.678443469
1.513083655
1.120230075
0.6715856482
0.4765308254
0.4550095466
0.4677180522
0.4789836944
0.5075347255
0.5842050255
0.7055112811
0.8381905019
0.9535704306
1.014627141
0.9646340941
0.7599334909
0.577920046
0.439816291
0.4223264449
0.569284602
0.9500395285
0.1578924501
0.2485270852
0.3427523041
0.4215155319
0.4843243727
0.5365010015
0.594347145
0.6796439785
0.8056820158
0.9639826477
1.122233835
1.228689728
1.229553768
1.080017475
0.7923267162
0.5357663521
0.4450270365
0.4478892766
0.4594946312
0.4544936532
0.4495590796
0.4836771057
0.5682436725
0.6712123263
0.7586212351
0.8002949258
0.7582982351
0.6162944322
0.4774721212
0.3737362462
0.3635669442
0.4521574045
0.6644937274
0.1295904641
0.2175838392
0.3076912103
0.3827948984
0.4422491239
0.4865832305
0.5224816662
0.5628464146
0.6212182577
0.701073511
0.7867027699
0.8426733695
0.8257335229
0.7102792473
0.5368413238
0.4223133442
0.394300118
0.4072351557
0.416945581
0.4085387809
0.396675501
0.4160476776
0.4801011363
0.5636130506
0.6393633979
0.6872979952
0.6897381825
0.6533431504
0.5004075405
0.3789488097
0.3329199556
0.3610182566
0.4568567235
0.09061684934
0.1699574088
0.2520582061
0.3195934945
0.3720521393
0.4096911967
0.4348668502
0.4528985054
0.4711283649
0.4947639192
0.5204786999
0.5323112472
0.5071855413
0.4367525891
0.3555729986
0.3152402641
0.3111882493
0.3249652329
0.3388399106
0.3486414593
0.3670742363
0.4125745527
0.486019145
0.5709449627
0.6549963057
0.7330948971
0.8038599438
0.859029406
0.6697553114
0.4972905304
0.3776411046
0.3196542535
0.3273888478
0.05985753398
0.1210922188
0.1919156243
0.2516023851
0.2953194333
0.3236172316
0.3390347879
0.3447528143
0.3443072075
0.3407080593
0.3345428331
0.3221049047
0.2969915179
0.2592460859
0.2246557825
0.2097778393
0.2130434635
0.2328752456
0.2658717461
0.3120309465
0.3734542222
0.4478036997
0.527752041
0.6071259682
0.6839801669
0.7588606628
0.8333653732
0.9056132304
0.7719281519
0.6330994927
0.496412382
0.3694608779
0.2768778015
6.189720274
3.823916598
2.577487266
1.794229813
1.327237627
1.070687105
0.9881893876
0.8176392953
0.5589009854
0.3692091305
0.2556816017
0.2202805617
0.2136320697
0.2152884807
0.2190575862
0.2252011424
0.2352885454
0.2504523889
0.272456388
0.3039198983
0.349919906
0.411761999
0.4694830069
0.5045992546
0.5492535089
0.5954139764
0.5781959353
0.562734641
3.580967003
2.569155716
1.996352458
1.534414467
1.160720022
0.8600224221
0.7459462751
0.7449729919
0.7205383492
0.5401905315
0.3541585723
0.2617850233
0.2391752643
0.2382820604
0.2411736813
0.2459108892
0.2543689769
0.2677616502
0.2880990261
0.3182626468
0.3674815318
0.4632649662
0.4633501433
0.5037551068
0.5665110946
0.6082480501
0.6035208549
0.5864924613
0.5400500993
0.4888922837
0.4348803739
0.381360081
2.494881509
1.850625233
1.650231205
1.338794918
1.022824693
0.8011380151
0.6882603153
0.881762012
1.018004417
0.7895241401
0.4930287693
0.3109865099
0.2629256976
0.2564172694
0.2569598466
0.2593360819
0.2659849576
0.2779119414
0.2963905836
0.3216401671
0.3560035323
0.411402251
0.432806811
0.4820307147
0.5476535956
0.6200010741
0.6394483987
0.6094579987
0.5278691625
0.4622984266
0.4071309876
0.357210811
1.845607437
1.509307307
1.291531534
1.108619742
0.9638989812
0.876389489
0.8027718932
1.157402119
1.275380318
1.029365188
0.620420119
0.3571407511
0.2844757561
0.2702604941
0.267288764
0.2674442429
0.2726225969
0.2832589892
0.3001628549
0.3196735073
0.3404189722
0.3646041358
0.3914598155
0.4275285021
0.4730571787
0.5337488193
0.5968577748
0.5194556014
0.4647039716
0.4278219804
0.3788041809
0.3365569562
0.3044603276
1.430715606
1.150653782
1.087164013
1.053673914
0.9484835282
0.8488675752
0.8347399843
1.118223489
1.213887758
1.001329218
0.6122918504
0.3730731831
0.3012242768
0.2822618923
0.2751377608
0.2735833489
0.2786270809
0.2903409463
0.3085126325
0.3182258654
0.3291599825
0.3433333629
0.3582740385
0.3779109624
0.401293829
0.4258746152
0.4508177566
0.4279935957
0.4304663628
0.4407984401
0.3906407829
0.3534055674
0.3303929676
1.190167038
1.050020539
1.103233819
1.207481374
1.055526786
0.7685492153
0.618105754
0.7737551823
0.8253160015
0.6887374842
0.483952835
0.3663064782
0.3156600987
0.2923767065
0.2814117135
0.2788944046
0.2825288534
0.2911367036
0.3042624423
0.3110381821
0.3223647475
0.3333829509
0.343903549
0.3552521754
0.3668717649
0.3759067536
0.3843190234
0.3877428166
0.4293339064
0.5034396502
0.4635908142
0.410203948
0.3894915863
1.09805033
1.197263963
1.759825426
2.387933685
1.894861266
0.8073521982
0.4653592426
0.5000844336
0.54498939
0.5219667297
0.4599620939
0.3961270364
0.3430584631
0.3084779228
0.2912795383
0.2864397635
0.2878241698
0.2931446512
0.301120438
0.3108187247
0.3216990177
0.3324584229
0.3424150937
0.3516210094
0.3597038299
0.3652241363
0.3720328586
0.3831504283
0.4130098073
0.4923783562
0.5175146307
0.4714899565
0.4626244488
1.448902628
1.952605968
3.429924842
4.110347105
4.072182925
1.450379485
0.5675901468
0.5724935701
0.5898037791
0.5769012675
0.5344341345
0.4651566412
0.3893270827
0.3341110257
0.3062887882
0.2972962977
0.2968605768
0.3008353832
0.3075765654
0.3164525429
0.3266854916
0.3372381602
0.3469631143
0.3548692583
0.3612032586
0.3677688449
0.3805707192
0.4066528912
0.4422502972
0.4981684313
0.5242922979
0.5457277294
0.5607098034
1.000440302
1.149750398
2.877327918
4.147952992
1.993064434
0.8228679848
0.6907655011
0.7161401009
0.729373563
0.715817405
0.6596127219
0.5635815693
0.4533930165
0.3691161944
0.3260331066
0.3109916184
0.3086460205
0.3119647396
0.3181369739
0.3261747292
0.3355576719
0.3457345126
0.3535355089
0.3605415263
0.3680944969
0.3804319325
0.4051311578
0.449678025
0.4962607862
0.5609538467
0.6168913355
0.6366395135
0.6757959047
0.7968393599
0.7228626453
1.128434595
1.214049266
0.9954698449
0.9310947938
0.9129514302
0.9080869355
0.8978388814
0.8676950303
0.7918649456
0.6682467673
0.5228006914
0.4082064085
0.3482287952
0.3258675786
0.3210508326
0.3236165435
0.3292449833
0.3363412469
0.3442378312
0.3524889108
0.3600400472
0.3681811066
0.3805211801
0.4050181407
0.450931423
0.519885186
0.588850096
0.6661907504
0.7252422603
0.768157828
0.8286989248
0.6752248276
0.6077208971
0.8459389353
1.156456823
1.242246947
1.284680793
1.216398981
1.123522822
1.043706094
0.9766102129
0.8806174043
0.7425568914
0.5782166727
0.4454527822
0.3718782107
0.3413383233
0.3325458406
0.3332139744
0.3376573136
0.3437159322
0.3505577017
0.3578388249
0.3655871305
0.3762876113
0.3975390562
0.4423882653
0.5192565587
0.6146853229
0.713670381
0.8076726813
0.8735374571
0.9200229771
0.9929954291
0.6491107224
0.6973794962
1.036406231
1.39524012
1.5310807
1.561013204
1.450728709
1.278250086
1.133152449
1.042101157
0.9208500798
0.783803872
0.6227643287
0.4900847523
0.4060713103
0.3627809487
0.3452061055
0.3410476172
0.3427296973
0.3468398957
0.3519232774
0.3572898861
0.3640516918
0.3784021146
0.4142179765
0.489106689
0.6053916469
0.7353413361
0.8662043207
0.9673795535
1.033001186
1.068281237
1.139260165
0.6947463234
0.8046332617
1.178916075
1.469797392
1.58714428
1.555388133
1.399508634
1.218280267
1.160810141
1.259688705
0.9797694216
0.8324951591
0.7015346438
0.582140865
0.4808728642
0.4083985123
0.367557228
0.3502508197
0.3459783253
0.3484356413
0.353542932
0.3590130633
0.3669547867
0.386970228
0.4356874881
0.5295851738
0.6699956131
0.8310465623
0.9767983839
1.064893793
1.13084413
1.163781725
1.238693057
0.6753620629
0.7836650139
1.096456594
1.294502023
1.352449633
1.300662328
1.228540844
1.399810507
2.458693479
4.034910884
1.996177505
1.127126167
0.9071857249
0.7857087975
0.65342764
0.5174933574
0.4190355058
0.3689955038
0.3518751513
0.3521354764
0.360653994
0.3729112617
0.3900772135
0.4212907828
0.4802773503
0.5772474977
0.7160871429
0.8843111502
1.025958186
1.093883019
1.154769445
1.180655196
1.27092793
0.5679452582
0.6445182743
0.8516719119
0.9659777722
0.9977816591
1.054228381
1.548152097
3.836609773
9.21729495
13.28895388
6.753759503
1.975672708
1.174001823
1.012820753
0.8665271415
0.6729932037
0.4995333095
0.3998514059
0.3621660572
0.3572928222
0.3686807878
0.388699194
0.4157623178
0.455461464
0.5177488762
0.6120894403
0.7473373178
0.914473249
1.051505919
1.111270925
1.159848514
1.171878191
1.246899123
0.4459856153
0.494545648
0.6333008569
0.7063494507
0.7408989953
0.798376848
1.081883262
2.488298826
9.558068003
9.705739486
6.379101816
1.752329339
1.283222115
1.151549655
1.013086137
0.8099008839
0.5800363503
0.4290793662
0.3706019793
0.3602687524
0.3731663572
0.3991591944
0.4344335155
0.4803708854
0.5426899934
0.630590817
0.7559337345
0.9129328837
1.043837228
1.099999466
1.130684869
1.119565885
1.160337552
0.3581101117
0.3864418933
0.4902933901
0.556347832
0.6072043713
0.6737203719
0.8171862641
1.260067503
2.724818319
5.062423518
2.353975143
1.413366759
1.305748418
1.232824598
1.10202772
0.8905111769
0.6284237397
0.4435624182
0.3726705264
0.3597752654
0.3741023076
0.4048223207
0.4477348594
0.5011331963
0.5655324365
0.6461561135
0.7528052186
0.8864502704
1.004147666
1.055669556
1.067198506
1.036155189
1.048077671
0.3087297595
0.3259416346
0.409768896
0.4777620352
0.5469132163
0.6289880129
0.7397239777
0.9230704161
1.273677846
1.83923123
1.424680473
1.332690286
1.326684632
1.270622007
1.136236373
0.9118009151
0.6337222991
0.4396067986
0.3678362725
0.3563605487
0.3731113107
0.4083938924
0.4594222286
0.5230720078
0.5959801822
0.6752693438
0.758409439
0.8522128017
0.9416101929
0.9826354017
0.9764919494
0.9369361734
0.9345507833
0.2833315603
0.296767108
0.3669076872
0.4330372849
0.5112199546
0.6034954349
0.7114763975
0.8491632213
1.016032251
1.20496042
1.253102672
1.306863029
1.322356209
1.26556694
1.121763165
0.8859990618
0.6063894925
0.4234628673
0.3585859382
0.3512372343
0.3714681965
0.4113019022
0.4690623397
0.5425942124
0.6297129407
0.7164183501
0.7827910222
0.8281187875
0.8690712293
0.8902733377
0.8692599776
0.8337960675
0.8327901848
0.268240512
0.2804666613
0.3406026378
0.4003121965
0.4785132906
0.5760566129
0.6883181723
0.8153324239
0.9579262047
1.100031094
1.210401092
1.287345059
1.303540744
1.238981361
1.084334001
0.8406973116
0.5673695511
0.4041593897
0.349326019
0.3465690299
0.3707059762
0.4149345529
0.4799144823
0.5645750465
0.6629688255
0.7557981111
0.8144687684
0.8202019875
0.7981091895
0.7890589031
0.7572587121
0.7375532218
0.7452960024
0.2564019708
0.2691338484
0.3235906882
0.3763435507
0.4492397195
0.5471917703
0.6659883536
0.7968872712
0.9372453211
1.077633181
1.198249642
1.278075876
1.290370251
1.216996444
1.052085083
0.802916368
0.5362233836
0.3893739259
0.3441422769
0.3460457525
0.3733669264
0.4213247758
0.495176047
0.5902726949
0.6955786957
0.7874907919
0.8374955294
0.8176416199
0.7354595756
0.6894372323
0.6544498778
0.6533344407
0.6803474648
0.2460399168
0.2636233101
0.3185303062
0.3672263755
0.4331369662
0.5260086492
0.6456559366
0.7820016647
0.9258480752
1.07106492
1.196352375
1.276707965
1.285671726
1.205672794
1.032315032
0.7793228591
0.5187384767
0.382317439
0.3439723431
0.3502559287
0.3801572704
0.4311573556
0.5130642181
0.614589235
0.7219463127
0.8085765668
0.8451601857
0.8049326119
0.6834357104
0.6052682956
0.5657984181
0.5815936911
0.6555587154
0.2370639789
0.2641430741
0.3254071509
0.3732612633
0.4312663733
0.5131570707
0.6239185797
0.7566453224
0.9022850443
1.051924892
1.180918791
1.262651181
1.270761375
1.187700866
1.009414988
0.7559763085
0.5068131769
0.3810603977
0.3492344335
0.3589146175
0.3898599788
0.44279441
0.5230136918
0.6264868179
0.7321378457
0.81089832
0.8319740553
0.7725964449
0.6333706384
0.5343330037
0.4907821297
0.5318138253
0.6829269129
0.2281173842
0.2659886037
0.3366302923
0.3861666284
0.4358060207
0.5015115922
0.5937339294
0.7112122042
0.8479137227
0.9966730311
1.126305686
1.209257493
1.218275062
1.135187941
0.9574052195
0.7141825944
0.4894348003
0.3830650629
0.359923153
0.3716108921
0.4005073457
0.443817385
0.5157048219
0.6184383381
0.7178149842
0.7852705721
0.790788923
0.7164335945
0.578750924
0.4716651385
0.4325283475
0.4986205379
0.7062918129
0.2162011439
0.2632193486
0.3427357633
0.3959847784
0.4392745561
0.4878112387
0.5556496932
0.6478170431
0.7612432792
0.8948635173
1.017060376
1.097381199
1.106623654
1.026232739
0.858485048
0.6458680149
0.4641870513
0.38778846
0.3753175385
0.3863975585
0.4083934415
0.4416830299
0.4964705924
0.585330732
0.6734501239
0.7267342267
0.7188666238
0.6385298631
0.5176867242
0.4166553494
0.3890865898
0.4628261805
0.6667538235
0.1973389292
0.2519836765
0.3377250714
0.3959069668
0.4368061699
0.4724723106
0.5170193936
0.5795490725
0.6614693005
0.7582257721
0.860021201
0.9296704337
0.9363813201
0.8634229989
0.7215457427
0.5605926418
0.4375288033
0.395167787
0.3925777201
0.3991736763
0.407807384
0.4259607593
0.4655405408
0.530525561
0.6005763689
0.6417307876
0.6279146
0.5601106486
0.4558764657
0.3708709928
0.356175441
0.4193876319
0.5730911735
0.1681778828
0.2299129162
0.3183752782
0.38180085
0.4244338267
0.4541623018
0.4825281673
0.5189684551
0.568665164
0.629765802
0.6921160225
0.7347029391
0.7357383479
0.6823180306
0.583397758
0.4778670023
0.4141697743
0.4007711436
0.4045774671
0.4039751115
0.3970254596
0.3989286164
0.428077918
0.4823483164
0.5409366036
0.5775978688
0.5718321126
0.5160317479
0.4220584752
0.3451258457
0.3334213706
0.3783910473
0.4720061722
0.1296014026
0.1973844264
0.2842605257
0.3521903131
0.3999120956
0.4307205828
0.4524242469
0.4722235678
0.4958825354
0.5253803356
0.5559755478
0.5751108037
0.5675533464
0.5260211534
0.4622619311
0.4097714438
0.3887683791
0.3929989408
0.4004265355
0.3974498026
0.387467623
0.3902297696
0.4242658774
0.4831062041
0.5476236489
0.5991156988
0.6193442908
0.5908738535
0.4859847778
0.3797801832
0.338178469
0.3526350484
0.3983933266
0.08784524622
0.152485459
0.2300331387
0.2981383806
0.3517137332
0.3888140723
0.4124085277
0.426353133
0.4347505831
0.4407994678
0.4447199007
0.4420875996
0.4259820502
0.3945955965
0.359003939
0.337424994
0.3339342425
0.3441406958
0.3576936147
0.3692122
0.3852036626
0.4201431309
0.4811877704
0.5591550484
0.6424186456
0.7223631715
0.7829542972
0.7891146553
0.6646756151
0.4991378704
0.3899886859
0.3431241544
0.3409229918
0.05654277877
0.1135949552
0.1931387587
0.2800355592
0.3619434058
0.4279625775
0.4727289615
0.495856543
0.5004263499
0.4911161878
0.4721528615
0.4452871468
0.4103373455
0.3698703948
0.3330762388
0.3106079712
0.3067795106
0.3240996589
0.3591262292
0.4093246722
0.4773721335
0.5676348548
0.6807504692
0.811986641
0.9562739867
1.106540781
1.240625688
1.292614587
1.077377305
0.7896421276
0.5702316554
0.4247405583
0.343158383
5.960314171
3.517816157
2.441504964
1.622417651
1.141161303
0.995308255
1.022529226
0.9625715246
0.6766527092
0.405347507
0.2671067465
0.2136838103
0.1981844417
0.1959505978
0.1970842454
0.2011740916
0.2097705759
0.2246253224
0.2489304381
0.2869076424
0.3433914842
0.4097964829
0.4513454709
0.4629626062
0.4696885847
0.4747146378
0.4567671441
0.4663418234
0.4471649404
3.581637162
2.733973653
2.047970456
1.468933005
1.083802687
0.8857258208
0.8486848808
0.8540205767
0.7625917652
0.6051684013
0.3998461037
0.2707769633
0.2268475801
0.2182768278
0.2172567153
0.219496714
0.2263722867
0.2393636596
0.2621885554
0.3036139289
0.3985660946
0.5360657734
0.4596189985
0.4541994143
0.4871115541
0.4949011207
0.4809966421
0.5008415513
0.4760998072
0.4385819998
0.3964379637
0.3519889754
2.072386563
1.806887695
1.571854241
1.257253602
0.9896123448
0.8326776564
0.7421428129
0.8908784083
1.059119664
0.9172207022
0.6075419455
0.3527262678
0.2588113721
0.2377617355
0.2322148597
0.2310579293
0.2356627475
0.2471469614
0.2676892634
0.2984941181
0.3518438358
0.4247871331
0.432886183
0.4650291382
0.5202166202
0.5705072408
0.564367647
0.5810248639
0.5027141809
0.4424555603
0.3924629933
0.3458185161
1.352842249
1.373727364
1.247333607
1.047554979
0.9299406238
0.8541122707
0.8222624397
1.149571094
1.275956039
1.229265097
0.8135353573
0.4434454744
0.2906025009
0.2539369286
0.2420700254
0.2374737318
0.2397535909
0.2504040664
0.2706041219
0.2932844771
0.3215064734
0.3630819832
0.3887235027
0.4309566516
0.4861286244
0.5484171683
0.5791752481
0.5286995843
0.4696317768
0.4303587411
0.3838916399
0.3388231251
0.300128184
1.237016588
1.135799258
1.035181457
0.9777634843
0.937777143
0.9407308783
0.8507586515
1.081372851
1.332984769
1.210892361
0.8308951627
0.4607549272
0.3104457053
0.2658344652
0.2478323575
0.2401405759
0.2411010347
0.2526468635
0.2675628183
0.2862190926
0.2998108477
0.3212374516
0.3448390007
0.3720794371
0.4027089126
0.4339863806
0.4569028313
0.4313627686
0.4436009058
0.4759688115
0.406481138
0.3532291307
0.3134759466
1.151932214
1.043291842
1.045794821
1.187290164
1.152974147
0.9355033759
0.7363237566
0.9001691167
1.060396175
0.9417357678
0.6379221993
0.4097888157
0.3112603094
0.2693888931
0.248252779
0.2385612588
0.2377444377
0.2444697907
0.2577229549
0.2640687089
0.2775859056
0.2931372982
0.3093519343
0.3265561403
0.3437297167
0.3578290524
0.3686659958
0.3809530496
0.4349258262
0.4697407065
0.4393306348
0.387158412
0.3427501221
1.136002565
1.101858544
1.58990147
2.304427907
2.324960342
1.396232603
0.604467299
0.5224337666
0.5924848509
0.5679022269
0.4780929171
0.3940507889
0.3304455692
0.284158485
0.25535241
0.2412009892
0.236524991
0.2380659128
0.2437645054
0.2521572053
0.263382838
0.2757364107
0.2882556094
0.3005874646
0.3119677881
0.3208427538
0.3295780347
0.3446314611
0.3937867396
0.4795977979
0.485114072
0.4249672197
0.3781757231
1.238226506
1.476152347
2.898204686
3.568952326
3.693333052
2.882552274
0.7925104838
0.4832623395
0.5015603862
0.5192419228
0.5041806706
0.4544703599
0.3830786477
0.3156414205
0.2712484034
0.2491148661
0.2404518334
0.2391171551
0.2421857431
0.2486073699
0.2575038954
0.2679040106
0.2780235506
0.2870831096
0.295583213
0.304288
0.317074872
0.3380062555
0.3733232923
0.4153223945
0.4278907345
0.4218389926
0.4250178666
0.9920677112
1.009521119
1.886591655
2.856425739
2.95541185
1.323509661
0.6271097228
0.5871033209
0.622260887
0.6480761267
0.6304313889
0.5653844635
0.4639869612
0.362963354
0.2956387975
0.2622686837
0.2489434319
0.2454015557
0.2466726172
0.2510933265
0.2583966148
0.2682971292
0.2734788848
0.2790902366
0.2867595812
0.2983156987
0.3182347083
0.3492358873
0.3857531789
0.4257400649
0.4606175062
0.4752415058
0.5084098886
0.7900770291
0.6606719577
0.9078422009
1.207002026
1.198485375
0.8826568542
0.8061841828
0.7990564437
0.8036510697
0.798820674
0.7615992231
0.6771384358
0.5474246737
0.4144981693
0.3236337188
0.277912473
0.2592750297
0.2534442557
0.2530083871
0.2552994159
0.2593356984
0.2646752431
0.2688403756
0.2746719537
0.2847782355
0.3038566197
0.3372854465
0.387261006
0.4439837394
0.4972225943
0.5437988258
0.5773914581
0.6325961568
0.6540307255
0.5176832274
0.6501231013
0.8814608088
1.072844293
1.16538366
1.150775148
1.06517138
0.9760242017
0.9148240167
0.8481652444
0.7494537264
0.6054503895
0.4568803641
0.3510454341
0.2945874096
0.269646678
0.2604054723
0.2577780836
0.2579636503
0.2595498566
0.2621670054
0.2660219756
0.273112052
0.2887683351
0.3210634538
0.3768605875
0.4565365172