/*--------------------------------*- C++ -*----------------------------------*\
  =========                 |
  \\      /  F ield         | OpenFOAM: The Open Source CFD Toolbox
   \\    /   O peration     | Website:  https://openfoam.org
    \\  /    A nd           | Version:  8
     \\/     M anipulation  |
\*---------------------------------------------------------------------------*/
FoamFile
{
    version     2.0;
    format      ascii;
    class       volScalarField;
    location    "1.4";
    object      N2;
}
// * * * * * * * * * * * * * * * * * * * * * * * * * * * * * * * * * * * * * //

dimensions      [0 0 0 0 0 0 0];

internalField   nonuniform List<scalar> 
67286
(
0.790000833
0.7900010943
0.7900007697
0.789999843
0.7899988464
0.7899984233
0.7899981664
0.7899978468
0.7899981733
0.7899987189
0.7899993504
0.7899995022
0.789999406
0.7899991623
0.7899988448
0.7899984813
0.7899980846
0.7899976731
0.7899972734
0.7899969011
0.7899965723
0.7899962838
0.7899960572
0.7899959453
0.7899959204
0.7899959839
0.7899959914
0.7899960084
0.7900004904
0.7899999267
0.7899988444
0.7899983282
0.789998098
0.7899978689
0.7899979704
0.7899979745
0.7899983663
0.7899989345
0.789999491
0.7899996803
0.7899996433
0.7899994678
0.7899992302
0.7899989429
0.7899986096
0.7899982519
0.7899978994
0.7899975537
0.7899972031
0.7899968475
0.7899966195
0.7899964
0.7899963125
0.7899963569
0.7899963981
0.7899963984
0.7899963649
0.7899963585
0.7899964019
0.7899965099
0.7900004305
0.7899995067
0.7899985827
0.7899981344
0.7899978841
0.7899977604
0.7899979857
0.7899983685
0.7899985294
0.7899990372
0.7899995926
0.789999811
0.789999814
0.7899996859
0.7899995082
0.7899992858
0.7899990275
0.7899987596
0.7899985057
0.7899982781
0.7899980203
0.789997657
0.7899974056
0.7899970542
0.7899968088
0.7899967899
0.7899967494
0.7899965546
0.7899965593
0.7899967061
0.7899969585
0.789997266
0.7900001346
0.7899991002
0.7899977156
0.7899976378
0.789997398
0.789997788
0.7899985091
0.7899985303
0.7899979901
0.7899990802
0.7899996961
0.7899999289
0.7899999537
0.7899998592
0.7899997235
0.7899995521
0.7899993539
0.7899991558
0.7899989778
0.789998892
0.7899987843
0.7899986415
0.78999848
0.7899982153
0.7899978312
0.7899973815
0.7899968311
0.7899971079
0.7899973806
0.7899977996
0.7899982189
0.7899985469
0.7899989262
0.7899995699
0.7899986188
0.7899981926
0.7899980196
0.7899980533
0.78999864
0.7899991049
0.7899989693
0.7899990081
0.789999468
0.7899999863
0.7900001281
0.7900001223
0.7900000439
0.7899999279
0.7899997776
0.7899996052
0.7899994199
0.7899991784
0.7899993016
0.7899992836
0.7899992606
0.7899992274
0.7899991651
0.7899990797
0.7899989782
0.7899987934
0.7899988281
0.789998904
0.7899991868
0.7899993471
0.7899996062
0.7899998993
0.7899988869
0.78999822
0.7899980018
0.7899980855
0.7899979679
0.7899980513
0.7899990557
0.789999676
0.7899998479
0.7900000163
0.7900001678
0.7900002427
0.7900002598
0.790000209
0.7900001137
0.7899999853
0.7899998515
0.7899997353
0.789999649
0.7899996279
0.7899996136
0.7899996073
0.7899996134
0.7899996364
0.7899996714
0.7899996819
0.7899996267
0.7899997375
0.7899998327
0.7900000198
0.7900002887
0.7900002435
0.7900004306
0.7899982048
0.7899979648
0.7899980028
0.7899984528
0.7899979907
0.7899986242
0.7899996346
0.790000002
0.7900001348
0.7900001694
0.790000261
0.7900003619
0.7900004112
0.7900003806
0.7900003065
0.7900001994
0.7900000914
0.789999999
0.7899999346
0.7899999141
0.7899999102
0.7899999187
0.7899999406
0.7899999767
0.7900000223
0.790000058
0.7900000634
0.7900001942
0.7900002821
0.7900004805
0.7900004351
0.7900006199
0.7900007272
0.7899979436
0.7899980249
0.7899990322
0.7900001097
0.7899987102
0.7899992502
0.7900000366
0.7900001042
0.7900001037
0.7900001335
0.7900002695
0.7900004514
0.7900005573
0.7900005513
0.7900005027
0.7900004245
0.7900003449
0.7900002767
0.7900002317
0.790000216
0.7900002225
0.7900002454
0.7900002817
0.7900003232
0.7900003629
0.7900003969
0.7900004084
0.7900005324
0.7900006489
0.7900008491
0.7900009027
0.790000855
0.790000876
0.7899976714
0.7899977832
0.7899991216
0.7900005225
0.7899991276
0.7900000406
0.7899999997
0.7900000017
0.7899999785
0.7900000473
0.790000249
0.7900005272
0.790000697
0.7900007137
0.7900006913
0.7900006456
0.7900005968
0.7900005533
0.7900005248
0.7900005166
0.7900005275
0.790000554
0.7900005989
0.7900006437
0.7900006824
0.790000708
0.7900007151
0.7900008316
0.7900009579
0.7900010971
0.7900010421
0.7900010133
0.7900009552
0.7899977225
0.7899976888
0.789998162
0.7899993824
0.7899999656
0.7900000862
0.7899999773
0.7899999154
0.7899999128
0.7900000221
0.7900002706
0.7900006035
0.7900008223
0.7900008559
0.7900008564
0.7900008416
0.7900008238
0.7900008066
0.7900007968
0.7900008
0.7900008184
0.7900008505
0.7900008933
0.790000935
0.7900009658
0.7900009752
0.7900009838
0.7900011013
0.7900011815
0.7900012254
0.7900011291
0.7900010768
0.7900010097
0.78999785
0.7899982077
0.7899987791
0.7899995136
0.7899997693
0.7899998423
0.7899998626
0.7899999015
0.7899999626
0.7900001265
0.7900004103
0.7900007259
0.7900009301
0.7900009716
0.7900009912
0.7900010028
0.7900010115
0.7900010177
0.790001025
0.7900010385
0.7900010629
0.7900010985
0.7900011412
0.7900011777
0.7900011947
0.7900011882
0.7900012121
0.7900013025
0.7900013049
0.7900012776
0.7900011944
0.7900011356
0.790001082
0.7899980935
0.7899988002
0.7899993017
0.7899994888
0.789999529
0.7899997168
0.7899999663
0.7900001283
0.7900002219
0.7900004184
0.7900007136
0.7900008823
0.7900010194
0.790001057
0.7900010951
0.7900011298
0.7900011586
0.7900011851
0.79000121
0.7900012358
0.790001268
0.7900013049
0.7900013395
0.7900013612
0.790001361
0.7900013531
0.7900013852
0.7900014114
0.7900013548
0.7900013084
0.7900012507
0.7900012003
0.7900011434
0.78999841
0.7899991227
0.7899994268
0.789999502
0.7899995968
0.7899998268
0.7900002479
0.790000518
0.7900005894
0.7900007923
0.7900009581
0.7900009519
0.7900010741
0.7900010991
0.7900011642
0.7900012186
0.7900012501
0.7900012816
0.7900013212
0.7900013607
0.7900014034
0.7900014519
0.7900014987
0.790001528
0.7900015236
0.7900014933
0.7900014847
0.790001449
0.7900013714
0.7900013235
0.7900013053
0.79000127
0.7900011731
0.7899985039
0.7899992452
0.789999556
0.7899996634
0.7899997652
0.7899998624
0.7899998817
0.7899997399
0.7899995602
0.7900006739
0.7900006875
0.7900007236
0.7900010072
0.7900010801
0.7900012308
0.790001347
0.7900013879
0.7900013908
0.7900013833
0.7900013917
0.7900014209
0.7900014668
0.7900015176
0.7900015625
0.7900015904
0.7900015828
0.7900015335
0.7900014612
0.7900013743
0.7900013119
0.7900013257
0.7900014234
0.7900013429
0.7899984105
0.7899992105
0.7899996252
0.7899998043
0.7899999331
0.7900001224
0.7900003926
0.790000473
0.7900007814
0.7900032635
0.7900008221
0.7900009749
0.7900009704
0.7900009571
0.7900010757
0.7900012868
0.7900014021
0.7900014361
0.7900014272
0.7900014141
0.7900014196
0.790001451
0.7900015003
0.7900015563
0.790001601
0.7900016071
0.7900015705
0.7900015125
0.7900014342
0.79000137
0.7900014129
0.790001496
0.7900014366
0.7899982897
0.7899990992
0.7899995764
0.7899997946
0.7899997504
0.7899992612
0.789997812
0.7899938015
0.7899900396
0.790005024
0.7899994577
0.7900005233
0.7900007182
0.7900007859
0.7900009984
0.7900012204
0.7900013953
0.7900014414
0.7900014351
0.7900014096
0.7900013945
0.7900014095
0.7900014568
0.7900015256
0.7900015881
0.7900016088
0.790001587
0.7900015445
0.7900014825
0.7900014204
0.7900014643
0.7900015217
0.7900014571
0.7899982583
0.7899990563
0.789999563
0.7899998763
0.7900000051
0.7899999277
0.7899995191
0.7899981997
0.7899952436
0.7899992932
0.7900002896
0.790000672
0.7900009205
0.7900008942
0.7900010015
0.7900011967
0.7900013556
0.7900014131
0.7900014092
0.7900013776
0.7900013482
0.7900013499
0.7900013975
0.7900014821
0.7900015669
0.7900016059
0.7900015963
0.7900015657
0.7900015211
0.7900014651
0.7900014946
0.7900015263
0.7900014578
0.7899983073
0.789999116
0.7899996201
0.789999963
0.7900001513
0.7900001634
0.7899999705
0.7899995374
0.7899988975
0.7899998431
0.790000672
0.790000808
0.7900010148
0.7900009728
0.790001017
0.7900011688
0.7900012704
0.7900013445
0.7900013485
0.7900013183
0.7900012853
0.7900012876
0.7900013448
0.7900014418
0.7900015424
0.790001601
0.7900016068
0.7900015877
0.7900015576
0.7900015091
0.7900015149
0.790001523
0.7900014579
0.7899983581
0.7899991969
0.7899996979
0.790000032
0.7900002354
0.7900003065
0.790000257
0.7900001234
0.790000028
0.7900003693
0.7900008452
0.7900009312
0.7900010591
0.790001033
0.7900010282
0.7900011267
0.7900011666
0.7900012445
0.7900012574
0.790001235
0.7900012164
0.7900012463
0.7900013307
0.7900014308
0.7900015164
0.790001578
0.7900016102
0.7900016167
0.7900015998
0.790001559
0.7900015342
0.7900015184
0.790001461
0.7899983538
0.7899992213
0.7899997294
0.7900000545
0.7900002599
0.7900003662
0.7900003972
0.7900003957
0.7900004397
0.7900006238
0.7900008948
0.7900010028
0.7900010892
0.7900010691
0.7900010298
0.7900010684
0.7900010668
0.7900011319
0.7900011441
0.7900011353
0.7900011521
0.7900012323
0.7900013556
0.7900014599
0.7900015197
0.7900015547
0.7900015944
0.7900016481
0.7900016516
0.7900016178
0.7900015533
0.7900015089
0.7900014702
0.7899982698
0.7899991561
0.7899996818
0.7900000145
0.7900002338
0.7900003729
0.7900004578
0.7900005206
0.7900006036
0.7900007423
0.790000919
0.7900010332
0.7900011077
0.790001098
0.7900010385
0.7900010305
0.7900009891
0.7900010167
0.7900010158
0.7900010236
0.7900010879
0.790001218
0.7900013804
0.7900014997
0.7900015526
0.7900015626
0.7900015781
0.7900016688
0.7900016978
0.7900016766
0.7900015565
0.7900014988
0.7900014886
0.7899981093
0.7899989977
0.7899995405
0.7899998959
0.79000015
0.7900003389
0.7900004831
0.7900006003
0.7900007107
0.7900008322
0.7900009654
0.7900010676
0.7900011304
0.7900011277
0.7900010672
0.7900010355
0.7900009275
0.7900008972
0.7900008743
0.7900008965
0.7900010065
0.7900011685
0.7900013635
0.7900015071
0.7900015762
0.7900015886
0.7900015857
0.790001683
0.7900017116
0.7900016964
0.7900015381
0.7900014886
0.7900014883
0.7899979207
0.7899987873
0.7899993301
0.7899997005
0.7899999897
0.7900002358
0.7900004492
0.7900006299
0.7900007792
0.790000906
0.7900010224
0.7900011114
0.7900011598
0.7900011529
0.7900010967
0.7900010396
0.7900008481
0.7900007677
0.7900007211
0.7900007396
0.7900008575
0.7900009611
0.7900012725
0.79000146
0.7900015685
0.7900016058
0.7900016082
0.7900016989
0.7900016989
0.7900016598
0.7900015152
0.7900015071
0.7900015735
0.7899977604
0.7899985868
0.7899991119
0.789999475
0.7899997718
0.7900000472
0.7900003122
0.790000554
0.7900007536
0.790000907
0.7900010312
0.7900011205
0.7900011613
0.7900011429
0.7900010787
0.7900009666
0.7900007289
0.7900006397
0.790000593
0.7900006265
0.7900007853
0.7900009906
0.7900012555
0.7900014386
0.7900015553
0.7900016109
0.7900016267
0.7900017081
0.7900016655
0.7900015773
0.7900014823
0.7900015102
0.7900016396
0.7899976343
0.7899984188
0.7899989221
0.7899992663
0.789999545
0.7899998083
0.7900000794
0.790000352
0.7900005973
0.7900007904
0.7900009374
0.7900010399
0.7900010831
0.7900010522
0.7900009604
0.790000782
0.7900005738
0.7900005148
0.7900004808
0.7900005144
0.7900006809
0.7900009391
0.7900012117
0.7900014025
0.7900015255
0.7900015959
0.7900016263
0.7900016855
0.7900015897
0.7900014643
0.7900014262
0.7900014414
0.7900015281
0.7899975019
0.7899982604
0.7899987513
0.7899990801
0.7899993358
0.7899995669
0.7899998038
0.7900000598
0.790000319
0.7900005487
0.7900007242
0.7900008441
0.7900008929
0.790000848
0.7900007119
0.7900005172
0.790000396
0.7900003844
0.7900003701
0.7900003904
0.790000529
0.7900007936
0.7900010853
0.7900013131
0.7900014626
0.7900015492
0.7900015879
0.7900015944
0.7900014607
0.7900013454
0.7900013627
0.7900013611
0.7900013335
0.7899973146
0.7899980743
0.7899985729
0.7899988973
0.7899991364
0.7899993373
0.7899995283
0.7899997332
0.789999959
0.7900001863
0.7900003821
0.790000521
0.7900005729
0.7900005073
0.790000342
0.7900002094
0.790000185
0.7900002204
0.7900002329
0.7900002457
0.7900003408
0.7900005706
0.79000086
0.7900011142
0.7900012988
0.790001408
0.790001439
0.7900014087
0.790001294
0.7900012324
0.7900012896
0.7900013168
0.7900012523
0.7899970335
0.7899978174
0.7899983491
0.7899986874
0.7899989197
0.7899990986
0.7899992516
0.7899994007
0.7899995642
0.789999743
0.7899999148
0.7900000439
0.7900000894
0.790000021
0.7899998871
0.7899998434
0.7899998922
0.7899999724
0.7900000269
0.7900000645
0.79000015
0.7900003433
0.7900006028
0.7900008483
0.7900010429
0.7900011668
0.7900011996
0.7900011615
0.7900011358
0.7900011223
0.7900011677
0.7900012261
0.7900012153
0.7899966888
0.7899974573
0.7899980247
0.7899983982
0.7899986393
0.7899988048
0.7899989278
0.7899990302
0.7899991302
0.7899992383
0.7899993485
0.7899994342
0.7899994578
0.7899994014
0.7899993271
0.789999349
0.7899994467
0.7899995813
0.7899997105
0.7899998332
0.7899999872
0.7900001989
0.7900004362
0.7900006559
0.7900008417
0.7900009792
0.7900010493
0.790001064
0.7900010736
0.7900010304
0.7900009801
0.790000976
0.7900009996
0.789996477
0.7899970385
0.7899975543
0.7899979547
0.7899982276
0.7899984028
0.7899985113
0.7899985772
0.7899986193
0.7899986524
0.7899986823
0.7899987006
0.789998687
0.7899986361
0.7899985996
0.7899986541
0.7899988005
0.7899990239
0.7899992853
0.7899995619
0.7899998481
0.7900001316
0.7900003969
0.7900006419
0.7900008718
0.7900010818
0.7900012598
0.7900014258
0.7900013195
0.7900011185
0.7900008564
0.7900006025
0.7900004408
0.7899971569
0.7899972209
0.7899973657
0.7899974569
0.7899975576
0.7899974204
0.7899972293
0.7899973559
0.7899979106
0.7899985612
0.7899989899
0.7899991193
0.7899990333
0.7899987835
0.7899984373
0.7899980402
0.7899976392
0.7899972614
0.7899969088
0.7899965899
0.7899963104
0.7899961115
0.7899960856
0.7899960245
0.789996044
0.7899961388
0.7899962289
0.7899961613
0.7899974564
0.7899975831
0.7899976368
0.7899976241
0.7899975898
0.7899974852
0.7899974069
0.7899975803
0.7899980287
0.7899986382
0.7899990572
0.7899992443
0.7899992174
0.7899990217
0.7899987402
0.7899984
0.7899980308
0.7899976607
0.789997309
0.7899969915
0.7899967029
0.7899965587
0.7899964563
0.7899964028
0.7899964139
0.7899964768
0.7899965114
0.7899964814
0.7899964991
0.7899965813
0.7899967129
0.7899968955
0.7899976165
0.7899977728
0.7899978005
0.7899977141
0.7899976619
0.7899975655
0.7899976044
0.7899977434
0.7899980832
0.7899985895
0.789999037
0.7899992938
0.7899993349
0.7899991897
0.7899989693
0.7899986873
0.7899983594
0.7899980222
0.7899977166
0.7899974365
0.7899971493
0.7899963682
0.7899969661
0.7899969173
0.7899968926
0.7899968663
0.7899968367
0.7899969022
0.7899969403
0.7899970859
0.7899972696
0.7899975136
0.789997828
0.789998175
0.7899981029
0.7899975563
0.7899976018
0.7899978519
0.7899978014
0.7899977666
0.7899980906
0.7899985698
0.7899990132
0.7899992306
0.7899994078
0.7899993108
0.7899991319
0.7899989041
0.7899986358
0.7899983549
0.7899981185
0.7899979385
0.7899978066
0.7899976807
0.7899976893
0.7899976312
0.7899975542
0.7899974696
0.7899974525
0.7899974088
0.7899975259
0.7899977783
0.7899980275
0.7899983273
0.7899986435
0.7899982089
0.7899980307
0.7899979653
0.7899978255
0.789997781
0.7899978304
0.7899980569
0.7899980664
0.7899983513
0.7899987707
0.7899992657
0.7899995335
0.7899995937
0.7899995099
0.7899993593
0.7899991609
0.7899989369
0.7899987135
0.7899985404
0.7899983995
0.7899983373
0.7899982755
0.7899982922
0.7899982934
0.7899982773
0.7899982334
0.7899981472
0.7899982323
0.7899981226
0.7899985166
0.7899987564
0.7899990965
0.7899993733
0.7899980862
0.7899979278
0.7899979085
0.7899978646
0.7899978407
0.7899979659
0.7899985996
0.7899989011
0.789999076
0.7899993575
0.7899995919
0.7899997161
0.7899997371
0.7899996763
0.7899995587
0.7899994009
0.7899992203
0.7899990455
0.7899989014
0.7899988406
0.7899988034
0.7899987866
0.7899987985
0.7899988187
0.7899988412
0.7899988548
0.789998868
0.7899989678
0.7899990472
0.7899992236
0.7899991911
0.7899996395
0.7899998729
0.7899977999
0.789997697
0.7899977883
0.7899978842
0.7899980312
0.7899983647
0.7899991947
0.7899994966
0.789999575
0.7899996363
0.789999732
0.7899998238
0.7899998682
0.7899998413
0.7899997589
0.7899996406
0.7899995057
0.7899993821
0.7899992929
0.7899992496
0.7899992391
0.7899992507
0.789999281
0.7899993182
0.7899993572
0.7899993889
0.7899994187
0.7899994942
0.7899995527
0.7899996574
0.7899995763
0.7899999691
0.7900001692
0.7899978122
0.7899979954
0.7899984412
0.7899982724
0.7899986946
0.7899989902
0.7899995613
0.7899996081
0.7899995799
0.7899996126
0.7899997309
0.7899998792
0.7899999843
0.7900000026
0.7899999598
0.789999885
0.7899997969
0.7899997189
0.7899996704
0.7899996588
0.7899996778
0.7899997159
0.7899997671
0.7899998144
0.7899998536
0.7899998835
0.7899999108
0.7899999702
0.7900000419
0.7900001238
0.7900001528
0.790000323
0.7900004038
0.7899976292
0.7899974797
0.7899976911
0.7899977973
0.7899988835
0.7899992986
0.7899994681
0.7899994275
0.789999442
0.7899995337
0.7899997064
0.7899999173
0.7900000909
0.7900001577
0.7900001555
0.7900001255
0.790000084
0.7900000501
0.7900000389
0.7900000545
0.7900000914
0.7900001377
0.7900002125
0.7900002655
0.7900003006
0.7900003183
0.7900003282
0.7900003592
0.7900003963
0.7900004431
0.7900004563
0.7900004948
0.7900005203
0.7899976638
0.7899977917
0.7899982062
0.7899986252
0.7899992574
0.7899993696
0.7899993301
0.7899993261
0.7899993771
0.7899995146
0.7899997308
0.789999983
0.7900001936
0.7900002975
0.7900003335
0.7900003442
0.790000346
0.7900003539
0.7900003798
0.790000425
0.7900004848
0.7900005496
0.7900006141
0.7900006585
0.7900006785
0.7900006772
0.7900006692
0.7900006785
0.7900006847
0.7900006949
0.7900006827
0.7900006596
0.7900006305
0.7899975697
0.7899978028
0.7899983511
0.7899986527
0.7899988814
0.78999901
0.7899991684
0.7899993086
0.7899994508
0.7899996366
0.7899998555
0.7900001037
0.7900003092
0.7900004215
0.7900004825
0.7900005268
0.7900005648
0.7900006072
0.7900006611
0.7900007269
0.7900007992
0.790000869
0.7900009295
0.7900009631
0.7900009659
0.7900009464
0.7900009289
0.7900009192
0.7900008845
0.790000859
0.7900008109
0.7900007705
0.7900007228
0.789997615
0.7899979524
0.7899982867
0.7899985023
0.7899986812
0.789998939
0.7899992469
0.7899995116
0.7899997125
0.7899998919
0.790000077
0.7900002717
0.7900004281
0.7900005199
0.7900005917
0.7900006651
0.7900007321
0.7900008019
0.7900008778
0.7900009592
0.7900010391
0.7900011086
0.7900011564
0.7900011747
0.7900011631
0.7900011369
0.7900011174
0.7900010811
0.7900010053
0.7900009587
0.7900008789
0.7900008601
0.790000803
0.7899977218
0.7899980117
0.7899982793
0.7899985292
0.7899987737
0.7899991291
0.7899995584
0.7899999179
0.7900002051
0.790000459
0.7900003743
0.7900004784
0.7900005236
0.7900005734
0.7900006411
0.7900007519
0.7900008427
0.7900009304
0.790001015
0.7900010975
0.7900011759
0.7900012408
0.7900012808
0.7900012885
0.7900012679
0.7900012362
0.7900012059
0.7900011412
0.7900010343
0.790000981
0.7900009325
0.7900009387
0.7900008695
0.7899978036
0.7899981675
0.7899984792
0.7899987975
0.7899990891
0.7899994681
0.7899998967
0.7900002701
0.7900006684
0.790000605
0.7900003641
0.7900004044
0.7900004838
0.7900005586
0.790000664
0.79000081
0.7900009115
0.7900010011
0.7900010824
0.7900011635
0.790001243
0.7900013116
0.7900013562
0.7900013691
0.7900013505
0.7900013045
0.7900012328
0.7900011331
0.7900009858
0.7900009312
0.790000796
0.7900009649
0.7900008983
0.7899978575
0.7899983993
0.7899987635
0.7899991008
0.7899994457
0.7899998847
0.790000377
0.7900008562
0.7900019705
0.7900022876
0.7900009163
0.7900006887
0.7900004389
0.7900004312
0.7900004288
0.7900007558
0.7900009116
0.7900010368
0.7900011241
0.790001201
0.7900012759
0.7900013447
0.7900013942
0.7900014134
0.7900013971
0.7900013444
0.7900012568
0.7900011466
0.7900010028
0.7900009505
0.7900009011
0.7900010172
0.7900009543
0.7899979137
0.7899986147
0.7899990654
0.7899994043
0.7899997651
0.7900003155
0.7900014942
0.7900027508
0.7900060138
0.7900039497
0.7900005854
0.790000456
0.7900003573
0.7900003783
0.7900004903
0.7900007565
0.7900009419
0.7900010672
0.7900011507
0.7900012191
0.7900012856
0.7900013511
0.7900014044
0.790001432
0.7900014228
0.7900013718
0.7900012838
0.7900011763
0.7900010481
0.7900009934
0.7900009852
0.790001065
0.790001007
0.7899979853
0.7899987611
0.7899992642
0.7899996081
0.7899998896
0.7900001716
0.7900004803
0.7900007839
0.7900014302
0.7900011481
0.7900002815
0.7900003617
0.7900003392
0.7900003681
0.7900005075
0.7900007586
0.7900009569
0.7900010805
0.7900011594
0.7900012194
0.7900012763
0.7900013366
0.7900013925
0.7900014303
0.7900014334
0.7900013936
0.7900013174
0.7900012251
0.7900011212
0.790001066
0.7900010754
0.7900011204
0.7900010668
0.7899980564
0.7899988676
0.7899993932
0.789999754
0.7900000184
0.7900002357
0.7900004665
0.790000749
0.7900011682
0.7900006019
0.7900004027
0.7900003636
0.7900003731
0.7900004161
0.7900005608
0.7900007811
0.7900009632
0.7900010769
0.7900011492
0.7900012014
0.7900012488
0.7900013026
0.7900013582
0.7900014037
0.7900014179
0.790001395
0.7900013444
0.7900012858
0.7900012144
0.7900011627
0.7900011702
0.7900011829
0.7900011354
0.7899980993
0.7899989347
0.7899994719
0.7899998454
0.7900001094
0.7900002925
0.7900004332
0.7900005604
0.7900006286
0.7900005038
0.7900004578
0.7900004272
0.7900004478
0.7900005004
0.790000635
0.7900008157
0.7900009614
0.7900010587
0.7900011198
0.790001163
0.7900012007
0.7900012469
0.7900012995
0.7900013424
0.7900013574
0.7900013488
0.7900013373
0.7900013387
0.7900013131
0.7900012706
0.7900012663
0.7900012513
0.7900012068
0.7899980915
0.7899989448
0.7899994941
0.7899998779
0.7900001524
0.790000338
0.7900004551
0.7900005322
0.7900005607
0.7900005306
0.7900005253
0.7900005201
0.7900005415
0.7900005915
0.7900007057
0.7900008456
0.7900009488
0.7900010243
0.7900010711
0.7900011024
0.790001129
0.7900011651
0.790001222
0.7900012661
0.7900012769
0.7900012733
0.7900012943
0.7900013671
0.7900013987
0.7900013725
0.7900013559
0.7900013205
0.7900012697
0.7899980131
0.7899988772
0.7899994393
0.7899998347
0.790000125
0.7900003333
0.7900004665
0.7900005402
0.7900005711
0.790000577
0.7900005867
0.7900005926
0.7900006103
0.7900006522
0.7900007445
0.7900008544
0.7900009236
0.7900009715
0.7900009982
0.7900010128
0.7900010235
0.7900010351
0.790001128
0.7900011907
0.790001211
0.7900012126
0.7900012487
0.7900013721
0.790001456
0.7900014521
0.7900014281
0.7900013764
0.7900013168
0.7899978588
0.789998721
0.7899992926
0.789999702
0.7900000139
0.7900002539
0.7900004234
0.7900005244
0.7900005746
0.7900006007
0.7900006173
0.7900006254
0.7900006383
0.7900006728
0.7900007479
0.790000838
0.7900008801
0.7900008941
0.7900008938
0.7900008881
0.790000892
0.7900008886
0.7900010241
0.7900011134
0.7900011668
0.790001187
0.7900012322
0.7900013725
0.7900014831
0.7900015014
0.7900014635
0.7900014049
0.7900013378
0.7899976651
0.7899985034
0.7899990743
0.7899994937
0.7899998266
0.7900000996
0.7900003119
0.7900004559
0.7900005415
0.7900005942
0.7900006236
0.7900006362
0.7900006463
0.7900006737
0.790000733
0.7900007996
0.7900008095
0.7900007879
0.7900007482
0.7900006819
0.7900006121
0.7900001596
0.7900008222
0.7900009816
0.7900011254
0.7900011879
0.7900012498
0.7900013827
0.7900014815
0.7900015082
0.7900014603
0.7900014102
0.7900013195
0.7899974818
0.789998271
0.789998828
0.7899992481
0.7899995916
0.7899998868
0.7900001351
0.7900003243
0.7900004547
0.7900005454
0.7900006006
0.7900006277
0.7900006406
0.7900006598
0.7900006993
0.7900007348
0.790000712
0.7900006751
0.7900006358
0.7900006017
0.7900005917
0.7900005069
0.7900008046
0.7900009773
0.790001127
0.7900012181
0.7900012893
0.7900013985
0.7900014622
0.7900014713
0.7900014303
0.7900014041
0.7900012913
0.7899973252
0.7899980501
0.7899985827
0.7899989953
0.7899993383
0.7899996384
0.7899999036
0.7900001256
0.7900002952
0.790000423
0.7900005126
0.7900005635
0.7900005861
0.7900005984
0.7900006156
0.7900006194
0.7900005785
0.7900005458
0.7900005171
0.790000505
0.7900005344
0.7900005862
0.7900007747
0.7900009614
0.7900011184
0.7900012339
0.7900013145
0.790001396
0.7900014206
0.7900014048
0.7900013861
0.7900013975
0.7900012824
0.7899971721
0.78999784
0.7899983453
0.7899987446
0.7899990796
0.7899993715
0.7899996322
0.7899998631
0.7900000554
0.7900002053
0.7900003221
0.7900003964
0.7900004326
0.7900004431
0.7900004444
0.7900004311
0.7900003994
0.7900003867
0.7900003746
0.790000377
0.790000428
0.7900005413
0.7900007145
0.7900008947
0.7900010592
0.7900011945
0.7900012853
0.790001355
0.790001343
0.7900013188
0.7900013282
0.7900013688
0.7900012478
0.7899969833
0.7899976261
0.7899981149
0.789998498
0.7899988174
0.789999092
0.7899993327
0.7899995483
0.7899997392
0.7899998985
0.7900000213
0.790000104
0.7900001497
0.7900001665
0.790000167
0.7900001564
0.790000157
0.7900001747
0.7900001875
0.7900002065
0.7900002671
0.7900003985
0.7900005793
0.7900007632
0.7900009285
0.7900010659
0.7900011603
0.7900012082
0.7900012041
0.7900012057
0.7900012506
0.7900013082
0.7900012683
0.7899967229
0.7899973833
0.7899978795
0.789998253
0.7899985511
0.7899987992
0.7899990094
0.789999192
0.789999355
0.7899994988
0.7899996164
0.7899996992
0.7899997436
0.7899997566
0.789999757
0.7899997725
0.7899998151
0.7899998731
0.7899999257
0.789999978
0.7900000574
0.7900001915
0.7900003649
0.79000054
0.7900006971
0.7900008237
0.7900009032
0.7900009342
0.7900009896
0.7900010389
0.7900011017
0.7900011698
0.7900011889
0.7899964516
0.789997102
0.7899976109
0.7899979902
0.7899982709
0.7899984868
0.7899986581
0.7899987975
0.7899989147
0.789999016
0.7899991003
0.7899991602
0.7899991892
0.7899991937
0.7899992009
0.7899992449
0.7899993283
0.7899994402
0.7899995596
0.7899996806
0.7899998143
0.7899999706
0.7900001355
0.7900002902
0.7900004288
0.7900005403
0.7900006064
0.79000063
0.7900007296
0.7900007983
0.7900008375
0.7900008741
0.7900009081
0.7899963705
0.7899968261
0.7899972733
0.789997655
0.7899979396
0.7899981382
0.7899982733
0.789998364
0.789998424
0.7899984633
0.7899984876
0.7899984963
0.7899984872
0.7899984686
0.7899984705
0.7899985301
0.7899986598
0.7899988564
0.7899990913
0.7899993362
0.7899995744
0.7899997926
0.7899999815
0.7900001409
0.7900002712
0.7900003583
0.7900003736
0.7900003077
0.7900004633
0.7900005166
0.7900004695
0.7900003711
0.7900002939
0.7899977116
0.7899975951
0.7899976
0.7899975262
0.7899974581
0.789997334
0.7899972253
0.7899973053
0.7899977169
0.7899982126
0.7899985789
0.7899987172
0.789998652
0.7899984162
0.7899980682
0.7899976598
0.7899972494
0.7899968738
0.7899965482
0.7899962881
0.7899960992
0.7899960549
0.7899960583
0.7899961397
0.789996238
0.7899963802
0.7899962386
0.7899963343
0.7899962915
0.7899977422
0.7899977588
0.7899977236
0.7899976353
0.7899975736
0.7899975064
0.7899974225
0.7899975214
0.7899978443
0.7899982369
0.7899986126
0.7899988127
0.7899988075
0.7899986255
0.789998337
0.7899979759
0.7899975851
0.7899972049
0.7899968725
0.7899966199
0.7899964429
0.7899967529
0.7899963488
0.7899964303
0.7899965413
0.7899966941
0.7899967745
0.7899966984
0.7899966516
0.7899966828
0.7899967968
0.7899969917
0.789997694
0.7899977972
0.7899978587
0.7899977954
0.7899977614
0.7899976347
0.7899975611
0.7899976731
0.7899979223
0.7899981604
0.7899985666
0.7899988541
0.7899988943
0.7899987642
0.7899985334
0.7899982322
0.7899978781
0.7899975236
0.7899972288
0.7899970102
0.7899969002
0.7899967026
0.7899966629
0.78999679
0.7899969011
0.7899970237
0.789997175
0.7899970416
0.7899970323
0.7899971163
0.7899972704
0.7899974999
0.7899976818
0.7899979951
0.7899982009
0.7899979199
0.7899981738
0.7899979876
0.7899977316
0.7899978891
0.7899984406
0.7899981852
0.7899985224
0.7899988206
0.7899988224
0.7899987752
0.7899985455
0.7899983991
0.7899981212
0.7899977978
0.7899975422
0.7899973701
0.7899972575
0.7899971668
0.7899972018
0.7899972585
0.7899973275
0.7899973866
0.7899976877
0.7899974387
0.7899975517
0.7899976611
0.7899978374
0.7899980919
0.7899983889
0.7899977685
0.7899978357
0.7899979078
0.7899978892
0.7899978967
0.7899979121
0.7899979015
0.7899980825
0.7899981522
0.7899982894
0.7899987002
0.7899990218
0.7899991094
0.789999053
0.7899989005
0.7899986918
0.7899984444
0.7899982171
0.7899981418
0.7899978667
0.7899977798
0.7899977441
0.7899977554
0.7899977871
0.7899978202
0.7899978442
0.7899978867
0.7899978576
0.7899980173
0.7899983477
0.7899983976
0.7899986653
0.7899989463
0.7899976958
0.7899978115
0.7899979249
0.7899978612
0.7899978959
0.7899979777
0.7899982975
0.7899985183
0.7899986229
0.789998771
0.7899990209
0.789999189
0.7899992484
0.7899992104
0.7899991002
0.7899989318
0.7899987266
0.7899985236
0.7899983838
0.7899982972
0.7899982697
0.7899982771
0.7899983136
0.789998359
0.7899984033
0.7899984412
0.7899984906
0.789998536
0.789998603
0.7899987367
0.7899988507
0.7899991432
0.7899994017
0.7899975833
0.7899976884
0.7899978599
0.7899979507
0.7899980685
0.7899982228
0.789998731
0.7899990269
0.789999079
0.789999122
0.7899992228
0.7899993231
0.7899993835
0.7899993793
0.7899993099
0.7899991898
0.7899990414
0.7899989062
0.7899988183
0.7899987752
0.7899987845
0.7899988263
0.789998893
0.7899989558
0.7899990071
0.7899990422
0.7899990696
0.7899991108
0.7899991697
0.7899992729
0.78999948
0.7899995902
0.7899997589
0.7899975224
0.7899976175
0.7899979069
0.7899979423
0.7899981642
0.7899985993
0.7899990721
0.7899992028
0.7899991903
0.7899991986
0.7899992821
0.7899994009
0.7899995006
0.7899995405
0.7899995167
0.7899994459
0.789999356
0.7899992808
0.7899992476
0.789999262
0.7899993195
0.789999399
0.789999492
0.7899995649
0.7899996142
0.789999638
0.7899996446
0.7899996517
0.789999658
0.7899996988
0.7899996658
0.7899998775
0.7900000061
0.7899973954
0.7899974776
0.7899978518
0.7899981242
0.7899985278
0.7899988636
0.7899991116
0.789999115
0.7899991109
0.7899991725
0.7899992966
0.7899994595
0.7899996078
0.789999696
0.7899997202
0.7899997018
0.7899996695
0.7899996518
0.7899996702
0.7899997234
0.7899997994
0.7899998536
0.790000025
0.7900001069
0.7900001541
0.7900001628
0.790000147
0.7900001256
0.7900001073
0.7900001185
0.7900001404
0.7900001765
0.7900002159
0.7899973198
0.7899974171
0.789997741
0.7899981652
0.7899986118
0.7899988658
0.7899989839
0.7899990071
0.7899990519
0.7899991642
0.7899993399
0.789999543
0.7899997271
0.7899998506
0.7899999135
0.7899999421
0.7899999615