/*--------------------------------*- C++ -*----------------------------------*\
  =========                 |
  \\      /  F ield         | OpenFOAM: The Open Source CFD Toolbox
   \\    /   O peration     | Website:  https://openfoam.org
    \\  /    A nd           | Version:  8
     \\/     M anipulation  |
\*---------------------------------------------------------------------------*/
FoamFile
{
    version     2.0;
    format      ascii;
    class       surfaceScalarField;
    location    "1.4";
    object      phi;
}
// * * * * * * * * * * * * * * * * * * * * * * * * * * * * * * * * * * * * * //

dimensions      [1 0 -1 0 0 0 0];

internalField   nonuniform List<scalar> 
197358
(
4.249785834e-05
2.820064812e-05
-0.0001027028333
6.628300656e-05
1.137261611e-05
-7.474210918e-05
7.801302841e-05
-1.681539941e-06
-5.462267638e-05
7.602583639e-05
-1.138237884e-05
-3.060434014e-05
5.481342907e-05
-1.210968642e-05
-4.729632638e-06
2.8138952e-05
-9.458122396e-06
4.830405288e-06
1.542754767e-05
-9.613521945e-06
-6.124963751e-06
1.182220497e-05
-3.185839132e-05
-1.748243227e-06
4.884940225e-06
-4.82028721e-05
6.632689471e-06
-1.008170913e-05
-4.820479454e-05
1.462671932e-05
-2.588081086e-05
-5.288587862e-05
1.663306839e-05
-3.779453689e-05
-5.527918386e-05
1.403342727e-05
-4.705525197e-05
-5.410514804e-05
1.193249876e-05
-5.352324834e-05
-5.153115947e-05
9.634493995e-06
-5.791861124e-05
-4.82314054e-05
8.022261711e-06
-6.098047092e-05
-4.449792063e-05
7.066631071e-06
-6.348160869e-05
-4.076812133e-05
6.776226497e-06
-6.557080443e-05
-3.703081335e-05
6.366098408e-06
-6.637548145e-05
-3.281624742e-05
4.613632088e-06
-6.491646105e-05
-2.786163478e-05
1.414771948e-06
-6.066588442e-05
-2.232274022e-05
-2.416297671e-06
-5.352133811e-05
-1.767311842e-05
-5.122250187e-06
-4.768814912e-05
-1.235563414e-05
-5.984472841e-06
-3.765998779e-05
-9.387500715e-06
-1.56257312e-05
-3.02785304e-05
-1.061323696e-05
-1.151296837e-05
-1.193476866e-05
-8.243664812e-06
-1.762426958e-05
1.621162814e-05
-1.075848891e-05
-3.693565704e-05
-8.318708077e-06
-2.120350446e-05
2.653921577e-05
6.670209046e-05
-6.503980153e-05
3.766072129e-05
4.60087179e-05
-4.57569229e-05
4.039484487e-05
2.133828831e-05
-2.575350534e-05
3.802475006e-05
-1.286858794e-07
-8.883386782e-06
3.112003144e-05
-1.0519869e-05
5.315679954e-06
2.390647103e-05
-1.669218557e-05
1.444861612e-05
1.400889236e-05
-1.223832412e-05
1.252324909e-05
6.75140678e-06
-3.445454151e-05
9.854514383e-06
1.772734928e-06
-4.593662742e-05
2.713206575e-06
-8.020229111e-06
-4.591920762e-05
7.508201578e-06
-2.207762547e-05
-5.168384383e-05
1.28561189e-05
-3.475320256e-05
-5.48951556e-05
1.229227808e-05
-4.495353221e-05
-5.441805773e-05
1.051393868e-05
-5.184939056e-05
-5.247442114e-05
7.839785044e-06
-5.650082048e-05
-4.986863871e-05
6.289294329e-06
-5.964317893e-05
-4.685274979e-05
5.49778318e-06
-6.191146707e-05
-4.369333196e-05
5.194056894e-06
-6.350531354e-05
-4.031128143e-05
4.874833452e-06
-6.404309774e-05
-3.62693905e-05
3.991407106e-06
-6.336660725e-05
-3.111440931e-05
2.576734565e-06
-6.039316075e-05
-2.521748713e-05
-7.827510691e-08
-5.084872148e-05
-1.877241742e-05
-8.444726769e-06
-4.549775068e-05
-1.3803444e-05
-3.902827276e-06
-3.826798926e-05
-7.984746858e-06
-8.632231799e-06
-2.832787473e-05
-4.51057382e-06
-1.604254709e-05
-1.059114199e-05
-5.289276174e-07
-2.545127377e-05
1.501639266e-05
-1.73443727e-06
-3.463140583e-05
3.104497533e-05
1.02263082e-06
-2.536980032e-05
4.096190127e-05
-2.282437086e-06
-1.689749931e-05
4.734974118e-05
-6.586723566e-06
-1.019252943e-05
5.137689327e-05
-1.214363676e-05
-4.255153952e-06
-1.665927948e-05
6.629687871e-07
1.382931864e-05
8.168002203e-05
-2.880712894e-05
2.12844488e-05
5.391816485e-05
-1.536464039e-05
2.694450106e-05
1.668203822e-05
-1.004089092e-06
2.530652489e-05
-8.631529018e-06
1.014192438e-05
1.932072383e-05
-1.952259036e-05
1.498952553e-05
1.235403932e-05
-2.929784127e-05
1.957319673e-05
1.81238089e-06
-2.342836063e-05
2.173242506e-05
-4.455134199e-06
-3.334755614e-05
5.161566154e-06
-2.476866573e-06
-3.933917799e-05
-8.574703717e-06
-6.096158179e-06
-4.001157471e-05
-2.28745605e-06
-1.852292823e-05
-4.730890506e-05
8.052590933e-06
-3.207071057e-05
-5.162973709e-05
1.028310746e-05
-4.321816887e-05
-5.245646987e-05
9.186576538e-06
-5.045776003e-05
-5.153714091e-05
6.302977727e-06
-5.535561315e-05
-4.984436078e-05
4.87420674e-06
-5.855555046e-05
-4.77263704e-05
4.074153513e-06
-6.029899454e-05
-4.527954342e-05
3.330215355e-06
-6.060162204e-05
-4.260500494e-05
2.596874511e-06
-5.943590353e-05
-3.969985668e-05
2.265226794e-06
-5.786669191e-05
-3.501891003e-05
2.335744771e-06
-5.548854745e-05
-2.99177172e-05
2.32250163e-06
-4.963487335e-05
-2.349986035e-05
-1.12596693e-06
-4.603218546e-05
-1.810228701e-05
6.964978569e-07
-4.017759063e-05
-1.057818129e-05
-3.260859409e-06
-3.04397232e-05
-2.394141668e-06
-1.185402948e-05
-1.12456645e-05
5.22124987e-06
-2.494400675e-05
1.856309087e-05
8.793452779e-06
-4.033639179e-05
3.167877291e-05
5.548771926e-06
-1.76416552e-05
3.790044168e-05
-1.755267573e-06
-6.748710357e-06
4.280802727e-05
-1.004387995e-05
-1.450335917e-06
4.696272524e-05
-1.971397513e-05
3.415696479e-06
-2.49426395e-05
6.751090397e-06
1.774416588e-06
8.493871645e-05
-5.033591872e-06
4.972995752e-06
4.761492704e-05
3.104614437e-06
1.963037683e-05
1.098417237e-05
-8.960909834e-06
1.445667255e-05
-1.349743709e-05
1.003935481e-05
3.276948552e-06
-1.32676232e-05
4.924724362e-06
-2.567558029e-06
-1.336428777e-05
-1.008678158e-05
-1.556211262e-05
-1.713410713e-05
6.700690229e-06
-1.915458364e-05
-1.879424248e-05
-1.095970801e-05
-5.46739604e-06
-1.871171496e-05
-3.431433746e-05
-6.092002196e-06
-2.960895918e-05
-9.777123148e-06
-1.816587583e-05
-3.89811016e-05
3.74672328e-06
-3.19207766e-05
-4.497587534e-05
7.101771667e-06
-4.337990119e-05
-4.823412201e-05
7.237466084e-06
-5.037785601e-05
-4.849629533e-05
3.957759162e-06
-5.490687916e-05
-4.770064415e-05
2.385913458e-06
-5.765011174e-05
-4.64151958e-05
1.432636486e-06
-5.88305124e-05
-4.475571136e-05
6.571179662e-07
-5.811252371e-05
-4.302685507e-05
-2.95608314e-07
-5.479249848e-05
-4.195872706e-05
-1.060646918e-06
-5.228734342e-05
-3.780781029e-05
2.842120481e-07
-4.914367936e-05
-3.418250342e-05
1.121548365e-06
-4.429361136e-05
-3.010829338e-05
1.758734528e-06
-4.012300349e-05
-2.588701675e-05
3.614493811e-06
-3.497499821e-05
-2.008916098e-05
4.363302689e-06
-2.802828407e-05
-1.247649909e-05
3.135907518e-06
-1.577386541e-05
-4.544672578e-06
-2.48826042e-06
9.375287571e-06
3.812297476e-06
-2.016786435e-05
2.097083636e-05
-5.234016403e-06
-8.125381627e-07
2.820599411e-05
-1.387920229e-05
4.88896195e-06
3.483912167e-05
-2.286157387e-05
6.184716751e-06
4.188622562e-05
-3.473930635e-05
7.97833243e-06
4.476878926e-05
-3.758398734e-05
9.758845581e-06
-4.149538804e-05
1.102448835e-05
1.579711515e-06
6.922923993e-05
1.412990333e-05
1.030204371e-06
2.520410236e-05
2.296036446e-05
2.456884925e-06
-7.269670005e-06
1.6827213e-05
5.522190136e-06
-2.431218839e-05
7.750086697e-06
-4.059085598e-06
-8.868111974e-06
5.182799154e-06
-1.68754735e-05
-5.239242865e-06
4.692127116e-06
-2.564308332e-05
-5.514384294e-06
-2.851362147e-06
-2.322417283e-05
-4.473908883e-06
-1.673827825e-05
-1.607553421e-05
-1.037340924e-05
-1.548596089e-05
-1.548912453e-05
-2.491950869e-05
-5.275015327e-06
-2.48258948e-05
-3.494938161e-05
5.305810614e-06
-3.648146352e-05
-4.185381764e-05
8.534241388e-06
-4.591011767e-05
-4.577345776e-05
6.968673159e-06
-5.191316934e-05
-4.649054146e-05
3.997935927e-06
-5.559298953e-05
-4.585232816e-05
1.832102417e-06
-5.762808808e-05
-4.458119871e-05
2.016609655e-07
-5.843758269e-05
-4.285438373e-05
-1.09130577e-06
-5.781997598e-05
-4.053329416e-05
-3.110652801e-06
-4.920150098e-05
-3.699905464e-05
-1.357774259e-05
-4.722735324e-05
-3.739246817e-05
-2.389026376e-06
-4.39880614e-05
-3.59723786e-05
-1.449001881e-06
-3.951438866e-05
-3.392069501e-05
-6.608811428e-07
-3.487061083e-05
-3.137973176e-05
8.493093172e-07
-2.953405821e-05
-2.818349477e-05
2.758118984e-06
-2.231031704e-05
-2.458867825e-05
4.888725441e-06
-1.238011787e-05
-2.056159583e-05
6.086965499e-06
2.044349728e-06
-1.647106152e-05
5.859084898e-06
1.197733961e-05
-2.090200096e-05
5.73532965e-06
1.939341834e-05
-2.729049004e-05
5.995458748e-06
2.826656872e-05
-3.334531579e-05
1.610791062e-06
3.79582532e-05
-3.981604191e-05
-4.61485183e-06
4.177971634e-05
-4.516056197e-05
3.755169171e-06
-4.992818566e-05
8.795812658e-06
-2.210750325e-06
4.242587423e-05
2.901485667e-05
-5.504776416e-06
3.659222404e-06
2.483962057e-05
-6.728835802e-07
-2.17295877e-05
9.628614224e-06
1.080273772e-05
-3.52617546e-05
-5.253069548e-07
1.035194834e-05
-1.071209575e-05
2.295579506e-06
-1.900779434e-06
-9.127824405e-06
1.614247322e-05
-1.929236304e-05
-4.801155265e-06
1.667921718e-05
-2.492404963e-05
-4.718834891e-06
5.877462528e-06
-2.420807302e-05
-1.427740094e-05
3.188764558e-06
-2.797597593e-05
-2.799694819e-05
6.846132172e-06
-3.511219554e-05
-3.624343442e-05
8.431017357e-06
-4.250044479e-05
-4.238317125e-05
7.918300766e-06
-4.886566058e-05
-4.518353652e-05
5.775946798e-06
-5.336252868e-05
-4.515420935e-05
3.161145133e-06
-5.600379714e-05
-4.400795836e-05
7.974694302e-07
-5.701675463e-05
-4.238094815e-05
-1.186755948e-06
-5.653204235e-05
-4.06282831e-05
-2.710302878e-06
-5.442040099e-05
-3.877558869e-05
-3.86885595e-06
-4.973087008e-05
-3.685341982e-05
-4.834696353e-06
-4.574531665e-05
-3.656368398e-05
-4.813886817e-06
-4.110747902e-05
-3.57228358e-05
-4.886956692e-06
-3.571146737e-05
-3.455251023e-05
-4.763797472e-06
-2.980261619e-05
-3.313049258e-05
-4.157713692e-06
-2.342290976e-05
-3.165060321e-05
-2.912253112e-06
-1.667186102e-05
-3.02672619e-05
-1.07216345e-06
-9.404451004e-06
-2.828429718e-05
4.555546745e-07
-9.854195475e-07
-2.690495282e-05
2.015057778e-06
5.502005099e-06
-3.025099177e-05
2.861838694e-06
6.806876239e-06
-3.418272583e-05
5.587573034e-06
1.606630233e-05
-3.989570832e-05
-2.708865098e-06
3.749463814e-05
-3.822098794e-05
-2.30231643e-05
4.279525573e-05
-4.706403096e-05
-3.397071609e-06
-5.389547661e-05
7.032161713e-06
-8.327734307e-06
1.803616468e-05
3.27185537e-05
-1.705574402e-05
-3.242832408e-06
1.5631163e-05
-1.333038258e-05
-1.829917938e-05
-7.154703018e-06
3.347331078e-06
-2.127655143e-05
-3.066181917e-05
6.215310412e-06
-6.291422886e-06
-7.28768139e-06
-9.237689144e-06
-1.674945131e-05
2.307567225e-05
-2.441931712e-05
-1.651012308e-05
2.689152818e-05
-2.93840242e-05
-1.989958829e-05
2.014635115e-05
-3.119045908e-05
-2.552133996e-05
1.305119959e-05
-3.468259249e-05
-3.319913268e-05
8.695091914e-06
-3.90328051e-05
-3.893156137e-05
7.039060962e-06
-4.41969381e-05
-4.347157779e-05
6.253210546e-06
-4.938595315e-05
-4.484454895e-05
4.850651967e-06
-5.341174536e-05
-4.369798436e-05
2.570148657e-06
-5.578077991e-05
-4.176030726e-05
1.219270854e-07
-5.65054738e-05
-3.957595997e-05
-2.079782909e-06
-5.563304431e-05
-3.753156135e-05
-3.968666957e-06
-5.31838829e-05
-3.573791227e-05
-5.486377635e-06
-4.909842001e-05
-3.433746359e-05
-6.600984508e-06
-4.465255997e-05
-3.362893282e-05
-7.380182067e-06
-3.9478189e-05
-3.299736751e-05
-7.899424678e-06
-3.354872138e-05
-3.232033043e-05
-8.161250544e-06
-2.70880995e-05
-3.162085357e-05
-7.969883991e-06
-2.03849827e-05
-3.114023783e-05
-7.213133214e-06
-1.379008642e-05
-3.09939603e-05
-5.867885508e-06
-7.007117031e-06
-3.060969486e-05
-4.457296103e-06
-5.212775442e-08
-3.10868326e-05
-2.772878731e-06
5.324916847e-06
-3.48110183e-05
-8.168064333e-07
9.0260328e-06
-3.968042967e-05
1.796732789e-06
1.502276787e-05
-4.483184822e-05
-1.060490772e-06
2.705638276e-05
-4.30568634e-05
-7.197749439e-06
2.993248314e-05
-5.327731662e-05
3.337196907e-06
-5.932558784e-05
5.801786704e-06
-3.912194756e-05
2.586759963e-05
3.129177923e-05
-5.843526883e-05
2.03475467e-05
-4.275813239e-06
-4.616626922e-05
1.971923604e-05
-5.028591257e-05
-1.40282705e-06
1.851455395e-05
-8.455299517e-05
2.163473732e-05
3.683859797e-06
-3.301173191e-05
-3.646971666e-06
-1.469241011e-05
2.322570014e-05
-2.463417342e-05
-1.905578656e-05
2.353381107e-05
-3.276383163e-05
-2.553657284e-05
1.376750667e-05
-3.505213577e-05
-2.944762345e-05
6.215373055e-06
-3.638398746e-05
-3.449860095e-05
2.632045184e-06
-3.862399884e-05
-3.904854941e-05
2.357671826e-06
-4.284813994e-05
-4.289209451e-05
3.645285619e-06
-4.797845467e-05
-4.352317838e-05
3.809532341e-06
-5.22436097e-05
-4.152946075e-05
2.09718084e-06
-5.486836551e-05
-3.889075671e-05
-2.442798315e-07
-5.57381691e-05
-3.615135314e-05
-2.55431802e-06
-5.48869e-05
-3.365736082e-05
-4.725009204e-06
-5.243364505e-05
-3.155238519e-05
-6.638341906e-06
-4.86135046e-05
-2.997204306e-05
-8.185136892e-06
-4.39172523e-05
-2.898025992e-05
-9.344511429e-06
-3.843456703e-05
-2.835091748e-05
-1.012873272e-05
-3.225294371e-05
-2.795443766e-05
-1.054712781e-05
-2.571592196e-05
-2.771772066e-05
-1.043978415e-05
-1.907885148e-05
-2.785869703e-05
-9.918266531e-06
-1.264597503e-05
-2.843410751e-05
-8.992418872e-06
-6.398331786e-06
-2.92655507e-05
-7.591515055e-06
-1.158267e-06
-3.106391136e-05
-5.262755954e-06
2.811907476e-06
-3.651937809e-05
-2.261638724e-06
2.217675601e-06
-4.094610779e-05
1.860082261e-06
6.846170247e-06
-4.911920077e-05
-3.410720874e-07
2.251585067e-05
-4.264701834e-05
-1.607930791e-05
2.410855441e-05
-5.521541249e-05
3.453941224e-07
-6.006607558e-05
2.766858696e-06
-5.275811245e-05
4.614581616e-05
3.248122387e-05
-7.37694627e-05
4.556361497e-05
-4.203282148e-06
-6.134157479e-05
5.199144668e-05
-4.469805318e-05
-1.001304581e-05
3.830556532e-05
-7.111764153e-05
1.046460838e-06
-6.912178016e-06
-4.62317314e-07
-3.026601895e-05
-1.144519566e-05
2.806633592e-05
-3.592705279e-05
-2.243190523e-05
9.038008427e-06
-3.966091914e-05
-2.499789351e-05
3.195974938e-06
-3.765409608e-05
-2.888617068e-05
-2.567588051e-06
-3.558914346e-05
-3.237625962e-05
-4.186663362e-06
-3.581921468e-05
-3.610186721e-05
-2.716027223e-06
-3.950048016e-05
-3.999458346e-05
7.843095443e-07
-4.513001412e-05
-4.06342242e-05
2.741112987e-06
-5.004075922e-05
-3.833803424e-05
1.719824765e-06
-5.320520061e-05
-3.531812235e-05
-4.077131375e-07
-5.449290178e-05
-3.216426831e-05
-2.698928e-06
-5.396162439e-05
-2.918952985e-05
-4.998673831e-06
-5.176291451e-05
-2.656410519e-05
-7.18657262e-06
-4.816735064e-05
-2.44536838e-05
-9.113519123e-06
-4.349706142e-05
-2.294307689e-05
-1.070707854e-05
-3.794854494e-05
-2.196979999e-05
-1.192925113e-05
-3.162248744e-05
-2.148669153e-05
-1.279343582e-05
-2.525647317e-05
-2.16332993e-05
-1.245008142e-05
-1.892867411e-05
-2.232902903e-05
-1.1857137e-05
-1.288821392e-05
-2.362390314e-05
-1.085036742e-05
-7.384871566e-06
-2.559270502e-05
-9.175931286e-06
-3.176971539e-06
-2.90074018e-05
-6.264200164e-06
-6.414390923e-07
-3.592089326e-05
-3.133863901e-06
9.967043377e-07
-4.124337952e-05
-1.340750462e-06
3.443616288e-06
-4.892244231e-05
-2.64361919e-06
9.06713306e-06
-4.757565723e-05
-6.948674215e-07
1.06159033e-05
-5.552460162e-05
-1.239611522e-06
-5.869174799e-05
-2.388614542e-06
-3.565744478e-05
4.791421445e-05
3.389034133e-05
-5.524614558e-05
4.463471405e-05
2.051928276e-05
-4.941147522e-05
4.632291412e-05
-1.62142385e-07
-3.161551426e-05
3.070240088e-05
-1.019103015e-05
-3.470206883e-05
-1.615590451e-05
1.23313429e-05
-4.255228862e-05
-1.406139141e-05
1.04673198e-05
-4.348900199e-05
-2.171383747e-05
2.193965098e-07
-4.172042982e-05
-2.208973027e-05
-4.676106075e-06
-3.789436394e-05
-2.44681155e-05
-8.243596945e-06
-3.3601416e-05
-2.793791628e-05
-8.730827535e-06
-3.274573188e-05
-3.077429874e-05
-6.182822723e-06
-3.609812947e-05
-3.540016642e-05
-1.24158678e-06
-4.213407705e-05
-3.63841781e-05
1.78634508e-06
-4.747813337e-05
-3.426974785e-05
1.27621053e-06
-5.103492191e-05
-3.11296098e-05
-6.312931826e-07
-5.269284052e-05
-2.76855511e-05
-2.820380989e-06
-5.252729526e-05
-2.427176932e-05
-5.082902423e-06
-5.06770066e-05
-2.109339818e-05
-7.320605072e-06
-4.738779522e-05
-1.836585851e-05
-9.376656063e-06
-4.293418438e-05
-1.627448188e-05
-1.112183385e-05
-3.760284784e-05
-1.489695858e-05
-1.240381528e-05
-3.167932857e-05
-1.428311478e-05
-1.312674591e-05
-2.566923909e-05
-1.451704429e-05
-1.312601007e-05
-1.983246243e-05
-1.557618897e-05
-1.258930652e-05
-1.451374458e-05
-1.748484933e-05
-1.145749549e-05
-1.030613146e-05
-2.049363517e-05
-9.306450511e-06
-7.985543723e-06
-2.551764306e-05
-5.810164182e-06
-7.08224783e-06
-3.29377777e-05
-3.886278392e-06
-4.808572926e-06
-3.842107653e-05
-5.095888551e-06
-2.071419141e-06
-4.458188521e-05
-7.077684989e-06
1.486330744e-06
-4.641892449e-05
-4.714471746e-06
2.354171445e-06
-5.097590446e-05
-5.416582929e-06
-5.24526695e-05
-6.981004178e-06
-2.473063854e-05
3.833184344e-05
3.431412009e-05
-4.082281515e-05
3.08897947e-05
2.983832494e-05
-4.181578045e-05
2.595628079e-05
2.136108904e-05
-3.709703463e-05
1.543924128e-05
1.054559921e-05
-4.431193176e-05
-7.772089435e-06
-1.168020553e-06
-4.548258617e-05
-8.879048372e-06
-4.01090394e-06
-4.572400338e-05
-1.347832354e-05
-7.993506524e-06
-4.325662498e-05
-1.532642369e-05
-9.230253102e-06
-3.862299641e-05
-1.892251576e-05
-1.01789455e-05
-3.255832714e-05
-2.514368871e-05
-8.858673271e-06
-3.177142971e-05
-2.554697102e-05
-6.014032997e-06
-3.469617738e-05
-3.140990559e-05
-1.065262246e-06
-4.054364477e-05
-3.190517051e-05
1.368768074e-06
-4.550737642e-05
-3.010393893e-05
7.982691272e-07
-4.888288452e-05
-2.670717048e-05
-1.046568996e-06
-5.055600871e-05
-2.284183985e-05
-3.17022013e-06
-5.057701981e-05
-1.891006925e-05
-5.340324988e-06
-4.904335659e-05
-1.514755688e-05
-7.479146363e-06
-4.61574988e-05
-1.176392068e-05
-9.487443925e-06
-4.213952501e-05
-9.073757298e-06
-1.121835375e-05
-3.731954109e-05
-7.214841442e-06
-1.25017652e-05
-3.202250286e-05
-6.375276271e-06
-1.320455279e-05
-2.666399322e-05
-6.646896312e-06
-1.322834966e-05
-2.15969163e-05
-7.943999282e-06
-1.26989834e-05
-1.74411928e-05
-1.02396427e-05
-1.140068249e-05
-1.525250487e-05
-1.395434127e-05
-8.727779753e-06
-1.52388233e-05
-2.000398905e-05
-5.527181053e-06
-1.480659072e-05
-2.676599022e-05
-6.603914425e-06
-1.0801723e-05
-3.140347427e-05
-1.102242406e-05
-6.308041505e-06
-3.551057099e-05
-1.356499932e-05
-3.017474547e-06
-3.805963285e-05
-1.164989867e-05
-3.220149776e-06
-4.062945674e-05
-1.014383776e-05
-4.088865373e-05
-1.134085073e-05
-2.646667891e-05
3.063532791e-05
3.416412245e-05
-4.326479079e-05
2.563181996e-05
2.205703517e-05
-4.705967016e-05
2.1138591e-05
8.613518545e-06
-4.291747549e-05
1.55963614e-05
-4.298455561e-06
-4.311530063e-05
6.602883148e-06
-1.417644986e-05
-4.240630488e-05
4.616661101e-06
-1.420416663e-05
-4.410007345e-05
-8.45422473e-07
-1.09388106e-05
-4.509629376e-05
-6.771384348e-06
-7.558718151e-06
-4.261286926e-05
-1.608370922e-05
-5.322345868e-06
-3.586837744e-05
-2.960633013e-05
-2.281993586e-06
-3.596003314e-05
-2.413718785e-05
-1.318300145e-06
-3.727528316e-05
-3.138211804e-05
1.287463047e-06
-4.125512512e-05
-2.911432935e-05
1.189125839e-06
-4.459593183e-05
-2.676565475e-05
2.769644036e-09
-4.710639122e-05
-2.230831535e-05
-1.888119384e-06
-4.842155408e-05
-1.756888422e-05
-3.957489721e-06
-4.838410926e-05
-1.292930173e-05
-6.017897351e-06
-4.701622287e-05
-8.546423676e-06
-7.968701034e-06
-4.4514974e-05
-4.469240634e-06
-9.79561191e-06
-4.108760726e-05
-1.130646659e-06
-1.137016502e-05
-3.696938147e-05
1.220166008e-06
-1.255292828e-05
-3.245686374e-05
2.410535608e-06
-1.329803599e-05
-2.796369318e-05
2.451104619e-06
-1.359089511e-05
-2.404916122e-05
1.429142753e-06
-1.328742391e-05
-2.165981618e-05
-8.098854613e-07
-1.181888936e-05
-2.18011765e-05
-4.967445682e-06
-8.845366528e-06
-2.345687488e-05
-1.107191175e-05
-7.276255897e-06
-2.221158884e-05
-1.613437527e-05
-1.18768333e-05
-1.572888549e-05
-1.915883215e-05
-1.872734217e-05
-8.323732464e-06
-2.133017695e-05
-2.15855897e-05
-3.899813963e-06
-2.346134301e-05
-1.902230969e-05
-5.089789779e-06
-2.48527602e-05
-1.458681514e-05
-2.440869478e-05
-1.451233753e-05
-3.307819776e-05
3.208584884e-05
3.162843978e-05
-4.922618688e-05
2.957803428e-05
1.220252264e-05
-5.279907116e-05
2.756455374e-05
-2.852357744e-06
-4.992041559e-05
2.517924247e-05
-1.246086536e-05
-4.882027774e-05
2.145045142e-05
-1.594712401e-05
-4.999180889e-05
1.723274378e-05
-1.144408981e-05
-5.576142182e-05
8.253174135e-06
-3.328650075e-06
-5.946572117e-05
-5.915551048e-06
2.848409921e-06
-5.352326785e-05
-2.817371143e-05
6.147120183e-06
-3.879507961e-05
-5.215408215e-05
7.8192878e-06
-3.839782321e-05
-2.788742005e-05
3.352491486e-06
-3.825416727e-05
-3.397007351e-05
2.444186681e-06
-4.10606912e-05
-2.559797675e-05
-7.098974911e-07
-4.350609016e-05
-2.245443554e-05
-1.865736072e-06
-4.551124789e-05
-1.667850393e-05
-3.624487435e-06
-4.676649584e-05
-1.085193471e-05
-5.461473747e-06
-4.707861209e-05
-5.181393491e-06
-7.435535582e-06
-4.638759897e-05
-1.664306751e-07
-9.070735775e-06
-4.448188041e-05
4.003247572e-06
-1.037793177e-05
-4.167392959e-05
7.469070101e-06
-1.140739423e-05
-3.822547078e-05
1.005841604e-05
-1.228644161e-05
-3.438126354e-05
1.16995817e-05
-1.313299725e-05
-3.047372763e-05
1.236968883e-05
-1.382588204e-05
-2.719240016e-05
1.200879636e-05
-1.386076975e-05
-2.589836191e-05
1.046477943e-05
-1.256852756e-05
-2.766862512e-05
7.274723196e-06
-1.047177055e-05
-3.014332535e-05
3.078770213e-06
-1.167589299e-05
-2.767040984e-05
2.214798208e-07
-1.882873754e-05
-1.852050654e-05
-1.200733872e-06
-2.710802879e-05
-7.842873785e-06
-1.691673721e-06
-3.031620451e-05
-1.438549098e-06
-2.779067939e-06
-2.708672738e-05
-3.292154823e-06
-4.000931713e-06
-1.899833439e-05
-4.034362966e-06
-1.578487088e-05
-3.642834823e-05
3.792673875e-05
3.058807566e-05
-5.224256504e-05
3.541612137e-05
9.976731195e-06
-5.654634299e-05
3.485385045e-05
-2.984953094e-06
-5.571687053e-05
3.346134377e-05
-9.111076542e-06
-5.614306134e-05
3.028394632e-05
-8.406953187e-06
-6.161140026e-05
2.386936923e-05
-1.168270521e-06
-7.166293949e-05
8.653768773e-06
9.65095603e-06
-7.691983403e-05
-1.605439722e-05
1.539598989e-05
-6.037892971e-05
-5.161742033e-05
6.903209322e-06
-3.960065254e-05
-6.013091007e-05
-1.280092334e-05
-3.945188043e-05
-2.287305893e-05
-5.164036739e-06
-3.89360405e-05
-3.275227142e-05
-1.733924957e-06
-4.049679881e-05
-1.803887696e-05
-5.998600649e-06
-4.147372639e-05
-1.536741116e-05
-6.110095019e-06
-4.31331764e-05
-8.343510213e-06
-6.675428593e-06
-4.478501662e-05
-1.997663825e-06
-7.202248289e-06
-4.51241169e-05
3.937410141e-06
-8.779493048e-06
-4.439610785e-05
9.099547942e-06
-9.99376419e-06
-4.266826278e-05
1.290289705e-05
-1.062726788e-05
-4.040486233e-05
1.600245332e-05
-1.079655849e-05
-3.816486274e-05
1.855466928e-05
-1.073603304e-05
-3.628701415e-05
2.052043273e-05
-1.069848992e-05
-3.504458672e-05
2.18202837e-05
-1.069282884e-05
-3.496670182e-05
2.236346444e-05
-1.043238242e-05
-3.639903742e-05
2.205236901e-05
-1.015511355e-05
-3.848648736e-05
2.089887027e-05
-1.153659732e-05
-3.821531109e-05
1.9364115e-05
-1.655647753e-05
-3.227645072e-05
1.862769983e-05
-2.434509536e-05
-1.986228061e-05
1.879932053e-05
-3.241430754e-05
-5.482406159e-06
1.953879516e-05
-3.561047233e-05
4.94029465e-06
1.998561287e-05
-3.3187655e-05
3.854557964e-06
1.885803307e-05
-2.177338261e-05
1.869015114e-05
-1.386143982e-05
-3.588226931e-05
4.233702261e-05
3.147246574e-05
-5.31652775e-05
3.952412158e-05
1.317548756e-05
-6.093860471e-05
3.993884542e-05
2.688795042e-06
-6.57695347e-05
3.916860378e-05
-8.758769806e-07
-7.31098466e-05
3.550026023e-05
2.124519588e-06
-8.545445756e-05
2.727511051e-05
8.939601277e-06
-0.0001010901617
1.498211836e-05
9.307910143e-06
-0.0001077453003
4.096966633e-06
-1.349654389e-05
-8.945823357e-05
5.291917798e-06
-7.519757218e-05
-2.29657346e-05
6.698758957e-07
-0.0001272926123
-8.886408718e-06
3.124390953e-07
-3.726619695e-05
-2.550144252e-05
-1.031747975e-05
-5.820106464e-06
-2.81459943e-05
-2.568898034e-06
-1.282568882e-05
-3.131236128e-05
2.512416868e-07
-1.245223484e-05
-3.317539684e-05
5.464587304e-06
-1.194509656e-05
-3.685275749e-05
8.986466234e-06
-7.306668611e-06
-3.918282431e-05
1.369405573e-05
-7.426442517e-06
-3.992325869e-05
1.846824389e-05
-8.628096871e-06
-3.932317799e-05
2.181253606e-05
-9.509547558e-06
-3.820504901e-05
2.437075585e-05
-9.486261245e-06
-3.74846601e-05
2.656458705e-05
-8.730142999e-06
-3.774766784e-05
2.857282084e-05
-7.789226369e-06
-3.908319663e-05
3.034840598e-05
-7.192453647e-06
-4.129622634e-05
3.174068151e-05
-7.164067114e-06
-4.371210821e-05
3.262621451e-05
-8.157869888e-06
-4.475685387e-05
3.307118609e-05
-1.112751232e-05
-4.224173285e-05
3.358592526e-05
-1.673691773e-05
-3.420811373e-05
3.481376841e-05
-2.421971599e-05
-2.036402745e-05
3.672407361e-05
-3.176891911e-05
-4.553876095e-06
3.84895483e-05
-3.476102273e-05
6.398366082e-06
3.982775804e-05
-3.079459629e-05
4.44868264e-06
3.981302199e-05
-1.900544317e-05
4.056477975e-05
-9.05494193e-06
-3.245512249e-05
4.270403087e-05
3.208845799e-05
-5.102171148e-05
3.991007673e-05
1.818097991e-05
-6.226788613e-05
4.119717118e-05
9.988163325e-06
-7.229816743e-05
4.160727208e-05
7.591863125e-06
-8.845166968e-05
4.106044591e-05
1.059345116e-05
-0.0001194192566
4.109628892e-05
1.714666791e-05
-0.0001692950225
4.487487353e-05
1.998445432e-05
-0.0002031458275
6.507237892e-05
-2.712502032e-05
-7.240434085e-05
0.0001341407879
-0.0002595830005
2.890685426e-05
9.820019873e-05
-0.000198830885
2.650564854e-05
3.460688984e-05
-3.189027773e-05
-1.624527675e-05
3.278331317e-05
-3.473638527e-07
-1.932495202e-05
1.979390273e-05
-1.928283984e-05
-2.116491355e-05
2.152629067e-05
-1.943451616e-05
-2.023934797e-05
2.155417257e-05
-1.701503976e-05
-2.540375937e-05
2.203848518e-05
-7.887473263e-06
-3.155523892e-05
2.46957926e-05
-4.850129498e-06
-3.47948292e-05
2.80989404e-05
-6.39097987e-06
-3.571434603e-05
3.053533176e-05
-7.803160106e-06
-3.576662547e-05
3.229867414e-05
-7.875531543e-06
-3.641913781e-05
3.388515718e-05
-6.667962861e-06
-3.845308133e-05
3.556171138e-05
-4.95486323e-06
-4.160587396e-05
3.732074805e-05
-3.819477205e-06
-4.491804735e-05
3.906293707e-05
-4.010024459e-06
-4.715986379e-05
4.082537576e-05
-5.957307495e-06
-4.700093087e-05
4.276463405e-05
-9.852371247e-06
-4.304083177e-05
4.52358835e-05
-1.561007908e-05
-3.402725222e-05
4.838974693e-05
-2.258960725e-05
-1.976889174e-05
5.181412543e-05
-2.934849649e-05
-3.614957852e-06
5.451447379e-05
-3.217897429e-05
7.065570293e-06
5.659266557e-05
-2.744559077e-05
5.353046304e-06
5.757341772e-05
-1.604799e-05
5.907533935e-05
-5.46617084e-06
-2.814864333e-05
3.979922309e-05
3.105367956e-05
-4.765982241e-05
3.765399162e-05
2.176750019e-05
-6.195088762e-05
3.977851522e-05
1.570995369e-05
-7.460240202e-05
4.144820267e-05
1.281082563e-05
-8.855590906e-05
4.270539019e-05
1.230888951e-05
-0.0001050642091
4.525775659e-05
1.234739509e-05
-0.0001241685065
5.194881091e-05
1.20312857e-05
-0.0001352385283
6.957116464e-05
6.572235362e-06
-7.820011355e-05
0.000108763093
-3.166263971e-05
-3.219124677e-05
0.0001100564314
-5.78622251e-05
-3.02763568e-05
4.963255692e-05
-1.69387982e-05
-3.258157511e-05
4.936606621e-05
-1.42760195e-05
-2.54651387e-05
3.719668589e-05
-2.451861014e-05
-1.656515582e-05
3.748088764e-05
-2.485409165e-05
-1.042321044e-05
3.635098397e-05
-2.093856138e-05
-1.423228657e-05
3.518982426e-05
-9.342128196e-06
-2.350322128e-05
3.609208091e-05
-2.125248951e-06
-2.948870161e-05
3.772323808e-05
-3.638738735e-06
-3.208379484e-05
3.885996592e-05
-5.729487646e-06
-3.329064074e-05
3.959012944e-05
-6.084581044e-06
-3.503254748e-05
4.032559014e-05
-4.698519736e-06
-3.821999246e-05
4.122490273e-05
-2.475755056e-06
-4.231477834e-05
4.227070877e-05
-8.551929792e-07
-4.595480496e-05
4.364100647e-05
-9.380678937e-07
-4.762172475e-05
4.576482796e-05
-3.272566514e-06
-4.627424248e-05
4.903361142e-05
-7.616508382e-06
-4.126251584e-05
5.350906857e-05
-1.328497686e-05
-3.196159838e-05
5.868495882e-05
-1.959620643e-05
-1.824727547e-05
6.358061542e-05
-2.548090523e-05
-2.790683166e-06
6.712190497e-05
-2.806412746e-05
7.097123497e-06
6.97142654e-05
-2.300952876e-05
5.939869384e-06
7.139893235e-05
-1.266835809e-05
7.293035822e-05
-2.841841583e-06
-2.474063693e-05
3.583066827e-05
2.870931758e-05
-4.465831534e-05
3.501967075e-05
2.255213088e-05
-6.123938035e-05
3.793657819e-05
1.842313768e-05
-7.602061522e-05
4.110474966e-05
1.512484062e-05
-8.986231855e-05
4.436196846e-05
1.218532687e-05
-0.0001022243758
4.868637271e-05
8.933756447e-06
-0.000111538037
5.521521273e-05
6.04778692e-06
-0.0001121754176
6.551110708e-05
4.698529799e-06
-8.5691642e-05
8.126822358e-05
1.012660312e-06
-5.682018185e-05
8.906964579e-05
-7.8824037e-06
-5.061788765e-05
5.930746514e-05
-1.587599111e-05
-3.978218341e-05
5.848438024e-05
-1.995280136e-05
-2.777889998e-05
5.172129638e-05
-2.6527304e-05
-1.425710435e-05
5.064513698e-05
-2.668566824e-05
-4.689086379e-06
4.861716909e-05
-2.18340087e-05
-6.943860286e-06
4.665770617e-05
-9.213002409e-06
-1.74601953e-05
4.630211251e-05
3.063560168e-07
-2.514493258e-05
4.643883199e-05
-1.030847736e-06
-2.893871013e-05
4.624944998e-05
-3.595740746e-06
-3.105843968e-05
4.59130733e-05
-4.203289247e-06
-3.348470189e-05
4.56347657e-05
-2.883022308e-06
-3.703253171e-05
4.539432862e-05
-6.21726856e-07
-4.105684911e-05
4.522314394e-05
1.071741953e-06
-4.429071579e-05
4.571800475e-05
1.156728995e-06
-4.50869799e-05
4.766233245e-05
-1.101371397e-06
-4.265136943e-05
5.180470918e-05
-5.206832306e-06
-3.697012964e-05
5.815271293e-05
-1.032500394e-05
-2.814652429e-05
6.556374371e-05
-1.570250407e-05
-1.590449572e-05
7.200907689e-05
-2.067059917e-05
-2.183129697e-06
7.631289176e-05
-2.291245524e-05
6.25495545e-06
7.90854187e-05
-1.780933876e-05
5.233959684e-06
8.118327939e-05
-8.763430603e-06
8.183198262e-05
-6.175324079e-07
-2.288470916e-05
3.227715201e-05
2.643825354e-05
-4.260965985e-05
3.301651235e-05
2.172813956e-05
-6.002669451e-05
3.656174212e-05
1.879190867e-05
-7.564702369e-05
4.083435282e-05
1.589077979e-05
-8.920980942e-05
4.561029715e-05
1.231454594e-05
-9.957973464e-05
5.113157327e-05
7.924886426e-06
-0.0001051669221
5.753073936e-05
3.271951193e-06
-0.0001036504264
6.470721286e-05
-7.121459716e-07
-9.107863706e-05