/*--------------------------------*- C++ -*----------------------------------*\
  =========                 |
  \\      /  F ield         | OpenFOAM: The Open Source CFD Toolbox
   \\    /   O peration     | Website:  https://openfoam.org
    \\  /    A nd           | Version:  8
     \\/     M anipulation  |
\*---------------------------------------------------------------------------*/
FoamFile
{
    version     2.0;
    format      ascii;
    class       volVectorField;
    location    "1.4";
    object      U;
}
// * * * * * * * * * * * * * * * * * * * * * * * * * * * * * * * * * * * * * //

dimensions      [0 1 -1 0 0 0 0];

internalField   nonuniform List<vector> 
67286
(
(0.1859762527 -0.01543517474 -1.130823312)
(0.4812236041 -0.1510050469 -0.9329194399)
(0.5949808496 -0.2427201585 -0.7625088952)
(0.6635700211 -0.260742766 -0.4909855054)
(0.5876435316 -0.2111014466 -0.1410963576)
(0.3196489294 -0.1649493408 0.01757138711)
(0.1294926868 -0.1830632673 -0.1249727017)
(0.1175148311 -0.302055162 -0.07167144532)
(0.0777418828 -0.4292693106 -0.005313323274)
(0.001215801328 -0.4306976633 0.09546666916)
(-0.1628211939 -0.4690782207 0.1213084312)
(-0.2608204565 -0.4862289086 0.09161120217)
(-0.3526784482 -0.47365514 0.07379080605)
(-0.413682832 -0.4486404 0.05177661914)
(-0.456881462 -0.4168237092 0.03734546304)
(-0.4852447207 -0.3808997958 0.03061734474)
(-0.5064945626 -0.3450875225 0.03216490238)
(-0.5259773972 -0.3099857239 0.03352106178)
(-0.5401001724 -0.2719059136 0.02088890652)
(-0.5409468465 -0.2287275875 -0.005348549915)
(-0.5166338651 -0.1824839382 -0.03611514694)
(-0.4625398564 -0.1447723382 -0.04656905788)
(-0.4172947484 -0.09630788361 -0.05062552752)
(-0.3450714415 -0.09376307112 -0.2108426195)
(-0.2786989036 -0.1203669509 -0.07409231784)
(-0.2126943689 -0.10712483 -0.1149481882)
(0.02838863711 -0.1361419965 -0.3758907645)
(0.2236589872 -0.1132066511 -0.1677838282)
(0.1362999714 0.4902138656 -0.8483925522)
(0.2832647348 0.3402867262 -0.5906921125)
(0.3271104933 0.2098300953 -0.2940222791)
(0.3312355336 0.06329399773 -0.07445354259)
(0.28856091 0.0005325254423 0.07738057189)
(0.2284651818 -0.004071616554 0.1397593239)
(0.1509282967 0.009169816529 0.07923575484)
(0.08260280981 -0.2637860126 0.04818091596)
(0.02553452524 -0.4238860661 -0.04051367089)
(0.001340228326 -0.4253710013 0.03228281446)
(-0.1285132575 -0.4708846369 0.09178190261)
(-0.2322120228 -0.4952449067 0.079795828)
(-0.3333471735 -0.4864035361 0.06584629303)
(-0.3988018539 -0.4653128693 0.04057854446)
(-0.4444815458 -0.4382061383 0.0278523765)
(-0.4745903019 -0.4076367224 0.02382331532)
(-0.4956406842 -0.3770358702 0.02586404381)
(-0.5116168138 -0.3451814712 0.02925164807)
(-0.5207439779 -0.3069797424 0.02818919163)
(-0.5220903421 -0.2608196389 0.02530894514)
(-0.5140478306 -0.2088440552 0.01256855997)
(-0.4524509686 -0.1620177417 -0.03312046375)
(-0.3879645137 -0.1214784615 -0.01971340125)
(-0.3466554166 -0.07868279211 -0.0706872868)
(-0.2776996 -0.07203373325 -0.138384648)
(-0.187084445 -0.04228299626 -0.2221507531)
(0.02249399025 -0.06321833907 -0.3306877729)
(0.212754854 -0.03795671914 -0.2376689058)
(0.2972225463 -0.05335062537 -0.164046993)
(0.364533375 -0.07085263971 -0.1030005312)
(0.4066773838 -0.09707630238 -0.04982124506)
(0.4289168604 -0.1255712971 -0.008562024008)
(0.08093254635 0.6931503254 -0.6155607869)
(0.1452376311 0.4806416152 -0.257611306)
(0.2087644952 0.1545400192 0.04549310386)
(0.2203250196 -0.06633129383 0.177213622)
(0.1882132529 -0.1902707507 0.2040307384)
(0.1319109596 -0.3046009024 0.2172265006)
(0.06310201662 -0.2227402624 0.1908705586)
(-0.03118271635 -0.3472973206 -0.01172367299)
(-0.04272700142 -0.4100011733 -0.1444029567)
(-0.0007276098901 -0.3938072687 -0.0520990999)
(-0.09431359953 -0.4473689186 0.0555513655)
(-0.2068371722 -0.4791506123 0.06857109551)
(-0.3171408044 -0.4784828508 0.06025045908)
(-0.3864134467 -0.4651793055 0.03335588316)
(-0.4340019696 -0.4461801926 0.02231182479)
(-0.4663654873 -0.4235937198 0.01836023664)
(-0.4864255189 -0.3985701147 0.01488648232)
(-0.4942463615 -0.3711391294 0.01270726229)
(-0.4897871261 -0.3392085692 0.01561558725)
(-0.4784414774 -0.2942368458 0.02285782189)
(-0.4631823555 -0.2410913231 0.02697238398)
(-0.4274413338 -0.1738431897 0.0001316781018)
(-0.3902216627 -0.1236504431 0.02322580642)
(-0.3592371558 -0.05899713715 -0.02095176201)
(-0.2875175416 -0.006043180045 -0.1190853241)
(-0.217016982 0.03244970812 -0.2540723063)
(0.04374983643 0.03048156814 -0.4272767541)
(0.2459995631 0.05518326396 -0.1548539171)
(0.2786318146 0.0132622713 -0.05365957944)
(0.3311864769 -0.0439297385 -0.007641625929)
(0.3680212556 -0.1160568622 0.03133895879)
(0.3930396395 -0.1676499191 0.05401620469)
(0.03297033929 0.7815153173 -0.3379766854)
(-0.009961990034 0.4915877304 0.01626983543)
(0.1047563107 0.1673569182 0.2182163868)
(0.1897744416 -0.07442216793 0.1611337377)
(0.04558212381 -0.1363644374 0.1376202469)
(0.009868691868 -0.1854311416 0.1227869221)
(-0.05713341182 -0.1848378512 -0.003109993153)
(-0.1852866585 -0.228097528 -0.1691585621)
(-0.1026689295 -0.2502967067 -0.2448136097)
(-0.001428856857 -0.3073622022 -0.1075709832)
(-0.08737784662 -0.3829958527 0.02649058742)
(-0.2063814824 -0.4280394323 0.05875506001)
(-0.3173540729 -0.4464399154 0.05163293433)
(-0.3871323772 -0.4442681679 0.02217801705)
(-0.4318925523 -0.4342444751 0.008275594536)
(-0.461073936 -0.4202535997 0.001783007333)
(-0.4773487799 -0.4029175243 -0.002683939879)
(-0.4795441575 -0.3849016813 -0.005508315548)
(-0.4602793191 -0.3733339802 -0.002781170453)
(-0.4352811678 -0.3273822221 0.006774579238)
(-0.4135616811 -0.2889247269 0.01863375692)
(-0.380344483 -0.242898727 0.03052568948)
(-0.3441003725 -0.1962999099 0.05184698638)
(-0.3083910403 -0.1278290585 0.06360902079)
(-0.2548113799 -0.03535308567 0.05576377561)
(-0.2154366949 0.06240312679 0.0057748217)
(-0.02301152396 0.1367938591 -0.03396667075)
(0.1615096554 0.0460699159 0.02205866145)
(0.1932766665 -0.04264823652 0.06228000925)
(0.256519231 -0.1327022154 0.07404998472)
(0.3147485848 -0.2304958529 0.07705898555)
(0.3620508571 -0.272160848 0.08538131239)
(0.3685458959 -0.3187543431 0.08678133027)
(-0.004884063144 0.7174303658 -0.04008635403)
(0.03098863701 0.3430025082 0.2087614125)
(-0.01437341567 0.005597680321 0.2159331168)
(0.05668856615 -0.1794558589 0.1126298816)
(0.02952044014 -0.1167413004 0.08608982294)
(-0.09333579267 -0.07129732903 0.02434831621)
(-0.1889289221 -0.1293639498 -0.125514782)
(-0.2173059776 -0.1190838516 -0.2243347656)
(-0.1646249302 -0.1090554944 -0.19003736)
(-0.1009401031 -0.2218848166 -0.05846589597)
(-0.1491979215 -0.3125110399 0.04243017761)
(-0.252511834 -0.3748912459 0.06313791346)
(-0.343791345 -0.4122994667 0.04830124636)
(-0.4029398956 -0.4194623091 0.02168654836)
(-0.4407728862 -0.4148122842 0.00397984105)
(-0.4635228926 -0.4048932585 -0.007810359222)
(-0.475646823 -0.3905208158 -0.01566853738)
(-0.4825489626 -0.3723639285 -0.02065775296)
(-0.4349472396 -0.3506614527 -0.02661581652)
(-0.386237394 -0.3378933487 -0.01568816404)
(-0.3727268884 -0.3179764558 -0.007042517503)
(-0.3401187494 -0.2932742611 0.002515844228)
(-0.3031990965 -0.2657597267 0.01770061099)
(-0.2633947642 -0.2292873895 0.03808941754)
(-0.2141641243 -0.1865973966 0.06303287532)
(-0.1537257922 -0.1424887685 0.07946495271)
(-0.04117498549 -0.07675220916 0.08007765997)
(0.0714324231 -0.1383734805 0.07252462959)
(0.1304090311 -0.2056233206 0.08216354565)
(0.1790128673 -0.2705932606 0.06076795607)
(0.2763521377 -0.3928469951 -0.06261050238)
(0.3426819394 -0.4005894066 0.0274054539)
(0.3397715185 -0.4224437331 0.06757972956)
(-0.02867326945 0.5209379178 0.177139154)
(-0.0094567736 0.1122658314 0.2395886317)
(-0.07421593843 -0.1221764058 0.09956946736)
(0.06102480787 -0.2507704779 -0.01443179683)
(0.1138784245 -0.03287987893 0.02614386473)
(0.06278156049 -0.01258580853 0.1285853986)
(-0.0970588562 0.03665490931 0.1050873033)
(-0.2095802789 0.04402092438 -0.00813909176)
(-0.1967605371 -0.06294546113 0.0007077593357)
(-0.1994760325 -0.2195231559 0.0613828037)
(-0.2547669939 -0.3077106321 0.06809954035)
(-0.3168476256 -0.3696071057 0.06090728554)
(-0.37514153 -0.4016622323 0.04143771019)
(-0.4192750579 -0.4064506353 0.01865592712)
(-0.4482523013 -0.3995170284 -0.0005098974054)
(-0.4627434564 -0.3871696345 -0.01557643595)
(-0.4647326234 -0.3719890756 -0.02627630009)
(-0.4540236811 -0.352987974 -0.03305325918)
(-0.4249675177 -0.3248809043 -0.03698662018)
(-0.3887313431 -0.331794088 -0.03608869041)
(-0.3541347248 -0.323373357 -0.03496649509)
(-0.3133594196 -0.3100478259 -0.03307616255)
(-0.2673297903 -0.2935009934 -0.02776168738)
(-0.2168753901 -0.2745134214 -0.0156732376)
(-0.1635307281 -0.2540976046 0.003868599488)
(-0.1107949066 -0.2271591639 0.01759473605)
(-0.03704898088 -0.2073409086 0.02746884569)
(0.01905240813 -0.2377586776 0.03647032348)
(0.07495371452 -0.2795849891 0.07575991799)
(0.03117041046 -0.3274078 0.02054995415)
(0.2356451051 -0.3063669805 -0.3115581764)
(0.3666095114 -0.3932120517 -0.05559344238)
(0.333976589 -0.4568590755 0.05234079331)
(-0.04070991113 0.2264332195 0.2783213055)
(-0.1004219134 -0.04763454597 0.1682036119)
(-0.1686332734 -0.2755826678 -0.03551070473)
(-0.05499343798 -0.3840856248 -0.3131056936)
(0.1078447499 -0.1608312066 -0.02334351828)
(-0.001853505827 -0.1566917286 0.2198509663)
(-0.1527841417 -0.1252292322 0.2208571959)
(-0.2393394138 -0.1295503683 0.1476838906)
(-0.2424282333 -0.1940035657 0.08783745072)
(-0.2661759404 -0.2810287289 0.05483456563)
(-0.2979500132 -0.3386643765 0.04854975457)
(-0.3360840677 -0.3842685401 0.04920825561)
(-0.3819709218 -0.4012761097 0.03879772204)
(-0.4211069752 -0.3956358795 0.01780907631)
(-0.4476703859 -0.3819284809 -0.002349019192)
(-0.4597395221 -0.3650114335 -0.01950287395)
(-0.4588147867 -0.3485901177 -0.03318002753)
(-0.4447662081 -0.3333598938 -0.04336538981)
(-0.417482341 -0.3202837744 -0.05003246251)
(-0.382333843 -0.3149550053 -0.05343938613)
(-0.3431797974 -0.3086876157 -0.05527506393)
(-0.2979621683 -0.3007869312 -0.05585867763)
(-0.247310758 -0.2918792913 -0.05378699731)
(-0.1930515867 -0.2843400418 -0.04691395654)
(-0.1388725809 -0.2797205013 -0.03433491746)
(-0.08667467987 -0.2713653622 -0.02323784599)
(-0.02428217511 -0.2679861013 -0.01055515084)
(0.02310269797 -0.2964993308 0.00930618852)
(0.06723845336 -0.3306381508 0.0379503671)
(0.07452840104 -0.3743971204 0.02629786505)
(0.1770579226 -0.3781077379 -0.02815660195)
(0.2538045106 -0.4477447209 0.0468853188)
(0.2381045813 -0.5055296038 0.0491123622)
(-0.1910493991 0.09945988104 0.2339276765)
(-0.4671575791 -0.01124082137 -0.06612777083)
(-0.4559812901 -0.03728630197 -0.5070747454)
(-0.3033701632 0.021003971 -0.9168055738)
(0.2772196542 0.04566248267 -0.2375401081)
(0.08678365376 -0.1452895063 0.2078456569)
(-0.1458772832 -0.1616165543 0.1591818486)
(-0.259580287 -0.2218431717 0.06947831972)
(-0.2765874841 -0.2581903347 0.01330128028)
(-0.2906055931 -0.3102909099 -0.003265082129)
(-0.300627848 -0.3540317152 0.01057377747)
(-0.3257692863 -0.3883542441 0.03408748224)
(-0.3696727641 -0.3951129509 0.03764447485)
(-0.410814638 -0.3799877705 0.0193038363)
(-0.4394518961 -0.3590553273 -0.001011161979)
(-0.4531488539 -0.3369555708 -0.01911131893)
(-0.4528030246 -0.3169558096 -0.034746215)
(-0.4387408941 -0.3000823082 -0.04781742248)
(-0.4125975996 -0.2874303337 -0.0576925345)
(-0.3775215275 -0.2803637145 -0.06414492167)
(-0.3359098943 -0.2753744257 -0.0676140703)
(-0.2882269019 -0.2712566031 -0.06845167104)
(-0.2361141047 -0.2675251172 -0.06620713247)
(-0.1819944282 -0.266310093 -0.06148001467)
(-0.1286829163 -0.2682260596 -0.05464722537)
(-0.07849743771 -0.2704317045 -0.04425419362)
(-0.02297029977 -0.2805366129 -0.0248986885)
(0.002598471397 -0.3211206228 0.00404242729)
(0.04618039496 -0.3659937999 0.03942526963)
(-0.01329616105 -0.4265213387 0.01964062472)
(0.1311473216 -0.3739592548 -0.216003775)
(0.2235967172 -0.4903678583 0.01679980256)
(0.1762200256 -0.5396173969 0.02636388142)
(-0.2852115153 0.3601632087 0.2149934734)
(-0.6002705024 0.3658851187 -0.277519412)
(-0.5660854273 0.3815387241 -0.7890177997)
(-0.4549674326 0.2960963993 -1.038446166)
(0.2980302034 0.02543519379 0.01021240197)
(-0.278666419 -0.1033811213 0.241309611)
(-0.2290516666 -0.1817349967 0.03212029599)
(-0.3431248285 -0.2298784027 -0.01078260239)
(-0.3092521557 -0.2674045144 -0.04997797217)
(-0.2976408142 -0.303792835 -0.05266931165)
(-0.2834134089 -0.3400880041 -0.02606086805)
(-0.2972384952 -0.3733045656 0.01834078741)
(-0.3436152887 -0.3767805404 0.03668926594)
(-0.390707249 -0.3562680598 0.02158801578)
(-0.4240041867 -0.3303747853 0.001821398596)
(-0.4415778904 -0.3038726692 -0.01602534615)
(-0.4441909167 -0.2795429883 -0.03219857235)
(-0.432452647 -0.2587249093 -0.04704955884)
(-0.4082480943 -0.2426725594 -0.05976832724)
(-0.3741120829 -0.2319200157 -0.06957037752)
(-0.3321947288 -0.2252047522 -0.0760643449)
(-0.2834514692 -0.221694968 -0.07914108849)
(-0.2313672922 -0.2215929946 -0.07653317514)
(-0.1794133414 -0.2254930757 -0.0716266868)
(-0.1288055016 -0.2338326825 -0.06422993503)
(-0.08203597328 -0.2463619339 -0.05051869232)
(-0.03586640455 -0.2687528447 -0.02252673995)
(-0.01771380362 -0.3244082457 0.008131271607)
(0.008295240516 -0.3675515502 0.01500209055)
(0.006395389046 -0.4447137133 -0.009873737761)
(0.05280892694 -0.3962180906 0.01619521844)
(0.08978146866 -0.4980103646 0.004419308876)
(0.08652855739 -0.5345579163 -0.01091405663)
(-0.1928181411 0.4497819067 0.2589884637)
(-0.4015766315 0.4527934909 0.07210660166)
(-0.4830815395 0.5281882773 -0.2822044204)
(-0.3198370443 0.3800906273 -0.4679634043)
(-0.2015067405 -0.1559676855 0.05876810774)
(-0.3544095918 -0.1109630874 0.05655376375)
(-0.3444562927 -0.2197949365 -0.02680316224)
(-0.3574855622 -0.2205113428 -0.06222201559)
(-0.3241367052 -0.2469475551 -0.08792390188)
(-0.2884813401 -0.2736051108 -0.08458826213)
(-0.261498111 -0.3002961598 -0.04942295263)
(-0.2690841811 -0.3358656333 0.008832363168)
(-0.3169761988 -0.3431228544 0.03578327948)
(-0.3682076591 -0.3230468183 0.0226140235)
(-0.4047935403 -0.2956361461 0.003480657637)
(-0.4254246497 -0.2663531331 -0.01357843472)
(-0.4310632478 -0.2379628321 -0.02900747328)
(-0.42230577 -0.2121676808 -0.04380986461)
(-0.4007864205 -0.1907380239 -0.05745551743)
(-0.3686927585 -0.1748729441 -0.06877596854)
(-0.3283603839 -0.1645937755 -0.07652424958)
(-0.2820940781 -0.1599219546 -0.07994671582)
(-0.2331209084 -0.1618833141 -0.07863526395)
(-0.1845422772 -0.1698995993 -0.07392851104)
(-0.1384556728 -0.1842261209 -0.06492171384)
(-0.09846098153 -0.2062878086 -0.04474508311)
(-0.06722378008 -0.2440010385 -0.007029447713)
(-0.06499634117 -0.3110156574 0.007538450409)
(-0.0474516298 -0.3625923275 -0.02174332064)
(-0.03358631808 -0.4254640028 -0.05249413868)
(0.00220385368 -0.4382081121 -0.02167092954)
(0.02017692987 -0.4840076398 -0.02354606166)
(0.0196573809 -0.5031712382 -0.03742531631)
(-0.1360116888 0.3985879133 0.2714222257)
(-0.2758194793 0.3341353928 0.2277367602)
(-0.3831187389 0.3005826058 0.1070872131)
(-0.2884373094 0.1717132268 0.00700283015)
(-0.3248761458 -0.1231240471 -0.03607451995)
(-0.3845103728 -0.1297671636 -0.03820200355)
(-0.3646514673 -0.1601549602 -0.07088927455)
(-0.3708907734 -0.1647899913 -0.08420777257)
(-0.335950873 -0.1815886374 -0.09489802324)
(-0.2861119319 -0.2163940645 -0.07782801757)
(-0.250375012 -0.2399308214 -0.03829797452)
(-0.2610124497 -0.2880633719 0.01863275987)
(-0.3050399811 -0.3000886937 0.03679155656)
(-0.3528896704 -0.2845863149 0.0223243435)
(-0.3874357091 -0.256775693 0.002966199468)
(-0.4075701884 -0.2249856993 -0.01420216994)
(-0.4141376726 -0.1926021754 -0.02894728137)
(-0.407562676 -0.161654771 -0.0426740551)
(-0.389041695 -0.134346577 -0.05560376323)
(-0.3603633728 -0.1129145973 -0.06664859914)
(-0.3238644413 -0.09873770343 -0.0743958891)
(-0.2822203542 -0.09242277823 -0.07786401542)
(-0.2383770556 -0.09453322607 -0.07713162344)
(-0.1953402533 -0.1050812892 -0.07319476424)
(-0.1563494604 -0.1244378521 -0.06239067721)
(-0.1276156505 -0.1556659849 -0.03396653566)
(-0.1191485936 -0.2074480861 0.00272244488)
(-0.1309917871 -0.2743146705 -0.01993499523)
(-0.1075513968 -0.3209590052 -0.07746995792)
(-0.07041645374 -0.3655551372 -0.1047640009)
(-0.02930450728 -0.3865091736 -0.07339326304)
(-0.02178579555 -0.4164769955 -0.04892420317)
(-0.02921993042 -0.4232942574 -0.05882577119)
(-0.1450981353 0.2855319874 0.2545478446)
(-0.2957570708 0.2148119096 0.1275036246)
(-0.4003994049 0.1612362934 -0.0002641341823)
(-0.3588101982 0.09796225365 -0.07882600446)
(-0.3468040151 -0.01782428358 -0.1500588632)
(-0.3477759651 -0.03190878455 -0.1268733623)
(-0.3455068339 -0.08033057677 -0.08395156331)
(-0.3681355292 -0.1070104167 -0.05360197927)
(-0.3671862181 -0.1532405653 -0.03540801361)
(-0.3167748271 -0.2318489406 -0.0005430476696)
(-0.2783355332 -0.2175743408 0.02098480658)
(-0.2956369942 -0.2758341355 0.04540397367)
(-0.3171629723 -0.2693939442 0.03636082023)
(-0.3502468779 -0.2513590096 0.01965656346)
(-0.3751096934 -0.217459826 -0.0002228707664)
(-0.3909803137 -0.1798522777 -0.0188215569)
(-0.3960271719 -0.1421714689 -0.03370880406)
(-0.390101005 -0.1065435889 -0.04604912117)
(-0.3738672193 -0.07488276216 -0.05747751663)
(-0.3491131202 -0.04896163076 -0.0676831246)
(-0.3179316713 -0.03019250402 -0.07573694585)
(-0.2824807355 -0.02160596416 -0.08145773858)
(-0.2453387562 -0.02437632783 -0.08516537378)
(-0.2100126798 -0.03693507705 -0.08464835336)
(-0.1816231101 -0.05813721978 -0.07078287776)
(-0.1699169456 -0.09152390182 -0.0355484369)
(-0.1854821456 -0.1454003936 -0.01646899478)
(-0.1986778088 -0.1979181933 -0.07439828035)
(-0.1587198855 -0.2317434448 -0.1430999447)
(-0.09676959103 -0.2593839138 -0.1660429278)
(-0.03599919441 -0.2819419368 -0.1259754049)
(-0.02979521781 -0.2977113646 -0.07304486551)
(-0.05211265789 -0.2956873446 -0.07115948129)
(-0.1994842248 0.2611038096 0.1994112221)
(-0.3517556366 0.2367187563 -0.005392548423)
(-0.439645072 0.2115566773 -0.1206119333)
(-0.4159337051 0.1807506474 -0.1593301201)
(-0.3973204395 0.1379234817 -0.1652138971)
(-0.3926733001 0.1147115001 -0.1011581439)
(-0.4233630034 0.06220670367 -0.00695049149)
(-0.4822316129 -0.0251594623 0.04788644283)
(-0.4924121571 -0.1526168869 0.07380509666)
(-0.3630586524 -0.3090419288 0.08136373961)
(-0.2826566533 -0.2142187521 0.05852198234)
(-0.3247102821 -0.2777100625 0.04190079528)
(-0.3123099911 -0.244413785 0.01606789841)
(-0.3449547237 -0.2218700218 0.006934987555)
(-0.3626523428 -0.1784469153 -0.00898838739)
(-0.3772692199 -0.1322392335 -0.03027559387)
(-0.3834737605 -0.08780539028 -0.04781997213)
(-0.3820223737 -0.045720172 -0.05850512257)
(-0.3710921521 -0.00458466193 -0.06552729639)
(-0.3514102893 0.02908364476 -0.07097640344)
(-0.3255728968 0.05213887738 -0.07775422557)
(-0.2956458745 0.06488781544 -0.08796483751)
(-0.2634634861 0.06844980285 -0.0995835661)
(-0.2322481271 0.06274688073 -0.104404777)
(-0.2098957242 0.04400013794 -0.09079052671)
(-0.2109849074 0.002955483877 -0.06191644412)
(-0.2419528999 -0.05278257695 -0.07018667411)
(-0.2503002328 -0.09000967545 -0.1442829932)
(-0.1937450408 -0.106988161 -0.2152529026)
(-0.1066719384 -0.1173751774 -0.2389826658)
(-0.01884266594 -0.1332933132 -0.1923771826)
(-0.00638032608 -0.1435840341 -0.1048840911)
(-0.04544749314 -0.1374463978 -0.06987781311)
(-0.2303765773 0.3093810282 0.1765918469)
(-0.3764638084 0.2897168743 -0.03979674945)
(-0.4633895059 0.2786174281 -0.1352145909)
(-0.4559991887 0.2637357439 -0.1435216733)
(-0.4498650143 0.2385258039 -0.1043987192)
(-0.4677604864 0.1960472012 -0.006254844023)
(-0.5355067377 0.1010358747 0.1108150206)
(-0.6157381139 -0.06092118443 0.1690782159)
(-0.6174815705 -0.3005476311 0.1177429261)
(-0.386880171 -0.5803293241 -0.07406556673)
(-0.2692014553 -0.2664501802 0.01474363004)
(-0.3477881983 -0.3114569465 0.01059998338)
(-0.3065742318 -0.2065871139 -0.02599734517)
(-0.3360538754 -0.1782713943 -0.01819829631)
(-0.3424567121 -0.1171277106 -0.01957014442)
(-0.3608675503 -0.05939248527 -0.03855641613)
(-0.3680728391 -0.003433080261 -0.06174553049)
(-0.3656320851 0.0429068633 -0.07288850096)
(-0.3550068808 0.0764957084 -0.07301589233)
(-0.3378765464 0.1044769106 -0.06819639095)
(-0.3189417348 0.1271718143 -0.06371047455)
(-0.3019198973 0.1431631651 -0.06358555265)
(-0.2884652564 0.1513469331 -0.0671332031)
(-0.281289264 0.151437778 -0.06866670937)
(-0.286916007 0.143246017 -0.06955743377)
(-0.3070742583 0.1275744022 -0.08894347586)
(-0.3221090621 0.1087176832 -0.1426370522)
(-0.2989791597 0.09442128473 -0.2106614642)
(-0.2184714641 0.08703316939 -0.2688998169)
(-0.1055668923 0.08900875218 -0.2940595254)
(0.0199461628 0.08688628941 -0.252068355)
(0.05567090384 0.07453466674 -0.1423121906)
(0.009677256336 0.0676695942 -0.04673598175)
(-0.2235721073 0.3632376341 0.1922358098)
(-0.3736320151 0.3409785301 -0.003169879731)
(-0.4821153028 0.3415474717 -0.09409949752)
(-0.5125716026 0.3317707211 -0.08743748685)
(-0.5536040934 0.2965999475 -0.02101788212)
(-0.6289156813 0.2065698394 0.07281756237)
(-0.7579096522 0.02738441415 0.1031851458)
(-0.8928394749 -0.26972226 -0.05136261208)
(-0.9002881531 -0.7394499031 -0.5043141336)
(-0.5040130777 -0.5428013223 -0.9891909427)
(0.1129500624 -0.168205743 -0.1679938285)
(-0.2501136054 -0.2978692021 -0.03440960917)
(-0.1782577313 -0.1237269014 -0.09844081655)
(-0.265813463 -0.09770619906 -0.07618613281)
(-0.252729465 -0.0272663834 -0.0468379436)
(-0.2845993961 0.0255107146 -0.01940452502)
(-0.3132572723 0.07511622387 -0.0381565782)
(-0.3247552437 0.1203287619 -0.05847216896)
(-0.3235261232 0.1534546503 -0.06459561478)
(-0.3147824596 0.1793840506 -0.05821760519)
(-0.305888438 0.2010651098 -0.04545466764)
(-0.3036244165 0.2194626795 -0.03469917308)
(-0.310467021 0.2338646085 -0.03233986684)
(-0.3255894879 0.242996458 -0.03925146729)
(-0.3472232785 0.2456494528 -0.05834803669)
(-0.3662639605 0.2420066122 -0.09584530457)
(-0.3633868205 0.2369284537 -0.1495233068)
(-0.3213090253 0.238730161 -0.2080976215)
(-0.2277690877 0.2487096999 -0.260883234)
(-0.1036341472 0.259833201 -0.285169296)
(0.03130404667 0.2679945192 -0.2354744936)
(0.06840286614 0.2628898972 -0.1210467273)
(0.006300569682 0.2659723717 -0.004253211207)
(-0.1927861817 0.3857673808 0.2142100894)
(-0.3469612859 0.361072053 0.06724393701)
(-0.4758248363 0.3691711621 -0.01116036523)
(-0.5438538913 0.3674111512 -0.01035093574)
(-0.6380362609 0.3467168211 0.04810149572)
(-0.8121599991 0.3088165213 0.1270704351)
(-1.161155828 0.2765665845 0.1258774282)
(-1.716113256 0.3712058188 -0.6464622442)
(-1.291422698 0.8911441184 -4.346178997)
(-0.07968002271 0.5591098546 -1.641603543)
(0.6261045853 0.178350683 -0.1418597739)
(-0.1884894993 0.1342336481 0.01349003776)
(-0.08946183982 0.08376906136 -0.1764251018)
(-0.207677624 0.1034799514 -0.1646661826)
(-0.1494966356 0.12362667 -0.1197964447)
(-0.171545032 0.1338148661 -0.01701983242)
(-0.2395475757 0.1675539314 -0.002605133571)
(-0.2753664913 0.2059415863 -0.03579590882)
(-0.2893726868 0.2323447702 -0.05111181575)
(-0.2900938454 0.2520064477 -0.04639277618)
(-0.2906130872 0.2693654253 -0.02812807762)
(-0.3010943833 0.2866694591 -0.007932405213)
(-0.324145019 0.3036359764 0.0001921728522)
(-0.3532069027 0.3186522426 -0.01148025537)
(-0.3789906337 0.3309363531 -0.04369384509)
(-0.3904001265 0.3417148642 -0.0910262568)
(-0.374775139 0.3550059249 -0.144069352)
(-0.3226800781 0.3742834693 -0.1967636686)
(-0.2240945931 0.3977162665 -0.2439868257)
(-0.09734384094 0.4174370948 -0.2675942462)
(0.03867936303 0.4328640744 -0.2143813932)
(0.0724902268 0.4377129471 -0.1039212959)
(0.01697688265 0.4488441778 0.01759245292)
(-0.1566279827 0.3709197615 0.217659053)
(-0.3109676102 0.3474081607 0.1248484336)
(-0.4581284757 0.3618979161 0.0672299493)
(-0.5544722896 0.369133082 0.05157557416)
(-0.6599745916 0.370691228 0.06192398652)
(-0.7854963281 0.3899126935 0.06908362405)
(-0.9363469638 0.4675879332 0.06568493485)
(-1.10724245 0.6934521679 0.004166822664)
(-0.9924133569 1.237916118 -0.4897841728)
(-0.3602253609 1.120430936 -0.3609371856)
(-0.1499457932 0.3968811846 -0.1113403455)
(-0.3271059552 0.4177583025 -0.1348443253)
(-0.2183059761 0.2570706224 -0.2195288414)
(-0.1811590286 0.2672235285 -0.2167421637)
(-0.09688260737 0.2596352284 -0.171830976)
(-0.069598785 0.2549628602 -0.03796956009)
(-0.158966985 0.2692436886 0.0309182784)
(-0.2250587161 0.2921929019 -0.008519859861)
(-0.2547920454 0.3086157028 -0.03445716331)
(-0.2656406917 0.3200025752 -0.03339848692)
(-0.2745691279 0.3308843413 -0.01267674342)
(-0.2943022093 0.3435943361 0.01445959968)
(-0.326999416 0.3581257517 0.0294226713)
(-0.3621241704 0.3739813434 0.01938553973)
(-0.3869586276 0.392240211 -0.01718583715)
(-0.3893577042 0.4149871674 -0.07031090952)
(-0.3632258522 0.4446993943 -0.125255635)
(-0.3056480845 0.4806749513 -0.1754927728)
(-0.2087018205 0.5171543823 -0.2185866384)
(-0.08789703245 0.5447751646 -0.2412577757)
(0.04193359126 0.565957646 -0.1869051473)
(0.07057811897 0.5783656122 -0.08501368716)
(0.02821131045 0.5935185335 0.02829660009)
(-0.1298638445 0.3358309809 0.2023006196)
(-0.2806607874 0.3209400754 0.1465991505)
(-0.4403544979 0.3432698193 0.1094906262)
(-0.5599070662 0.3646082034 0.08329963763)
(-0.6776655661 0.3851249279 0.05939132092)
(-0.7882001584 0.4169615897 0.02921915585)
(-0.8802570129 0.4739606572 0.004216056418)
(-0.9314186209 0.5819895198 0.001921130743)
(-0.8638348084 0.7933640845 -0.01152215201)
(-0.5413307369 0.8610756948 -0.06313081535)
(-0.4014898521 0.4892164411 -0.1464485216)
(-0.3969006925 0.4775208704 -0.1827031278)
(-0.2678227415 0.4016397469 -0.2328345097)
(-0.1720895156 0.3967698686 -0.2336795946)
(-0.0659917692 0.3819333722 -0.1884327692)
(-0.01004241203 0.3663870246 -0.04544781908)
(-0.1003951718 0.3683400876 0.05390468373)
(-0.1849620843 0.3753912654 0.01552210273)
(-0.2250331159 0.3792947112 -0.01725155295)
(-0.244262099 0.3810744346 -0.01920803882)
(-0.259512456 0.3833984461 0.001397908399)
(-0.2842063488 0.3868297803 0.0304195612)
(-0.3180683211 0.3912042101 0.04822947568)
(-0.3509232207 0.400371825 0.04411906239)
(-0.3704279059 0.4201326745 0.01422781706)
(-0.3633279635 0.4548336956 -0.03634490186)
(-0.3293298442 0.5029552043 -0.09284975137)
(-0.2711577308 0.5574326614 -0.1444060374)
(-0.1826103955 0.6067743632 -0.1865773462)
(-0.07620756412 0.6414307392 -0.2086548943)
(0.0399735694 0.6660180215 -0.153741652)
(0.05979146648 0.6834741997 -0.06039719759)
(0.02708299794 0.6954514934 0.03694815232)
(-0.1166283805 0.3002012627 0.1811371943)
(-0.2627493849 0.2997700866 0.1425982928)
(-0.4252248041 0.3293005493 0.1203875575)
(-0.5548666771 0.3639034901 0.09565809043)
(-0.6762888692 0.4013180594 0.06189372498)
(-0.7770027611 0.4462510275 0.01935523776)
(-0.8448527035 0.5031287174 -0.02087774935)
(-0.8635650114 0.5755701844 -0.0457856386)
(-0.8156795317 0.6649135771 -0.06181567904)
(-0.6509413179 0.7100047049 -0.09085426803)
(-0.523981647 0.5630260166 -0.16141949)
(-0.4408151363 0.5536690049 -0.1943339672)
(-0.3024257263 0.5114246338 -0.2234446862)
(-0.1725650138 0.4984376002 -0.2235669979)
(-0.04708141095 0.4765897241 -0.1724063631)
(0.0145586061 0.4581965168 -0.02896465155)
(-0.07310722649 0.4506988269 0.06810810927)
(-0.1591002202 0.4463615108 0.03195096729)
(-0.203791523 0.4395865162 -0.0008130105638)
(-0.2288859269 0.4321238209 -0.004080078636)
(-0.2491273192 0.4250488321 0.01268320718)
(-0.2759121547 0.4173716759 0.03323882029)
(-0.3050552074 0.409796434 0.04083869727)
(-0.3267430107 0.4093430362 0.03431349873)
(-0.329849624 0.4246108684 0.0149369131)
(-0.3101247452 0.4650796268 -0.01463746183)
(-0.2710089346 0.5298906024 -0.05485025913)
(-0.2189421559 0.6054580528 -0.1023904625)
(-0.1465312507 0.6682488727 -0.1471785654)
(-0.06268902444 0.7092095673 -0.1706549305)
(0.03225099539 0.7338266913 -0.1139275187)
(0.037833097 0.7542040903 -0.02699699918)
(0.009023016239 0.754060348 0.04807450057)
(-0.1123569095 0.2728693131 0.1642377611)
(-0.2534091641 0.2853999395 0.1328221527)
(-0.4111567723 0.3188519549 0.1196605746)
(-0.5387950551 0.3605744815 0.103758301)
(-0.6574200182 0.4084172428 0.0766263198)
(-0.7537961381 0.4619009715 0.0379905009)
(-0.8170693379 0.519494037 -0.004815814315)
(-0.834726716 0.5774236951 -0.04210627204)
(-0.7975539882 0.6290472093 -0.07284189289)
(-0.6981732013 0.6585925574 -0.1037247486)
(-0.5840533329 0.6099684229 -0.1456448291)
(-0.4666745039 0.6013496905 -0.1742973381)
(-0.3208486939 0.5793763862 -0.1947925513)
(-0.1766237835 0.5624174266 -0.1934170269)
(-0.03756706716 0.535675769 -0.1344988297)
(0.01329218651 0.5238765141 0.004413010609)
(-0.07059907518 0.5101143929 0.07619728612)
(-0.147079464 0.4993210689 0.04216369775)
(-0.1928736568 0.4860188003 0.01452736266)
(-0.222920857 0.4720671409 0.01071647086)
(-0.2483851899 0.4582681111 0.0180308596)
(-0.2751885006 0.4446020306 0.01943301249)
(-0.2932725565 0.4324530076 0.005900100571)
(-0.2964501547 0.428460173 -0.0112908495)
(-0.2793520254 0.4376353194 -0.02704688389)
(-0.241532903 0.472662665 -0.03343869033)
(-0.1926303646 0.5387728896 -0.03702579299)
(-0.149054959 0.6288741765 -0.05557286412)
(-0.1014508072 0.7050998858 -0.09818161231)
(-0.04722902053 0.7515391447 -0.1257950774)
(0.019292328 0.771651761 -0.06548043165)
(0.004100667349 0.7891417069 0.01342913486)
(-0.02179085856 0.7721428428 0.06044456221)
(-0.1113952167 0.2540664746 0.1538073836)
(-0.2477026633 0.2719558692 0.1260412241)
(-0.3976116572 0.3042309107 0.1172068411)
(-0.5167254653 0.3463957022 0.1097749742)
(-0.6279085935 0.3974532007 0.09385683591)
(-0.7205968747 0.454659984 0.06579793176)
(-0.7848697917 0.5130309351 0.02851152547)
(-0.8094696718 0.566434629 -0.01122457379)
(-0.7846652378 0.607212076 -0.04810925387)
(-0.7099934781 0.629604678 -0.08205370884)
(-0.6047065939 0.6207948291 -0.1159276975)
(-0.4776563306 0.6166145124 -0.1430957723)
(-0.3288005982 0.6043796592 -0.1614634793)
(-0.1811034307 0.5868912414 -0.1602159528)
(-0.04262269714 0.5618926726 -0.1008033216)
(-0.002881572342 0.5628431851 0.03287718403)