/*--------------------------------*- C++ -*----------------------------------*\
  =========                 |
  \\      /  F ield         | OpenFOAM: The Open Source CFD Toolbox
   \\    /   O peration     | Website:  https://openfoam.org
    \\  /    A nd           | Version:  8
     \\/     M anipulation  |
\*---------------------------------------------------------------------------*/
FoamFile
{
    version     2.0;
    format      ascii;
    class       scalarField;
    location    "0.5/lagrangian/reactingCloud1";
    object      d;
}
// * * * * * * * * * * * * * * * * * * * * * * * * * * * * * * * * * * * * * //


73
(
0.000568264768
0.0005333595811
0.0005780185697
0.0009262045304
0.0007001249046
0.0007422786067
0.0008946237925
0.0008735308532
0.0006623203703
0.000724496987
0.0005130432945
0.0006415045945
0.0005005422704
0.000563082118
0.0005227380286
0.0008493319956
0.0005779920539
0.0007499194873
0.0005573785733
0.0005062456902
0.0005595750338
0.0006991282338
0.0006564594948
0.0005515407599
0.0006798982098
0.0005596438763
0.0007855131263
0.0008212110198
0.0007795637826
0.0008823183458
0.001108509331
0.0006318813039
0.00072809097
0.0007115236446
0.000765455431
0.0005716830791
0.0009083983413
0.0008514805486
0.0007498642385
0.0007852373519
0.0010566954
0.0008861178324
0.0009514783467
0.00066599821
0.001090825095
0.0008927133086
0.0005162067974
0.0009519389237
0.0009970079146
0.0006948104407
0.000551827654
0.0007124013117
0.000735061944
0.001127631754
0.0006106118024
0.0005160939833
0.00053499422
0.0005507168361
0.0006082761535
0.0005647918465
0.0005691039947
0.0007578392939
0.000769129551
0.0005046543162
0.0006462907531
0.0009481634937
0.0008349138735
0.001098874839
0.0005506456707
0.001049940853
0.0007590051002
0.0007442184151
0.0006401220959
)


// ************************************************************************* //
