/*--------------------------------*- C++ -*----------------------------------*\
  =========                 |
  \\      /  F ield         | OpenFOAM: The Open Source CFD Toolbox
   \\    /   O peration     | Website:  https://openfoam.org
    \\  /    A nd           | Version:  8
     \\/     M anipulation  |
\*---------------------------------------------------------------------------*/
FoamFile
{
    version     2.0;
    format      ascii;
    class       scalarField;
    location    "0.5/lagrangian/reactingCloud1";
    object      mass0;
}
// * * * * * * * * * * * * * * * * * * * * * * * * * * * * * * * * * * * * * //


73
(
9.555658291e-08
7.900757328e-08
1.005619752e-07
4.137415372e-07
1.787042989e-07
2.12965499e-07
3.749038968e-07
3.470908514e-07
1.512908827e-07
1.980241558e-07
7.031864049e-08
1.374699368e-07
6.530263371e-08
9.296588863e-08
7.438077604e-08
3.190368687e-07
1.011030427e-07
2.196101136e-07
9.016940983e-08
6.756043482e-08
9.174314231e-08
1.789242255e-07
1.473099972e-07
8.736575977e-08
1.636590821e-07
9.127328595e-08
2.523880325e-07
2.883850373e-07
2.466967231e-07
3.576715086e-07
7.132087812e-07
1.313756673e-07
2.009857897e-07
1.886108327e-07
2.335436935e-07
9.729139533e-08
3.924891178e-07
3.232383017e-07
2.19561579e-07
2.535137222e-07
6.178002401e-07
3.623121088e-07
4.485440974e-07
1.538252409e-07
6.75886512e-07
3.704626651e-07
7.162746428e-08
4.516748169e-07
5.160647999e-07
1.756295666e-07
8.750216567e-08
1.882706193e-07
2.06814143e-07
7.466383813e-07
1.185506669e-07
7.158051295e-08
7.97362282e-08
8.697480808e-08
1.171954611e-07
9.381530066e-08
9.598056925e-08
2.266416781e-07
2.382303648e-07
6.729465925e-08
1.405698708e-07
4.463220184e-07
3.03063372e-07
6.947736054e-07
8.742090729e-08
6.060286067e-07
2.276892365e-07
2.158240603e-07
1.373368487e-07
)


// ************************************************************************* //
