/*--------------------------------*- C++ -*----------------------------------*\
  =========                 |
  \\      /  F ield         | OpenFOAM: The Open Source CFD Toolbox
   \\    /   O peration     | Website:  https://openfoam.org
    \\  /    A nd           | Version:  8
     \\/     M anipulation  |
\*---------------------------------------------------------------------------*/
FoamFile
{
    version     2.0;
    format      ascii;
    class       scalarField;
    location    "0.5/lagrangian/reactingCloud1";
    object      nParticle;
}
// * * * * * * * * * * * * * * * * * * * * * * * * * * * * * * * * * * * * * //


73
(
158.9921529
198.960594
279.5156785
100.0945477
101.0282095
100.4320612
1294.643202
100.2430471
1650.800218
102.913241
136.0285992
101.4113711
103.211999
104.1254827
101.262601
103.451222
4973.295686
156.4224158
258.2074875
101.6462426
5447.835781
2817.641085
100.429845
102.3284354
100.0605599
101.6490958
100.879917
100.1385566
100.5446099
100.0206514
688.5667564
102.6152995
101.5048806
2659.371495
101.1965004
102.7027748
1266.196709
1549.245797
263.1589489
1956.490191
805.8665991
101.1687527
100.7756804
100.1540241
100.1540478
164.7702857
101.7341286
1113.948236
101.0739667
2876.400786
102.9637942
100.2205826
100.0256059
100.5958803
100.0858369
103.404501
102.4049119
100.284612
101.9792307
102.2462995
103.1555009
100.1376053
2109.304122
7410.008764
101.2102141
1124.163737
296.1485139
718.2679691
5651.376496
797.2471863
100.0445617
2309.912714
3660.670482
)


// ************************************************************************* //
