/*--------------------------------*- C++ -*----------------------------------*\
  =========                 |
  \\      /  F ield         | OpenFOAM: The Open Source CFD Toolbox
   \\    /   O peration     | Website:  https://openfoam.org
    \\  /    A nd           | Version:  8
     \\/     M anipulation  |
\*---------------------------------------------------------------------------*/
FoamFile
{
    version     2.0;
    format      ascii;
    class       scalarField;
    location    "0.5/lagrangian/reactingCloud1";
    object      T;
}
// * * * * * * * * * * * * * * * * * * * * * * * * * * * * * * * * * * * * * //


73
(
299.9999974
299.9999859
299.9999643
299.9999748
299.9999765
299.9999771
300
299.9999827
299.9999854
299.9999858
299.9999958
299.9999858
299.9999858
299.999996
299.9999971
299.9999866
300
299.9999927
299.9999963
299.9999893
300
300
299.9999937
299.9999936
299.9999991
299.9999996
299.9999998
299.9999997
299.9999997
299.9999996
300
299.9999991
299.999999
300
299.999999
299.999999
300
300
299.999996
300
300
299.9999872
299.999998
299.9999981
299.9999994
299.9999926
299.9999852
300
299.9999851
300
299.9999846
299.9999832
299.9999982
299.9999846
299.999998
299.999998
299.999998
299.999998
299.9999892
299.9999892
299.9999892
299.9999981
300
300
299.9999891
300
299.999998
300
300
300
299.9999979
300
300
)


// ************************************************************************* //
