/*--------------------------------*- C++ -*----------------------------------*\
  =========                 |
  \\      /  F ield         | OpenFOAM: The Open Source CFD Toolbox
   \\    /   O peration     | Website:  https://openfoam.org
    \\  /    A nd           | Version:  8
     \\/     M anipulation  |
\*---------------------------------------------------------------------------*/
FoamFile
{
    version     2.0;
    format      ascii;
    class       volScalarField;
    location    "1.6";
    object      epsilon;
}
// * * * * * * * * * * * * * * * * * * * * * * * * * * * * * * * * * * * * * //

dimensions      [0 2 -3 0 0 0 0];

internalField   nonuniform List<scalar> 
67286
(
2.072125288
2.495753472
2.483784263
2.039601568
1.346434239
0.7330615754
0.6501935958
0.6439020357
0.8541114004
0.7054659824
0.34749156
0.2766140169
0.2739058789
0.2221036524
0.2037207529
0.2181009032
0.2503224272
0.2971381173
0.3553962294
0.4225620203
0.4942194467
0.5214401124
0.5224246831
0.4537482892
0.4296435157
0.4717855616
0.5653540642
0.6017570842
1.481006265
1.780596832
1.775966667
1.292581305
0.625132669
0.4209334238
0.6191536994
0.9396434084
1.138541404
0.9564307517
0.4588312486
0.3826878867
0.4065714989
0.2682413907
0.2037734028
0.1985558476
0.2204739367
0.2691328763
0.3436615096
0.4445542497
0.5726361593
0.722169965
0.7634747033
0.525778182
0.4122792718
0.4125598582
0.4406433731
0.5044793099
0.5445220648
0.5322041094
0.4783468564
0.4137255019
1.184121669
1.293338074
1.171618915
0.5885267375
0.3371459505
0.4381914054
0.6286103527
0.9618501606
1.09997006
0.9494657676
0.4833613209
0.4696828109
0.5296662316
0.3335020874
0.2221123638
0.2005815514
0.2128660966
0.2687192043
0.3830609971
0.5801239232
0.8833508029
1.203222701
1.278415102
0.6788949711
0.4231484831
0.4303417132
0.4941300309
0.619233601
0.6118691401
0.5783095021
0.504268748
0.4200641562
0.7814957748
0.7763761495
0.6063028282
0.2347336942
0.2498411756
0.2777576375
0.3418216873
0.405977366
0.5195721105
0.3851507898
0.2964295542
0.3003364484
0.3139177275
0.2811022158
0.2415376584
0.2194336676
0.2324451232
0.3071597682
0.4764520681
0.7910772347
1.253153662
1.711127197
1.899892831
1.008300438
0.4458314725
0.4709184271
0.7293446527
0.6898958477
0.7710171823
0.7656100302
0.6526294875
0.4953149449
0.3856280005
0.3745635862
0.3300417371
0.2700013976
0.3523462418
0.6271504931
0.6788461128
0.7270252978
0.2469250444
0.2508234603
0.2659358588
0.2831734844
0.2958393557
0.2989017468
0.2887467228
0.2659589415
0.2441495117
0.2509965649
0.3107033646
0.4527240796
0.7288013417
1.153387692
1.631508209
1.910588852
0.913242822
0.4787407981
0.8116592664
1.26239761
0.922585514
0.9678971509
0.9124195771
0.7314708466
0.5253890662
0.3951487893
0.175251385
0.1769434373
0.1953316358
0.2304043965
0.2742124927
0.2970057854
0.3308780657
0.3877620681
0.3821862175
0.379068859
0.3874749089
0.3945682672
0.3869215476
0.3615844233
0.3246828907
0.2902061003
0.2751480328
0.2943039376
0.3649832404
0.5220431164
0.8275766976
0.8755155768
0.9284546958
0.3982443915
0.4730416525
1.046905569
1.093380822
0.8232901717
0.8231618636
0.7229837304
0.536045112
0.406150722
0.3471008898
0.1348650094
0.2027767355
0.2899439617
0.3728384363
0.4684755139
0.5654938997
0.6346838911
0.6832078718
0.6415315953
0.5838528786
0.5675505687
0.5699929144
0.5539833513
0.5114889051
0.4490379917
0.3819959467
0.3270798843
0.295570807
0.2962639332
0.3350729408
0.4045133957
0.4687737001
0.4713372962
0.2545882736
0.2505799327
0.3488069483
0.47933434
0.5786615443
0.5155172891
0.4176094613
0.3651377119
0.3452074522
0.3431535853
0.2205679158
0.3102314736
0.453000168
0.6456432312
0.8701510496
1.017983442
1.063868318
1.074503664
0.9693382645
0.8348497981
0.7893238429
0.7928246509
0.776743917
0.7223029957
0.632443556
0.5268360095
0.4290258644
0.3483910404
0.2875450703
0.2556991047
0.2525629709
0.2601768835
0.2637532653
0.2737557974
0.3087568329
0.2426319737
0.2812097823
0.328852043
0.5683718483
0.4167330072
0.4133947675
0.4250282711
0.4430655447
0.3407987897
0.4788184299
0.7557511278
1.170415095
1.605801562
1.799078523
1.715105785
1.572613626
1.341802806
1.101833843
1.041904396
1.059810395
1.044390793
0.9780177705
0.8614232955
0.7198186572
0.579839045
0.4566399535
0.3497453781
0.2709513656
0.2345886433
0.2465368971
0.3505312661
0.7369951567
0.9806409858
0.3770251882
0.3876548898
0.4554201534
0.5829514168
0.5470287781
0.6973916495
0.709008377
0.7680248539
0.4815907387
0.7405863263
1.293571835
2.127832434
2.899316758
3.054849972
2.564302974
1.974894174
1.581596789
1.33290591
1.308427838
1.336893164
1.32194361
1.24271452
1.090638497
0.9116752106
0.7317833823
0.5764842557
0.4371968364
0.3239816345
0.2875915245
0.4396939505
1.036825894
2.617777559
3.35360977
1.085712773
0.7936679624
0.7212159471
0.827948428
0.7794962928
0.6850348299
0.6266690834
0.5767597893
0.8623969798
1.612135995
2.690851507
3.888264352
4.633329507
4.391885485
2.974381487
1.681040356
1.439380511
1.444319127
1.539794669
1.599780733
1.615741477
1.54758478
1.307240936
1.083206686
0.8547812554
0.6627929013
0.5011718374
0.3994426669
0.504169608
1.223217547
3.132158141
6.980504089
8.010500039
3.660425773
2.111756873
1.184247853
1.106962944
1.062393149
0.9534995027
0.8520906286
0.7091919218
0.6292629679
1.145779419
1.991787734
2.966696331
3.585588834
3.22135823
1.863457342
1.299285091
1.382835211
1.56379055
1.706449256
1.80535353
1.95039382
1.670484182
1.456116041
1.195623953
0.888350605
0.6396234054
0.5064464394
0.6436061995
1.444800582
3.659305316
7.922160289
15.11121967
12.3202451
8.27688486
5.65056868
2.296652068
1.488748959
1.346964204
1.225873538
1.153589481
0.9406146072
0.4672933971
0.7379903174
1.214987434
1.775572192
2.102088644
1.801411191
1.19000901
1.159788726
1.358548476
1.572757482
1.722597347
1.795834902
1.80338459
1.674535601
1.482380428
1.203215103
0.84959739
0.6233714955
0.7643545592
1.518439102
0.637091865
1.832173563
4.834961406
9.255695059
8.514339723
4.063567457
11.88044119
4.518105578
2.126726432
1.640292809
1.452601467
1.276599297
1.072805096
0.3648217179
0.4939299398
0.7175102639
0.9797877645
1.132728899
1.039496645
0.9327570183
1.08012019
1.304925365
1.515993817
1.664972137
1.743394788
1.744160553
1.622063201
1.410969495
1.085450343
0.7861636256
1.221833608
4.305225513
9.178300378
1.05612708
0.897436632
2.324538749
4.312598977
4.660342278
8.019501785
20.85082679
7.76050814
3.056141476
1.89281028
1.613844963
1.416917544
1.220515178
0.2916970494
0.3608350758
0.4610847238
0.5723043098
0.6623647313
0.7056428613
0.7932803023
0.9783844105
1.191538141
1.392839708
1.573425022
1.861201818
1.960468687
1.570071738
1.269646867
0.9126507922
0.6475988203
1.187508428
4.550970159
12.12884283
1.245581128
0.5876528075
1.139122358
2.000309177
2.306702435
3.724078606
9.887088133
3.366849781
1.999081087
1.75247393
1.610427579
1.422459446
1.211091929
0.2379162971
0.2877147381
0.3446585762
0.3982066334
0.4595374398
0.5395608791
0.666321472
0.8438552305
1.06172681
1.442458054
2.81292702
8.144426759
10.20749277
1.960169288
1.094462277
0.7236467375
0.4579329431
0.4949028068
1.299988293
3.914958891
0.4588560074
0.4861942713
0.7471165583
1.111592315
1.344209169
1.832711165
3.942848119
1.896238181
1.72834673
1.671112171
1.538494446
1.344017581
1.125140575
0.206433659
0.2517379979
0.2976259149
0.3337083113
0.3751997878
0.4386958321
0.539893627
0.6792086806
0.8471670635
1.092926752
1.913661245
5.101635653
4.153038868
1.230238635
0.8155123882
0.5279031518
0.3398590804
0.2927083038
0.4203470647
0.9556919974
0.338930896
0.442550112
0.6106436422
0.8174330464
1.008870588
1.24669432
1.836580105
1.539670856
1.588184095
1.536954721
1.394550805
1.19925208
0.9855748225
0.1964212266
0.2407770032
0.2849337593
0.3161326854
0.3438938029
0.3804147794
0.4398010018
0.5292759192
0.6436748787
0.7769732067
0.972708307
1.573710243
1.382169068
0.7706055145
0.5589798417
0.3669682344
0.2615745878
0.2336582823
0.2559913027
0.3532571607
0.3216307313
0.4118486948
0.5337670622
0.6821426318
0.8428748006
1.019429533
1.252672454
1.336049695
1.420329425
1.351252168
1.20469674
1.021859186
0.834218585
0.1988369357
0.2428673729
0.2871737941
0.3171800881
0.3379317798
0.3558204649
0.3810188466
0.4239138533
0.4870255483
0.562086725
0.6365707319
0.7267761235
0.6802817784
0.5034921977
0.3672588874
0.2616863351
0.216821843
0.2144740666
0.2356137408
0.277894271
0.3241218565
0.3948283461
0.4828327586
0.590533708
0.7168987079
0.8612992602
1.01965845
1.147231724
1.236871747
1.152569664
1.013466354
0.8587098436
0.7142305297
0.2038472372
0.2480210571
0.2925624448
0.3225988453
0.3414932882
0.3517094471
0.3578571731
0.3683588645
0.3897410264
0.4202035326
0.4480024857
0.4579895136
0.419519833
0.3324904084
0.2532899953
0.2075643247
0.1981000295
0.2125291407
0.2423342193
0.2840806484
0.3347496699
0.3928995681
0.4588023396
0.536439951
0.6297432204
0.7417378964
0.8657391079
0.9842541578
1.078236677
1.003565604
0.8827729807
0.7581529333
0.6508192638
0.2060350703
0.2504442024
0.2948697977
0.3250653827
0.3444363217
0.3541099382
0.3538778628
0.348071404
0.3430891402
0.3421140022
0.34027787
0.327181463
0.2926687784
0.2428314959
0.2046212671
0.1912556148
0.1984480528
0.220999499
0.2557476427
0.2993638669
0.3483030093
0.3999380622
0.4542829103
0.5150365298
0.5862336824
0.6732237176
0.7741532714
0.8861558301
1.006856586
1.023822804
0.9083832567
0.7709918342
0.6576331315
0.2035635576
0.2477371792
0.2914675533
0.3212908291
0.3410741513
0.3520101375
0.351469056
0.3407153333
0.3239599045
0.3062301655
0.2883288052
0.2670328888
0.2408426068
0.2159458615
0.2027539899
0.2031561366
0.2142842183
0.2367128508
0.2707258764
0.3133490494
0.3604209544
0.4094118264
0.4597091265
0.5129973279
0.5751553171
0.6536534378
0.75742354
0.9067123199
1.137081635
1.43802273
1.389756094
1.162630799
0.8974530184
0.1961587617
0.2393580786
0.2817751432
0.3106062631
0.329764691
0.3402193289
0.3407299998
0.3300481372
0.3112000404
0.2894156165
0.2684371952
0.2503209691
0.2374420415
0.232219553
0.2337777702
0.238062133
0.2447629065
0.2593202862
0.286538217
0.3256622182
0.3738809132
0.4382302912
0.5623396117
0.5371901079
0.5924616119
0.6727993374
0.8162477475
1.074938349
1.514008997
2.091600492
2.184761685
1.901162022
1.451902106
0.1840913886
0.2255940959
0.2660874532
0.2934056748
0.3111670648
0.3201998778
0.3202082594
0.3115268431
0.2964040683
0.2793081044
0.2655686489
0.2597715658
0.2638983141
0.2752069811
0.2864733538
0.2911832669
0.2899430297
0.2917305435
0.309872425
0.363024902
0.5269091311
1.255845876
4.217773583
0.8327450694
0.7197361352
0.7110073149
0.8783609367
1.249271536
1.861981148
2.566592806
2.772990339
2.465390239
1.921977357
0.1678752979
0.2071692235
0.2452182638
0.2707649531
0.2871139134
0.2952229749
0.2957522446
0.2900755511
0.2811225442
0.2738953714
0.2739838207
0.2851284703
0.306297044
0.3310204717
0.350018454
0.3562024284
0.3518091484
0.3537379491
0.3971016649
0.5369833404
0.9222609815
2.328883682
6.861845307
1.935428932
1.178155177
0.7519123663
0.8597993865
1.259013167
1.917258656
2.655925475
2.960563777
2.665843283
2.113671262
0.1482172127
0.1850961348
0.2203055022
0.2439247917
0.2590699307
0.2670317535
0.2693600632
0.2685258625
0.2684792394
0.2743769809
0.2905121268
0.3178184451
0.3524767372
0.3869734046
0.4124233204
0.4224801213
0.4243223817
0.4485394439
0.5517139357
0.7836878025
1.162803826
1.839509165
3.576430857
2.15870446
1.593996146
0.7845077285
0.7680003699
1.094646078
1.673293939
2.368046436
2.744321428
2.500534846
2.011830882
0.1259568431
0.1605226475
0.1926629829
0.2142763376
0.2285322581
0.2373080202
0.243094413
0.2493022435
0.2601766168
0.279688281
0.3095967998
0.348165852
0.3904616273
0.4297962401
0.4589714098
0.4730370169
0.4820812687
0.5229630227
0.659727254
0.9406461455
1.356534728
1.849386434
2.421525962
2.276788466
1.599366645
0.7714380536
0.6470420291
0.8667576966
1.275998751
1.854384353
2.256536933
2.084167586
1.696482428
0.1025751974
0.1348353039
0.1637055281
0.1833200875
0.1971700004
0.2079338853
0.2188816008
0.2335704219
0.2551411918
0.2852405804
0.3231887128
0.3659768003
0.4090392072
0.4472330585
0.475596777
0.4911865748
0.5002534529
0.5301921357
0.637138531
0.8777494282
1.255923546
1.698979
2.022562285
1.900143927
1.203157334
0.6389389374
0.5273095212
0.653067971
0.8969469531
1.290578543
1.665710255
1.558623193
1.276665086
0.08001394109
0.1086320052
0.133425021
0.1509280515
0.1650437058
0.1791078696
0.1963480386
0.2190041645
0.2478278107
0.2820749197
0.3198314496
0.3584190138
0.3947863625
0.425834552
0.448696479
0.4614831454
0.4661286117
0.4755027693
0.5236570168
0.662058686
0.9173998858
1.238852371
1.476984969
1.24218828
0.7504793839
0.4503008687
0.4046078311
0.4743467229
0.6001771837
0.8034484272
1.088652373
1.023405052
0.8374949693
0.06394062715
0.08697532997
0.1079071265
0.1252941895
0.1433736112
0.1651522975
0.1915877338
0.2214310514
0.2525369712
0.2829140004
0.3109980808
0.3355968756
0.3557893433
0.3708215077
0.3800611464
0.3831839238
0.3810081088
0.3779774338
0.387676997
0.4387451217
0.5641687795
0.7600665018
0.947373303
0.6807599404
0.4229877025
0.2916089544
0.2766827844
0.320862796
0.3855231694
0.4583496854
0.6133224295
0.5670595419
0.4739525105
1.645906264
1.381171988
1.140085803
0.8047150459
0.6159209014
0.4520098727
0.4747857807
0.5783030501
0.6283393816
0.5275815017
0.3601781979
0.2490584639
0.2074111287
0.1821751762
0.1745128188
0.1815705105
0.1982842236
0.2223437718
0.2532933611
0.2923103958
0.3309721366
0.3491824773
0.3592236473
0.3575995428
0.3561618145
0.3696982188
0.3912475738
0.3985773458
0.5048595621
0.6640426455
0.6126490951
0.5332106915
0.3864316893
0.3365214366
0.4533488361
0.6476409101
0.7350059552
0.6628366495
0.47095442
0.3160783124
0.2551430169
0.2015812964
0.1759496018
0.1713465746
0.1830306678
0.2096629081
0.250699785
0.3060244184
0.3707225594
0.4281234694
0.4496444595
0.4149388562
0.3596656004
0.3357856351
0.3486597966
0.35555269
0.3508853093
0.3348657345
0.3100796035
0.2826798617
0.3124841345
0.4542852907
0.4686633947
0.3424266266
0.2999103257
0.3479659276
0.4329285128
0.5719405937
0.6684140018
0.6277759296
0.4709612733
0.3349943819
0.286863374
0.2216521307
0.184705296
0.1714692677
0.1785310791
0.2102737682
0.2722307333
0.3678755028
0.4900796219
0.5967823489
0.6288194279
0.5496603827
0.4194501588
0.3557125194
0.360059274
0.3607479449
0.3505126369
0.3351260413
0.3121460002
0.286116901
0.2887548969
0.3178576636
0.2970546497
0.246444541
0.3312093301
0.3983710595
0.3868420407
0.3914511959
0.4387476999
0.4188727677
0.3324523139
0.2706300769
0.242801589
0.2130058739
0.1902278215
0.178424503
0.184081613
0.2189716307
0.2923098069
0.4121647519
0.5736972745
0.7093404483
0.7573653055
0.6428313567
0.4899174754
0.4445808337
0.4629303296
0.4549212098
0.3890818701
0.3600774781
0.3329728099
0.2983008525
0.2699188647
0.207271625
0.1907410115
0.2157791059
0.3181679107
0.4514175851
0.5145461895
0.5191541885
0.3544817319
0.2698830378
0.264142331
0.2525496869
0.2417117986
0.2331291123
0.2174931743
0.2004965458
0.1875854136
0.1876520896
0.2096808667
0.2605547146
0.3567476755
0.5209058967
0.6342418831
0.6982257546
0.5430069369
0.4953426227
0.6019216617
0.5116328119
0.4949952649
0.4096745004
0.379075045
0.3482793877
0.3066735503
0.2731091648
0.156376529
0.147502038
0.1769072671
0.2169729808
0.2772106005
0.3268132507
0.3084631501
0.2906994729
0.2880885361
0.2836217153
0.2747434137
0.2652335111
0.2557571271
0.2421184095
0.2237615803
0.2059991611
0.1971188314
0.2038600306
0.235015842
0.33320284
0.4726194386
0.4589453735
0.4322487803
0.3684463733
0.3948902669
0.4998304091
0.5025678329
0.4327145601
0.3906729104
0.3582118215
0.3227406107
0.2877498711
0.2609329922
0.1536965757
0.1740592311
0.2285298708
0.2774771187
0.3223488236
0.3675249054
0.4211862047
0.4500909305
0.4442214329
0.4111823792
0.3706485197
0.3385264284
0.3154683424
0.2933916013
0.2682485587
0.2410864783
0.2181726267
0.2061736137
0.209225467
0.2317424111
0.2852328052
0.2681434583
0.2660409411
0.2453667809
0.2618666623
0.3497675077
0.3569890339
0.4345316259
0.3997427991
0.3334786526
0.2969513951
0.2706360478
0.2555206392
0.2057972542
0.227756103
0.3036247152
0.3867691917
0.4819520499
0.5798021162
0.6602476685
0.6907663476
0.668390707
0.5993677863
0.5128080113
0.4473065337
0.4083628511
0.3748737992
0.3374647993
0.295522094
0.2554782258
0.2241005685
0.2057579432
0.2003762327
0.2042713805
0.20685858
0.2107041884
0.2151771239
0.238894931
0.238080618
0.2687266808
0.3402589689
0.423628221
0.3858846573
0.3360638527
0.3074188432
0.3051721637
0.3112544764
0.3121137628
0.4338981255
0.6089787333
0.8554553597
1.062028129
1.086124294
1.019233825
0.9264520315
0.807361247
0.6806611746
0.592382928
0.5394845776
0.494125737
0.438990116
0.3769121566
0.3137524147
0.2597073574
0.2232964775
0.2039873357
0.1971994209
0.204626223
0.2327021405
0.3136858442
0.461329525
0.2930750043
0.3086435862
0.3156301814
0.3974944882
0.3798810916
0.4053876172
0.3767215582
0.3877621562
0.4453195596
0.4243460176
0.6548393632
1.117745178
1.588972093
1.760687651
1.622506515
1.339039844
1.109073319
0.9501811334
0.8209873921
0.7369266596
0.6916938266
0.6449068924
0.5508197286
0.4651765116
0.3802137173
0.3057728594
0.2536500656
0.229393881
0.2282283207
0.2729550408
0.411581446
0.9493670988
1.541267735
0.7551187599
0.510340273
0.407893233
0.3966334286
0.3885572468
0.4199286921
0.4039617817
0.4028362927
0.5946198716
0.5973495485
1.122335085
1.754633169
2.12413773
2.107404068
1.846258837
1.450343857
1.122739892
0.9807751029
0.9082962974
0.8953412282
1.000642124
1.02697904
0.6800802314
0.5502339226
0.4461734133
0.3573089256
0.302113017
0.2988438595
0.365116143
0.6580591939
1.415228499
4.002030566
4.800897079
2.933569027
1.419425519
0.7166201747
0.5571750705
0.5157378003
0.4890357444
0.4575769971
0.41567964
0.5641044695
0.5813239345
0.9590280785
1.495068982
1.856716689
1.837410349
1.535298025
1.15475351
0.9736866738
0.9369698717
0.9484282693
1.131341754
2.017502574
0.9859048726
0.7247261456
0.6064681217
0.4947801118
0.4045052293
0.4034382658
0.5895359442
1.633999935
2.138479766
2.882989651
7.420881855
6.018679342
5.74427284
4.935288264
1.754987486
0.9189393503
0.7293376208
0.65159351
0.5382134451
0.4714774259
0.4888539342
0.4703606697
0.6545046019
0.9228487098
1.159563662
1.171188533
1.002945421
0.8582100654
0.8454637517
0.883422623
0.9159594078
0.9649131992
1.085459432
0.851299063
0.7354983017
0.6373524735
0.5557980501
0.6199930065
1.188930683
2.163823627
1.089522774
1.034518306
2.094309725
5.102904807
5.774934805
6.566348337
9.006113202
4.936753856
1.815625827
0.9651964945
0.7405921456
0.627744072
0.5230383745
0.4176587398
0.3802261749
0.4716054285
0.5797384374
0.6781879809
0.7067679412
0.6795108209
0.6903295966
0.7560639847
0.8320020521
0.8976213575
0.9766480003
0.9969621645
0.8381644463
0.7274571335
0.6583670063
0.8112733797
1.922290577
4.645855154
6.050820837
4.67139527
1.106834133
0.9137335417
2.090165004
3.583525579
5.706031542
12.25209768
4.894202826
1.635620446
0.9974501191
0.802714353
0.6785603016
0.5735662269
0.3498289309
0.3142539029
0.363920684
0.4123378661
0.4591823491
0.4922549503
0.5248182394
0.5860085258
0.6820298954
0.8256945686
1.143994578
2.005142704
2.331353463
1.129034832
0.7124936897
0.5831041663
0.5763697608
1.123202737
3.618898724
7.40085858
3.182231436
0.7106204803
0.5473832205
0.9531923574
1.591559192
2.443487245
5.464474426
2.287813491
1.150312105
0.9216940968
0.8069604896
0.6908914186
0.5794174544
0.295955339
0.2691477164
0.3028376674
0.3284448184
0.3560027089
0.3877605658
0.4331239314
0.5091614763
0.6875407677
1.378272284
4.217076671
11.43170168
8.731637774
2.556186431
0.7330071616
0.4839187318
0.3939706432
0.4860629412
1.235727781
2.510773412
1.020919933
0.3970388567
0.4049267431
0.5685471878
0.7980404508
1.019970253
1.998892757
1.202887515
0.928007819
0.8587946387
0.7780779602
0.6665541078
0.5546605892
0.2666110133
0.2440445364
0.2711599378
0.2874234352
0.3042525042
0.326447067
0.3605982784
0.4143852369
0.5218216229
0.9293501695
3.247919061
5.925377102
7.727203661
1.296401762
0.5257753939
0.3756044824
0.2884148307
0.267113799
0.3951939858
0.6242908479
0.3590752635
0.3006374303
0.3483900419
0.4330045286
0.5306857189
0.6363092045
0.9738082202
0.8539755189
0.8053054653
0.786297017
0.7166296432
0.6135686056
0.5138136766
0.2620225031
0.2353953817
0.2574274098
0.2678619467
0.2766542202
0.2876797419
0.3057548818
0.3348028738
0.3863642487
0.4989525957
0.8810108558
2.305453338
1.900494403
0.5669548469
0.3668784709
0.2808074323
0.2217632537
0.197261352
0.2154927507
0.2661243349
0.2397117448
0.269025616
0.3175795832
0.3754259132
0.4351048492
0.5096536951
0.654393246
0.6991877459
0.7099337714
0.7027184015
0.6407503313
0.5529099381
0.4734317131
0.2722719056
0.2364903505
0.2531228045
0.258494544
0.2612195979
0.2638270106
0.2696857479
0.2817711334
0.3023566214
0.3370142173
0.4023229497
0.5694295423
0.5619419634
0.3324056189
0.2630462792
0.2138456405
0.1827713518
0.1727316783
0.1813547725
0.2039840152
0.2215906003
0.255650781
0.2962231271
0.3413417973
0.3878267107
0.4470769557
0.5320675476
0.6007867006
0.6312931013
0.6303588812
0.578876597
0.5073898011
0.4494865522
0.2853426188
0.2407440852
0.2524859067
0.2536268777
0.2522171457
0.2498090363
0.2480948835
0.2491077953
0.2545343115
0.2658098073
0.2778425112
0.2924824796
0.2849227093
0.2348541822
0.2014879023
0.1770442943
0.1656883858
0.1673128908
0.1794658749
0.1991843594
0.2223617212
0.2513986275
0.2843667434
0.3207816313
0.3600932737
0.4093878276
0.4726899824
0.5398173797
0.592184343
0.6124064404
0.5732331724
0.5066778523
0.4591276848
0.2931115214
0.2437796458
0.2522466058
0.2504584554
0.2466220428
0.2420142368
0.2368506432
0.231956617
0.2287848742
0.2278482031
0.2269061068
0.2230135542
0.2118629801
0.191807167
0.1752216144
0.1662003785
0.1661253501
0.1743255979
0.1893077752
0.2089396901
0.2312832256
0.2567646025
0.2854425315
0.3157932481
0.3495203825
0.3920508404
0.4487194113
0.5268726051
0.63617484
0.7131795663
0.6919511676
0.6007642231
0.5281021188
0.2919145935
0.2433096207
0.2506946227
0.2474912281
0.2424332421
0.2370503782
0.2308946898
0.2238665129
0.2170136081
0.2113778951
0.2062106145
0.1998016585
0.1912418157
0.1819487106
0.1761263448
0.1757088465
0.1808280497
0.1914528939
0.2071523055
0.2267411958
0.250070152
0.2832463386
0.3352313038
0.3367564769
0.3634538535
0.3986449686
0.4575714078
0.5729757194
0.7899451746
0.9383482088
0.9403506331
0.8040982669
0.6605910063
0.2809084995
0.2383015785
0.246882645
0.2438916906
0.2385290749
0.2326631681
0.2265352041
0.2195243347
0.2124189411
0.2064120913
0.2015849284
0.1975732805
0.1946561347
0.1937440825
0.1955373873
0.1998969713
0.2068668341
0.2172844826
0.2323697113
0.2547342148
0.3004698225
0.461193576
0.9256634178
0.5274231538
0.4473100744
0.4464174439
0.4927902468
0.6571531112
0.9918924093
1.208057557
1.238587058
1.068700238
0.8296773479
0.2608857909
0.2284023107
0.2401062792
0.2389525486
0.2343384291
0.2285763189
0.2226131933
0.2166571731
0.2113147354
0.2075250447
0.2060395265
0.2073538232
0.2116028753
0.2181117071
0.2256064055
0.2332137417
0.2411575268
0.2510799347
0.2691996094
0.3305716049
0.6482779906
2.08062188
4.833371187
1.760839522
0.7434342606
0.5688821723
0.5394357599
0.7193560625
1.129089555
1.414832082
1.486371318
1.311595254
0.9964757207
0.2337476735
0.2137788678
0.2297644561
0.2318556794
0.2292072439
0.2245783457
0.219642091
0.2152849706
0.2124909483
0.2125263578
0.2165064142
0.2248076477
0.2364524346
0.2493585094
0.2615818339
0.2723985483
0.2830101352
0.2973514909
0.3268754269
0.4112558763
0.7597334313
2.3511295
4.569925207
2.59113067
1.064447489
0.7465039098
0.5895794836
0.7129888805
1.11786297
1.455788277
1.571726795
1.41544989
1.080401604
0.202069335
0.1951332594
0.2154815685
0.2216009646
0.2219498058
0.2195429181
0.2166563444
0.2149019024
0.2159541061
0.2215087409
0.2325278005
0.2484150421
0.2669472625
0.2854262994
0.3019583737
0.3161759687
0.3310426422
0.3543448634
0.4029581193
0.5075273907
0.7439336517
1.435266872
2.953560771
1.657641004
1.214347746
0.8577482658
0.6030632705
0.6514997356
0.9686044363
1.300776978
1.449786986
1.330601749
1.036054601
0.1684637912
0.1734007419
0.1970149683
0.2070275622
0.2109505902
0.2118725715
0.212533987
0.2152428252
0.2222633361
0.2352762151
0.2544038622
0.2777887353
0.3024050618
0.3255472435
0.345618695
0.3625094826
0.3800064086
0.408017425
0.4667656966
0.5872295108
0.8132328089
1.181663427
1.683286538
1.409567642
1.222518342
0.8089370493
0.5524026425
0.5748483532
0.7708398953
1.030350489
1.185692908
1.11174782
0.8858776135
0.1360436107
0.150207451
0.1751358756
0.1881592432
0.1958113492
0.2012422007
0.2075323551
0.2173643245
0.2329378979
0.2551279979
0.2828016822
0.3131227451
0.3428154829
0.3693718732
0.3913847183
0.408754692
0.424319685
0.4466542151
0.495063786
0.601563426
0.8028211515
1.097736986
1.323706877
1.215280744
1.007619862
0.6330863132
0.4699446174
0.4963192618
0.6104554714
0.7600441668
0.8842121316
0.8370764869
0.7042373994
0.1063697867
0.124960877
0.1483603786
0.1627092467
0.1736922823
0.1845819671
0.1985194823
0.2177227263
0.2432647177
0.2746758903
0.3099326543
0.3460446453
0.3799767607
0.4092691516
0.4321456721
0.4476461268
0.4565594267
0.4636942518
0.4822130739
0.5379896248
0.6640415934
0.8621590157
1.001408482
0.8340741759
0.6563941261
0.4218545659
0.3672222278
0.3966978246
0.4587567554
0.5412426869
0.6223121214
0.601172457
0.5354206679
0.0748148075
0.1081166443
0.137522523
0.161726468
0.1854492295
0.2125217135
0.2455940031
0.2853947467
0.3316270675
0.3834690841
0.4390778552
0.4950655656
0.5468053611
0.5893803963
0.6184583981
0.6307169897
0.624378806
0.6013020465
0.5718913345
0.5612759519
0.6121522495
0.7595887507
0.8919916041
0.6049961236
0.4330948164
0.3047485971
0.2833392645
0.3155304248
0.3760404873
0.4243851367
0.4905635371
0.4704312132
0.4355459249
1.62975049
1.26272472
1.027894957
0.8569793323
0.6246518893
0.4309296005
0.4731273323
0.6285429954
0.7029601548
0.6640534286
0.4977843493
0.332140339
0.2480613587
0.203025555
0.18056925
0.1766182048
0.1854084387
0.2031319646
0.2301706392
0.2654186829
0.2965117301
0.3114082319
0.3226353124
0.3283691676
0.3344115597
0.3474539676
0.3522092572
0.3460411066
0.3299207806
0.4180711622
0.5328126076
0.540099476
0.4831450893
0.3749584509
0.332937204
0.4299828287
0.6322039935
0.7805928764
0.7825742727
0.6178582535
0.4158562215
0.3050753565
0.2395403459
0.195210559
0.1761614643
0.1790693952
0.1982116582
0.2321143469
0.2796832415
0.3334142422
0.3784477463
0.4018348785
0.3919412081
0.3564664058
0.3317755818
0.3263028356
0.3192335128
0.3049151255
0.2912913076
0.2751961769
0.2553506714
0.237070536
0.2870767265
0.3139805488
0.2929698602
0.3048072036
0.3523000303
0.4516881371
0.6065323266
0.7388108186
0.7419990361
0.6101110804
0.4224879003
0.3178701572
0.2555872242
0.2064782564
0.180025392
0.1791389513
0.202695957
0.2534264104
0.3318207094
0.4253153349
0.5001101223
0.5334522559
0.5123403126
0.4359153933
0.3852231976
0.3729218354
0.3659062229
0.3180695013
0.2949764952
0.2793125794
0.2610484765
0.2213489014
0.2069511344
0.2348412253
0.2875053864
0.3855258884
0.4718964544
0.5334466425
0.5854328106
0.6168503386
0.6211336896
0.4931990104
0.3609967084
0.2862881087
0.2345172397
0.2000428432
0.1814246268
0.1813804229
0.2065326752
0.2642656815
0.3576998053
0.4703233042
0.5456751937
0.5848106552
0.5768090456
0.5234847825
0.5192234778
0.5107134664
0.4860919839
0.3706772892
0.3149498333
0.2948868274
0.2743634562
0.2517452781
0.2165136154
0.1869930614
0.275288572
0.4449101428
0.45691813
0.5492768272
0.6076243455
0.6538810178
0.4539176835
0.3761954319
0.3226584175
0.273836168
0.2423722909
0.2168203574
0.1967342968
0.1833652898
0.1816131834
0.1994840639
0.2470157368
0.3380916955
0.4506956854
0.485701811
0.5205631038
0.5156582716
0.602525508
0.6883235982
0.493204535
0.4363935125
0.3586268764
0.3238550461
0.3059456858
0.2857809349
0.256868356
0.1924919606
0.1602835854
0.20284339
0.2712046515
0.3677668061
0.4365216936
0.4413915145
0.3659975209
0.3175656111
0.2905308459
0.2652356064
0.2434136306
0.2286503756
0.2158344205
0.2033318393
0.1915051884
0.186466193
0.1969721257
0.241678983
0.359096742
0.4135487572
0.4419840508
0.4007931803
0.4040050968
0.5562876516
0.7600997777
0.5681580071
0.4109132367
0.3605095043
0.3315201479
0.3057581695
0.2767593179
0.2502023784
0.1915817669
0.1767264558
0.2119373659
0.2505358291
0.2964511861
0.3367471483
0.3735488434
0.3915905904
0.3974847826
0.361843301
0.3118459298
0.2743400148
0.2534066852
0.2395530033
0.2262641955
0.2116371533
0.1995517436
0.1953238719
0.2062267494
0.2486116168
0.3303320086
0.2783773238
0.2769478827
0.2817793261
0.3347953748
0.5200153026
0.4733494724
0.4177143858
0.3980007462
0.3426072381
0.3004434985
0.2718523418
0.2544830538
0.2203103875
0.2138213637
0.2626092047
0.3295465235
0.4346875316
0.5599767724
0.6425367602
0.6602651643
0.6281887531
0.5448460254
0.4420530638
0.3663011114
0.3260519346
0.3018346219
0.2778881563
0.252536708
0.2275724408
0.2080406314
0.1979409772
0.199156296
0.2094029148
0.2107991981
0.2215767292
0.2418807939
0.2735589385
0.2764826854
0.3023503784
0.4162607052
0.3724587353
0.3653276558
0.3461435872
0.3264993376
0.3200475429
0.3002548972
0.2726127025
0.3632891854
0.5496351018
0.8513333288
1.089726855
1.101036057
0.9858267212
0.8694263028
0.7423452962
0.6071464642
0.5045887029
0.4500170511
0.4132073426
0.3608170101
0.3147200861
0.2707639773
0.2334716047
0.2080319287
0.1958679688
0.1973451421
0.2164671213
0.2611255399
0.4051492373
0.5413493682
0.3552267513
0.2875038079
0.2984706919
0.3505735871
0.358535731
0.3573101675
0.3299934391
0.3338107115
0.4274865935
0.3710054053
0.5781226273
1.010714653
1.477303343
1.643441474
1.512401114
1.257455664
1.025194702
0.8569342794
0.7265614699
0.655225193
0.6882135697
0.6703586795
0.4685683835
0.3805999965
0.3166514319
0.2638460221
0.2287719191
0.2210838931
0.27248585
0.4096182021
0.6020758096
1.587067687
2.37785667
1.194188683
0.5440752314
0.3773367439
0.3554092263
0.3545900892
0.3662367677
0.3570804591
0.35023114
0.5464501695
0.4994401636
0.8204060969
1.364654632
1.789467003
1.871055874
1.716854586
1.39136868
1.06567398
0.8887866164
0.8353995559
1.024496896
1.86276004
2.050598549
0.7172028264
0.4547426787
0.363819027