/*--------------------------------*- C++ -*----------------------------------*\
  =========                 |
  \\      /  F ield         | OpenFOAM: The Open Source CFD Toolbox
   \\    /   O peration     | Website:  https://openfoam.org
    \\  /    A nd           | Version:  8
     \\/     M anipulation  |
\*---------------------------------------------------------------------------*/
FoamFile
{
    version     2.0;
    format      ascii;
    class       volScalarField;
    location    "1.6";
    object      nut;
}
// * * * * * * * * * * * * * * * * * * * * * * * * * * * * * * * * * * * * * //

dimensions      [0 2 -1 0 0 0 0];

internalField   nonuniform List<scalar> 
67286
(
0.0003242317755
0.000382890163
0.0003824226546
0.0003585816505
0.000313072197
0.0002561622994
0.0002456297134
0.000244914336
0.000268635888
0.0002519660864
0.0001994764055
0.000185124666
0.0001843380533
0.0001717327181
0.0001668541616
0.00017072444
0.0001788038625
0.0001893638989
0.0002010316187
0.0002129696987
0.0002242945789
0.0002282120461
0.000228287522
0.0002178509163
0.0002139976282
0.0002207866718
0.0002344419047
0.0002392876839
0.0002899743537
0.00034249668
0.0003424416658
0.0003087616408
0.0002428767636
0.0002125430549
0.0002414254273
0.0002770599602
0.0002950463448
0.0002784349932
0.0002186407479
0.000206293934
0.0002100928594
0.0001827518338
0.0001668491126
0.000165491665
0.0001714984989
0.0001834068659
0.000199063055
0.000216932259
0.0002359893025
0.0002547352237
0.0002591503325
0.0002288636429
0.0002110683439
0.0002110851854
0.0002158401975
0.0002257879779
0.0002315108151
0.0002298017638
0.0002218940944
0.0002114991719
0.0002696149272
0.0003086017539
0.0002988883028
0.0002382080727
0.0001971840648
0.000214891784
0.0002421590455
0.0002787280181
0.0002913627381
0.0002774819905
0.0002222278078
0.0002204206188
0.000228830308
0.0001961546993
0.0001716408409
0.0001660580909
0.0001696589829
0.0001836671832
0.000206901106
0.0002375233108
0.0002728233363
0.0003016627179
0.0003072564672
0.0002494619589
0.0002130977393
0.0002142378679
0.0002247974142
0.0002420012988
0.000241133322
0.0002366716902
0.0002261958316
0.0002128420123
0.0002357641306
0.0002613441453
0.0002407433737
0.0001752402011
0.0001793360164
0.0001861034878
0.0001992322156
0.0002098097844
0.0002272380877
0.0002057873095
0.0001890213943
0.0001898499529
0.0001924956387
0.0001855232774
0.0001764755234
0.0001711034585
0.0001747608976
0.0001920940145
0.0002224416108
0.0002630325036
0.0003057411813
0.0003383483065
0.0003497094489
0.0002839379118
0.0002170502399
0.0002219705176
0.0002571937517
0.0002521957253
0.0002604092426
0.0002596125097
0.0002463971225
0.0002249893724
0.0002068773565
0.0001853032456
0.0001971153784
0.0001842398291
0.0002016326854
0.0002438362731
0.0002505557742
0.0002557712433
0.000178332213
0.000179016189
0.0001825580199
0.0001863734161
0.0001890460348
0.0001896294259
0.0001873901671
0.0001823107822
0.0001773108131
0.0001791763174
0.0001926137623
0.00021848711
0.0002558838041
0.0002975710418
0.0003328940451
0.000349854721
0.0002744128326
0.0002227643898
0.000266958075
0.000308701876
0.0002775077085
0.0002803819733
0.0002748488975
0.0002556824502
0.0002293142992
0.0002084878119
0.0001437564651
0.000159708683
0.0001646445597
0.0001739864749
0.0001845115429
0.0001894804859
0.000196363517
0.0002070105238
0.0002059928619
0.0002054656571
0.0002069184178
0.0002081004832
0.0002066935977
0.0002020566096
0.0001949406123
0.0001878166382
0.0001845748808
0.0001888807
0.0002031742075
0.0002295656083
0.0002686164617
0.0002711608198
0.000275381042
0.00020892336
0.0002225352154
0.0002900950824
0.0002932210561
0.0002667692273
0.0002654986005
0.0002543855093
0.0002305794898
0.0002103548647
0.0001995215042
0.000131072837
0.000166509188
0.0001875953201
0.0002041782144
0.0002204853696
0.0002346824045
0.0002437353551
0.0002496307529
0.0002444448759
0.0002370202431
0.0002348307371
0.0002351018473
0.0002328325343
0.000226707923
0.0002170904222
0.0002057243187
0.0001953788136
0.000188928713
0.0001891098597
0.000197014898
0.0002098171884
0.0002199400593
0.0002199007356
0.0001798377969
0.0001792873933
0.0002004625706
0.0002223798751
0.0002367295706
0.0002278682162
0.0002122215182
0.0002030092762
0.0001992659295
0.0001988659006
0.0001542466667
0.0001919920439
0.0002180424378
0.0002455758021
0.0002710823749
0.0002852891579
0.0002892688721
0.0002899252004
0.0002800948662
0.0002667297032
0.0002619475258
0.00026228107
0.0002604416108
0.0002541788943
0.0002431618803
0.0002288230502
0.0002137157704
0.0001994095049
0.0001871143506
0.0001799922577
0.0001792155592
0.0001809603377
0.0001821048344
0.0001860429062
0.0001936707438
0.0001773906511
0.000186701851
0.0001961318748
0.0002371832366
0.0002126403921
0.0002121288104
0.0002142249676
0.0002174312734
0.0001784495869
0.0002221959828
0.0002589734595
0.0002994259686
0.0003321285521
0.0003445131549
0.000338877202
0.0003288322284
0.0003117444583
0.0002923201591
0.000287201659
0.0002887852036
0.0002873261504
0.0002810505766
0.0002693574361
0.0002537150782
0.0002360763978
0.0002179972282
0.000199561006
0.0001834722378
0.0001751819818
0.0001791233685
0.0002034924734
0.0002615438931
0.0002862028995
0.0002071605598
0.0002080370567
0.0002186429495
0.0002368076894
0.000232158785
0.0002530138538
0.0002541580224
0.0002616062247
0.0002004839273
0.0002573149894
0.0003097894546
0.000364848071
0.0004034438509
0.0004100418426
0.0003868575029
0.0003544882789
0.0003291498672
0.0003114045951
0.0003097242139
0.0003119248532
0.0003107913543
0.0003043742345
0.0002912344727
0.0002743233153
0.0002549411657
0.0002354153475
0.0002147101063
0.0001947957591
0.0001887922108
0.0002201929978
0.000293357861
0.0003953872166
0.0004271520827
0.000296645349
0.00026660407
0.0002551680624
0.0002659675681
0.0002608753167
0.0002499993699
0.0002428874287
0.0002363825936
0.0002441202605
0.0003330670879
0.0003938637957
0.0004440286685
0.0004698830327
0.000461406953
0.0004058525775
0.0003364839764
0.0003195714671
0.0003200895501
0.000326945723
0.0003312453102
0.0003329148192
0.0003279276285
0.000309315168
0.00029040715
0.0002683108794
0.0002463926587
0.000224595791
0.0002100306983
0.0002306710941
0.0003100286689
0.0004194091801
0.0005418879336
0.0005655016841
0.0004414137726
0.0003710434048
0.0003029167577
0.0002931720785
0.0002889344374
0.0002788841262
0.0002689566697
0.0002532455044
0.0002199364274
0.0002982225083
0.0003576181992
0.0004071166704
0.000432503276
0.0004169080914
0.0003482913728
0.0003091617483
0.0003156202387
0.0003287166717
0.0003384778721
0.0003460027965
0.0003599694243
0.0003361779451
0.0003204768435
0.000299885874
0.0002715142693
0.0002434188333
0.0002269183292
0.0002500165928
0.0003320382987
0.000442035453
0.0005621249928
0.0006913716415
0.0006490213353
0.0005718887167
0.0005116423358
0.00038025211
0.0003248656967
0.0003126693749
0.0003029907834
0.0002971437623
0.0002781358432
0.0001988795279
0.0002577654893
0.0003041402898
0.0003442608155
0.0003631660353
0.000344509877
0.0003005439043
0.0002978034295
0.0003137437298
0.0003292091271
0.0003391914631
0.0003440317598
0.00034511562
0.0003358234513
0.0003222411677
0.000300460119
0.0002675670181
0.0002425812929
0.0002643792609
0.000329425865
0.0002500207343
0.0003539646546
0.0004823095025
0.0005931607812
0.0005778212789
0.000461422294
0.0006485575254
0.0004766254602
0.0003676742175
0.0003343492558
0.0003205491868
0.0003071927363
0.0002901924154
0.00018283354
0.00022513449
0.0002553388279
0.0002829940513
0.0002963001934
0.000287502167
0.0002772941474
0.0002909136398
0.0003095975797
0.0003251919958
0.000335274971
0.0003403692247
0.000340485146
0.0003321363975
0.0003168876322
0.0002902910206
0.0002626599124
0.0003108710454
0.0004692892528
0.0005897487807
0.0002936597651
0.0002796583677
0.00038191863
0.0004648593299
0.0004811327735
0.0005788705173
0.0007804750031
0.0005708899105
0.0004196004266
0.0003525079355
0.0003321514363
0.000317907375
0.0003026687139
0.0001695686543
0.0002023587539
0.0002199627764
0.0002365529552
0.0002480867293
0.0002530127579
0.0002628520445
0.0002816233168
0.0003004805825
0.0003163764907
0.000329978103
0.0003531831006
0.0003566251414
0.0003290062579
0.0003059687248
0.0002740484334
0.0002478813757
0.0003127395604
0.0004846105405
0.0006547837488
0.0003132132591
0.0002407729421
0.0003013187959
0.00036221929
0.0003820762563
0.0004540190229
0.000618306375
0.0004353286616
0.0003599341355
0.0003414036741
0.0003315619443
0.0003183050467
0.0003019537134
0.0001583823317
0.0001874086456
0.0001991882955
0.0002092106279
0.0002194975928
0.0002314812049
0.00024824225
0.0002685095558
0.0002904070077
0.000325369714
0.0004154124091
0.0005895857275
0.0006194325155
0.0003593598557
0.0002921194586
0.000254086236
0.0002193798084
0.000231572683
0.0003257089479
0.0004604761005
0.0002232345217
0.0002243122883
0.0002596826256
0.0002968871673
0.0003167352075
0.0003555720072
0.000460497717
0.0003540367817
0.0003399379286
0.0003356318651
0.0003266444622
0.0003125224832
0.0002948456489
0.0001509852724
0.0001791034474
0.0001894083674
0.0001968731436
0.0002048702312
0.0002159863021
0.0002315508313
0.0002499858332
0.0002695131545
0.0002971765866
0.0003737881699
0.0005292213611
0.0004735331338
0.0003089322757
0.0002652041743
0.0002292509853
0.0001982803443
0.0001905239413
0.0002205956305
0.0002917125144
0.0001989307016
0.0002167868516
0.0002415213216
0.0002663383519
0.0002855785579
0.0003077479458
0.0003539837913
0.0003275219699
0.000330111861
0.0003265763911
0.0003163909831
0.000301159269
0.0002823996159
0.0001484044824
0.0001763604116
0.0001865293414
0.0001931294517
0.0001987306189
0.0002057313175
0.0002161563708
0.0002300693795
0.0002457073129
0.0002622894693
0.0002872361249
0.0003507636248
0.0003247953056
0.0002613142134
0.0002340909912
0.0002034083894
0.0001817031724
0.0001752441214
0.0001820588945
0.00020525587
0.0001946674182
0.0002114139039
0.0002305615935
0.0002501836083
0.0002682960876
0.0002859110471
0.0003072478225
0.0003120127121
0.0003182386881
0.0003131576874
0.0003016463444
0.0002858009169
0.0002673356159
0.0001489487943
0.0001768104441
0.0001869496089
0.0001932354061
0.000197390369
0.0002009298889
0.0002057860754
0.0002134876068
0.0002237839817
0.0002349351232
0.0002457146874
0.0002604222632
0.0002522857524
0.0002264065367
0.0002036954823
0.0001818018332
0.000170621749
0.0001699477396
0.0001754772298
0.0001857896409
0.0001949095778
0.0002082369382
0.0002227626616
0.0002382580468
0.000254098143
0.0002700222973
0.0002856933381
0.0002966991375
0.0003041302729
0.0002972697641
0.0002850039283
0.000269843759
0.0002538318886
0.0001501731224
0.000178035963
0.0001880952178
0.0001942981269
0.0001979995959
0.0001999723283
0.0002012414496
0.0002034000859
0.0002075107603
0.0002129972074
0.0002178053077
0.0002200337657
0.0002133807352
0.0001970555641
0.0001798923367
0.0001681718859
0.0001654533348
0.0001693148412
0.0001768490517
0.0001864533795
0.0001968772414
0.0002076955352
0.0002187592812
0.000230517939
0.0002431975958
0.000256821653
0.0002703744047
0.0002820550361
0.000290677978
0.0002839525964
0.0002721895684
0.0002587655896
0.0002458830914
0.0001507158485
0.0001786223346
0.000188598855
0.0001948011091
0.0001985584972
0.0002003571676
0.0002003232139
0.0001993196957
0.0001985437219
0.000198555921
0.0001983670461
0.0001959490878
0.0001887606635
0.0001772289544
0.0001672872981
0.0001634535604
0.0001654351175
0.0001714641386
0.0001799886704
0.0001896457765
0.0001994269616
0.0002088066278
0.0002178548856
0.0002271856482
0.0002372344102
0.000248478531
0.0002603486094
0.0002723086712
0.000284045674
0.0002854317949
0.0002744185049
0.0002599414208
0.0002465184183
0.0001501272783
0.0001779958884
0.000187893019
0.000194071227
0.0001979400179
0.00019997318
0.0001998485877
0.0001978003207
0.0001945755875
0.000191085142
0.0001873998007
0.0001827349351
0.0001765255953
0.0001701199378
0.0001664945068
0.0001665754195
0.0001695981718
0.0001753676862
0.0001834062308
0.0001925418492
0.0002017028247
0.0002104211284
0.0002186703683
0.0002267643705
0.0002355678598
0.0002458592163
0.0002582509698
0.0002741112791
0.0002952705612
0.0003185342084
0.0003148966751
0.0002970832111
0.0002729866477
0.0001483042906
0.0001759894249
0.0001858128482
0.0001919267127
0.0001957661563
0.0001977720193
0.0001978275635
0.0001957186993
0.0001919421492
0.0001874044872
0.0001828072877
0.0001786075887
0.0001754415021
0.0001740616727
0.0001743871747
0.000175444476
0.0001771443568
0.0001806938199
0.0001868825415
0.00019505813
0.0002043278624
0.0002158638361
0.0002358258595
0.000230364043
0.0002378416958
0.0002481245397
0.0002645778825
0.0002897151613
0.0003241718882
0.0003604170604
0.0003654705306
0.0003492441366
0.0003197912205
0.0001452197555
0.0001725730512
0.0001823243309
0.0001883465425
0.0001920525128
0.0001938672882
0.0001938436524
0.0001920543965
0.0001888861952
0.0001851853477
0.0001820951001
0.0001807307059
0.0001816199759
0.0001841009831
0.000186516667
0.000187513359
0.0001873007636
0.000187833198
0.0001919075621
0.0002029352234
0.0002317989562
0.0003127779122
0.0004622995065
0.0002681078093
0.00025348686
0.000252738704
0.0002711484072
0.0003045908067
0.0003473258314
0.000386054453
0.0003958449719
0.0003809428322
0.0003511331776
0.0001408454244
0.0001677628819
0.0001774504308
0.0001833974336
0.000187001348
0.0001887276253
0.0001888217316
0.0001875883498
0.0001856241834
0.0001840039917
0.000183996865
0.0001864106984
0.0001908467495
0.0001957720155
0.000199374617
0.00020050489
0.0001997289761
0.0002003266587
0.0002087185071
0.0002320541821
0.0002820219093
0.0003905499146
0.0005556701299
0.0003591484041
0.0002989691078
0.0002574905347
0.0002694702361
0.0003057494486
0.0003512234383
0.0003910142464
0.000405018667
0.0003914198319
0.0003627897186
0.0001351384395
0.0001615981991
0.0001712431638
0.0001771446522
0.0001807254004
0.0001825452508
0.0001830609444
0.0001828581528
0.0001828321619
0.0001841383749
0.0001876431006
0.0001932948939
0.0002000133719
0.0002062573808
0.0002106046329
0.0002122723492
0.0002126677653
0.0002169305021
0.0002327907661
0.0002618256125
0.0002992726684
0.0003523965449
0.0004467871033
0.0003665829043
0.0003295375501
0.0002613837756
0.0002597600395
0.0002922778165
0.000336312744
0.000377046377
0.0003955020047
0.0003837387086
0.0003573948252
0.0001280208655
0.0001541187629
0.0001637699186
0.0001696665018
0.0001733392895
0.0001755222957
0.0001769297834
0.0001784136848
0.0001809558406
0.0001853456192
0.0001916923497
0.0001992935862
0.0002069959251
0.0002136523216
0.000218306836
0.0002204924588
0.0002219959492
0.0002284089503
0.0002470951411
0.0002779907897
0.000313635725
0.0003480128857
0.0003838318688
0.000371813452
0.0003306917438
0.0002601322047
0.0002454335849
0.0002707156776
0.000307855342
0.0003482673047
0.0003711570442
0.0003617649758
0.0003382468649
0.0001195641833
0.0001454249364
0.0001551213859
0.0001610728399
0.0001650259067
0.0001679752542
0.0001708727951
0.0001746072286
0.0001798092866
0.0001865918623
0.0001944874742
0.0002026718803
0.0002102749198
0.0002165658739
0.0002209904362
0.0002233478083
0.0002247833444
0.0002294540622
0.0002443222657
0.0002719022274
0.0003059735062
0.000337932644
0.0003584407402
0.0003507423352
0.0003018822966
0.0002446134377
0.0002292293672
0.0002463826564
0.000274050216
0.0003092510451
0.0003360317479
0.0003289853653
0.0003082656266
0.0001100678376
0.0001353248193
0.0001449043696
0.0001509748157
0.0001555465096
0.0001598558502
0.000164834419
0.0001709359788
0.0001781031921
0.0001859205425
0.000193830758
0.000201288568
0.0002078318757
0.0002130934828
0.0002167901378
0.0002187916558
0.0002195394855
0.0002211667868
0.0002287686833
0.0002476906065
0.0002760214051
0.0003046598958
0.0003228042617
0.0003051823057
0.0002585537657
0.0002178592443
0.0002098277531
0.000221362864
0.0002396998842
0.0002644140625
0.0002921621012
0.0002865463176
0.0002683788428
9.880253078e-05
0.0001202912029
0.000129253132
0.0001358667363
0.000142135773
0.0001490101723
0.0001565546367
0.0001642520233
0.0001715556965
0.0001781239684
0.0001837873249
0.0001884707498
0.0001921417914
0.0001947776174
0.0001963516957
0.0001968640854
0.0001964898284
0.0001960384878
0.0001979365436
0.0002066728074
0.0002249782205
0.0002482656904
0.0002667684034
0.0002395846279
0.0002045963639
0.0001804276159
0.0001770273832
0.000186006467
0.0001978617284
0.0002099336197
0.0002314278348
0.0002257022747
0.0002126624164
0.0002729956424
0.0007624234735
0.0008633824428
0.0007466179654
0.0005114252789
0.000428628584
0.0004894755662
0.0006691684758
0.0008147471328
0.0008094829025
0.0007478570201
0.0007707472765
0.0007918729646
0.0007102879648
0.0006446774312
0.0006539726252
0.0007154864307
0.0008209934501
0.0009702578261
0.00115107346
0.001298859764
0.001334409377
0.001339948459
0.001336382365
0.001307550679
0.001366207675
0.001413138764
0.00146585444
0.0001846875028
0.0005204241509
0.0005647111123
0.0004544391303
0.0004101496122
0.0004467060663
0.0005721950337
0.0007902886684
0.0009270923649
0.0009579447759
0.000922187226
0.0009500384485
0.0009738449077
0.0008634402538
0.0006992583953
0.0006433648138
0.0006658473314
0.0007560063824
0.0009060979233
0.001091562273
0.001270718112
0.001363494402
0.001395369156
0.001403921985
0.001315296181
0.001329491745
0.001358659613
0.0014417281
0.001427937666
0.00137872994
0.001287559208
0.001131477419
0.0001573674929
0.0003729933059
0.0003701991792
0.0003705634189
0.0004291102708
0.000527457131
0.0006250350018
0.0007691649297
0.0009162049642
0.0009708930052
0.0009544086379
0.001007899176
0.001056420265
0.0009585633078
0.0007855552949
0.0006849288325
0.0006695253208
0.0007461696696
0.0009120594727
0.001139397758
0.001337357135
0.001431443793
0.001463374196
0.001473714502
0.001362764392
0.001419354004
0.001494593318
0.001525484869
0.001468194497
0.001401347674
0.001304983721
0.001140981005
0.0001535525395
0.0002846720676
0.0003253794044
0.0004700020051
0.0006353690162
0.0007637792999
0.0007468849348
0.0007125854988
0.0007873427204
0.0008167313897
0.0008442193777
0.0009294856033
0.0009787946728
0.0009327448994
0.0008275300787
0.0007367544136
0.0007106872429
0.0007857792888
0.0009606055752
0.001184570242
0.001350726383
0.001426366802
0.001451885753
0.001469978665
0.001412512343
0.001625755194
0.001729423731
0.001743338059
0.001551305433
0.001441088053
0.00134789462
0.001222836848
0.001068667276
0.0001376427869
0.0002750303887
0.0003977283424
0.0007040283876
0.0009571631927
0.001044575085
0.0009385066961
0.0006331515866
0.0005171142111
0.0005884821881
0.0006758818997
0.000755656216
0.0008137183877
0.0008361655577
0.0008059718858
0.0007597757409
0.0007574371333
0.0008375558719
0.0009998218462
0.001205845239
0.001384834126
0.001365570276
0.001356621514
0.001418346799
0.001511237394
0.001842134796
0.001848334623
0.00176248302
0.001553531198
0.001431449706
0.001338032561
0.001225619661
0.001095133454
0.0001249174117
0.0002712617392
0.0003444390617
0.000417772042
0.0004957455494
0.0005212696936
0.0004768727588
0.0004428370223
0.0004645910116
0.0005241764255
0.0005998155161
0.000677529284
0.0007413307653
0.0007789906362
0.0007861766557
0.0007855489393
0.0008116261772
0.000886313912
0.001027277098
0.001284634422
0.001527099895
0.001352607605
0.001240382727
0.001229235648
0.001406500484
0.001776290183
0.001764455685
0.001635030659
0.001466032025
0.001341868397
0.001243069221
0.001121760986
0.00105020059
0.0001240457184
0.000291901204
0.000370379665
0.0004015657607
0.0004118219168
0.0004361124818
0.0004922650823
0.000556355676
0.0005892356208
0.0006160781455
0.0006668593559
0.0007372133076
0.000798004392
0.0008361866681
0.0008528799498
0.0008625279012
0.0008808537547
0.0009157632936
0.0009743293661
0.001068260541
0.001201329044
0.001105857702
0.001033876147
0.0009524190363
0.0009728309301
0.001265730806
0.001394870514
0.001529561215
0.001420942248
0.001184603545
0.001064969979
0.001034166689
0.001041622754
0.000136737154
0.0003414712583
0.0004640955429
0.0005398207899
0.0006213020102
0.0007341440881
0.0008398705608
0.0008787366416
0.0008645670789
0.0008388167002
0.0008566602654
0.0009107212732
0.0009498252705
0.00097546659
0.0009889589792
0.0009936959289
0.0009866812027
0.0009760838574
0.0009671067423
0.0009647370575
0.0009636458292
0.0009257205485
0.0008684102394
0.0008152007599
0.0007534226202
0.0008491210415
0.0009997015508
0.001114485513
0.001325807244
0.001142642478
0.001130706387
0.001186517665
0.001227401259
0.0001570034615
0.0004074661619
0.0005819833787
0.0007744924779
0.000992120966
0.001140117257
0.001180899157
0.001155064333
0.001112859054
0.001079172886
0.001063808675
0.00106871575
0.001079815288
0.001085878812
0.001079187206
0.001068363271
0.001054676969
0.001039794895
0.001008975709
0.0009616991583
0.0009202754231
0.000876702237
0.0008121829344
0.0007341076461
0.0006362282917
0.000757174338
0.0008095569394
0.0008644826214
0.0009518818623
0.001020314237
0.001297690652
0.001362760398
0.001408244
0.0001769066332
0.0005217828102
0.0008219338596
0.001096273031
0.001323136042
0.001431179145
0.001430504146
0.001354398753
0.001266085107
0.001214404581
0.001192085615
0.001188176935
0.001191838853
0.00118011185
0.00114844429
0.001117634607
0.001088889298
0.001063169529
0.001039315259
0.0009853345802
0.000938665828
0.0008770074121
0.0007545798933
0.0007844490578
0.0008280303841
0.0007967368519
0.0008039680914
0.0008903876686
0.0009209427919
0.0009860933855
0.001131665505
0.001207048413
0.001255792033
0.0001953336693
0.000617690896
0.0009578762847
0.001253729735
0.001454799746
0.001527466278
0.001498714865
0.001413274335
0.001318018481
0.001275410252
0.001271560927
0.001294198928
0.001328735402
0.001263050519
0.001214051108
0.001157239677
0.00111677347
0.001088820895
0.001070657269
0.001037030739
0.001063859972
0.001104649025
0.0009464166173
0.001260689154
0.001356367525
0.001275176866
0.0009831737825
0.0009616257451
0.0009608442261
0.0009736647418
0.00103369948
0.00110510645
0.001132867062
0.0001918656632
0.0006021469903
0.0009453023218
0.001225727319
0.001408268138
0.001455883066
0.001399362595
0.001297716369
0.00124615207
0.001253961212
0.001293907048
0.001394949214
0.001601980021
0.001332265041
0.001218350265
0.00116264987
0.001129123863
0.001105821399
0.001052585315
0.001086178312
0.001555802845
0.001436077181
0.001105865783
0.001473719841
0.001604943776
0.001641379124
0.001505527646
0.001130011991
0.001004968053
0.0009815951454
0.001002570838
0.001041009532
0.001056535087
0.0001827477448
0.0005214648816
0.0007672275009
0.0009802044787
0.001123501578
0.001153566738
0.00109445978
0.001075688905
0.001136555654
0.001198798169
0.00125048247
0.001305103044
0.001371501473
0.001258345247
0.001197129022
0.001163806944
0.001156785838
0.001153740907
0.001264772507
0.001454810898
0.001257512058
0.001193148971
0.0009587483763
0.001391621221
0.001606327446
0.001830837535
0.001792332781
0.001454958706
0.001054148176
0.000978199404
0.0009723553793
0.0009789143184
0.0009710058143
0.0001733502558
0.0004636279454
0.0006112252683
0.000722068749
0.0007976222287
0.0008200281005
0.0008401802985
0.0009319187907
0.001049378084
0.001143249467
0.001213160695
0.001272027504
0.001288142642
0.001223405419
0.001172607567
0.001143706178
0.001101809119
0.001264297272
0.001782893897
0.001900621098
0.001668276212
0.001038186973
0.0007810116241
0.0009495026727
0.001250711512
0.001693912714
0.001971105111
0.001530243844
0.001087614838
0.001000738119
0.0009622884138
0.0009377745715
0.0009226695883
0.0001634302804
0.0004252577097
0.0005418530831
0.0006030298456
0.0006363741096
0.0006647268784
0.0007287224531
0.0008530286288
0.0009844512799
0.001107696695
0.001247068439
0.001458992038
0.001496665731
0.001285723685
0.00114996082
0.001089356677
0.001021096199
0.001115234462
0.001717963247
0.002071702624
0.001559261606
0.0008726884562
0.0006907675247
0.0007173386564
0.0008362128942
0.001141347225
0.00145574488
0.001175061057
0.001020737474
0.0009777364734
0.0009439837697
0.0009116971948
0.0008906842289
0.0001545697931
0.0004030947878
0.0005202180085
0.000580430156
0.0006081692738
0.0006337507831
0.0006936516556
0.0008035399722
0.0009194285956
0.001035917906
0.001496699405
0.002321244766
0.00205627286
0.001454811591
0.001108714017
0.0009852234538
0.00090754146
0.0008666907417
0.001057352534
0.00129651641
0.0009390798647
0.0007237596963
0.0006791115741
0.0007005745489
0.0007404943347
0.0008847907044
0.0009928806073
0.001003985967
0.0009738911432
0.0009505775774
0.0009251890244
0.0008948197172
0.0008759929075
0.0001492158945
0.0003991209914
0.0005280397731
0.0006037746143
0.0006403678261
0.000660344936
0.0006942370037
0.0007630659376
0.0008577847648
0.0009748798363
0.001525172694
0.001843823426
0.001909697404
0.001154205131
0.0009630128218
0.0008631387088
0.0008094350067
0.0007762104927
0.0007382321515
0.0007419955235
0.000704610534
0.0006809898612
0.0006890540451
0.0007297437084
0.0007753188454
0.0008547932727
0.0008888512281
0.0009404865806
0.0009332755461
0.0009238246467
0.0009066188146
0.0008839870853
0.000873369027
0.0001482628424
0.0004108616428
0.0005541892442
0.0006472680141
0.0006963847408
0.0007144681126
0.0007254766262
0.000754254016
0.0008198338671
0.0008829617791
0.0009394718758
0.001288995879
0.001006528153
0.0008914974557
0.0008111741479
0.0007515980212
0.0007306260162
0.0007214151142
0.0006936710168
0.0006576056164
0.0006786782138
0.000684149152
0.0007106656413
0.0007557173294
0.0008059398178
0.0008522697989
0.0008796677132
0.0009048133196
0.0009046558264
0.0009048213437
0.000896300246
0.0008828753539
0.000879139846
0.0001501121411
0.0004305825142
0.0005863083602
0.0006924317236
0.000752403241
0.0007732145231
0.0007725698327
0.000769501256
0.0007811340314
0.0008003426315
0.0007988047593
0.0007946314884
0.0007467017583
0.000740931959
0.0006945548353
0.0006713739051
0.0006712616891
0.0006716989415
0.0006653012541
0.0006596581888
0.0006802233501
0.0007049289212
0.0007380173129
0.0007776262592
0.000820722343
0.0008516531797
0.0008753666916
0.0008910652195
0.0008956629072
0.0009046747948
0.0009032465282
0.0008941950065
0.0008909169786
0.0001524604475
0.0004494030118
0.0006132421327
0.0007265157861
0.0007928777889
0.0008175556608
0.0008167382427
0.0008028890436
0.0007882702825
0.0007762865466
0.0007408092705
0.0007085829309
0.0006741965981
0.0006463340016
0.0006231078293
0.0006186537347
0.0006236334465
0.0006272916333
0.0006335651279
0.000650559201
0.0006846079618
0.000724010032
0.0007599016298
0.0007932240463
0.0008277436218
0.0008541028519
0.0008787351092
0.0008987626481
0.0009120170764
0.0009258826968
0.0009271052001
0.0009157472853
0.000906329943
0.0001538409017
0.0004609369644
0.0006281007019
0.0007440627145
0.0008129446573
0.000838486737
0.0008399780513
0.0008274072054
0.0008031298584
0.0007666596911
0.0007170935574
0.0006701552205
0.0006305457178
0.0006013600234
0.0005874620412
0.0005854294041
0.0005872301884
0.000590987158
0.0006038150737
0.0006327915758
0.0006783035855
0.0007284830489
0.0007690501775
0.0008011432571
0.0008313951986
0.000858719946
0.0008883782266
0.0009192891236
0.0009406555622
0.0009497468387
0.0009505739223
0.0009342931166
0.0009135997607
0.0001536516595
0.0004620427735
0.0006281043443
0.0007445026449
0.0008154723659
0.000842264284
0.0008453305066
0.0008355218559
0.0008123612552
0.0007712132781
0.0007162491281
0.0006621783789
0.000620339579
0.000594768324
0.0005835922163
0.0005783886721
0.0005731509977
0.0005703158111
0.0005788330704
0.0006069585107
0.0006572851732
0.0007254973271
0.0007968449207
0.0008183144678
0.0008439987704
0.0008705195498
0.0008991889421
0.0009371737239
0.0009667640836
0.0009802619703
0.0009781584006
0.0009505263869
0.0009171214406
0.0001517205471
0.000451703041
0.0006123315384
0.0007272526712
0.0008014095459
0.0008350343384
0.0008406778793
0.0008324298667
0.000810534713
0.0007707563312
0.0007191588159
0.0006708248432
0.000637873413
0.0006224510937
0.0006165917938
0.000608208117
0.0005917950751
0.0005726761421
0.0005632774384
0.0005777550659
0.0006352641421
0.00078141965
0.001027196598
0.0009475458765
0.0009006827968
0.0009092275994
0.0009157115853
0.0009529227343
0.001001391325
0.001034062999
0.001032174259
0.0009896401747
0.0009279820281
0.000148051768
0.0004303176257
0.0005809218624
0.0006914771279
0.0007674084385
0.0008082289693
0.0008209775918
0.0008135724929
0.000790532642
0.0007555139984
0.0007170209353
0.0006878263173
0.0006761173662
0.0006787002306
0.0006823083126
0.0006725595696
0.0006438883863
0.0006039840121
0.0005732490755
0.0005876138578
0.0007484561026
0.001352142109
0.001962837758
0.001463956705
0.001057757806
0.0009753987757
0.0009401372997
0.000964127208
0.001029209669
0.001082434097
0.001086894877
0.001037706311
0.0009469857486
0.0001427518105
0.0003996228548
0.0005355024484
0.0006370680509
0.0007096438001
0.0007519713613
0.0007677132823
0.0007631131307
0.0007456472653
0.0007238492504
0.0007082821885
0.0007079452187
0.000724050961
0.0007470103187
0.0007612936435
0.0007538637499
0.0007183136414
0.0006637765687
0.0006218841806
0.0006492706442
0.000867049528
0.001600071919
0.002224349729
0.00178164749
0.001203985045
0.001037993659
0.0009290198741
0.0009461351343
0.001014925766
0.001081180118
0.001094574821
0.001047485271
0.0009428860234
0.000136005459
0.0003627555516
0.0004800526234
0.0005678815435
0.0006313733601
0.0006696115035
0.0006855600092
0.0006858476217
0.0006800645947
0.0006790801371
0.0006925214408
0.0007238169261
0.0007665789085
0.0008066958228
0.0008305279944
0.000830054651
0.0007978807745
0.0007441083323
0.0007111119219
0.0007641357362
0.0009560764772
0.00133374772
0.001854463769
0.001506841327
0.001257956394
0.001034006065
0.0008531095463
0.0008674077447
0.0009391762566
0.001007352523
0.001028237793
0.0009889202943
0.0008881013648
0.0001280161812
0.0003232926371
0.0004195513655
0.000490138099
0.0005403739723
0.0005707844683
0.0005854394921
0.0005921222204
0.0006014135396
0.0006238037851
0.0006654088024
0.0007237534805
0.0007873212339
0.0008407168361
0.0008728859033
0.0008794747546
0.0008550008946
0.0008114723791
0.0007948712544
0.0008673209127
0.001024949768
0.001236408154
0.001441843206
0.001345584145
0.001197691559
0.0009020861023
0.0007096272026
0.0007205854832
0.0008091906861
0.000873745912