/*--------------------------------*- C++ -*----------------------------------*\
  =========                 |
  \\      /  F ield         | OpenFOAM: The Open Source CFD Toolbox
   \\    /   O peration     | Website:  https://openfoam.org
    \\  /    A nd           | Version:  8
     \\/     M anipulation  |
\*---------------------------------------------------------------------------*/
FoamFile
{
    version     2.0;
    format      ascii;
    class       volScalarField;
    location    "1.6";
    object      p_rgh;
}
// * * * * * * * * * * * * * * * * * * * * * * * * * * * * * * * * * * * * * //

dimensions      [1 -1 -2 0 0 0 0];

internalField   nonuniform List<scalar> 
67286
(
100004.0402
100003.9178
100003.845
100003.8262
100003.8812
100003.916
100003.9415
100003.927
100003.8936
100003.8771
100003.8603
100003.8519
100003.8425
100003.8392
100003.8401
100003.8403
100003.8429
100003.8515
100003.8723
100003.9071
100003.9315
100003.955
100003.9787
100003.9988
100004.0237
100004.0374
100004.0478
100004.0392
100003.8021
100003.7986
100003.8197
100003.8779
100003.9292
100003.9392
100003.9377
100003.91
100003.9112
100003.9071
100003.8815
100003.872
100003.8578
100003.8521
100003.8558
100003.8569
100003.859
100003.8649
100003.8799
100003.9084
100003.9414
100003.9606
100003.9827
100004.0071
100004.0359
100004.0542
100004.0763
100004.0654
100004.0338
100003.9919
100003.9492
100003.9139
100003.7848
100003.8464
100003.9035
100003.9673
100003.9646
100003.936
100003.9349
100003.9122
100003.9261
100003.9207
100003.8938
100003.8898
100003.8756
100003.8682
100003.8704
100003.8711
100003.8725
100003.8762
100003.887
100003.9119
100003.949
100003.9789
100004.0019
100004.0292
100004.0665
100004.0894
100004.1184
100004.1208
100004.078
100004.0245
100003.9748
100003.9356
100003.8913
100003.9358
100003.9776
100003.9828
100003.9606
100003.9388
100003.9394
100003.9182
100003.911
100003.9062
100003.9051
100003.8968
100003.8923
100003.887
100003.8845
100003.8842
100003.8858
100003.8904
100003.9032
100003.9391
100004.0121
100004.0343
100004.0459
100004.0711
100004.126
100004.1453
100004.1375
100004.2292
100004.141
100004.0649
100004.0038
100003.9591
100003.9269
100004.0223
100004.0635
100004.1276
100004.0055
100003.9699
100003.9722
100003.9438
100003.9267
100003.9641
100003.9361
100003.9273
100003.9188
100003.9139
100003.9047
100003.8991
100003.8971
100003.8999
100003.9081
100003.9229
100003.9552
100004.0495
100004.0644
100004.0828
100004.1282
100004.2209
100004.2492
100004.6579
100004.3155
100004.2076
100004.1063
100004.0383
100003.9929
100003.9539
100004.0176
100004.0005
100003.9807
100003.9529
100003.9418
100003.934
100003.937
100003.939
100003.9503
100003.9349
100003.9276
100003.9221
100003.9181
100003.9131
100003.9097
100003.9092
100003.9174
100003.9395
100003.9815
100004.0556
100004.5866
100004.1528
100004.1659
100004.1826
100004.2543
100004.4248
100004.4504
100004.3077
100004.2557
100004.1358
100004.0775
100004.0256
100003.9829
100004.044
100004.0275
100004.0129
100003.9868
100003.9703
100003.9562
100003.9501
100003.9333
100003.9411
100003.9373
100003.9368
100003.936
100003.9329
100003.9263
100003.921
100003.9208
100003.9291
100003.9465
100003.973
100004.0086
100004.064
100004.0699
100004.1003
100004.1413
100004.1906
100004.2257
100004.2597
100004.2156
100004.188
100004.1281
100004.1125
100004.0584
100004.019
100004.0218
100003.9831
100003.9599
100003.9328
100003.9121
100003.905
100003.9135
100003.926
100003.9432
100003.957
100003.9684
100003.9764
100003.9768
100003.9643
100003.9515
100003.9461
100003.9524
100003.9705
100004.0013
100004.0515
100004.1242
100004.1141
100004.1304
100004.1594
100004.2374
100004.2885
100004.8266
100004.2218
100004.8308
100004.1568
100004.0969
100003.9943
100003.9588
100004.042
100003.9849
100003.9573
100003.9313
100003.9231
100003.933
100003.9506
100003.97
100003.995
100004.0223
100004.0519
100004.0805
100004.0915
100004.0575
100004.0221
100004.0005
100003.9964
100004.0103
100004.0378
100004.0808
100004.1214
100004.1312
100004.1268
100004.117
100004.133
100004.1545
100004.2967
100004.1641
100004.3683
100004.1535
100004.4234
100004.2041
100004.3619
100004.0423
100003.9556
100003.9233
100003.9251
100003.9619
100003.9907
100004.0098
100004.0361
100004.0764
100004.128
100004.1966
100004.2783
100004.3267
100004.2293
100004.1434
100004.0888
100004.0671
100004.0773
100004.1126
100004.1747
100004.2346
100004.2072
100004.1447
100004.098
100004.0745
100004.1042
100004.2184
100004.1601
100004.2509
100004.1362
100004.1721
100004.1326
100004.1177
100004.149
100003.9791
100003.953
100004.0107
100004.0763
100004.0768
100004.0753
100004.1054
100004.1623
100004.2503
100004.3839
100004.564
100004.7209
100004.5003
100004.3105
100004.1973
100004.149
100004.1545
100004.1942
100004.2517
100004.3079
100004.2562
100004.2254
100004.3303
100004.3185
100004.1656
100004.2061
100004.1952
100004.2359
100004.1889
100004.2194
100004.183
100004.1597
100004.1607
100004.0262
100003.9935
100004.0272
100004.0768
100004.0905
100004.1113
100004.1623
100004.2434
100004.4093
100004.7148
100005.2182
100005.9912
100004.8979
100004.5402
100004.3234
100004.252
100004.2791
100004.4158
100004.7284
100005.4806
100005.0776
100004.8293
100005.0608
100004.9388
100004.7049
100004.5686
100004.31
100004.3217
100004.2917
100004.275
100004.2713
100004.1865
100004.1532
100004.0468
100004.0032
100003.9924
100004.0199
100004.0575
100004.1017
100004.1554
100004.2295
100004.3516
100004.542
100004.8015
100005.0111
100004.6611
100004.436
100004.2967
100004.2559
100004.286
100004.3581
100004.5324
100004.6712
100004.6292
100004.479
100004.6776
100004.797
100004.5813
100004.8234
100004.3506
100004.2791
100004.2846
100004.2741
100004.2692
100004.2238
100004.1396
100004.0618
100004.0267
100004.0079
100004.0211
100004.0557
100004.0999
100004.1572
100004.2448
100004.3872
100004.5902
100004.8013
100004.7936
100004.5188
100004.3805
100004.2756
100004.2319
100004.2051
100004.3198
100004.4879
100004.569
100004.5486
100004.349
100004.4353
100004.6049
100004.9557
100005.9872
100004.8438
100004.5136
100004.4928
100004.4144
100004.3523
100004.3028
100004.1328
100004.0754
100004.0511
100004.0385
100004.0483
100004.0753
100004.1142
100004.1697
100004.2558
100004.3926
100004.6312
100004.9938
100004.4938
100004.3704
100004.2775
100004.2452
100004.2397
100004.184
100004.4556
100004.5959
100004.3523
100004.5254
100004.2702
100004.2846
100004.2936
100004.4087
100005.1635
100004.6756
100004.5944
100004.4721
100004.3876
100004.3437
100004.3178
100004.1324
100004.0887
100004.0721
100004.0669
100004.0816
100004.1149
100004.1695
100004.2537
100004.3729
100004.4955
100004.6522
100004.766
100004.3974
100004.3615
100004.2699
100004.1871
100004.1934
100004.1657
100004.2293
100004.3238
100004.1408
100004.2994
100004.1456
100004.1747
100004.1696
100004.1409
100004.3249
100004.4011
100004.4936
100004.3958
100004.3406
100004.2961
100004.2651
100004.1351
100004.0999
100004.0889
100004.0904
100004.1134
100004.1604
100004.2395
100004.3729
100004.6086
100005.0176
100006.3383
100011.5175
100003.825
100004.7874
100004.2566
100004.1353
100004.1166
100004.1
100004.0622
100004.1205
100004.035
100004.1246
100004.0641
100004.0907
100004.1101
100004.1287
100004.2794
100004.2547
100004.3516
100004.3053
100004.271
100004.2295
100004.1977
100004.1398
100004.1087
100004.1017
100004.1091
100004.1416
100004.2044
100004.3061
100004.4599
100004.6743
100004.8226
100004.9819
100005.7785
100003.8578
100004.5025
100004.1711
100004.0747
100004.0461
100004.0323
100004.0199
100004.0786
100003.9936
100004.0294
100004.0087
100004.0263
100004.0511
100004.0946
100004.2234
100004.1699
100004.2445
100004.2268
100004.203
100004.1666
100004.1368
100004.145
100004.1151
100004.11
100004.1202
100004.1567
100004.2257
100004.3356
100004.4964
100004.7194
100004.6857
100004.6407
100004.7531
100004.1497
100004.1787
100004.0831
100004.0235
100003.9965
100003.9823
100003.9795
100004.0119
100003.9583
100003.9662
100003.9621
100003.976
100003.9993
100004.0384
100004.1133
100004.1107
100004.1601
100004.1619
100004.1468
100004.1152
100004.087
100004.1498
100004.1194
100004.1139
100004.1226
100004.1556
100004.2171
100004.3111
100004.4358
100004.5724
100004.5794
100004.4827
100004.4454
100004.1781
100004.0972
100004.0349
100003.9905
100003.9651
100003.9495
100003.9423
100003.9463
100003.9229
100003.9232
100003.9254
100003.937
100003.9587
100003.991
100004.0378
100004.0626
100004.1004
100004.1133
100004.1048
100004.0751
100004.0469
100004.1535
100004.1222
100004.1143
100004.118
100004.1416
100004.1862
100004.2508
100004.3273
100004.3944
100004.3984
100004.3249
100004.2562
100004.1305
100004.0565
100004.0066
100003.9707
100003.9471
100003.9308
100003.9196
100003.9117
100003.8972
100003.8954
100003.8997
100003.9074
100003.9294
100003.9562
100003.9921
100004.0251
100004.0598
100004.0798
100004.0742
100004.0427
100004.0136
100004.1566
100004.1246
100004.1135
100004.1107
100004.1231
100004.1496
100004.1872
100004.2278
100004.2562
100004.2507
100004.2038
100004.1483
100004.0796
100004.0261
100003.9873
100003.9589
100003.9391
100003.9245
100003.9128
100003.902
100003.8894
100003.887
100003.8979
100003.888
100003.9181
100003.9352
100003.9636
100003.9974
100004.0328
100004.0614
100004.058
100004.0193
100003.9846
100004.1598
100004.1279
100004.1138
100004.1048
100004.1069
100004.1184
100004.1362
100004.154
100004.163
100004.1535
100004.1229
100004.0842
100004.0414
100004.0039
100003.9751
100003.9543
100003.9403
100003.9301
100003.9217
100003.9147
100003.9141
100003.9477
100004.111
100003.8889
100003.9369
100003.9307
100003.9521
100003.9794
100004.0175
100004.0625
100004.0676
100004.0216
100003.9703
100004.1643
100004.1333
100004.1169
100004.103
100004.0971
100004.0977
100004.1021
100004.1065
100004.1057
100004.0952
100004.0738
100004.0466
100004.0175
100003.9911
100003.9708
100003.9578
100003.9517
100003.9501
100003.9487
100003.9351
100003.8657
100003.653
100003.0545
100003.7496
100003.9567
100003.9435
100003.9717
100003.9744
100004.0105
100004.069
100004.0906
100004.0465
100003.9761
100004.1706
100004.1416
100004.1239
100004.1067
100004.0953
100004.0885
100004.0847
100004.0813
100004.0754
100004.0645
100004.048
100004.0278
100004.0068
100003.9882
100003.975
100003.9695
100003.9743
100003.9938
100004.0424
100004.16
100004.4211
100005.3116
100008.2425
100004.2773
100004.4437
100004.0543
100004.0479
100003.9878
100004.0037
100004.0572
100004.0895
100004.0558
100003.9812
100004.1792
100004.1528
100004.1348
100004.116
100004.1013
100004.09
100004.0811
100004.0732
100004.0645
100004.0533
100004.0392
100004.0233
100004.0075
100003.9944
100003.9864
100003.9858
100003.9957
100004.0201
100004.0698
100004.1812
100004.4183
100004.9007
100006.8036
100004.4997
100004.4453
100004.1012
100004.0921
100004.01
100003.9982
100004.0268
100004.0586
100004.0396
100003.9788
100004.1893
100004.1661
100004.1488
100004.1298
100004.1136
100004.0998
100004.0882
100004.0777
100004.0671
100004.0556
100004.0428
100004.0295
100004.0174
100004.0082
100004.0038
100004.0063
100004.0182
100004.0425
100004.0861
100004.1701
100004.3237
100004.5194
100005.0589
100004.3154
100004.3123
100004.1083
100004.1154
100004.0451
100004.0186
100004.0146
100004.0312
100004.0242
100003.9906
100004.2008
100004.1808
100004.1649
100004.147
100004.1308
100004.1164
100004.1037
100004.0921
100004.0808
100004.0692
100004.0574
100004.046
100004.0364
100004.0298
100004.0277
100004.0318
100004.0446
100004.0682
100004.1055
100004.1642
100004.2542
100004.3564
100004.5576
100004.2418
100004.2501
100004.1551
100004.1491
100004.1051
100004.0801
100004.0607
100004.0564
100004.0593
100004.0528
100004.2099
100004.1925
100004.1782
100004.1616
100004.1461
100004.1318
100004.1188
100004.1068
100004.0955
100004.0844
100004.0736
100004.0637
100004.0558
100004.051
100004.0503
100004.0554
100004.0685
100004.0917
100004.1265
100004.1741
100004.2355
100004.3043
100004.3927
100004.2601
100004.2638
100004.2241
100004.2125
100004.1843
100004.1697
100004.155
100004.1496
100004.157
100004.1567
100004.2206
100004.2053
100004.1935
100004.1795
100004.1662
100004.1542
100004.1438
100004.1348
100004.1263
100004.1177
100004.1088
100004.1003
100004.0934
100004.089
100004.0886
100004.0939
100004.1075
100004.1325
100004.1717
100004.2289
100004.3064
100004.3984
100004.4729
100004.4094
100004.3815
100004.3409
100004.3265
100004.3163
100004.3229
100004.3272
100004.3625
100004.3685
100004.3501
100003.7402
100003.683
100003.6798
100003.6377
100003.6924
100003.7916
100003.8172
100003.8305
100003.8207
100003.828
100003.8331
100003.825
100003.8162
100003.8246
100003.8306
100003.8313
100003.8311
100003.8322
100003.8383
100003.8528
100003.878
100003.9087
100003.9345
100003.9626
100003.9834
100003.998
100003.9853
100003.9743
100003.7011
100003.6795
100003.6449
100003.6748
100003.7957
100003.8434
100003.8388
100003.8336
100003.8442
100003.8738
100003.8592
100003.8384
100003.8213
100003.8333
100003.8444
100003.8486
100003.8496
100003.8497
100003.8518
100003.8598
100003.8779
100003.9026
100003.929
100003.9652
100003.9926
100004.0039
100004.0058
100004.0064
100003.9723
100003.9382
100003.9078
100003.8849
100003.6818
100003.6613
100003.7093
100003.8148
100003.8487
100003.8441
100003.8299
100003.8388
100003.8351
100003.8413
100003.8635
100003.8451
100003.8265
100003.8443
100003.8572
100003.862
100003.8638
100003.8623
100003.8594
100003.8616
100003.8768
100003.8976
100003.923
100003.9776
100004.0154
100004.0246
100004.0065
100004.0494
100003.9958
100003.9575
100003.9256
100003.9023
100003.7221
100003.7484
100003.8706
100003.8845
100003.8723
100003.8734
100003.8591
100003.874
100003.8642
100003.8923
100003.8925
100003.8836
100003.8778
100003.875
100003.8741
100003.8744
100003.8739
100003.8696
100003.8623
100003.8612
100003.8767
100003.8984
100003.9165
100003.9849
100004.0477
100004.0736
100003.9677
100004.3099
100004.0406
100003.9735
100003.9393
100003.9164
100003.8982
100003.9436
100003.9919
100004.3481
100003.8448
100003.813
100003.7994
100003.741
100003.8984
100003.9252
100003.9192
100003.9125
100003.9063
100003.9044
100003.8968
100003.8909
100003.8856
100003.8819
100003.8759
100003.8641
100003.8488
100003.8503
100003.899
100003.9229
100004.0058
100004.0882
100004.0739
100003.5569
100004.0683
100003.9868
100003.9649
100003.9499
100003.9406
100003.9151
100003.9921
100003.9776
100003.9705
100003.9188
100003.9075
100003.9196
100003.9248
100003.9403
100003.9588
100003.9263
100003.9131
100003.9045
100003.9011
100003.8989
100003.8986
100003.8921
100003.8914
100003.893
100003.8854
100003.8503
100003.912
100003.9968
100003.9952
100004.068
100004.1295
100004.4781
100004.0511
100004.0823
100004.0041
100003.9814
100003.9644
100003.9494
100003.9284
100004.0087
100003.9912
100003.9825
100003.927
100003.8963
100003.8874
100003.8819
100003.8953
100003.91
100003.9085
100003.9051
100003.9011
100003.8977
100003.8926
100003.89
100003.8901
100003.8958
100003.9062
100003.9185
100003.9341
100003.9842
100003.9857
100004.0033
100004.0566
100004.0974
100004.1553
100003.986
100004.0406
100003.9918
100004.009
100003.983
100003.9545
100003.9247
100003.9815
100003.9435
100003.9169
100003.8771
100003.8548
100003.8518
100003.8621
100003.8796
100003.8984
100003.9095
100003.9153
100003.9176
100003.9148
100003.9024
100003.8959
100003.8966
100003.9048
100003.9205
100003.9444
100003.9747
100004.0091
100004.0109
100004.0143
100004.0216
100004.0411
100004.0648
100003.7146
100004.0051
100003.5032
100003.9328
100003.9172
100003.9155
100003.8946
100003.966
100003.9123
100003.8799
100003.8487
100003.8412
100003.8526
100003.8736
100003.9001
100003.9269
100003.9501
100003.9703
100003.989
100003.9949
100003.9557
100003.9332
100003.9245
100003.9266
100003.9392
100003.9681
100004.0042
100004.0353
100004.012
100003.9734
100003.9277
100003.9429
100004.0203
100004.0286
100004.033
100004.0158
100003.9828
100003.7459
100003.8248
100003.6838
100003.9412
100003.8714
100003.8496
100003.838
100003.8433
100003.8654
100003.9026
100003.9436
100003.9845
100004.0289
100004.0868
100004.1621
100004.2189
100004.0621
100004.0032
100003.9745
100003.9683
100003.9828
100004.0241
100004.1007
100004.2044
100004.044
100003.8935
100003.8375
100003.8338
100003.9327
100003.9687
100003.9972
100003.9947
100004.013
100004.0598
100004.0754
100004.0795
100003.9141
100003.8218
100003.84
100003.8367
100003.8513
100003.8813
100003.9508
100004.012
100004.0552
100004.1126
100004.2147
100004.3839
100004.6228
100004.2575
100004.1088
100004.0419
100004.0165
100004.0234
100004.0537
100004.0599
100004.0463
100003.8718
100003.8253
100003.8739
100003.8538
100003.9309
100003.9044
100003.9947
100004.0081
100004.0216
100004.0289
100004.0304
100004.0356
100003.9777
100003.8813
100003.8684
100003.87
100003.8901
100003.9306
100004.0029
100004.06
100004.1345
100004.2998
100004.6423
100005.5014
100008.1891
100004.8053
100004.4152
100004.1733
100004.1151
100004.1717
100004.3923
100004.8603
100007.1698
100004.3743
100004.1726
100004.1203
100003.9739
100004.0161
100003.888
100003.9627
100003.9895
100004.042
100004.0799
100004.0568
100004.0717
100004.0288
100003.9358
100003.8988
100003.8944
100003.9135
100003.9557
100004.011
100004.05
100004.1021
100004.1944
100004.3634
100004.6838
100005.2299
100004.4867
100004.2519
100004.1263
100004.0788
100004.0814
100004.1269
100004.2336
100004.6233
100004.2386
100003.9348
100003.971
100004.0216
100004.2138
100003.9994
100003.9977
100003.9978
100004.063
100004.0983
100004.1246
100004.1264
100004.0669
100003.9971
100003.9587
100003.9391
100003.949
100003.9816
100004.0175
100004.0465
100004.0869
100004.1534
100004.2518
100004.3769
100004.5044
100004.2655
100004.1624
100004.0853
100004.0418
100003.9871
100003.9741
100003.9674
100004.3867
100004.0972
100003.8202
100003.8182
100003.6116
100003.4383
100003.5949
100003.5859
100003.7627
100004.0642
100004.1182
100004.1709
100004.189
100004.0892
100004.0378
100004.0107
100003.9929
100003.9956
100004.0131
100004.0307
100004.0415
100004.0375
100004.0138
100003.9796
100003.9667
100004.0312
100004.0344
100004.019
100003.9947
100003.9506
100003.7474
100003.64
100003.4998
100004.0969
100004.0297
100003.8956
100003.8086
100003.6431
100003.542
100003.3771
100003.8797
100003.9585
100004.1125
100004.1517
100004.2029
100004.2432
100004.1027
100004.0621
100004.0435
100004.0339
100004.0393
100004.0558
100004.0772
100004.0917
100004.048
100003.8612
100003.5919
100003.1726
100003.3203
100003.7805
100003.897
100003.9441
100003.9501
100003.8242
100003.7077
100003.4576
100004.0055
100003.9855
100003.9261
100003.8658
100003.7597
100003.6982
100003.4246
100003.9541
100003.9971
100004.1059
100004.1413
100004.1717
100004.195
100004.1119
100004.0778
100004.064
100004.061
100004.0748
100004.1028
100004.1393
100004.167
100004.1222
100003.8212
100003.0895
100000.2211
100002.9592
100003.689
100003.8763
100003.9298
100003.9452
100003.8871
100003.7945
100003.5491
100003.9269
100003.9541
100003.9289
100003.9036
100003.8622
100003.8318
100003.7565
100003.9844
100004.0351
100004.0929
100004.1149
100004.128
100004.1364
100004.119
100004.0885
100004.0788
100004.0829
100004.1103
100004.1656
100004.2568
100004.3882
100004.5121
100004.2709
100003.7552
100003.067
100003.4796
100003.8263
100003.9171
100003.9379
100003.9428
100003.9193
100003.8796
100003.8082
100003.9059
100003.9285
100003.9189
100003.9086
100003.8953
100003.8896
100003.9004
100003.9848
100004.0357
100004.0711
100004.0844
100004.0875
100004.0862
100004.1249
100004.0958
100004.0887
100004.0966
100004.1309
100004.2003
100004.3191
100004.4943
100004.6729
100004.4746
100004.1557
100003.8549
100003.8435
100003.9224
100003.9473
100003.9439
100003.9368
100003.9222
100003.9052
100003.887
100003.8986
100003.9048
100003.9012
100003.8987
100003.8988
100003.9083
100003.9344
100003.9771
100004.0179
100004.046
100004.0551
100004.0524
100004.0453
100004.1304
100004.1011
100004.094
100004.1013
100004.1335
100004.1981
100004.3052
100004.4578
100004.6237
100004.6446
100004.3036
100004.1139
100004.0105
100003.9792
100003.9631
100003.9444
100003.9293
100003.9145
100003.9005
100003.8878
100003.8808
100003.8781
100003.8759
100003.8796
100003.8892
100003.9059
100003.933
100003.9645
100003.9955
100004.0218
100004.0287
100004.0214
100004.0104
100004.1357
100004.1054
100004.0961
100004.0987
100004.1213
100004.167
100004.2376
100004.3264
100004.4095
100004.4113
100004.249
100004.1332
100004.0466
100003.9961
100003.9656
100003.9414
100003.9231
100003.907
100003.8911
100003.8744
100003.8573
100003.8435
100003.8354
100003.8495
100003.8696
100003.892
100003.9196
100003.9472
100003.9749
100003.998
100004.0036
100003.9931
100003.9796
100004.1412
100004.1099
100004.0973
100004.0933
100004.1044
100004.1303
100004.1694
100004.2143
100004.2478
100004.2397
100004.1634
100004.0936
100004.0344
100003.9909
100003.9608
100003.9382
100003.9207
100003.9045
100003.8861
100003.8624
100003.8317
100003.7979
100003.7642
100003.8044
100003.8416
100003.8715
100003.9021
100003.9265
100003.9528
100003.968
100003.9706
100003.9574
100003.9435
100004.1474
100004.1159
100004.1
100004.0898
100004.0905
100004.1009
100004.1182
100004.137
100004.1476
100004.1367
100004.0965
100004.0532
100004.0132
100003.9801
100003.9553
100003.9371
100003.9232
100003.9084
100003.8859
100003.8465
100003.7815
100003.7016
100003.5984
100003.7319
100003.7964
100003.8469
100003.8865
100003.9048
100003.9273
100003.9361
100003.935
100003.9177
100003.9011
100004.155
100004.1242
100004.1059
100004.0907
100004.0835
100004.0829
100004.0866
100004.0908
100004.0903
100004.079
100004.0543
100004.0256
100003.9974
100003.9726
100003.9538
100003.9411
100003.9326
100003.9215
100003.8936
100003.8186
100003.6538
100003.4611
100002.8081
100003.5828
100003.7045
100003.8275
100003.8817
100003.8882
100003.9074
100003.9147
100003.9149
100003.8974
100003.8755
100004.1644
100004.1354
100004.1158
100004.0973
100004.0846
100004.0767
100004.0721
100004.0683
100004.0622
100004.0509
100004.033
100004.0121
100003.9911
100003.9728
100003.9594
100003.9519
100003.9491
100003.9445
100003.9185
100003.8184
100003.5044
100003.1386
99999.71801
100003.2685
100003.6082
100003.8334
100003.8989
100003.8925
100003.9007
100003.9037
100003.9049
100003.891
100003.868
100004.1756
100004.1492
100004.1295
100004.1095
100004.0935
100004.0812
100004.0717
100004.0633
100004.0541
100004.0424
100004.0274
100004.0108
100003.9947
100003.9813
100003.9724
100003.9689
100003.9703
100003.9714
100003.959
100003.9165
100003.819
100003.7079
100003.1985
100003.768
100003.8183
100003.9191
100003.9507
100003.9178
100003.911
100003.9044
100003.9024
100003.8931
100003.8751
100004.188
100004.1648
100004.146
100004.1258
100004.1085
100004.0939
100004.0816
100004.0705
100004.0594
100004.0471
100004.0334
100004.0194
100004.0069
100003.9973
100003.9919
100003.9916
100003.9959
100004.0008
100003.9981
100003.9851
100003.9581
100003.921
100003.8032
100003.9229
100003.9656
100003.9976
100004.0098
100003.9695
100003.9432
100003.927
100003.9186
100003.9124
100003.899
100004.2012
100004.1813
100004.1641
100004.1451
100004.128
100004.1128
100004.0995
100004.0871
100004.075
100004.0624
100004.0496
100004.0374
100004.0273
100004.0203
100004.0174
100004.0195
100004.0268
100004.0365
100004.0416
100004.0406
100004.0373
100004.0341
100004.0188
100004.0195
100004.0604
100004.0773
100004.0782
100004.043
100004.0077
100003.9743
100003.9581
100003.953
100003.9494
100004.2112
100004.1941
100004.1787
100004.1614
100004.1452
100004.1303
100004.1167
100004.104
100004.0917
100004.0796
100004.068
100004.0576
100004.0494
100004.0443
100004.0432
100004.047
100004.0565
100004.0708
100004.0848
100004.0919
100004.0937
100004.0956
100004.0971
100004.089
100004.1429
100004.1616
100004.1548
100004.1228
100004.0893
100004.0487
100004.0152
100004.0161
100004.0327
100004.2215
100004.2065
100004.194
100004.1792
100004.1654
100004.153
100004.1421
100004.1325
100004.1233
100004.1141
100004.1051
100004.0968
100004.09
100004.0858
100004.085
100004.0888
100004.0986
100004.1157
100004.1388
100004.1629
100004.1837
100004.2029
100004.2199
100004.2196
100004.2678
100004.2732
100004.2628
100004.237
100004.2203
100004.1965
100004.1787
100004.1876
100004.2052
100003.8298
100003.8105
100003.8228
100003.8408
100003.8484
100003.8578
100003.864
100003.8656
100003.8674
100003.8804
100003.848
100003.831
100003.8206
100003.8163
100003.8146
100003.8127
100003.8121
100003.8143
100003.8224
100003.8395
100003.861
100003.886
100003.9092
100003.9325
100003.9508
100004.0052
100003.9598
100003.9413
100003.9106
100003.8293
100003.8472
100003.8528
100003.8562
100003.8665
100003.8727
100003.8822
100003.8979
100003.9276
100004.08
100003.8945
100003.8569
100003.8405
100003.8353
100003.8334
100003.8317
100003.8308
100003.8313
100003.8351
100003.8456
100003.8619
100003.8833
100003.9066
100003.9324
100003.9542
100003.97
100003.9616
100003.9635
100003.9296
100003.9035
100003.882
100003.8646
100003.879
100003.8864
100003.8784
100003.8801
100003.8779
100003.8771
100003.8874
100003.8939
100003.8999
100003.9102
100003.884
100003.8673
100003.8581
100003.8554
100003.851
100003.8482
100003.8469
100003.8462
100003.8448
100003.8468
100003.8558
100003.8801
100003.9075
100003.9413
100003.9746
100003.9836
100003.9753
100004.079
100003.9625
100003.9257
100003.905
100003.8879
100003.9086
100003.9035
100003.8925
100003.8762
100003.8868
100003.8852
100003.8967
100003.9095
100003.9163
100003.9172
100003.9023
100003.893
100003.8897
100003.8798
100003.8694
100003.8625
100003.8602
100003.8601
100003.8546
100003.8449
100003.8409
100003.8802
100003.913
100003.9566
100004.0148
100003.9926
100003.954
100004.0591
100003.9646
100003.9422
100003.9321
100003.9202
100003.8899
100003.9829
100004.0623
100003.9364
100003.7321
100003.8499
100003.8625
100003.8816
100003.9201
100003.9363
100003.9169
100003.9116
100003.9153
100003.9299
100003.9106
100003.8877
100003.8718
100003.8637
100003.8575
100003.8479
100003.8366
100003.817
100003.8883
100003.9323
100004.0097
100004.2808
100003.9566
100003.8645
100004.0281
100003.9712
100003.9618
100003.9703
100004.0387
100003.9292
100004.0412
100003.9799
100003.9415
100003.9145
100003.9154
100003.9239
100003.9407
100003.9612
100004.0011
100003.9195
100003.9068
100003.8954
100003.8943
100003.8917
100003.8902
100003.8731
100003.8654
100003.8585
100003.8362
100003.7734
100003.3773
100003.8729
100003.9374
100004.0147
100004.0774
100004.1109
100003.9043
100004.0123
100003.9854
100003.9825
100003.977
100003.9716
100003.9329
100003.9709
100003.9561
100003.9368
100003.9176
100003.905
100003.9011
100003.8992
100003.9009
100003.9078
100003.8892
100003.8804
100003.8739
100003.87
100003.8645
100003.8619
100003.8601
100003.8632
100003.8689
100003.8735
100003.8783
100003.8762
100003.9264
100003.963
100004.003
100004.0306
100004.0652
100003.9878
100004.012
100004.0041
100004.0138
100003.9991
100003.9773
100003.9471
100003.9501
100003.9283
100003.9125
100003.8959
100003.8873
100003.8827
100003.8814
100003.8857
100003.8904
100003.8791
100003.8705
100003.8618
100003.8526
100003.843
100003.845
100003.8525
100003.8634
100003.8773
100003.8896
100003.8957
100003.8996
100003.936
100003.9648
100003.9918
100003.9909
100004.0668
100003.8684
100004.0489
100003.9294
100004.026
100004.0123
100003.9986
100003.979
100003.94
100003.9195
100003.9083
100003.8934
100003.8816
100003.873
100003.873
100003.88
100003.8877
100003.8888
100003.8828
100003.869
100003.8497
100003.8236
100003.8356
100003.8525
100003.8704
100003.8891
100003.9013
100003.9008
100003.8879
100003.9161
100003.9509
100003.9806
100003.9866
100004.0351
100004.0417
100004.0607
100004.0732
100004.0728
100004.0382
100004.0263
100003.9896
100003.9353
100003.9122
100003.9018
100003.8812
100003.8716
100003.872
100003.8823
100003.8992
100003.916
100003.9332
100003.9466
100003.9507
100003.9106
100003.7747
100003.8299
100003.8601
100003.8873
100003.9182
100003.9502
100003.9722
100003.9667
100003.9501
100003.9769
100004.0218
100003.9948
100004.0329
100004.0145
100004.0495
100004.0621
100004.0829
100004.1118
100004.1243
100004.1449
100003.954
100003.9255
100003.9087
100003.8918
100003.8905
100003.8985
100003.9181
100003.9407
100003.9566
100003.9591
100003.9333
100003.8146
100003.3374
100003.5746
100003.7851
100003.8668
100003.8963
100003.9047
100003.8726
100003.7284
100003.3765
100003.7171
100003.8761
100003.9316
100003.9355
100003.9966
100004.0287
100004.0568
100004.0649
100004.0754
100004.0851
100004.0859
100004.0886
100003.9708
100003.9379
100003.9251
100003.913
100003.9163
100003.9304
100003.9559
100003.9887
100004.0413
100004.1583
100004.4181
100005.2228
100006.4978
100003.1639
100004.104
100003.9769
100003.989
100004.0349
100004.0556
100004.0687
100003.7856
100003.4936
100003.9365
100004.1019
100004.042
100004.0888
100004.1025
100004.0936
100004.0777
100004.0899
100004.1027
100004.1111
100004.1189
100003.9892
100003.9534
100003.9422
100003.9344
100003.9375
100003.9509
100003.9703
100003.9902
100004.0163
100004.0674
100004.1715
100004.4111
100004.9551
100003.9533
100004.0119
100003.9844
100003.9966
100004.0287
100004.0669
100004.1664
100004.4915
100004.2043
100004.1013
100004.119
100004.0919
100004.1406
100004.1213
100004.055
100004.0592
100004.0958
100004.105
100004.128
100004.1328
100004.0063
100003.9719
100003.958
100003.9511
100003.9543
100003.9624
100003.9711
100003.9791
100003.9904
100004.0123
100004.0586
100004.1335
100004.2618
100004.0179
100003.9944
100003.9832
100003.9889
100003.982
100003.9985
100004.0714
100004.1896
100004.2504
100004.1302
100004.1749
100004.124
100004.1505
100004.2843
100004.1259
100004.1217
100004.1474
100004.1351
100004.1999
100004.1864
100004.0216
100003.9904
100003.9753
100003.9661
100003.9657
100003.9687
100003.9698
100003.9649
100003.9475
100003.9203
100003.9094
100003.9208
100003.9904
100003.951
100003.9465
100003.9644
100003.9953
100004.0158
100004.0369
100004.1039
100004.1458
100004.1986
100004.0995
100004.1367
100004.0894
100004.1144
100004.1576
100004.1484
100004.1342
100004.1547
100004.1546
100004.2621
100004.2763
100004.0345
100004.0079
100003.9937
100003.9848
100003.9845
100003.988
100003.9907
100003.9871