/*--------------------------------*- C++ -*----------------------------------*\
  =========                 |
  \\      /  F ield         | OpenFOAM: The Open Source CFD Toolbox
   \\    /   O peration     | Website:  https://openfoam.org
    \\  /    A nd           | Version:  8
     \\/     M anipulation  |
\*---------------------------------------------------------------------------*/
FoamFile
{
    version     2.0;
    format      ascii;
    class       volVectorField;
    location    "1.6";
    object      U;
}
// * * * * * * * * * * * * * * * * * * * * * * * * * * * * * * * * * * * * * //

dimensions      [0 1 -1 0 0 0 0];

internalField   nonuniform List<vector> 
67286
(
(0.1466786944 0.4670993432 -0.6278887457)
(0.3079451938 0.4089237713 -0.4959252919)
(0.3271208649 0.3353084534 -0.4015399698)
(0.3364457811 0.2526581312 -0.237446254)
(0.2644629686 0.1328885491 0.05071470943)
(0.0800139109 0.03385827253 0.2627027592)
(-0.01096248912 0.04390478758 0.1909262563)
(-0.03756443223 -0.283484204 0.05516949913)
(-0.08700992262 -0.3557711305 -0.06169543064)
(-0.1099854395 -0.3685341566 -0.04455717731)
(-0.1474091869 -0.3759576024 0.04496046831)
(-0.2400947692 -0.3770522516 0.01330472866)
(-0.2498480129 -0.3473208141 -0.02159720667)
(-0.2763493072 -0.2907958553 0.04561660143)
(-0.3346109799 -0.2439451427 0.08227190093)
(-0.3821357411 -0.192278086 0.08111892026)
(-0.4184296628 -0.1427929595 0.07202135616)
(-0.444970172 -0.09954579156 0.05787715582)
(-0.4532469269 -0.06070696888 0.04086117925)
(-0.4278791339 -0.01502853941 0.02064199864)
(-0.3560182199 0.03854558231 -0.009256997776)
(-0.2766970993 -0.05528150434 0.01038183772)
(-0.1927281103 -0.0625508928 0.01782298094)
(-0.1200639507 -0.04088522083 0.04326012804)
(-0.08078541075 -0.01309223119 0.07070661929)
(-0.04201409859 0.01279175875 0.05365841515)
(0.05645660403 0.04686962252 0.0370220828)
(0.1362537572 0.0168846249 0.02319185073)
(0.1292346845 0.6285685741 -0.496781485)
(0.2148041162 0.5630390303 -0.405456385)
(0.2221688493 0.4765559925 -0.2662213331)
(0.1977884517 0.2950695401 0.01622354305)
(0.06286221511 0.05850844787 0.2724755581)
(-0.1626584695 -0.1080372812 0.1913381791)
(-0.1764896286 -0.141021687 0.04082461938)
(-0.1744225378 -0.1961942267 -0.1033471987)
(-0.1841095231 -0.2719029748 -0.1425065406)
(-0.1401599772 -0.3030836707 -0.1268531698)
(-0.1387442943 -0.3199939542 -0.008276878738)
(-0.2280378435 -0.3275699247 -0.07269336492)
(-0.209964834 -0.3129010482 -0.1489585397)
(-0.193806411 -0.2869339224 -0.01551138885)
(-0.2659658423 -0.2677335531 0.06633187682)
(-0.3315470282 -0.2310552009 0.0787537634)
(-0.3864131407 -0.1891239899 0.08073387943)
(-0.4303037404 -0.1510909495 0.07059020455)
(-0.4508994838 -0.1248777349 0.05273329973)
(-0.4366400627 -0.114751829 0.03508598692)
(-0.3707763763 -0.1253652617 0.01274488296)
(-0.2763044762 -0.1536995021 -0.02416143757)
(-0.1823826174 -0.1583278238 -0.03507541608)
(-0.09838197957 -0.1117678849 0.0163920157)
(-0.06722728057 -0.1054897553 0.0571747043)
(-0.02691375458 -0.109104903 0.04791968874)
(0.04937104684 -0.1113673946 0.06378828446)
(0.1622985413 -0.1327662561 0.01155750982)
(0.2687895814 -0.1285499619 0.0008591134422)
(0.3638841566 -0.1310645554 0.003137570048)
(0.4367409905 -0.151041494 0.01408467477)
(0.4773157091 -0.1838788606 0.03050023289)
(0.07614928058 0.662786615 -0.3186060904)
(0.107654942 0.6098643836 -0.2072404572)
(0.09263427552 0.4812503256 -0.00813699894)
(0.005803236198 0.1858045349 0.2739704657)
(-0.1330662125 -0.03419640384 0.2475602304)
(-0.1997971434 -0.1257136163 0.09410929167)
(-0.1986229025 -0.170967462 -0.02038094945)
(-0.2172626394 -0.1625751181 -0.1315629565)
(-0.2419742257 -0.1839230927 -0.2179842401)
(-0.1740763301 -0.1727064964 -0.2475501097)
(-0.158192782 -0.211974938 -0.03069858463)
(-0.238656371 -0.1992258995 -0.1396571415)
(-0.1983306459 -0.1983898125 -0.2569172956)
(-0.1397668026 -0.2309565922 -0.06218286238)
(-0.2148882678 -0.2539560502 0.04150245107)
(-0.2877096325 -0.2469253927 0.06550756746)
(-0.3575192167 -0.2269804517 0.08248515201)
(-0.418656762 -0.2030882504 0.07826382722)
(-0.4536357888 -0.1843460728 0.05161115073)
(-0.4516357258 -0.1788078334 0.007269114953)
(-0.3940812465 -0.1896338174 -0.05550819752)
(-0.2909050682 -0.2046269914 -0.1204058709)
(-0.178231001 -0.1994558228 -0.1376678507)
(-0.07384456309 -0.1682828819 0.01116716224)
(-0.09132552186 -0.1868781455 0.07610414362)
(-0.06951281933 -0.1835311674 0.03979092341)
(-0.0006840410545 -0.2487298093 0.02341585431)
(0.1503186157 -0.1998298073 -0.09743958917)
(0.2725135594 -0.2223448159 -0.05814545307)
(0.3741516627 -0.2302937509 -0.03294861762)
(0.4469001237 -0.2380220708 -0.007051000804)
(0.4823575081 -0.2528673169 0.0245900037)
(0.02737400804 0.5600124804 -0.03034206335)
(0.0267428833 0.4937141242 0.06973306621)
(0.02243238227 0.2990225259 0.2007282627)
(-0.05607320693 -0.08493310022 0.1265668776)
(-0.1160160053 -0.2531948157 0.04530680671)
(-0.1487144576 -0.289607352 0.06274443518)
(-0.1592154239 -0.2683470779 -0.06005248641)
(-0.1881979087 -0.02340590434 -0.009040898672)
(-0.208404847 -0.07274607232 -0.121357305)
(-0.1457558329 -0.07679116669 0.03286544481)
(-0.2074550633 -0.1558373832 0.04844917893)
(-0.2190545919 -0.1208806748 0.0171188484)
(-0.2057508441 -0.1162652912 -0.003349855688)
(-0.2009503361 -0.1945646325 0.00734736396)
(-0.233109969 -0.2300304381 0.02680543586)
(-0.2855067104 -0.2415795228 0.05121500027)
(-0.3537911631 -0.2380765337 0.07037958892)
(-0.4210917769 -0.2235970621 0.0571927763)
(-0.4676363653 -0.204157671 0.01125652135)
(-0.4706470048 -0.1874659603 -0.06463709451)
(-0.39707615 -0.1805814625 -0.1610065064)
(-0.2710814458 -0.1565368864 -0.2559720706)
(-0.1537022725 -0.1440611263 -0.2981790678)
(0.01606647999 -0.1645410811 -0.06083398954)
(-0.07399857743 -0.2217731151 0.1082636889)
(-0.09827502922 -0.2561110425 0.0334648759)
(0.02451018587 -0.4024198193 -0.1273155453)
(0.1570592453 -0.2574811678 -0.0750047692)
(0.2709884593 -0.2606170402 -0.1170180274)
(0.3689311791 -0.2456125872 -0.128589665)
(0.4422851351 -0.2461036717 -0.08984793672)
(0.4794794227 -0.2645139896 -0.02780232731)
(0.4688229542 -0.2883980803 0.02278534446)
(-0.03978555876 0.4054528609 0.1727430846)
(-0.1473947233 0.3002388548 0.224128124)
(-0.2874121583 0.1309606248 0.09010083346)
(-0.4041668505 0.01573930124 -0.2310360279)
(-0.3692650345 -0.03382705846 -0.5006520804)
(-0.2486232058 -0.05948142527 -0.3522438347)
(-0.1864402581 -0.07164544499 -0.6038317082)
(0.1130379079 -0.1251255874 0.1319625203)
(-0.1940825273 -0.1142649589 0.2027963328)
(-0.1792059304 -0.1881637902 0.1260428425)
(-0.2622597856 -0.2072735947 0.08909983734)
(-0.2744167381 -0.2031626687 0.07046464136)
(-0.2646126941 -0.2051562349 0.05810124528)
(-0.2561190361 -0.2214612583 0.04088066534)
(-0.2696754114 -0.2382783856 0.04001057303)
(-0.303327345 -0.2473171173 0.05413277265)
(-0.3569889159 -0.2436658581 0.0615673902)
(-0.414200734 -0.2221169027 0.04223717474)
(-0.4610084841 -0.1910161473 -0.004928417057)
(-0.4708316601 -0.1704167788 -0.08544160924)
(-0.3881100917 -0.2058141314 -0.1919470053)
(-0.2593444911 -0.08427475468 -0.3027329429)
(-0.159841495 -0.06413866684 -0.3580595739)
(0.007904390055 -0.1075790112 -0.09140796731)
(-0.1369083749 -0.1812330759 0.07561058395)
(-0.2538228354 -0.2799093963 -0.1578004239)
(0.06605226808 -0.1282572395 -0.8722916122)
(0.274486499 -0.1884296809 -0.178968074)
(0.3094375527 -0.1809383286 -0.2339008996)
(0.4004836342 -0.1725190311 -0.2139585016)
(0.4646285718 -0.1929686563 -0.1296139898)
(0.4889242292 -0.2305066518 -0.04013737337)
(0.4685392303 -0.2693266339 0.01757000576)
(-0.01823278594 0.2756772575 0.1983321224)
(-0.06666834712 0.1997719759 0.2142605133)
(-0.1309057228 0.1764280915 0.1586767936)
(-0.1882045691 0.1940991664 0.0789183727)
(-0.2004236796 0.2021881553 0.04005556045)
(-0.1963838066 0.1337240141 0.1064744142)
(-0.206110963 0.07231403603 0.08399616056)
(-0.2365074487 -0.2084234769 0.108552594)
(-0.2752517397 -0.1952710052 0.1117609212)
(-0.2936309525 -0.254654513 0.09728449474)
(-0.3221465249 -0.2667078297 0.07477432419)
(-0.3248523468 -0.265785842 0.05629208309)
(-0.3147444736 -0.2668804293 0.04702618245)
(-0.3030066429 -0.2741524357 0.04402147678)
(-0.3016909538 -0.2787256319 0.04724618073)
(-0.3169177348 -0.2765440231 0.05254707233)
(-0.3489517091 -0.2596204305 0.05214676041)
(-0.3916696882 -0.2222425422 0.0419733046)
(-0.4415032144 -0.1687129258 0.01794852738)
(-0.5092259968 -0.1042574033 -0.02997806364)
(-0.3214693097 -0.03878801305 -0.1482212276)
(-0.1466385518 0.03142409415 -0.1351237538)
(-0.1691621237 0.04422523302 -0.1472255283)
(-0.1445296397 -0.03875876471 0.07162544643)
(-0.319579261 -0.0288391724 -0.06354392827)
(-0.1481611752 0.01243338471 -0.6140010846)
(0.1469319823 0.1151602595 -0.4206055862)
(0.2517637193 -0.02281283427 -0.1695102998)
(0.3143978919 -0.04364733282 -0.1653086237)
(0.40880876 -0.06464291115 -0.1265050353)
(0.4517683766 -0.1352742203 -0.03290953771)
(0.4575368161 -0.2095650921 0.02968925233)
(0.4396644883 -0.2647811466 0.04623060139)
(-0.0205831822 0.1096299853 0.1950200514)
(-0.1031355768 0.0212812258 0.1768559932)
(-0.1841015165 -0.05488148721 0.1542069305)
(-0.2184774454 -0.1144909716 0.1561375895)
(-0.2209191144 -0.1712173048 0.152269462)
(-0.2180358083 -0.2185067777 0.1214354715)
(-0.2053219467 -0.2431168599 0.09563526848)
(-0.2353389881 -0.2919412165 0.04838912658)
(-0.2835652184 -0.3083250525 0.06040060741)
(-0.312410892 -0.3389869945 0.06645124864)
(-0.3417506573 -0.3478187291 0.04572148627)
(-0.3429025502 -0.3429640749 0.02193447869)
(-0.3292905581 -0.3380142694 0.01242714783)
(-0.3115893691 -0.3332279044 0.01423847683)
(-0.3012055794 -0.3264698131 0.02301546293)
(-0.3042104814 -0.3131282564 0.03260755644)
(-0.3202800709 -0.2845980764 0.03931352042)
(-0.3433012245 -0.2379659977 0.04431102746)
(-0.3631010493 -0.1747162541 0.04443996013)
(-0.362669267 -0.08875909431 0.03229262272)
(-0.320999918 0.05892222562 0.006578703876)
(-0.2555701552 0.02606281519 -0.003354638041)
(-0.1826584286 0.035680054 0.006583053178)
(-0.1438537745 -0.09322476349 0.1303292647)
(-0.1826699149 -0.06389599811 0.1480287747)
(-0.173310494 0.112193986 0.0341818785)
(-0.0289180962 0.03875408171 -0.005864327943)
(0.116206088 0.01420421688 -0.05551129667)
(0.225710628 -0.1873347322 -0.0120350182)
(0.330909296 -0.1270727962 0.06674292135)
(0.3573681983 -0.2183156995 0.09184984655)
(0.3880376382 -0.2720902005 0.07431627717)
(0.4069157037 -0.303823053 0.05065194017)
(-0.05836897023 -0.05569689672 0.180787712)
(-0.1357220486 -0.0406673497 0.1190165786)
(-0.2285750017 -0.0925890385 0.09141154743)
(-0.2721214605 -0.160728773 0.0628931398)
(-0.2849168657 -0.2193324833 0.01657143505)
(-0.2786962484 -0.2413781099 -0.01828890543)
(-0.2779108518 -0.2498699942 -0.03351869612)
(-0.2821439125 -0.3010318458 -0.03338282136)
(-0.2915535606 -0.3303779016 -0.001217500345)
(-0.3205769323 -0.3687195616 0.02834387637)
(-0.3544232243 -0.3820678073 0.01094013944)
(-0.3557429396 -0.3787020464 -0.01791441146)
(-0.3365145873 -0.372631763 -0.02995595711)
(-0.3094628366 -0.3633735322 -0.02800378454)
(-0.2893090788 -0.3511634631 -0.01612776492)
(-0.2823447111 -0.3342577555 -0.001976676856)
(-0.2872260255 -0.3058462611 0.01065366223)
(-0.2985489789 -0.2676338636 0.02735533136)
(-0.3124349835 -0.2249233828 0.05155915453)
(-0.3191796989 -0.1812627381 0.07316428319)
(-0.2951078592 -0.1393449372 0.08672082569)
(-0.2514011519 -0.1228173466 0.1023546494)
(-0.2017558015 -0.1406337602 0.1300609175)
(-0.1866418831 -0.252825171 0.153942996)
(-0.1554469446 -0.2511157089 0.1719978741)
(-0.2519177493 -0.1457460033 0.1844867138)
(-0.06228449555 -0.1108904276 -0.02724318515)
(-0.01377473469 -0.09794659628 0.1291413814)
(0.07199822591 -0.123679348 -0.5660997708)
(0.3885742536 -0.2636988341 0.0891059135)
(0.2892484296 -0.448595829 0.02869316194)
(0.3403192726 -0.4613676447 -0.02958388132)
(0.3817444278 -0.4742688841 -0.06463520022)
(-0.1304790252 -0.1018654768 0.1787099011)
(-0.2256015714 -0.07576644244 0.1119884827)
(-0.3314212917 -0.1442420951 0.04489150829)
(-0.3694640622 -0.2347536795 -0.05139498895)
(-0.3592814533 -0.2821292463 -0.1244300723)
(-0.3217117889 -0.2634168933 -0.133196333)
(-0.2888192895 -0.2385127263 -0.1111057319)
(-0.2748993406 -0.2557916663 -0.09000563876)
(-0.2796348344 -0.2898885386 -0.04736015881)
(-0.3198252943 -0.3418225986 -0.00612797541)
(-0.36577568 -0.3647330365 -0.02416488165)
(-0.3679037735 -0.3667917463 -0.05719347986)
(-0.339531077 -0.3648143375 -0.07408066791)
(-0.2987633595 -0.3517658289 -0.07375140208)
(-0.2690631669 -0.333772989 -0.05915146866)
(-0.256373605 -0.3160328804 -0.04187266654)
(-0.2558156332 -0.294347757 -0.02602796394)
(-0.2603327299 -0.2726978879 -0.005927049752)
(-0.2670784465 -0.2581079311 0.0297689789)
(-0.272306861 -0.2528429167 0.07562030891)
(-0.2753119175 -0.2493217299 0.1140999321)
(-0.2630998508 -0.2776981892 0.144849876)
(-0.2424006074 -0.3239856791 0.148329521)
(-0.2122348767 -0.4656916153 0.06684765671)
(-0.07796671575 -0.4535706341 0.07013678899)
(-0.07740525937 -0.26483792 0.1604540596)
(-0.03730109362 -0.2050915295 0.184794758)
(0.01630142509 -0.2799141133 0.1112263598)
(0.07624804628 -0.1540729897 0.1084602266)
(0.01650129592 -0.3092250252 0.07903209132)
(0.01490267049 -0.162744385 -0.6199210091)
(0.2429531529 -0.187712648 -0.4957756392)
(0.3570938677 -0.1344622628 -0.8095062078)
(-0.1762940487 -0.1534490286 0.1434909655)
(-0.2954048406 -0.1198778062 0.01067792322)
(-0.4291249622 -0.1643614004 -0.1347798286)
(-0.4544458508 -0.1958793357 -0.2586568086)
(-0.4224053922 -0.1935683796 -0.3160611577)
(-0.359300377 -0.1552083678 -0.2885697866)
(-0.2919723732 -0.1368992297 -0.1957635941)
(-0.2746960617 -0.1663175864 -0.1170840711)
(-0.2906343793 -0.1975462032 -0.06419889549)
(-0.3477364309 -0.2578118401 -0.03210559223)
(-0.3946135935 -0.2960904754 -0.06075629504)
(-0.3905318574 -0.3166450064 -0.09760786118)
(-0.3426457893 -0.328093326 -0.1198415599)
(-0.2800970588 -0.3119431972 -0.1171800335)
(-0.2421508672 -0.2810084849 -0.09740630189)
(-0.2289806165 -0.2612773543 -0.07638965647)
(-0.2306875303 -0.246306404 -0.05585245998)
(-0.2401997607 -0.2400153631 -0.03322184792)
(-0.2512005428 -0.2528664707 0.01074022874)
(-0.2611296699 -0.2895723979 0.07886650773)
(-0.2914364365 -0.319068546 0.1288606427)
(-0.3065774954 -0.3978302009 0.1156996287)
(-0.3131114744 -0.4881759047 -0.01372720055)
(-0.2532610368 -0.684286722 -0.2944235636)
(-0.05367537136 -0.6612690696 -0.2310656194)
(0.03476323451 -0.4701018687 0.09567520223)
(0.03133440343 -0.5394903826 0.1588838949)
(0.1028650963 -0.4390516925 0.07403083176)
(0.1204666701 -0.362913487 0.01659936158)
(0.1739991271 -0.3440390436 -0.007148979559)
(0.2064547012 -0.1177721822 0.0146955629)
(0.3127361901 -0.08108738704 0.004313729874)
(0.4103008727 -0.03104689215 0.001506345299)
(-0.3342034901 0.01972008655 0.1145037936)
(-0.5202942522 0.08146549889 -0.2172892118)
(-0.5880731837 0.1170621175 -0.4160715147)
(-0.5437853386 0.1255610618 -0.5088714873)
(-0.4423545235 0.1222716545 -0.5373647377)
(-0.3155782837 0.1091491468 -0.4720282902)
(-0.1469352317 0.06438854555 -0.191607992)
(-0.2664523833 -0.00132622713 -0.01000136343)
(-0.3322174092 -0.07215892699 -0.02191562114)
(-0.42221979 -0.1475107356 -0.05334608618)
(-0.4523337953 -0.2029870257 -0.1040346608)
(-0.4345908696 -0.2503796703 -0.1456609135)
(-0.3555387533 -0.2919545329 -0.1833831186)
(-0.2476971835 -0.2110531785 -0.1941498851)
(-0.1939654122 -0.1864781953 -0.1429611402)
(-0.1932530592 -0.1726115664 -0.1106194373)
(-0.2058112234 -0.1798151256 -0.07445040825)
(-0.2316667331 -0.2097562883 -0.04066920744)
(-0.2639575316 -0.2759967859 0.01581576321)
(-0.2960522219 -0.3933396506 0.09065438983)
(-0.3717618549 -0.4767229509 0.05269670744)
(-0.4036666017 -0.5845010846 -0.1632278007)
(-0.4245817998 -0.568051487 -0.4790612017)
(-0.3072944108 -0.5889361484 -0.8146154842)
(-0.03831062268 -0.5396961361 -0.6908676216)
(0.2281520225 -0.5870538942 -0.1757186215)
(0.2067269103 -0.736221316 0.07014643404)
(0.2428706971 -0.52664134 0.05638974485)
(0.1930828363 -0.4206778077 -0.03041816755)
(0.2353429316 -0.3608324946 -0.07751341604)
(0.2738832528 -0.2919398902 -0.05624579088)
(0.3494825747 -0.2767354149 -0.09185094793)
(0.4387974967 -0.2038822609 -0.03178566495)
(-0.2696754561 0.2377357076 0.1689646611)
(-0.473476016 0.2502250489 -0.0678655979)
(-0.588726507 0.2812194105 -0.2668794462)
(-0.5532680266 0.3065804921 -0.376450503)
(-0.4544951986 0.3116473879 -0.4010543254)
(-0.3355581735 0.2768469813 -0.3047102162)
(-0.2577587577 0.2177963706 -0.0451232724)
(-0.4040946001 0.1462247503 0.01817275996)
(-0.4811469797 0.06113718354 -0.04090415144)
(-0.5380820124 0.002055634504 -0.1022066692)
(-0.552190262 -0.0341166682 -0.1594227242)
(-0.5240042622 -0.0445733915 -0.2286501095)
(-0.3195158028 -0.03077394495 -0.3618879606)
(-0.1462417193 -0.006889733426 -0.208785704)
(-0.1585478879 -0.008347624219 -0.1718391855)
(-0.1653234865 -0.00866352008 -0.1137566479)
(-0.217774892 -0.03260115867 -0.04441737798)
(-0.3112559489 -0.08387315743 0.01625313399)
(-0.4409732812 -0.1655396519 0.08528206055)
(-0.5646872096 -0.2574144958 0.06015151524)
(-0.6933211655 -0.1433239109 -0.3894445644)
(-0.470724368 -0.04107705985 -0.7981543516)
(-0.4629382735 0.07885919359 -1.063778954)
(-0.3229560006 0.1523647497 -1.359221511)
(0.07472883395 -0.00690402438 -1.084488945)
(0.3817361405 -0.2013998252 -0.4761139157)
(0.38333345 -0.6643829338 -0.1869241271)
(0.4798277023 -0.4590461451 0.00581441778)
(0.2981194142 -0.3483629024 -0.0364280391)
(0.2942373951 -0.2648147703 -0.1173751206)
(0.2738064396 -0.1985550995 -0.1272933257)
(0.3176367527 -0.05589051108 -0.4253102275)
(0.512256567 -0.1039154596 -0.1998725392)
(-0.2059145356 0.3106997558 0.1919918595)
(-0.3763271372 0.3386627253 0.05997587338)
(-0.5165401125 0.4020928018 -0.0851220065)
(-0.5253646225 0.4494543588 -0.1958502904)
(-0.4702056786 0.449883319 -0.2142713094)
(-0.4084709502 0.3907025299 -0.1158534011)
(-0.4267247877 0.2975375686 0.02648949348)
(-0.5267348549 0.2241451432 0.005027925748)
(-0.5704347419 0.1501329818 -0.05821319856)
(-0.5805284406 0.1038869244 -0.1080560937)
(-0.5487042228 0.07763752535 -0.1459898137)
(-0.4738555464 0.07704091087 -0.1784664142)
(-0.3349520802 0.1342749446 -0.2156316026)
(-0.2054170251 0.1381379276 -0.1856297357)
(-0.1501665138 0.1295206075 -0.1500383241)
(-0.1352584636 0.1132684577 -0.08585781395)
(-0.1785793599 0.06701076996 0.004891410078)
(-0.2717461437 -0.01303789957 0.07610435124)
(-0.4009547265 -0.1420084483 0.1153825228)
(-0.3630374328 -0.2386044957 0.08519369953)
(-0.4898447358 0.2437144712 0.04558040428)
(-0.604074062 0.431891416 -0.3045302736)
(-0.6243497596 0.5115989409 -0.6204298078)
(-0.4622915041 0.5380691518 -0.9021193344)
(-0.02075423168 0.3862803813 -0.5422048552)
(-0.06954355702 -0.09194452908 -0.1406176884)
(0.1037359529 -0.8008446288 -0.9565748554)
(0.452877977 -0.4020100558 -0.358763627)
(0.3226025498 -0.2743263525 -0.1705668081)
(0.3499819952 -0.1628807646 -0.2076203194)
(0.3875579904 -0.07063557344 -0.2151086539)
(0.4655881741 0.01716615471 -0.1905439633)
(0.5454827898 -0.02934405547 -0.1449174892)
(-0.1641497354 0.3405113394 0.1821739673)
(-0.3009745333 0.3562200438 0.1140487035)
(-0.4334758237 0.4083952743 0.05092975556)
(-0.4788989466 0.455537137 -0.01598524356)
(-0.4778506536 0.456867436 -0.03561016132)
(-0.4809894759 0.3939599159 0.01045972142)
(-0.5436427523 0.3158245063 0.03627881877)
(-0.6140529992 0.2678968451 -0.01484917224)
(-0.6471541026 0.2201241368 -0.06614211883)
(-0.6548730507 0.1891696167 -0.09992968907)
(-0.6176936177 0.1648771349 -0.1202230865)
(-0.491075962 0.1512570894 -0.1322170988)
(-0.2657297183 0.2126514784 -0.1467192269)
(-0.1379522878 0.2438326728 -0.1478055908)
(-0.1445127581 0.2419579769 -0.1121495531)
(-0.1680461346 0.2208141608 -0.03468141905)
(-0.2940945131 0.1452688104 0.05557241876)
(-0.4955819017 0.01242699369 0.01906995185)
(-0.5782840661 -0.1586510297 -0.2758958125)
(-0.3372560746 -0.2513547501 -0.6705567361)
(-0.1001631579 0.2409209841 0.1480336421)
(-0.4698767603 0.3881690591 0.1545862415)
(-0.6016893675 0.6781891872 -0.1281662219)
(-0.665472744 0.7947861837 -0.3408863408)
(-0.7431050814 0.6390313248 -0.3052180298)
(-0.9960205698 0.5404130024 -1.450415096)
(-0.07812269595 0.787824865 -3.760947131)
(0.9927110495 0.3812339585 -1.47588701)
(0.7743635766 0.1632558259 -0.3452580001)
(0.5659249812 0.1226005873 -0.1621667241)
(0.5272376131 0.1267897778 -0.1944025905)
(0.5517918506 0.135146232 -0.1909018233)
(0.586664898 0.1072179316 -0.1664572916)
(-0.1339992748 0.3396160148 0.1674631944)
(-0.2508426633 0.3423665324 0.1203326018)
(-0.371251907 0.3713694752 0.101386153)
(-0.4338996136 0.3975292977 0.08191178582)
(-0.4740191503 0.3967630197 0.06824261306)
(-0.5213027911 0.3590992379 0.06250963203)
(-0.5945336909 0.3179647823 0.03161233753)
(-0.6516839674 0.2895709764 -0.01987041233)
(-0.6744120615 0.2469074341 -0.05569295189)
(-0.6695069296 0.1846631643 -0.06800233363)
(-0.6194564121 0.06069373192 -0.05867466938)
(-0.4477608081 -0.1390928205 -0.05629430332)
(-0.2404715504 -0.09476460193 -0.1043108552)
(-0.1583356274 0.2885157053 -0.1049555103)
(-0.1406466756 0.2985518368 -0.06478619542)
(-0.1901716593 0.3574890029 0.02664278057)
(-0.4118307693 0.3575913538 0.111558607)
(-0.8139520539 0.4047760904 -0.1351854114)
(-0.8982296911 0.5431439682 -1.126107875)
(-0.4740657161 0.7115241063 -2.54172821)
(0.5811731 0.4944429042 -0.1355522633)
(-0.3784921261 0.5167676414 0.324484525)
(-0.456191601 0.6720466956 0.1189566191)
(-0.6094448948 0.8473905895 -0.008552668407)
(-0.6541346511 0.8762225716 0.003650551418)
(-0.9227224833 0.9872060861 -0.550802537)
(-0.1386343011 1.262302994 -2.004711808)
(0.6822577695 0.7129156599 -0.4569254785)
(0.3958365413 0.4850319216 -0.130471968)
(0.439678567 0.3819533815 -0.1893265085)
(0.4886634032 0.3192741786 -0.2084028415)
(0.5491827987 0.2819398704 -0.1865675358)
(0.5907708788 0.2395422909 -0.1511022427)
(-0.1104890423 0.3176839521 0.1559069566)
(-0.2170850337 0.3188360919 0.1112989565)
(-0.3286678436 0.3325350879 0.09858434529)
(-0.3983602888 0.3441412206 0.09531188012)
(-0.4603783445 0.34606808 0.08898254888)
(-0.5296359232 0.3361699403 0.07084219429)
(-0.6124157948 0.3289168698 0.03354758875)
(-0.6918717845 0.3256621645 -0.01136276874)
(-0.772165429 0.3046937077 -0.04494041521)
(-0.8810336727 0.2405867994 -0.07685384974)
(-0.9437994114 0.05157853784 -0.2048846482)
(-0.6446290654 -0.3739669805 -0.6365736768)
(-0.003517569199 0.331168522 -0.8531921399)
(0.2787844994 0.3692219758 -0.09120493314)
(-0.03420866373 0.4226952414 -0.01843114183)
(-0.08777492761 0.4666931895 0.05538865755)
(-0.2958694739 0.4969685044 0.136179204)
(-0.5332514445 0.5998528024 0.1145926281)
(-0.7417601302 0.8568700974 -0.273708968)
(-0.3230212932 1.082544751 -1.181343402)
(0.1505796217 0.526999693 0.1339598711)
(-0.4391849244 0.6389151354 0.2542667563)
(-0.4585379927 0.6265887856 0.1410976263)
(-0.5584424621 0.7434273381 0.08429746149)
(-0.5439340347 0.8005777896 0.06860583931)
(-0.6549726388 0.9243148701 -0.08841976111)
(-0.2101659272 1.401464806 -0.6223780209)
(0.2213990024 0.6877585857 -0.1447223006)
(0.169458969 0.5923021576 -0.1626394824)
(0.3503855769 0.4960751144 -0.2160067193)
(0.4499502938 0.4364087415 -0.2012372573)
(0.5326548922 0.3917542184 -0.1631963586)
(0.5797572347 0.3440313215 -0.1180672623)
(-0.09697426651 0.2849658959 0.1434752536)
(-0.1969921173 0.2971180286 0.09777853277)
(-0.3017589806 0.3063380601 0.07900430812)
(-0.3707334232 0.3138322816 0.07372929216)
(-0.4358756978 0.3207503547 0.0715546913)
(-0.505223801 0.3296956262 0.06270633921)
(-0.5825954871 0.3486980954 0.04121555096)
(-0.6627183222 0.3805667944 0.01238611522)
(-0.7597643104 0.4245476399 -0.005379732727)
(-0.9673337975 0.4979363913 -0.007905474456)
(-1.367359232 0.6186927436 -0.2228660659)
(-0.6759576951 0.8023544551 -2.97262891)
(0.6587512282 0.8272515818 -0.3106306406)
(0.1196604755 0.5860507297 0.02119162569)
(-0.02111388627 0.5800461348 0.02385328045)
(-0.09655944039 0.5259907539 0.07582001496)
(-0.2410249562 0.5326522471 0.1205258459)
(-0.3599114973 0.5846553644 0.1437957896)
(-0.5009991502 0.7463860413 0.09403031239)
(-0.2841659437 1.043314091 -0.1533183079)
(-0.2042688233 0.5099835481 0.1538122237)
(-0.4515382693 0.5898343966 0.1621774574)
(-0.4844522567 0.5670941088 0.1049326991)
(-0.5343120249 0.6382091784 0.06750500585)
(-0.5150893844 0.6901844665 0.03456863088)
(-0.5234514936 0.7593040448 -0.008848953548)
(-0.2600450768 1.037300472 -0.1130739057)
(-0.01124035538 0.6583948639 -0.1423130887)
(0.07906389846 0.6417446692 -0.2067120898)
(0.2867241619 0.5679155172 -0.2124171167)
(0.4103911345 0.5160991221 -0.1735907498)
(0.5016643086 0.4672014952 -0.1252055198)
(0.5474739204 0.4143277019 -0.07485708671)
(-0.09463445782 0.2550028895 0.1297604892)
(-0.1888960728 0.2821480304 0.08257524794)
(-0.2878995823 0.2938990508 0.05813192346)
(-0.3514644252 0.3033235616 0.04751672603)
(-0.4094706577 0.3148831183 0.04512361885)
(-0.4673537051 0.3331614716 0.04413970181)
(-0.5286519815 0.3650786991 0.03629124939)
(-0.5861801712 0.4160016621 0.01548828227)
(-0.6259237801 0.4914414573 -0.009748488773)
(-0.6583482368 0.6166803026 -0.007588034689)
(-0.7331218004 0.8748052433 0.004560692479)
(-0.3843066351 1.438559132 -0.2003859233)
(0.07811075748 0.8438383016 -0.06486648056)
(-0.05241570813 0.6714110867 0.03558889127)
(-0.09342265591 0.6023031352 0.05075922581)
(-0.1472086786 0.5302463173 0.08496009613)
(-0.2385498179 0.5166627729 0.1007505251)
(-0.314726821 0.5313238955 0.1119246632)
(-0.3965517682 0.5852223769 0.1271077123)
(-0.323873107 0.7231484324 0.1227398085)
(-0.3320702711 0.4853573321 0.1153957863)
(-0.4484589992 0.5155124788 0.103808017)
(-0.4837995808 0.5143744672 0.07448001567)
(-0.5082337876 0.5622319628 0.04607044619)
(-0.4909519353 0.6130127442 0.0120137963)
(-0.4569059105 0.6682136231 -0.02147644516)
(-0.290178382 0.7970890641 -0.05717110968)
(-0.112544306 0.6507911102 -0.145393844)
(0.03358088517 0.6603306077 -0.206409395)
(0.2371672679 0.60395825 -0.1812667085)
(0.3686847177 0.5555379401 -0.1306657377)
(0.4609363714 0.5045776495 -0.0802780008)
(0.5048880831 0.4514165015 -0.03439232075)
(-0.09821659837 0.2373137521 0.1181208251)
(-0.1877592291 0.2748188529 0.06933770571)
(-0.2816410602 0.2918335157 0.04158094433)
(-0.3378099846 0.3055332215 0.02684959963)
(-0.3848290136 0.3211707578 0.02193062374)
(-0.4264048334 0.3434752443 0.02317993729)
(-0.4662640981 0.3785047478 0.02488745221)
(-0.4991882749 0.4316470348 0.0199363125)
(-0.5095739076 0.5047826158 0.007437761168)
(-0.4947233984 0.5965742799 0.005209730475)
(-0.4728913577 0.7231591614 0.01847227747)
(-0.3224835269 0.9410139639 0.02782013045)
(-0.1386201614 0.7276029694 0.00796276745)
(-0.1381775606 0.6193903813 0.04365559242)
(-0.161347328 0.5530709548 0.06819214104)
(-0.2001975821 0.4972907996 0.08471117224)
(-0.2589987486 0.479501487 0.08556070588)
(-0.3139341943 0.4812164069 0.08642226756)
(-0.3671071889 0.4995894533 0.09361159862)
(-0.3645324623 0.5437717234 0.102346313)
(-0.3861931503 0.4592936574 0.07598711083)
(-0.4415201225 0.4635907464 0.06424289865)
(-0.4650882043 0.4698886162 0.04962902551)
(-0.4740122469 0.5051205519 0.032839102)
(-0.4557926868 0.5521109283 0.008018911069)
(-0.4096693176 0.6048574645 -0.02320837239)
(-0.2968415204 0.6777883153 -0.05994350473)
(-0.1569977185 0.6398079265 -0.123187695)
(0.000912138662 0.6540126499 -0.1750977632)
(0.1958680797 0.601998286 -0.1357278255)
(0.32695617 0.5547586985 -0.08345736741)
(0.4187283808 0.5077489812 -0.03976883726)
(0.4629515305 0.4624245184 -0.006090415413)
(-0.1016407743 0.2316707044 0.110395983)
(-0.1880454229 0.2735977086 0.06045615468)
(-0.2776463505 0.2958688615 0.03100709903)
(-0.326859756 0.3139924955 0.01358571928)
(-0.3636615093 0.3327812925 0.005593812145)
(-0.3906557886 0.3560382681 0.004855946638)
(-0.4121458012 0.388099278 0.008273968782)
(-0.4257417316 0.4327588953 0.01113578908)
(-0.4222025417 0.49019309 0.009900048231)
(-0.3943678839 0.551584477 0.008659967627)
(-0.3563571396 0.6143447131 0.02355459011)
(-0.2834011804 0.6788561876 0.03825329089)
(-0.2025924341 0.6128888321 0.03870911536)
(-0.1889881452 0.5350487299 0.06029522242)
(-0.2083242237 0.4835431693 0.07721010459)
(-0.2426548062 0.448105002 0.08110746956)
(-0.2858020754 0.4355587061 0.07662185334)
(-0.3287286861 0.4361624807 0.07252674243)
(-0.3686300636 0.4447945084 0.06920420565)
(-0.3892542809 0.4576624524 0.06402607244)
(-0.4106060293 0.4285393633 0.0469438741)
(-0.4341025518 0.424761176 0.0362453524)
(-0.4399167418 0.4306397118 0.02791695899)
(-0.4351749144 0.4609675491 0.01933070543)
(-0.4148524394 0.5022029721 0.005264874911)
(-0.370458746 0.5507304882 -0.0169336686)
(-0.2868554748 0.6028759882 -0.04736262006)
(-0.1719308871 0.6110459606 -0.0902290897)
(-0.02607377571 0.6243282469 -0.1314532095)
(0.1621748483 0.5637406444 -0.09342794256)
(0.2924041043 0.5177516071 -0.04598700996)
(0.3865255055 0.4818552662 -0.01186104154)
(0.4323053924 0.4524547229 0.0110574896)
(-0.1023125976 0.2330682172 0.1060461362)
(-0.1864769624 0.2756901541 0.05603684552)
(-0.2725885539 0.3020851298 0.02597356557)
(-0.3163734675 0.3238892902 0.007009609561)
(-0.3453592844 0.344946895 -0.003351408297)
(-0.3613285653 0.3679063027 -0.006808419452)
(-0.3691681968 0.3954741572 -0.005017632348)
(-0.3687159586 0.4297232743 3.871663313e-07)
(-0.3563631706 0.4699987493 0.005968925699)
(-0.3292244084 0.5089549818 0.0132708239)
(-0.2962514404 0.5359594733 0.02841936561)
(-0.2577394158 0.5492268154 0.04335268692)
(-0.2234235383 0.51143575 0.05506615294)
(-0.2205432194 0.4560569351 0.0703106666)
(-0.2430531593 0.4168626859 0.07868302675)
(-0.2762454016 0.3954252359 0.07772828469)
(-0.3132069761 0.3894266537 0.07306686612)
(-0.3503113772 0.3929045449 0.06705518046)
(-0.3843762773 0.4002968848 0.05813603599)
(-0.4090482912 0.4053749271 0.0462887234)
(-0.4266386482 0.394271485 0.03223769555)
(-0.4327535108 0.3843965655 0.02304246976)
(-0.4166607575 0.3810041989 0.01729787337)