/*--------------------------------*- C++ -*----------------------------------*\
  =========                 |
  \\      /  F ield         | OpenFOAM: The Open Source CFD Toolbox
   \\    /   O peration     | Website:  https://openfoam.org
    \\  /    A nd           | Version:  8
     \\/     M anipulation  |
\*---------------------------------------------------------------------------*/
FoamFile
{
    version     2.0;
    format      ascii;
    class       volScalarField;
    location    "0.9/wallFilmRegion";
    object      alpha;
}
// * * * * * * * * * * * * * * * * * * * * * * * * * * * * * * * * * * * * * //

dimensions      [0 0 0 0 0 0 0];

internalField   nonuniform List<scalar> 
1342
(
0.01997724486
0.2121777878
1.274005856
0.09759651782
0.0591339267
0.008477133912
0.04656504681
0.06440219623
0.06252462577
0.05535089971
0.04613033206
0.03076440869
0.01775896544
0.01078314757
0.006737834222
0.4414060297
0.4609163233
0.3488116346
0.2499243746
0.2004712659
0.1994455063
0.2958585918
0.0983214168
0.08338977541
0.02490334403
3.039041096
0.02815057059
0.02598300512
0.3488243086
0.4789696963
0.01177304379
0.006510329507
0.003943383934
0.05023882772
0.06963256371
0.06738732946
0.06071954861
0.05476052249
0.04577297168
0.0294413299
0.01361984983
0.00526300459
0.2123078886
0.2219992461
0.1611997052
0.1050282337
0.0845211733
0.1069047768
0.4945248803
0.03067666082
0.04124134581
0.02052228092
3.037106875
0.04154919305
0.06204533363
0.3172871518
1.190721245
0.04565845081
0.01034580913
0.00935456928
0.007047289467
0.05249467373
0.0732415989
0.07237833675
0.06713550398
0.06512429637
0.06380327535
0.05474108703
0.03585261705
0.01628402844
0.1392994036
0.1396263788
0.09518898687
0.05076212133
0.0912492813
0.1064912831
0.4472828531
0.05038274562
0.07977955723
0.02539756613
3.241841193
0.2750673374
0.6451116018
0.4386282863
0.1191193472
0.05649509873
0.06159114615
0.07240092332
0.05898529896
0.08750237656
0.1182153131
0.1217561218
0.1251685233
0.1368445548
0.1496191652
0.1454376656
0.1152161105
0.07750231414
0.1165051291
0.09994544887
0.05624700155
0.01928626219
0.1222579106
0.1167378592
0.09420481514
0.06780941221
0.1209256224
0.1159023679
3.858048953
0.4281349151
0.3754253436
0.1847930565
0.05198145058
0.02117599921
0.01967899215
0.01814189866
0.01207656088
0.08400431238
0.1174359011
0.1263963797
0.1296291818
0.1192901966
0.08742504372
0.05164352786
0.03479395935
0.02871076823
0.08495266294
0.07317289492
0.03337953
0.0113144977
0.1715699224
0.1676487905
0.1184406777
0.07575360222
0.1058344329
0.1627500107
4.247273499
0.319459516
0.546166867
0.6056646498
0.491530719
0.2634163102
0.06525272415
0.009254974505
0.004505762267
0.003638094955
0.07479778177
0.1079675807
0.1137398719
0.1019492934
0.07409749993
0.04433513104
0.03208243024
0.04618881677
0.06924402898
0.1033120813
0.07703777339
0.03899813112
0.01840134723
0.2361263101
0.2317060731
0.1714263783
0.109558879
0.1240518494
0.1838350752
4.595227996
0.04881479027
0.1629037865
0.6932035814
0.400651739
0.2282719439
0.1152297444
0.03220988951
0.01516064332
0.05187415979
0.07924877485
0.1008559745
0.09531360228
0.07178408161
0.04043822701
0.02108220568
0.02776112812
0.07338742632
0.1376481702
0.1949655342
0.2025619157
0.1088962936
0.07886784516
0.486619238
0.5097808527
0.4617279346
0.3875531801
0.3150340279
0.303259076
5.225540553
0.1096937021
0.1536661284
0.1821479764
0.1674920495
0.1310094621
0.1002540732
0.09134072967
0.1404699166
0.1902054056
0.1540919522
0.1396048561
0.104793054
0.06224921154
0.03016973229
0.01739155132
0.02433779363
0.0693298938
0.1502619898
0.2162844481
0.2326455356
0.1538050848
0.02925406115
0.3479715883
0.3657831732
0.3125714694
0.2417389241
0.1983359923
0.2141755585
5.339818794
0.02003753262
0.03189973093
0.06365156052
0.1024777692
0.1227523904
0.09422166909
0.0506420359
0.1337398452
0.2098866451
0.4270043121
0.2911916418
0.1490159638
0.06858923137
0.03381265842
0.02243637945
0.0264769354
0.05788108303
0.1272958834
0.1974411935
0.2125860332
0.1528068366
0.05695266875
0.2754781609
0.2790830702
0.219873186
0.1565322099
0.1358187873
0.1564089082
5.093705263
0.004333664291
0.007741525563
0.01818175663
0.04090945615
0.07799233574
0.1139183369
0.07647726699
0.03953915545
0.0430549001
0.1311360508
0.1477455524
0.08979697253
0.04926889241
0.03110048384
0.02511641243
0.02950306286
0.05462114596
0.110710275
0.1685388377
0.1733677267
0.1218781126
0.05743983958
0.2090449918
0.2015790921
0.1483400014
0.1045290303
0.09983012153
0.1160932664
4.448748489
0.01063941913
0.02139200106
0.04466369166
0.06371803961
0.06907007927
0.07357930182
0.09549538074
0.03802098304
0.0216984625
0.03028494618
0.05367599774
0.04861604624
0.0381533847
0.03176336338
0.03002984224
0.03594195328
0.05821893948
0.101333426
0.1355771441
0.124794684
0.08332015966
0.04200448536
0.1371959731
0.1278167232
0.09640215774
0.07461392461
0.07795420819
0.08717296973
3.568560931
0.01659756389
0.02236812287
0.02502018851
0.02205642656
0.0207925571
0.03526030163
0.06768635638
0.03113592435
0.01175213691
0.02236757291
0.03828137953
0.0431597574
0.04208085015
0.04059957133
0.04118084073
0.04800823302
0.06614607252
0.09147280879
0.1015003732
0.08353177397
0.05279645589
0.0276405531
0.07579072862
0.07546644126
0.06644495739
0.05844634844
0.06330751746
0.06637760737
2.812882072
0.1517470061
0.1425426371
0.1305504403
0.1077095029
0.08488483109
0.1497531181
0.07789976192
0.01825372697
0.006833471281
0.02092193398
0.04061106834
0.0536703418
0.06062327018
0.06415137071
0.06544378693
0.06857896098
0.07707589423
0.0857689465
0.08402998535
0.0651438551
0.04054523506
0.02329387614
0.04485879068
0.05238164357
0.05367312643
0.05051579367
0.05364569235
0.05227209049
2.433729255
0.2436684069
0.2352143361
0.1752250645
0.07665191347
0.03592826044
0.1848076375
0.33113853
0.01169753718
0.007100851076
0.02285180381
0.05100815198
0.08106087198
0.1071024225
0.1267970154
0.1389070028
0.1417054722
0.1353242306
0.1246300597
0.1290075508
0.142606273
0.1205429733
0.07602457967
0.05965041247
0.05699919102
0.05454334728
0.04863482475
0.0487085997
0.04539177526
2.391560989
0.3304062389
0.1877753192
0.0289047744
0.001836778328
0.002758052009
0.02785183979
0.03878761118
0.03471860241
0.01622328984
0.02894955008
0.07198808399
0.1384520367
0.2170239115
0.3089648553
0.4171484558
0.5145072811
0.5059360817
0.3408596338
0.1755093754
0.1358598553
0.1518015059
0.1344061265
0.1114602433
0.08664640277
0.06810155604
0.05334014085
0.05142670755
0.04963991613
2.509168555
0.21287572
0.01866275496
0.006312891931
0.008116627717
0.02258026432
0.01887879168
0.01528426648
0.01379593566
0.0139559448
0.0364111559
0.1042375598
0.220975789
0.3653514506
0.5069686972
0.5845806141
0.5299767561
0.3384435595
0.1434866125
0.04337482494
0.01596784881
0.06631409824
0.07623722564
0.1037002517
0.1001599565
0.0815442629
0.06363322992
0.07331854148
0.07543957969
2.63691254
0.04464767434
0.00206874801
0.002424021096
0.00246067872
0.01329186942
0.008388544787
0.006328231156
0.01088853208
0.01861278601
0.04951900763
0.1364043247
0.2785597198
0.431117647
0.5200077443
0.4746346197
0.3054803325
0.1302850208
0.03588762767
0.009491669777
0.02603567351
0.3933877107
0.03439520694
0.06528785548
0.08368720486
0.08203961825
0.0734624057
0.1421108766
0.1199831553
2.686081351
0.02653635191
0.009654313138
0.008794224147
0.009487178462
0.01200499189
0.02309969281
0.02700235607
0.03266459861
0.04395889098
0.08158883842
0.1689697151
0.2872749298
0.3793752505
0.380004059
0.2740579513
0.1397835968
0.05441131626
0.01798105228
0.006393491084
0.00313323055
0.00443643318
0.01735874463
0.04036895543
0.06395498319
0.0748364894
0.08149968011
0.2967612788
0.1059505096
2.65339948
0.03085855103
0.02063206834
0.01960761214
0.02051638385
0.01831548324
0.05317814774
0.06455672061
0.06590005106
0.07893027223
0.1220831862
0.1962200249
0.2647526244
0.2801167462
0.2233293141
0.1319838783
0.06515966444
0.03388036154
0.02166387694
0.01522028609
0.01057605725
0.009217109783
0.01453611756
0.02918582742
0.04885996826
0.06404633878
0.08350687125
0.4046615364
0.06286933851
2.61587056
0.03400811787
0.0280862689
0.02750200876
0.02833161952
0.02344297882
0.07480016439
0.09154359226
0.08999790914
0.104775003
0.149179952
0.2056305344
0.2298294328
0.2073902838
0.1527888816
0.1034001482
0.08700037185
0.1069840479
0.1538654815
0.1883402777
0.1666246243
0.107965253
0.0616230139
0.04249064296
0.04463916307
0.05475279968
0.07712425225
0.4014901481
0.0475245181
2.56435511
0.03326259641
0.02996927474
0.03003744321
0.03066995292
0.02463582509
0.08188305409
0.1005820159
0.1057844885
0.1269889313
0.1692806299
0.2014429546
0.1880071282
0.1649879966
0.2036389021
0.3162401777
0.4395292707
0.4880067409
0.4149702724
0.290446728
0.1793786315
0.1100833965
0.0694436648
0.04818663277
0.04289436651
0.04763880687
0.06653490791
0.3368079252
0.0391097403
2.536329718
0.03160685598
0.02822044175
0.02868629397
0.02922901325
0.02300028028
0.07816509551
0.09784089838
0.1559387431
0.2177385778
0.2415081215
0.2184913486
0.1593034985
0.1128235535
0.09677994857
0.08799042823
0.05970301626
0.02094843703
0.01020310438
0.009986545532
0.01525011747
0.02399075989
0.0325031738
0.03583506414
0.03785208334
0.04226872435
0.0566420047
0.2227109345
0.05474653063
2.823102127
0.03530131232
0.02652748404
0.02567919741
0.02606102807
0.02020811406
0.069891303
0.09057394748
0.1799712663
0.2986825783
0.2921209435
0.2112218414
0.1263131916
0.07407813644
0.04634555664
0.02725599352
0.01364358593
0.006324733799
0.003697946539
0.00399328068
0.008765280959
0.01876255844
0.02967906666
0.0367539231
0.04383900891
0.06154559034
0.08384805218
0.1838579238
0.1033693245
4.000932452
0.03967869109
0.02714864151
0.02212977825
0.02054910082
0.01499249525
0.06101973878
0.08225301993
0.1167195142
0.1392222675
0.1556849834
0.1231895222
0.07630318287
0.04398112355
0.02520840384
0.01407585542
0.008142682169
0.005316753196
0.004190032915
0.004862316712
0.009038963481
0.01840458531
0.03100707404
0.04193773411
0.2102867567
1.973138646
1.160931587
0.5524416922
0.3142278441
9.110676664
0.05588662378
0.06256152989
0.02615565217
0.01795106677
0.01116528378
0.05642689051
0.0781718753
0.07362124407
0.05461524548
0.06149918127
0.05922489642
0.04488710822
0.03166202632
0.0227817701
0.01684485287
0.01262189626
0.009496079593
0.007654263948
0.007849986577
0.01149363934
0.02021617311
0.03594296528
0.1298818973
5.772428793
6.768353858
4.715638299
2.497561451
0.7429764131
13.63708445
0.07161983454
0.1342375692
0.1190985056
0.07186058293
0.01634786379
0.0653575868
0.08185478582
0.05896387169
0.03771356803
0.0389105399
0.0417497306
0.03954147036
0.03583942117
0.03239705501
0.02872910629
0.02410162817
0.01884990901
0.01463084223
0.0132192117
0.01586324445
0.02401192445
0.07244640027
3.522369368
6.710141225
3.903101907
3.244501664
2.399215653
1.023685424
9.198555968
0.09853238737
0.3523367676
0.9407240827
0.6953086515
0.04189420984
0.09017198811
0.08605162745
0.05359400685
0.04040274807
0.04297042772
0.04769791086
0.04992596968
0.05005054081
0.0487279356
0.04521039014
0.03854240691
0.03000007861
0.02274692242
0.0192641847
0.0203602211
0.03964898894
0.8142921525
5.810155177
2.603787353
2.133275754
2.353945557
2.263810409
1.363903937
7.944234652
0.7252936548
0.394521872
0.0833396801
0.1389328347
0.07500228284
0.1146281296
0.08378022934
0.05243548587
0.05429826333
0.06308535498
0.07035212099
0.07464305599
0.07674150129
0.07971270125
0.08933518876
0.09403165885
0.09402822859
0.09334618482
0.0945535856
0.0966339181
0.1369606843
0.4629056421
3.81709877
1.08343945
0.9403991542
1.980421055
2.825324037
3.375886242
7.893723245
0.1652151166
0.006321774473
0.02376871831
0.09190270051
0.1141075182
0.135540966
0.08096276282
0.06718819166
0.0995882663
0.1191522958
0.1243771953
0.1212785207
0.115852586
0.1183882866
0.1559745239
0.1731334617
0.1905364048
0.2108034464
0.2392357961
0.3057502498
0.345227948
0.5707097584
1.47736181
0.4468014867
0.3941386102
1.289273047
1.837033959
2.922935344
5.453582813
2.252962351
0.5384464951
0.1594305013
0.1674679758
0.6061176022
1.565308606
2.347595078
3.374197579
3.832796942
3.258324534
2.653729337
2.529844263
2.998297844
3.961577294
5.081880042
5.928320106
6.363685441
6.454543611
6.331198499
6.181309256
6.069830816
6.43683759
7.105990733
7.278658054
9.398203849
14.65099185
9.465539109
5.888544569
8.700275469
17.94752719
0.08478731028
0.09469111361
0.02151462703
0.0610960948
0.01584061706
0.01920333824
0.01900721982
0.01233081975
0.001152523867
0.0005790296634
0.0001201381585
0.005921615926
0.0005649162208
0.0002671554041
4.681807186e-05
0.001702030333
0.0001427782834
6.101890649e-05
7.754923301e-06
0.01330963655
0.002013017321
0.002041372674
0.001902984061
0.2468254361
1.556145109
0.1719914263
0.8581442383
0.01316701064
0.003367830936
1.66515388
0.001257267294
0.000765211987
1.705998131
0.0004755598292
0.0003074250558
5.249083465
0.0001919346015
0.0001664439147
3.320146753
0.0001581317667
0.0001425129884
2.623402395
0.0001399592416
0.000128947401
2.218214644
0.0001122314204
0.0001048153336
1.725112023
0.0001707233147
0.0007502433307
7.895834375
0.05400159292
0.3755005202
0.362259303
1.230320233
0.6362024728
0.1601749513
0.06588681855
0.1164443468
0.7759067016
0.7335667311
0.1373953942
0.08403448691
0.6975337802
0.1121770429
0.2770480643
0.129881537
0.04960026751
0.04841292777
0.09210820714
0.1292379756
0.03549143637
0.07382264903
0.05183934501
0.05407190161
0.08406374656
0.1425926075
0.009899025801
0.03599331805
0.06990757987
0.1683022922
0.5312137659
6.143182694
1.023933796
0.005616230938
0.007107854684
0.003198259409
0.01014495719
0.00399510908
0.004507398416
1.094524517
7.034762557
1.165944925
0.002762560473
0.4617300374
0.07761720562
1.21051659
6.256283115
0.2542194982
0.1973158144
0.5379733232
0.3889617225
2.29824185
3.626405888
1.400266129
0.6359559101
0.2712938578
0.2625704555
1.482047109
5.263257242
0.687025697
1.596053307
0.3240212651
0.6507648064
0.2140070322
3.539896679
0.08578779078
0.2488069429
0.0872282103
0.1542928699
0.09513698507
4.148240311
0.1716298988
0.1897899164
0.2809698225
4.866337748
0.3502394356
0.1358617076
0.00311703654
0.0142777572
0.002594799011
0.002289938384
0.002385007208
0.001848900678
0.001328188886
0.001332958058
0.0008575273127
0.0004542584495
0.004212872046
0.06088361061
0.01677108909
0.0006071984643
0.004855675251
0.00161151684
0.0001909386269
0.0006264312106
0.0002588751015
9.795439747e-05
0.000137798884
0.0001253186528
9.022312832e-05
0.0001434128437
0.0001677004981
8.510190331e-05
0.0001812404653
0.0001838376934
7.406349565e-05
0.000174442657
0.0002389185665
0.002328665531
0.001013011734
0.00965030772
0.002146349084
0.001511416487
0.0006401632241
0.01112729649
0.0005045714905
0.000203258019
0.03875208969
0.2217681277
0.07616360719
0.003126180986
0.02280674797
0.006740526993
0.0002673307653
0.00167303765
0.0003153609164
0.0001278940895
0.0001241258038
0.000134001552
0.0001863776292
0.0001696214562
0.0002264999982
0.0002192161729
0.0002344369276
0.0003253355553
0.0006111884531
0.000519969275
0.00214137141
0.01799422306
0.009667962282
0.0270683497
0.001298264512
0.01036979596
0.001058269237
0.000857322859
0.0009300050035
0.0006850360665
0.0003277288973
0.01320671232
0.05359541899
0.02253131754
0.0005265843463
0.009154450265
0.001264549876
0.0001456537215
0.0002673380401
0.0001523322679
0.0002849268612
0.0002150680306
0.0003245811981
0.0009667282193
0.0003513422802
0.00319930212
0.006493719709
0.005844550536
0.01731433401
0.003465115892
0.0003689401781
0.0004090666312
0.000311750803
0.0002215188189
0.0001438842792
0.0001412254234
0.002099530878
0.02024850696
0.001578644636
0.0001885946257
0.0007788505479
0.0003343496845
0.0005330133182
0.0002407931592
0.0005651865832
0.008589496751
0.003951345431
0.05206580867
0.0001056313404
4.302519201
24.25129033
25.75593317
1.496743632
0.02154041968
0.954363206
0.0273622692
0.859124513
0.1162479706
0.3382683913
5.206470833
0.01753738787
0.007546461811
1.384770904
6.853984939
0.3247149191
1.71794338
6.929608913
0.5538587039
3.115731198
7.489191644
1.112347547
4.424284828
3.080269052
1.303204303
2.886475438
4.210436623
0.1290903557
2.397460354
3.656072911
0.1204956639
2.108466535
4.523268427
1.050970429
6.60939687
0.07599844123
1.19439437
0.03470702569
0.002879461238
0.001754282894
0.02041174314
0.001241928235
0.0003397896521
0.0001079363818
9.571292392e-05
9.229880375e-05
7.326331376e-05
0.000214758085
0.04665445461
0.02217001078
0.008211445626
0.001975747969
0.001638384096
0.001060879554
0.0008587681696
0.0002788840118
0.1340006465
0.0109070793
0.0008703743469
0.0001299729956
0.0001522782319
0.0002035965593
0.0002280878794
0.003925055253
0.0920115896
0.2817608179
0.03921781896
0.004092208889
0.0001388909993
0.0002020541626
0.0002535683459
0.001802110776
0.019980484
0.09489491992
0.07269045307
0.06181502537
0.0102392079
0.01213207246
0.0101063866
0.01206056181
0.06728128431
0.01598544708
0.0006033222822
0.0001641917528
0.0009539180749
0.01736362722
0.1044327603
0.02891857641
0.006071219526
0.004534441809
0.009995817402
0.001397601835
0.0002689614444
9.243795491e-06
2.795811527e-06
4.351249163e-06
1.174664477e-07
0.02267006629
0.0006429046109
6.987359685e-05
3.844495494e-05
1.87151604e-05
0.05060409331
0.001859939316
0.0002789589886
0.0002031687396
0.0001436942555
0.09972590845
0.004857225553
0.0007723716537
0.000671270951
0.0005619783979
3.623599243
0.03222609909
5.615176291
0.1352351853
1.561699031
0.004448264475
0.9868179576
0.01957860635
0.06288472879
0.05219544011
0.003483994643
0.002996457057
0.9189136371
0.05173761153
0.05695127266
0.06674405556
0.002708335434
0.002993213281
0.07437328065
0.005691736966
0.3929260497
12.0705304
2.481936308
0.09407966861
0.1909392216
0.02076039054
1.533907341
0.02435890952
0.01817640423
0.08399522232
0.01568686878
0.01852452455
0.02021614535
0.0225652066
0.02461321797
0.02223156707
0.001803858527
0.001241510837
0.06591048246
0.01172256142
0.01348982908
0.01472860318
0.0172400621
0.01358447526
0.0163531201
0.02093690284
0.01780328246
0.01622221242
0.0004577002234
0.000255235334
9.043116936e-05
0.0006554305641
0.04133678123
0.007666066285
0.005430422815
0.008625467875
0.009216713897
0.006949899396
0.007438361976
0.01003252593
0.006859391373
0.009041077169
0.01100712028
0.01316067237
0.01092858048
7.332501017e-05
2.152769813e-05
0.0001731232441
9.870850048e-05
8.63606912e-05
5.905215574e-05
3.033110995e-05
3.611331456e-05
1.77355491e-05
0.001847977273
0.01871521688
0.00242212368
0.002005670788
0.004101250141
0.00262062343
0.004261488392
0.002653447147
0.002746996357
0.002832765968
0.004420114421
0.002608544207
0.003735432437
0.00641572156
0.004784858365
1.294012561e-05
0.0004013348651
3.430679206e-05
5.468599397e-06
2.779342067e-05
1.918338619e-05
1.064704464e-06
1.236325868e-05
7.249013629e-06
4.089582198e-06
8.077144798e-05
0.001088933712
0.0001625107357
5.272869669e-05
0.0001475339763
0.0001192051286
2.691410794e-05
9.501575483e-05
7.452284855e-05
5.7968581e-05
0.0002952491081
0.003026171197
0.0004959947079
0.0002380635163
0.0004854284392
0.0004333050054
0.000172698578
0.0003902479096
0.0003519315621
0.0003053006954
0.000763697746
0.006298032996
0.001066271378
0.000715006771
0.001109114161
0.001056164819
0.0006317340064
0.001023309445
0.0009932969178
0.002074202024
0.0008976149944
)
;

boundaryField
{
    walls
    {
        type            zeroGradient;
    }
    wallFilmFace_top
    {
        type            zeroGradient;
    }
    region0_to_wallFilmRegion_wallFilmFace
    {
        type            zeroGradient;
    }
    mirrorFace_top
    {
        type            zeroGradient;
    }
    region0_to_wallFilmRegion_mirrorFace
    {
        type            zeroGradient;
    }
    procBoundary2to0
    {
        type            processor;
        value           nonuniform List<scalar> 
26
(
0.1791339114
0.3452654854
1.656570781
1.256079622
0.1488415024
0.03483737766
0.04165886036
0.05928497605
0.05867879282
0.05104509786
0.03691297446
0.01835107069
0.008283854334
0.004969743333
0.004094500239
0.2137943365
0.2213591287
0.1600548169
0.1061191453
0.07400576517
0.07433174171
0.1024991134
0.06478119978
0.09783633499
0.0210166236
2.415628425
)
;
    }
    procBoundary2to1
    {
        type            processor;
        value           nonuniform List<scalar> 
33
(
0.007469872932
0.007469872932
0.0185619288
0.0185619288
0.02250864647
0.03573540996
0.3111072047
0.3111072047
0.1332599369
0.1037949136
0.08455146337
0.03862350698
0.05606758502
0.06388799649
0.04627094241
0.1965844979
0.2856634711
0.4390099057
0.6578338756
0.1292658702
0.05212822653
0.04552656411
0.04233154792
0.04030987737
0.04201739431
0.07398207459
0.06838748597
0.06019011508
0.06578315686
0.1794497329
1.61017683
0.6362191811
6.132662595
)
;
    }
    procBoundary2to3
    {
        type            processor;
        value           nonuniform List<scalar> 
64
(
0.0914605774
0.02351278014
0.02626608418
0.02567053575
4.93590322e-09
0.0001539168288
6.398064551e-05
1.495368958e-05
4.269816209e-08
0.01360946918
0.001748648521
0.005349499797
0.00185177235
0.001748648521
0.01586894547
0.05644111591
0.1495752887
0.2555285072
0.4355265619
1.11334564
1.342092552
0.7982894989
0.2926792575
0.1474431857
0.1474431857
0.1102465185
0.224635178
0.224635178
0.00898614451
0.224635178
0.001141593947
0.001139142767
0.001141593947
0.0004947136209
0.0003118945116
0.8188469222
0.2446132296
0.01360946918
0.03952671433
0.001141593947
4.116068128e-09
9.493001451e-06
1.662840169e-06
1.294337185e-07
1.847686616e-08
5.601986444e-08
0.07502816588
0.02476709968
1.411375643
0.02657319706
0.02351278014
0.02862262763
4.808529214e-09
4.713729165e-09
0.0001145455154
4.023342614e-09
4.53934964e-09
3.321318379e-05
8.402671676e-09
2.235726055e-08
4.666774574e-07
1.110298861e-07
2.550534898e-08
8.617195886e-08
)
;
    }
}


// ************************************************************************* //
