/*--------------------------------*- C++ -*----------------------------------*\
  =========                 |
  \\      /  F ield         | OpenFOAM: The Open Source CFD Toolbox
   \\    /   O peration     | Website:  https://openfoam.org
    \\  /    A nd           | Version:  8
     \\/     M anipulation  |
\*---------------------------------------------------------------------------*/
FoamFile
{
    version     2.0;
    format      ascii;
    class       volScalarField;
    location    "0.9/wallFilmRegion";
    object      delta;
}
// * * * * * * * * * * * * * * * * * * * * * * * * * * * * * * * * * * * * * //

dimensions      [0 1 0 0 0 0 0];

internalField   nonuniform List<scalar> 
1342
(
1.997724486e-05
0.0002121777878
0.001274005856
9.759651782e-05
5.91339267e-05
8.477133912e-06
4.656504681e-05
6.440219623e-05
6.252462577e-05
5.535089971e-05
4.613033206e-05
3.076440869e-05
1.775896544e-05
1.078314757e-05
6.737834222e-06
0.0004414060297
0.0004609163233
0.0003488116346
0.0002499243746
0.0002004712659
0.0001994455063
0.0002958585918
9.83214168e-05
8.338977541e-05
2.490334403e-05
0.003039041096
2.815057059e-05
2.598300512e-05
0.0003488243086
0.0004789696963
1.177304379e-05
6.510329507e-06
3.943383934e-06
5.023882772e-05
6.963256371e-05
6.738732946e-05
6.071954861e-05
5.476052249e-05
4.577297168e-05
2.94413299e-05
1.361984983e-05
5.26300459e-06
0.0002123078886
0.0002219992461
0.0001611997052
0.0001050282337
8.45211733e-05
0.0001069047768
0.0004945248803
3.067666082e-05
4.124134581e-05
2.052228092e-05
0.003037106875
4.154919305e-05
6.204533363e-05
0.0003172871518
0.001190721245
4.565845081e-05
1.034580913e-05
9.35456928e-06
7.047289467e-06
5.249467373e-05
7.32415989e-05
7.237833675e-05
6.713550398e-05
6.512429637e-05
6.380327535e-05
5.474108703e-05
3.585261705e-05
1.628402844e-05
0.0001392994036
0.0001396263788
9.518898687e-05
5.076212133e-05
9.12492813e-05
0.0001064912831
0.0004472828531
5.038274562e-05
7.977955723e-05
2.539756613e-05
0.003241841193
0.0002750673374
0.0006451116018
0.0004386282863
0.0001191193472
5.649509873e-05
6.159114615e-05
7.240092332e-05
5.898529896e-05
8.750237656e-05
0.0001182153131
0.0001217561218
0.0001251685233
0.0001368445548
0.0001496191652
0.0001454376656
0.0001152161105
7.750231414e-05
0.0001165051291
9.994544887e-05
5.624700155e-05
1.928626219e-05
0.0001222579106
0.0001167378592
9.420481514e-05
6.780941221e-05
0.0001209256224
0.0001159023679
0.003858048953
0.0004281349151
0.0003754253436
0.0001847930565
5.198145058e-05
2.117599921e-05
1.967899215e-05
1.814189866e-05
1.207656088e-05
8.400431238e-05
0.0001174359011
0.0001263963797
0.0001296291818
0.0001192901966
8.742504372e-05
5.164352786e-05
3.479395935e-05
2.871076823e-05
8.495266294e-05
7.317289492e-05
3.337953e-05
1.13144977e-05
0.0001715699224
0.0001676487905
0.0001184406777
7.575360222e-05
0.0001058344329
0.0001627500107
0.004247273499
0.000319459516
0.000546166867
0.0006056646498
0.000491530719
0.0002634163102
6.525272415e-05
9.254974505e-06
4.505762267e-06
3.638094955e-06
7.479778177e-05
0.0001079675807
0.0001137398719
0.0001019492934
7.409749993e-05
4.433513104e-05
3.208243024e-05
4.618881677e-05
6.924402898e-05
0.0001033120813
7.703777339e-05
3.899813112e-05
1.840134723e-05
0.0002361263101
0.0002317060731
0.0001714263783
0.000109558879
0.0001240518494
0.0001838350752
0.004595227996
4.881479027e-05
0.0001629037865
0.0006932035814
0.000400651739
0.0002282719439
0.0001152297444
3.220988951e-05
1.516064332e-05
5.187415979e-05
7.924877485e-05
0.0001008559745
9.531360228e-05
7.178408161e-05
4.043822701e-05
2.108220568e-05
2.776112812e-05
7.338742632e-05
0.0001376481702
0.0001949655342
0.0002025619157
0.0001088962936
7.886784516e-05
0.000486619238
0.0005097808527
0.0004617279346
0.0003875531801
0.0003150340279
0.000303259076
0.005225540553
0.0001096937021
0.0001536661284
0.0001821479764
0.0001674920495
0.0001310094621
0.0001002540732
9.134072967e-05
0.0001404699166
0.0001902054056
0.0001540919522
0.0001396048561
0.000104793054
6.224921154e-05
3.016973229e-05
1.739155132e-05
2.433779363e-05
6.93298938e-05
0.0001502619898
0.0002162844481
0.0002326455356
0.0001538050848
2.925406115e-05
0.0003479715883
0.0003657831732
0.0003125714694
0.0002417389241
0.0001983359923
0.0002141755585
0.005339818794
2.003753262e-05
3.189973093e-05
6.365156052e-05
0.0001024777692
0.0001227523904
9.422166909e-05
5.06420359e-05
0.0001337398452
0.0002098866451
0.0004270043121
0.0002911916418
0.0001490159638
6.858923137e-05
3.381265842e-05
2.243637945e-05
2.64769354e-05
5.788108303e-05
0.0001272958834
0.0001974411935
0.0002125860332
0.0001528068366
5.695266875e-05
0.0002754781609
0.0002790830702
0.000219873186
0.0001565322099
0.0001358187873
0.0001564089082
0.005093705263
4.333664291e-06
7.741525563e-06
1.818175663e-05
4.090945615e-05
7.799233574e-05
0.0001139183369
7.647726699e-05
3.953915545e-05
4.30549001e-05
0.0001311360508
0.0001477455524
8.979697253e-05
4.926889241e-05
3.110048384e-05
2.511641243e-05
2.950306286e-05
5.462114596e-05
0.000110710275
0.0001685388377
0.0001733677267
0.0001218781126
5.743983958e-05
0.0002090449918
0.0002015790921
0.0001483400014
0.0001045290303
9.983012153e-05
0.0001160932664
0.004448748489
1.063941913e-05
2.139200106e-05
4.466369166e-05
6.371803961e-05
6.907007927e-05
7.357930182e-05
9.549538074e-05
3.802098304e-05
2.16984625e-05
3.028494618e-05
5.367599774e-05
4.861604624e-05
3.81533847e-05
3.176336338e-05
3.002984224e-05
3.594195328e-05
5.821893948e-05
0.000101333426
0.0001355771441
0.000124794684
8.332015966e-05
4.200448536e-05
0.0001371959731
0.0001278167232
9.640215774e-05
7.461392461e-05
7.795420819e-05
8.717296973e-05
0.003568560931
1.659756389e-05
2.236812287e-05
2.502018851e-05
2.205642656e-05
2.07925571e-05
3.526030163e-05
6.768635638e-05
3.113592435e-05
1.175213691e-05
2.236757291e-05
3.828137953e-05
4.31597574e-05
4.208085015e-05
4.059957133e-05
4.118084073e-05
4.800823302e-05
6.614607252e-05
9.147280879e-05
0.0001015003732
8.353177397e-05
5.279645589e-05
2.76405531e-05
7.579072862e-05
7.546644126e-05
6.644495739e-05
5.844634844e-05
6.330751746e-05
6.637760737e-05
0.002812882072
0.0001517470061
0.0001425426371
0.0001305504403
0.0001077095029
8.488483109e-05
0.0001497531181
7.789976192e-05
1.825372697e-05
6.833471281e-06
2.092193398e-05
4.061106834e-05
5.36703418e-05
6.062327018e-05
6.415137071e-05
6.544378693e-05
6.857896098e-05
7.707589423e-05
8.57689465e-05
8.402998535e-05
6.51438551e-05
4.054523506e-05
2.329387614e-05
4.485879068e-05
5.238164357e-05
5.367312643e-05
5.051579367e-05
5.364569235e-05
5.227209049e-05
0.002433729255
0.0002436684069
0.0002352143361
0.0001752250645
7.665191347e-05
3.592826044e-05
0.0001848076375
0.00033113853
1.169753718e-05
7.100851076e-06
2.285180381e-05
5.100815198e-05
8.106087198e-05
0.0001071024225
0.0001267970154
0.0001389070028
0.0001417054722
0.0001353242306
0.0001246300597
0.0001290075508
0.000142606273
0.0001205429733
7.602457967e-05
5.965041247e-05
5.699919102e-05
5.454334728e-05
4.863482475e-05
4.87085997e-05
4.539177526e-05
0.002391560989
0.0003304062389
0.0001877753192
2.89047744e-05
1.836778328e-06
2.758052009e-06
2.785183979e-05
3.878761118e-05
3.471860241e-05
1.622328984e-05
2.894955008e-05
7.198808399e-05
0.0001384520367
0.0002170239115
0.0003089648553
0.0004171484558
0.0005145072811
0.0005059360817
0.0003408596338
0.0001755093754
0.0001358598553
0.0001518015059
0.0001344061265
0.0001114602433
8.664640277e-05
6.810155604e-05
5.334014085e-05
5.142670755e-05
4.963991613e-05
0.002509168555
0.00021287572
1.866275496e-05
6.312891931e-06
8.116627717e-06
2.258026432e-05
1.887879168e-05
1.528426648e-05
1.379593566e-05
1.39559448e-05
3.64111559e-05
0.0001042375598
0.000220975789
0.0003653514506
0.0005069686972
0.0005845806141
0.0005299767561
0.0003384435595
0.0001434866125
4.337482494e-05
1.596784881e-05
6.631409824e-05
7.623722564e-05
0.0001037002517
0.0001001599565
8.15442629e-05
6.363322992e-05
7.331854148e-05
7.543957969e-05
0.00263691254
4.464767434e-05
2.06874801e-06
2.424021096e-06
2.46067872e-06
1.329186942e-05
8.388544787e-06
6.328231156e-06
1.088853208e-05
1.861278601e-05
4.951900763e-05
0.0001364043247
0.0002785597198
0.000431117647
0.0005200077443
0.0004746346197
0.0003054803325
0.0001302850208
3.588762767e-05
9.491669777e-06
2.603567351e-05
0.0003933877107
3.439520694e-05
6.528785548e-05
8.368720486e-05
8.203961825e-05
7.34624057e-05
0.0001421108766
0.0001199831553
0.002686081351
2.653635191e-05
9.654313138e-06
8.794224147e-06
9.487178462e-06
1.200499189e-05
2.309969281e-05
2.700235607e-05
3.266459861e-05
4.395889098e-05
8.158883842e-05
0.0001689697151
0.0002872749298
0.0003793752505
0.000380004059
0.0002740579513
0.0001397835968
5.441131626e-05
1.798105228e-05
6.393491084e-06
3.13323055e-06
4.43643318e-06
1.735874463e-05
4.036895543e-05
6.395498319e-05
7.48364894e-05
8.149968011e-05
0.0002967612788
0.0001059505096
0.00265339948
3.085855103e-05
2.063206834e-05
1.960761214e-05
2.051638385e-05
1.831548324e-05
5.317814774e-05
6.455672061e-05
6.590005106e-05
7.893027223e-05
0.0001220831862
0.0001962200249
0.0002647526244
0.0002801167462
0.0002233293141
0.0001319838783
6.515966444e-05
3.388036154e-05
2.166387694e-05
1.522028609e-05
1.057605725e-05
9.217109783e-06
1.453611756e-05
2.918582742e-05
4.885996826e-05
6.404633878e-05
8.350687125e-05
0.0004046615364
6.286933851e-05
0.00261587056
3.400811787e-05
2.80862689e-05
2.750200876e-05
2.833161952e-05
2.344297882e-05
7.480016439e-05
9.154359226e-05
8.999790914e-05
0.000104775003
0.000149179952
0.0002056305344
0.0002298294328
0.0002073902838
0.0001527888816
0.0001034001482
8.700037185e-05
0.0001069840479
0.0001538654815
0.0001883402777
0.0001666246243
0.000107965253
6.16230139e-05
4.249064296e-05
4.463916307e-05
5.475279968e-05
7.712425225e-05
0.0004014901481
4.75245181e-05
0.00256435511
3.326259641e-05
2.996927474e-05
3.003744321e-05
3.066995292e-05
2.463582509e-05
8.188305409e-05
0.0001005820159
0.0001057844885
0.0001269889313
0.0001692806299
0.0002014429546
0.0001880071282
0.0001649879966
0.0002036389021
0.0003162401777
0.0004395292707
0.0004880067409
0.0004149702724
0.000290446728
0.0001793786315
0.0001100833965
6.94436648e-05
4.818663277e-05
4.289436651e-05
4.763880687e-05
6.653490791e-05
0.0003368079252
3.91097403e-05
0.002536329718
3.160685598e-05
2.822044175e-05
2.868629397e-05
2.922901325e-05
2.300028028e-05
7.816509551e-05
9.784089838e-05
0.0001559387431
0.0002177385778
0.0002415081215
0.0002184913486
0.0001593034985
0.0001128235535
9.677994857e-05
8.799042823e-05
5.970301626e-05
2.094843703e-05
1.020310438e-05
9.986545532e-06
1.525011747e-05
2.399075989e-05
3.25031738e-05
3.583506414e-05
3.785208334e-05
4.226872435e-05
5.66420047e-05
0.0002227109345
5.474653063e-05
0.002823102127
3.530131232e-05
2.652748404e-05
2.567919741e-05
2.606102807e-05
2.020811406e-05
6.9891303e-05
9.057394748e-05
0.0001799712663
0.0002986825783
0.0002921209435
0.0002112218414
0.0001263131916
7.407813644e-05
4.634555664e-05
2.725599352e-05
1.364358593e-05
6.324733799e-06
3.697946539e-06
3.99328068e-06
8.765280959e-06
1.876255844e-05
2.967906666e-05
3.67539231e-05
4.383900891e-05
6.154559034e-05
8.384805218e-05
0.0001838579238
0.0001033693245
0.004000932452
3.967869109e-05
2.714864151e-05
2.212977825e-05
2.054910082e-05
1.499249525e-05
6.101973878e-05
8.225301993e-05
0.0001167195142
0.0001392222675
0.0001556849834
0.0001231895222
7.630318287e-05
4.398112355e-05
2.520840384e-05
1.407585542e-05
8.142682169e-06
5.316753196e-06
4.190032915e-06
4.862316712e-06
9.038963481e-06
1.840458531e-05
3.100707404e-05
4.193773411e-05
0.0002102867567
0.001973138646
0.001160931587
0.0005524416922
0.0003142278441
0.009110676664
5.588662378e-05
6.256152989e-05
2.615565217e-05
1.795106677e-05
1.116528378e-05
5.642689051e-05
7.81718753e-05
7.362124407e-05
5.461524548e-05
6.149918127e-05
5.922489642e-05
4.488710822e-05
3.166202632e-05
2.27817701e-05
1.684485287e-05
1.262189626e-05
9.496079593e-06
7.654263948e-06
7.849986577e-06
1.149363934e-05
2.021617311e-05
3.594296528e-05
0.0001298818973
0.005772428793
0.006768353858
0.004715638299
0.002497561451
0.0007429764131
0.01363708445
7.161983454e-05
0.0001342375692
0.0001190985056
7.186058293e-05
1.634786379e-05
6.53575868e-05
8.185478582e-05
5.896387169e-05
3.771356803e-05
3.89105399e-05
4.17497306e-05
3.954147036e-05
3.583942117e-05
3.239705501e-05
2.872910629e-05
2.410162817e-05
1.884990901e-05
1.463084223e-05
1.32192117e-05
1.586324445e-05
2.401192445e-05
7.244640027e-05
0.003522369368
0.006710141225
0.003903101907
0.003244501664
0.002399215653
0.001023685424
0.009198555968
9.853238737e-05
0.0003523367676
0.0009407240827
0.0006953086515
4.189420984e-05
9.017198811e-05
8.605162745e-05
5.359400685e-05
4.040274807e-05
4.297042772e-05
4.769791086e-05
4.992596968e-05
5.005054081e-05
4.87279356e-05
4.521039014e-05
3.854240691e-05
3.000007861e-05
2.274692242e-05
1.92641847e-05
2.03602211e-05
3.964898894e-05
0.0008142921525
0.005810155177
0.002603787353
0.002133275754
0.002353945557
0.002263810409
0.001363903937
0.007944234652
0.0007252936548
0.000394521872
8.33396801e-05
0.0001389328347
7.500228284e-05
0.0001146281296
8.378022934e-05
5.243548587e-05
5.429826333e-05
6.308535498e-05
7.035212099e-05
7.464305599e-05
7.674150129e-05
7.971270125e-05
8.933518876e-05
9.403165885e-05
9.402822859e-05
9.334618482e-05
9.45535856e-05
9.66339181e-05
0.0001369606843
0.0004629056421
0.00381709877
0.00108343945
0.0009403991542
0.001980421055
0.002825324037
0.003375886242
0.007893723245
0.0001652151166
6.321774473e-06
2.376871831e-05
9.190270051e-05
0.0001141075182
0.000135540966
8.096276282e-05
6.718819166e-05
9.95882663e-05
0.0001191522958
0.0001243771953
0.0001212785207
0.000115852586
0.0001183882866
0.0001559745239
0.0001731334617
0.0001905364048
0.0002108034464
0.0002392357961
0.0003057502498
0.000345227948
0.0005707097584
0.00147736181
0.0004468014867
0.0003941386102
0.001289273047
0.001837033959
0.002922935344
0.005453582813
0.002252962351
0.0005384464951
0.0001594305013
0.0001674679758
0.0006061176022
0.001565308606
0.002347595078
0.003374197579
0.003832796942
0.003258324534
0.002653729337
0.002529844263
0.002998297844
0.003961577294
0.005081880042
0.005928320106
0.006363685441
0.006454543611
0.006331198499
0.006181309256
0.006069830816
0.00643683759
0.007105990733
0.007278658054
0.009398203849
0.01465099185
0.009465539109
0.005888544569
0.008700275469
0.0116669919
6.635924272e-05
7.401528426e-05
2.133966983e-05
5.803416698e-05
1.56344372e-05
1.895363919e-05
1.876092052e-05
1.030255262e-05
1.13470466e-06
5.700249416e-07
1.182771011e-07
4.655896588e-06
5.577941986e-07
2.638126853e-07
4.621931328e-08
1.420564686e-06
1.405978538e-07
6.009084496e-08
7.636966523e-09
9.862118587e-06
1.993826988e-06
2.0223204e-06
1.885048612e-06
0.0001936072087
0.001215965894
0.0001719901062
0.0006725660192
1.316708248e-05
3.367834676e-06
0.001304534837
1.257267436e-06
7.65211987e-07
0.001336510634
4.755598292e-07
3.074250558e-07
0.004112699279
1.919346015e-07
1.664439147e-07
0.00260170521
1.581317667e-07
1.425129884e-07
0.002056106883
1.399592416e-07
1.28947401e-07
0.00173933655
1.122314204e-07
1.04815345e-07
0.001353945483
1.707235023e-07
7.502473371e-07
0.005097066293
5.40011791e-05
0.00029345509
0.0003622343033
0.0007640243217
0.0006190668813
0.0001235969216
6.411340325e-05
7.228008253e-05
0.0006820087397
0.0005796083746
7.129070658e-05
6.638786163e-05
0.000480142263
0.0001121780702
0.00021514945
0.0001258379291
4.800133959e-05
4.690704278e-05
7.15470098e-05
0.0001005580093
3.549143637e-05
5.149563831e-05
4.491468286e-05
5.235175729e-05
7.281486829e-05
9.935578086e-05
7.750194726e-06
2.859870296e-05
5.531308038e-05
0.0001147484537
0.0005312137972
0.004835374333
0.001023933729
5.616230634e-06
7.107853665e-06
3.198259289e-06
1.014495843e-05
3.995109211e-06
4.507398789e-06
0.00109452454
0.005532630636
0.001165944872
2.762560261e-06
0.000461729918
7.761720598e-05
0.001210516624
0.004919999422
0.0002542194916
0.0001973158142
0.0005379733632
0.0003889616917
0.002298241732
0.00285190079
0.001400266132
0.0006359558461
0.0002712938453
0.0002625703868
0.001482046866
0.00413926638
0.0006870256144
0.001596053082
0.0003240212809
0.0006507647483
0.000214007015
0.002784078088
8.578778528e-05
0.0002488069308
8.722821763e-05
0.0001542928774
9.513696814e-05
0.003263618679
0.0001716299017
0.0001897899111
0.0002809698121
0.003836317618
0.0003502393728
0.0001358616907
3.091180541e-06
1.214497683e-05
2.567086598e-06
2.271500608e-06
2.3594497e-06
1.829239357e-06
1.31756951e-06
1.318740428e-06
8.484102768e-07
4.493579378e-07
4.212869685e-06
6.088265532e-05
1.677118334e-05
6.071984732e-07
4.855678277e-06
1.611516888e-06
1.909386269e-07
6.264312106e-07
2.588751015e-07
9.795439747e-08
1.37798884e-07
1.253186528e-07
9.022312832e-08
1.434128437e-07
1.677004981e-07
8.510190331e-08
1.812404653e-07
1.838376934e-07
7.40635122e-08
1.744426621e-07
2.389187141e-07
2.328635815e-06
1.0130173e-06
9.65015847e-06
2.118392628e-06
1.491608816e-06
6.317644822e-07
9.039053008e-06
4.997044176e-07
2.013053824e-07
3.875234639e-05
0.0002217529909
7.616407684e-05
3.12618108e-06
2.280676367e-05
6.740527193e-06
2.673307653e-07
1.67303765e-06
3.153609164e-07
1.278940895e-07
1.241258038e-07
1.34001552e-07
1.863776292e-07
1.696214562e-07
2.264999982e-07
2.192161729e-07
2.344369276e-07
3.253355553e-07
6.111888873e-07
5.199692903e-07
2.141372874e-06
1.799344744e-05
9.668020499e-06
2.706652437e-05
1.278616963e-06
8.146264653e-06
1.047488369e-06
8.439078676e-07
9.198473835e-07
6.774576475e-07
3.226624335e-07
1.320671251e-05
5.359542641e-05
2.253131754e-05
5.265843463e-07
9.154450265e-06
1.264549876e-06
1.456537215e-07
2.673380401e-07
1.523322679e-07
2.849268612e-07
2.150680306e-07
3.245811981e-07
9.667282193e-07
3.513422802e-07
3.19930212e-06
6.493723481e-06
5.844550536e-06
1.73143364e-05
2.724720538e-06
3.650597089e-07
4.038570167e-07
3.082731131e-07
2.190012267e-07
1.420755634e-07
1.39641637e-07
2.099530878e-06
1.964408173e-05
1.578644636e-06
1.885946257e-07
7.788505479e-07
3.343496845e-07
5.330133182e-07
2.407931592e-07
5.651865832e-07
8.589496751e-06
3.951345431e-06
5.050970278e-05
1.046743051e-07
0.00277289026
0.015775422
0.01671620471
0.001170925762
1.683376754e-05
0.0007450208067
2.134591797e-05
0.0006703629828
9.065584155e-05
0.0002651982217
0.004103880414
1.753738445e-05
7.546462422e-06
0.001085031615
0.005391652766
0.0003247148661
0.001345837085
0.005449567162
0.0005538587107
0.002441049416
0.005889621572
0.001112347558
0.003466686707
0.002422432513
0.001303204262
0.002262050513
0.003311337031
0.00012909036
0.001879349394
0.002875707889
0.0001204956492
0.001653962255
0.003560828787
0.0008255586377
0.005228519391
7.599846549e-05
0.000921336176
2.712680083e-05
2.855873823e-06
1.740278175e-06
2.041148294e-05
1.241928525e-06
3.397896521e-07
1.079363818e-07
9.571292392e-08
9.229880375e-08
7.326331483e-08
2.147579543e-07
4.665126953e-05
1.151803089e-05
7.801044694e-06
1.949780268e-06
1.622498976e-06
1.046863771e-06
8.504008654e-07
2.75222663e-07
0.0001339947948
1.090708726e-05
8.703743469e-07
1.299729956e-07
1.522782319e-07
2.035965593e-07
2.280878862e-07
3.925080754e-06
8.08790705e-05
0.0002726693551
3.921784193e-05
4.092208889e-06
1.388909993e-07
2.020541626e-07
2.535683459e-07
1.802110803e-06
1.998066317e-05
6.536810753e-05
6.07423886e-05
4.855067584e-05
1.007710798e-05
1.194366275e-05
9.998049504e-06
1.187068831e-05
6.514061411e-05
1.598544708e-05
6.033222822e-07
1.641917528e-07
9.539180749e-07
1.736362722e-05
8.127190175e-05
2.274544299e-05
5.993775638e-06
4.483920481e-06
6.83346365e-06
1.036358122e-06
2.24535452e-07
9.119922269e-09
2.758533324e-09
4.310060761e-09
1.159011552e-10
1.795065403e-05
5.015017273e-07
6.909084958e-08
3.801401993e-08
1.850776763e-08
4.018785386e-05
1.449306966e-06
2.758499432e-07
2.009058047e-07
1.420879513e-07
7.803450503e-05
3.783123335e-06
7.637207853e-07
6.637178321e-07
5.557470308e-07
0.00284404731
2.525514482e-05
0.004441485808
0.0001352351919
0.001230455478
4.435034359e-06
0.0007709046961
1.528250487e-05
6.288472061e-05
5.219543446e-05
3.473796986e-06
2.987702588e-06
0.0007171135025
4.035141699e-05
5.695127482e-05
6.67440685e-05
2.700429191e-06
2.98449561e-06
7.437328358e-05
5.675298698e-06
0.000392926089
0.00785361859
0.001948282971
7.385094604e-05
0.0001504422317
2.069359513e-05
0.001200208619
2.428298538e-05
1.802616258e-05
7.143832564e-05
1.551987431e-05
1.8326948e-05
1.999773695e-05
2.232270304e-05
2.434833371e-05
2.19894651e-05
1.786926976e-06
1.229419688e-06
5.353505789e-05
1.1614134e-05
1.33140658e-05
1.458374106e-05
1.701488704e-05
1.345434685e-05
1.619228813e-05
2.066601841e-05
1.76347378e-05
1.606570681e-05
4.527167955e-07
2.524683879e-07
8.944496282e-08
6.476050461e-07
3.252549678e-05
7.587729227e-06
5.365490343e-06
8.529643103e-06
9.115972895e-06
6.862612817e-06
7.34515849e-06
9.921596654e-06
6.772816316e-06
8.902808489e-06
1.083354199e-05
1.295892674e-05
1.081009977e-05
7.249625521e-08
2.128012935e-08
1.705492024e-07
9.719946528e-08
8.554175166e-08
5.849439823e-08
2.987056812e-08
3.576986881e-08
1.756694255e-08
1.831157126e-06
1.561693618e-05
2.385895009e-06
1.986919699e-06
4.054681745e-06
2.580018887e-06
4.21352636e-06
2.612806916e-06
2.704957961e-06
2.789364903e-06
4.370414371e-06
2.568476598e-06
3.696105254e-06
6.334423287e-06
4.731926631e-06
1.276779255e-08
3.127368912e-07
3.392536589e-08
5.395855696e-09
2.748382593e-08
1.897024354e-08
1.050493341e-09
1.222568977e-08
7.168592277e-09
4.044002879e-09
7.986433018e-08
8.486313923e-07
1.606933808e-07
5.213677302e-08
1.458905714e-07
1.178771757e-07
2.661526051e-08
9.396486146e-08
7.370312319e-08
5.733327348e-08
2.919502621e-07
2.359203741e-06
4.904328688e-07
2.354165645e-07
4.800287558e-07
4.2853328e-07
1.707668022e-07
3.85938074e-07
3.480525103e-07
3.019524596e-07
7.552209133e-07
5.257845677e-06
1.052221996e-06
7.070030501e-07
1.094223526e-06
1.042058553e-06
6.246800888e-07
1.009688818e-06
9.800582226e-07
2.05465316e-06
8.856088754e-07
)
;

boundaryField
{
    walls
    {
        type            zeroGradient;
    }
    wallFilmFace_top
    {
        type            zeroGradient;
    }
    region0_to_wallFilmRegion_wallFilmFace
    {
        type            zeroGradient;
    }
    mirrorFace_top
    {
        type            zeroGradient;
    }
    region0_to_wallFilmRegion_mirrorFace
    {
        type            zeroGradient;
    }
    procBoundary2to0
    {
        type            processor;
        value           nonuniform List<scalar> 
26
(
0.0001791339114
0.0003452654854
0.001656570781
0.001256079622
0.0001488415024
3.483737766e-05
4.165886036e-05
5.928497605e-05
5.867879282e-05
5.104509786e-05
3.691297446e-05
1.835107069e-05
8.283854334e-06
4.969743333e-06
4.094500239e-06
0.0002137943365
0.0002213591287
0.0001600548169
0.0001061191453
7.400576517e-05
7.433174171e-05
0.0001024991134
6.478119978e-05
9.783633499e-05
2.10166236e-05
0.002415628425
)
;
    }
    procBoundary2to1
    {
        type            processor;
        value           nonuniform List<scalar> 
33
(
7.469872932e-06
7.469872932e-06
1.85619288e-05
1.85619288e-05
2.250864647e-05
3.573540996e-05
0.0003111072047
0.0003111072047
0.0001332599369
0.0001037949136
8.455146337e-05
3.862350698e-05
5.606758502e-05
6.388799649e-05
4.627094241e-05
0.0001965844979
0.0002856634711
0.0004390099057
0.0006578338756
0.0001292658702
5.212822653e-05
4.552656411e-05
4.233154792e-05
4.030987737e-05
4.201739431e-05
7.398207459e-05
6.838748597e-05
6.019011508e-05
6.578315686e-05
0.0001794497329
0.00161017683
0.0006362191811
0.006132662595
)
;
    }
    procBoundary2to3
    {
        type            processor;
        value           nonuniform List<scalar> 
64
(
7.149207163e-05
2.331856885e-05
2.604979555e-05
2.545652868e-05
4.87193809e-12
1.515255274e-07
6.3174259e-08
1.472669957e-08
4.229339074e-11
1.360946792e-05
1.748648563e-06
5.349498997e-06
1.851772346e-06
1.748648563e-06
1.586894687e-05
5.644111199e-05
0.0001495752933
0.0002555285282
0.000435526511
0.001113345564
0.001342092342
0.0007982895141
0.0002926792634
0.0001474431723
0.0001474431723
0.0001102465215
0.0002246351551
0.0002246351551
8.986143171e-06
0.0002246351551
1.13241431e-06
1.126670292e-06
1.13241431e-06
4.881201215e-07
3.088559717e-07
0.0006388977933
0.0001907549028
1.360946792e-05
3.95267206e-05
1.13241431e-06
4.05081709e-12
9.403243686e-09
1.640717624e-09
1.279905491e-10
1.826875544e-11
5.539677592e-11
7.502816503e-05
2.469591359e-05
0.00110278453
2.649152402e-05
2.331856885e-05
2.838777136e-05
4.756557226e-12
4.667513089e-12
1.133034129e-07
3.979202341e-12
4.482391136e-12
3.283869457e-08
8.307611384e-12
2.201067861e-11
4.613996667e-10
1.098139795e-10
2.522331993e-11
8.501871408e-11
)
;
    }
}


// ************************************************************************* //
