/*--------------------------------*- C++ -*----------------------------------*\
  =========                 |
  \\      /  F ield         | OpenFOAM: The Open Source CFD Toolbox
   \\    /   O peration     | Website:  https://openfoam.org
    \\  /    A nd           | Version:  8
     \\/     M anipulation  |
\*---------------------------------------------------------------------------*/
FoamFile
{
    version     2.0;
    format      ascii;
    class       volScalarField;
    location    "0.9/wallFilmRegion";
    object      mu;
}
// * * * * * * * * * * * * * * * * * * * * * * * * * * * * * * * * * * * * * //

dimensions      [1 -1 -1 0 0 0 0];

internalField   nonuniform List<scalar> 
1342
(
0.0008861473218
0.000886147431
0.000886147443
0.0008861474357
0.0008861473357
0.0008861472275
0.0008861473986
0.0008861473993
0.0008861473954
0.0008861473877
0.0008861473745
0.0008861473518
0.0008861472964
0.0008861473371
0.0008861473312
0.0008861474102
0.0008861474101
0.0008861474094
0.0008861474079
0.0008861474022
0.0008861473857
0.000886147371
0.0008861473634
0.0008861473619
0.0008861473681
0.0008861473827
0.0008861473822
0.000886147372
0.0008861474326
0.0008861474004
0.0008861471986
0.0008861472059
0.0008861472438
0.0008861474014
0.0008861474018
0.0008861473995
0.000886147395
0.0008861473876
0.0008861473746
0.0008861473508
0.0008861472961
0.0008861471269
0.000886147407
0.0008861474077
0.0008861474048
0.000886147395
0.0008861473747
0.000886147362
0.0008861473771
0.0008861473371
0.0008861473527
0.000886147366
0.0008861473816
0.0008861473886
0.0008861474051
0.0008861474318
0.0008861474188
0.0008861473562
0.0008861473024
0.0008861473363
0.0008861473438
0.0008861474028
0.0008861474035
0.0008861474023
0.0008861474
0.0008861473964
0.0008861473909
0.0008861473816
0.0008861473645
0.0008861473264
0.0008861474041
0.0008861474044
0.0008861473965
0.0008861473693
0.0008861473878
0.0008861473848
0.0008861473827
0.0008861473584
0.0008861473475
0.0008861473644
0.0008861473803
0.0008861474172
0.0008861474233
0.000886147419
0.0008861473999
0.0008861473918
0.0008861473989
0.0008861474016
0.0008861474017
0.0008861474058
0.0008861474066
0.0008861474064
0.0008861474056
0.0008861474041
0.0008861474019
0.0008861473993
0.0008861473958
0.0008861473894
0.0008861473993
0.0008861473982
0.0008861473832
0.000886147328
0.0008861474004
0.0008861474
0.0008861473946
0.0008861473876
0.0008861473565
0.0008861473532
0.0008861473763
0.0008861474411
0.0008861474406
0.0008861474341
0.0008861474021
0.0008861473543
0.0008861473656
0.000886147373
0.0008861473691
0.0008861474063
0.0008861474066
0.0008861474058
0.0008861474032
0.0008861473976
0.0008861473866
0.0008861473682
0.0008861473523
0.0008861473484
0.0008861473888
0.0008861473838
0.0008861473617
0.0008861473031
0.0008861474055
0.0008861474053
0.000886147402
0.0008861473964
0.0008861473759
0.0008861473558
0.0008861473731
0.0008861474359
0.0008861474496
0.0008861474612
0.0008861474711
0.0008861474763
0.0008861474592
0.0008861473107
0.0008861472471
0.0008861474002
0.0008861474063
0.0008861474061
0.0008861474044
0.0008861474
0.0008861473911
0.0008861473744
0.0008861473588
0.0008861473681
0.0008861473787
0.0008861473839
0.0008861473782
0.0008861473638
0.0008861473263
0.0008861474076
0.0008861474079
0.0008861474062
0.0008861474025
0.0008861473876
0.0008861473598
0.0008861473705
0.0008861474706
0.0008861474448
0.000886147436
0.0008861474581
0.0008861475145
0.0008861475278
0.000886147507
0.0008861475108
0.0008861476229
0.0008861474208
0.0008861474068
0.0008861474024
0.0008861473957
0.0008861473823
0.0008861473587
0.000886147368
0.0008861473937
0.000886147402
0.0008861474017
0.0008861473948
0.0008861474002
0.0008861474044
0.0008861474105
0.0008861474103
0.0008861474098
0.0008861474088
0.0008861474072
0.0008861473988
0.0008861473705
0.0008861474519
0.0008861474611
0.0008861474677
0.0008861474773
0.0008861474941
0.0008861475091
0.0008861475384
0.0008861476
0.0008861476424
0.0008861474709
0.0008861474215
0.0008861474058
0.0008861473941
0.0008861473781
0.0008861473597
0.0008861473702
0.0008861473995
0.0008861474123
0.000886147416
0.0008861474129
0.0008861474037
0.0008861473812
0.00088614741
0.0008861474095
0.0008861474084
0.0008861474068
0.0008861474043
0.0008861473985
0.0008861473704
0.0008861474564
0.0008861474922
0.0008861475158
0.0008861475408
0.0008861475651
0.0008861475842
0.0008861476061
0.0008861476708
0.0008861476613
0.0008861475606
0.0008861475131
0.00088614748
0.0008861474563
0.0008861474342
0.0008861474098
0.0008861473969
0.0008861474078
0.0008861474196
0.000886147425
0.0008861474248
0.0008861474187
0.0008861474039
0.0008861474089
0.0008861474081
0.0008861474063
0.0008861474038
0.0008861474005
0.0008861473965
0.0008861473718
0.0008861471856
0.0008861473859
0.0008861474783
0.0008861475449
0.0008861476046
0.0008861476658
0.0008861477032
0.0008861476672
0.00088614763
0.0008861475734
0.0008861475362
0.0008861475091
0.000886147483
0.0008861474546
0.0008861474289
0.0008861474146
0.0008861474185
0.0008861474274
0.0008861474322
0.0008861474321
0.0008861474264
0.0008861474111
0.0008861474074
0.0008861474057
0.000886147403
0.0008861473999
0.0008861473961
0.0008861473954
0.0008861473749
0.0008861473121
0.0008861474044
0.0008861474613
0.0008861475085
0.0008861475718
0.0008861476646
0.0008861477561
0.0008861477168
0.0008861476504
0.0008861475616
0.000886147531
0.0008861475068
0.0008861474817
0.000886147458
0.0008861474396
0.0008861474301
0.0008861474315
0.0008861474368
0.0008861474392
0.0008861474371
0.0008861474287
0.0008861474087
0.0008861474042
0.0008861474016
0.0008861473983
0.0008861473948
0.0008861473914
0.0008861473957
0.0008861473819
0.0008861473608
0.0008861474019
0.0008861474351
0.0008861474737
0.0008861475428
0.0008861476285
0.0008861477763
0.000886147731
0.0008861476581
0.0008861475428
0.000886147517
0.0008861474991
0.0008861474818
0.0008861474668
0.0008861474553
0.0008861474486
0.000886147447
0.0008861474474
0.0008861474457
0.0008861474397
0.0008861474261
0.0008861473981
0.0008861473972
0.0008861473947
0.0008861473919
0.0008861473887
0.0008861473869
0.0008861473974
0.0008861474001
0.0008861474371
0.0008861474464
0.0008861474576
0.0008861474691
0.0008861474862
0.0008861474877
0.0008861477674
0.0008861477163
0.0008861476278
0.0008861475253
0.0008861475101
0.0008861475009
0.0008861474926
0.0008861474853
0.0008861474784
0.0008861474716
0.0008861474657
0.0008861474601
0.0008861474522
0.0008861474393
0.0008861474177
0.0008861473819
0.0008861473834
0.0008861473846
0.000886147384
0.0008861473819
0.000886147384
0.0008861474022
0.0008861474284
0.0008861474305
0.0008861474294
0.000886147426
0.0008861474186
0.000886147416
0.0008861474536
0.0008861475203
0.0008861476252
0.0008861475341
0.0008861475062
0.0008861475085
0.0008861475097
0.0008861475109
0.0008861475121
0.0008861475118
0.0008861475081
0.0008861474988
0.0008861474812
0.0008861474521
0.0008861474265
0.0008861474118
0.0008861473994
0.000886147386
0.0008861473813
0.0008861473795
0.0008861473789
0.000886147388
0.0008861474145
0.0008861474446
0.0008861474394
0.0008861474309
0.0008861473936
0.0008861470725
0.0008861474242
0.0008861474094
0.0008861473893
0.0008861473836
0.0008861473937
0.0008861474798
0.0008861475086
0.0008861475207
0.0008861475295
0.0008861475335
0.0008861475265
0.0008861475053
0.0008861474782
0.0008861474512
0.0008861474218
0.0008861473973
0.0008861473967
0.0008861473995
0.0008861473985
0.0008861473942
0.0008861473908
0.000886147392
0.0008861474084
0.0008861474366
0.0008861474408
0.0008861474399
0.0008861473565
0.0008861472445
0.000886147407
0.0008861475898
0.0008861474297
0.0008861473871
0.0008861473726
0.0008861473855
0.0008861474714
0.0008861475093
0.0008861475274
0.0008861475377
0.0008861475391
0.0008861475283
0.0008861475063
0.0008861474791
0.0008861474472
0.000886147398
0.0008861473179
0.0008861474749
0.0008861473949
0.0008861474036
0.0008861474075
0.0008861474101
0.0008861474161
0.0008861474373
0.0008861474534
0.0008861474278
0.0008861474335
0.0008861471592
0.000886147054
0.0008861471085
0.0008861475411
0.0008861474005
0.0008861473557
0.0008861473692
0.0008861474001
0.000886147468
0.0008861475071
0.0008861475277
0.000886147538
0.0008861475384
0.0008861475288
0.0008861475114
0.0008861474902
0.0008861474661
0.0008861474038
0.0008861475533
0.0008861475994
0.0008861473779
0.0008861474004
0.000886147413
0.0008861474218
0.000886147432
0.0008861474498
0.00088614745
0.0008861474135
0.0008861473891
0.0008861473326
0.0008861473298
0.000886147355
0.0008861474332
0.0008861473947
0.0008861473959
0.0008861473952
0.0008861474072
0.0008861474496
0.000886147492
0.0008861475188
0.000886147532
0.0008861475341
0.0008861475269
0.0008861475125
0.0008861474909
0.0008861474555
0.0008861473803
0.0008861472089
0.0008861471778
0.0008861473341
0.0008861473855
0.0008861474089
0.000886147423
0.0008861474362
0.0008861474426
0.0008861474288
0.0008861474013
0.0008861473736
0.0008861473615
0.000886147367
0.0008861473771
0.0008861473951
0.0008861474004
0.0008861474013
0.0008861474015
0.000886147409
0.0008861474362
0.000886147473
0.000886147503
0.0008861475202
0.000886147525
0.0008861475187
0.0008861474995
0.00088614746
0.0008861474014
0.0008861473376
0.0008861472612
0.0008861471943
0.0008861472586
0.0008861473465
0.0008861473905
0.000886147413
0.0008861474298
0.0008861474265
0.000886147393
0.0008861473923
0.0008861473645
0.0008861473666
0.0008861473746
0.0008861473815
0.0008861473874
0.0008861474025
0.0008861474031
0.0008861474036
0.0008861474099
0.00088614743
0.0008861474593
0.0008861474864
0.0008861475026
0.0008861475025
0.0008861474823
0.000886147442
0.0008861474008
0.0008861473781
0.0008861473669
0.0008861473569
0.0008861473425
0.0008861473233
0.000886147322
0.000886147357
0.0008861473897
0.0008861474125
0.0008861474064
0.0008861473681
0.0008861473854
0.000886147352
0.0008861473607
0.0008861473722
0.0008861473798
0.0008861473835
0.000886147403
0.0008861474037
0.0008861474049
0.0008861474115
0.0008861474278
0.0008861474505
0.000886147471
0.0008861474703
0.0008861474343
0.0008861474056
0.0008861473924
0.0008861473852
0.0008861473797
0.0008861473747
0.0008861473688
0.0008861473598
0.0008861473446
0.0008861473283
0.0008861473347
0.0008861473606
0.0008861473867
0.0008861473851
0.0008861473507
0.0008861473791
0.0008861473375
0.0008861473454
0.0008861473615
0.0008861473727
0.0008861473776
0.000886147403
0.0008861474039
0.0008861474079
0.0008861474158
0.0008861474277
0.0008861474435
0.0008861474566
0.0008861474488
0.0008861474199
0.0008861473961
0.0008861473785
0.0008861473421
0.0008861472861
0.0008861472754
0.0008861473071
0.0008861473282
0.0008861473328
0.0008861473267
0.0008861473256
0.0008861473383
0.0008861473592
0.0008861473674
0.0008861473441
0.0008861473726
0.0008861473306
0.0008861473255
0.000886147341
0.0008861473573
0.0008861473659
0.0008861474024
0.000886147404
0.0008861474077
0.0008861474161
0.0008861474258
0.000886147437
0.0008861474432
0.0008861474318
0.0008861474064
0.0008861473794
0.0008861473483
0.000886147296
0.000886147215
0.0008861471859
0.0008861472671
0.0008861473164
0.0008861473328
0.0008861473346
0.0008861473323
0.0008861473353
0.000886147343
0.0008861473513
0.0008861473429
0.0008861473668
0.0008861473335
0.0008861473165
0.0008861473168
0.0008861473323
0.0008861473458
0.0008861474011
0.0008861474024
0.0008861474049
0.0008861474117
0.0008861474223
0.00088614743
0.0008861474289
0.0008861474123
0.0008861473847
0.0008861473514
0.0008861473102
0.0008861472569
0.0008861472013
0.0008861471982
0.0008861472635
0.000886147314
0.0008861473362
0.0008861473435
0.000886147359
0.0008861473661
0.0008861473652
0.0008861473623
0.0008861473586
0.0008861473633
0.0008861474169
0.0008861474672
0.0008861473156
0.0008861473152
0.0008861473198
0.0008861473971
0.0008861473987
0.0008861473988
0.0008861474008
0.0008861474116
0.0008861474162
0.0008861474099
0.0008861473939
0.0008861473744
0.0008861473541
0.0008861473304
0.0008861473001
0.0008861472675
0.0008861472567
0.000886147285
0.0008861473202
0.0008861473418
0.0008861473606
0.0008861473676
0.0008861473669
0.0008861473659
0.0008861473655
0.0008861473621
0.000886147362
0.0008861474328
0.0008861474651
0.0008861473494
0.0008861473592
0.0008861473624
0.0008861474045
0.0008861473982
0.0008861473939
0.0008861473915
0.000886147398
0.0008861474006
0.0008861473961
0.000886147388
0.0008861473793
0.0008861473697
0.0008861473571
0.0008861473392
0.000886147317
0.0008861473025
0.0008861473099
0.00088614733
0.000886147354
0.0008861473701
0.0008861473655
0.000886147367
0.0008861473678
0.0008861473672
0.0008861473654
0.0008861473647
0.000886147387
0.0008861473926
0.0008861473652
0.0008861473777
0.0008861474122
0.0008861474277
0.0008861473989
0.0008861473916
0.0008861473907
0.0008861473943
0.0008861473955
0.0008861473935
0.0008861473898
0.0008861473851
0.0008861473789
0.0008861473698
0.0008861473566
0.0008861473403
0.0008861473278
0.0008861473281
0.0008861473439
0.0008861473669
0.0008861473664
0.0008861473666
0.0008861473692
0.00088614737
0.0008861473692
0.0008861473686
0.0008861473651
0.0008861473435
0.0008861473544
0.0008861473492
0.0008861473817
0.0008861474242
0.0008861474444
0.0008861473945
0.0008861473913
0.0008861473938
0.000886147396
0.0008861473962
0.0008861473947
0.0008861473921
0.0008861473884
0.0008861473833
0.000886147377
0.0008861473707
0.0008861473661
0.0008861473637
0.0008861473632
0.0008861473655
0.0008861473744
0.0008861473678
0.0008861473682
0.0008861473725
0.0008861473725
0.0008861473713
0.0008861473736
0.0008861473822
0.00088614733
0.00088614721
0.0008861473383
0.0008861473809
0.0008861474175
0.0008861474417
0.0008861473886
0.000886147395
0.0008861473979
0.0008861473981
0.0008861473972
0.0008861473954
0.0008861473927
0.0008861473889
0.0008861474161
0.0008861474062
0.0008861473892
0.0008861473815
0.00088614738
0.0008861474163
0.0008861474282
0.0008861474054
0.000886147377
0.0008861473745
0.0008861473804
0.0008861473765
0.0008861473731
0.0008861473715
0.0008861473717
0.0008861473759
0.0008861473825
0.0008861473789
0.0008861473738
0.0008861473856
0.0008861473916
0.0008861473888
0.0008861473924
0.0008861473939
0.0008861473945
0.0008861473951
0.0008861473956
0.0008861473956
0.0008861473951
0.0008861473954
0.0008861473944
0.0008861473937
0.0008861473933
0.000886147393
0.0008861473931
0.000886147393
0.0008861473926
0.0008861473904
0.00088614739
0.0008861473878
0.0008861473802
0.0008861473779
0.0008861473745
0.0008861473725
0.0008861475152
0.0008861477961
0.0008861478462
0.0008861477079
0.0008861477781
0.0008861476493
0.000886147592
0.0008861475446
0.0008861474255
0.0008861474594
0.0008861475012
0.0008861477135
0.0008861474354
0.000886147501
0.0008861475964
0.0008861481346
0.000886147468
0.0008861476962
0.0008861481061
0.0008861506895
0.0008861475108
0.0008861474707
0.000886147458
0.0008861474472
0.0008861474823
0.0008861474269
0.0008861474224
0.0008861475369
0.000886147424
0.0008861474285
0.0008861475359
0.0008861474381
0.0008861474529
0.0008861475328
0.0008861474757
0.0008861475189
0.0008861475839
0.0008861475823
0.0008861476222
0.0008861475571
0.0008861476429
0.0008861476546
0.0008861475258
0.0008861476606
0.0008861476704
0.0008861475112
0.0008861476859
0.0008861477119
0.000886147506
0.0008861477776
0.0008861479353
0.0008861474956
0.0008861480028
0.0008861479147
0.0008861474223
0.0008861474223
0.0008861474223
0.000886147984
0.0008861479571
0.0008861479747
0.0008861474223
0.0008861474227
0.0008861478063
0.0008861479142
0.0008861474231
0.000886147424
0.0008861474229
0.0008861474228
0.0008861478207
0.0008861477397
0.0008861477754
0.0008861474218
0.0008861474239
0.0008861474208
0.0008861474207
0.0008861476637
0.0008861475989
0.0008861476266
0.000886147426
0.0008861474466
0.0008861474896
0.0008861475349
0.0008861475933
0.0008861475766
0.0008861475874
0.0008861475748
0.0008861476279
0.0008861475906
0.0008861475412
0.0008861475776
0.0008861475652
0.0008861475803
0.0008861475654
0.0008861475706
0.0008861476058
0.0008861475676
0.0008861475537
0.0008861475584
0.0008861475448
0.0008861475512
0.0008861475337
0.0008861475366
0.0008861475218
0.0008861475244
0.0008861475461
0.0008861475727
0.0008861475167
0.0008861475828
0.0008861475604
0.0008861475872
0.0008861475481
0.0008861475532
0.000886147596
0.0008861475592
0.0008861475774
0.000886147531
0.0008861475174
0.0008861475186
0.0008861475491
0.0008861475253
0.0008861475342
0.000886147516
0.0008861475123
0.0008861475165
0.000886147523
0.0008861475179
0.0008861475042
0.0008861475223
0.0008861475232
0.0008861474277
0.000886147421
0.0008861474314
0.0008861474344
0.0008861474344
0.0008861474404
0.0008861474502
0.0008861474501
0.0008861474675
0.0008861475072
0.0008861474263
0.0008861474229
0.0008861474248
0.0008861474475
0.00088614743
0.0008861474404
0.000886147517
0.00088614746
0.0008861475057
0.0008861476336
0.0008861475789
0.0008861476193
0.0008861476526
0.0008861476313
0.0008861476307
0.000886147665
0.0008861476329
0.0008861476454
0.0008861477356
0.0008861476678
0.0008861477611
0.0008861480021
0.0008861479255
0.0008861479902
0.0008861474357
0.0008861474473
0.0008861474845
0.0008861474236
0.000886147503
0.0008861475932
0.0008861474243
0.0008861474234
0.0008861474243
0.0008861474352
0.0008861474267
0.0008861474322
0.0008861474958
0.000886147445
0.0008861474857
0.0008861476131
0.0008861475696
0.0008861476078
0.0008861476223
0.0008861476185
0.000886147616
0.0008861476582
0.0008861476279
0.0008861477179
0.0008861478562
0.0008861477966
0.0008861478557
0.000886147947
0.000886147866
0.0008861478812
0.0008861474514
0.0008861474276
0.0008861474591
0.000886147475
0.0008861474695
0.0008861474895
0.0008861475528
0.0008861474309
0.0008861474243
0.0008861474286
0.0008861474779
0.0008861474348
0.0008861474749
0.0008861476111
0.0008861475516
0.0008861476422
0.0008861476228
0.0008861476521
0.0008861476811
0.0008861477653
0.0008861477217
0.0008861477126
0.000886147789
0.0008861477233
0.0008861477185
0.000886147447
0.0008861475273
0.0008861475357
0.0008861475603
0.0008861476262
0.0008861477192
0.0008861477448
0.0008861474845
0.000886147422
0.000886147516
0.0008861477466
0.0008861476375
0.0008861478635
0.0008861477844
0.0008861479171
0.000886147765
0.0008861476121
0.0008861475947
0.0008861475634
0.0008861476956
0.0008861474531
0.0008861475504
0.0008861475381
0.0008861474459
0.0008861474202
0.0008861474308
0.0008861474197
0.0008861474281
0.000886147417
0.0008861475544
0.000886147576
0.0008861476431
0.0008861475567
0.0008861475368
0.0008861475725
0.0008861475786
0.0008861475344
0.0008861475558
0.0008861475527
0.0008861475294
0.0008861475296
0.0008861475223
0.0008861475866
0.0008861475619
0.0008861476033
0.000886147538
0.0008861475283
0.0008861475351
0.0008861475172
0.0008861475136
0.0008861475232
0.0008861475084
0.0008861475097
0.0008861475306
0.0008861474961
0.0008861475312
0.0008861474224
0.0008861474192
0.00088614743
0.0008861474409
0.000886147423
0.0008861474341
0.0008861474699
0.0008861475908
0.0008861476492
0.0008861476547
0.0008861476838
0.0008861478795
0.0008861479848
0.0008861474223
0.0008861474231
0.0008861474395
0.0008861474452
0.0008861474602
0.0008861474715
0.0008861475502
0.0008861474232
0.0008861474276
0.000886147452
0.000886147574
0.0008861476241
0.0008861476273
0.000886147714
0.0008861479251
0.0008861479264
0.0008861474233
0.0008861474261
0.0008861474399
0.0008861475654
0.0008861476214
0.000886147656
0.0008861477935
0.0008861477965
0.0008861478561
0.0008861477229
0.000886147704
0.0008861475829
0.0008861475396
0.000886147525
0.000886147504
0.0008861474215
0.0008861474277
0.0008861475726
0.0008861478208
0.0008861476847
0.0008861476474
0.0008861476985
0.0008861475896
0.0008861475279
0.0008861474756
0.000886147429
0.000886147478
0.0008861476205
0.000886149472
0.0008861527461
0.0008861514416
0.0008861638797
0.0008861474327
0.0008861475102
0.0008861477436
0.0008861479747
0.0008861485434
0.0008861474661
0.0008861474673
0.0008861475194
0.0008861475488
0.0008861476029
0.0008861475147
0.0008861474699
0.00088614747
0.0008861474696
0.0008861474733
0.0008861474822
0.0008861474197
0.0008861475665
0.0008861476299
0.0008861474783
0.0008861474244
0.0008861474339
0.0008861474204
0.000886147604
0.0008861475791
0.0008861474265
0.0008861474292
0.0008861474289
0.0008861474183
0.000886147554
0.000886147524
0.0008861474321
0.0008861474327
0.0008861475023
0.0008861474261
0.0008861475357
0.0008861474969
0.0008861475931
0.0008861478439
0.0008861479088
0.0008861477703
0.0008861476321
0.0008861477365
0.0008861477399
0.0008861478123
0.0008861477069
0.0008861476776
0.0008861476451
0.0008861476146
0.0008861475865
0.0008861475619
0.0008861474403
0.0008861474551
0.0008861477509
0.0008861476496
0.000886147676
0.0008861475983
0.0008861476197
0.0008861476253
0.0008861475732
0.0008861475665
0.0008861475505
0.000886147533
0.0008861475235
0.0008861475906
0.0008861478045
0.0008861474833
0.0008861476373
0.000886147584
0.0008861475428
0.0008861475642
0.0008861475438
0.0008861474975
0.0008861474835
0.0008861474917
0.0008861474709
0.0008861476042
0.0008861475604
0.0008861475206
0.0008861475075
0.0008861479888
0.0008861488638
0.0008861476255
0.0008861478416
0.000886147791
0.0008861479862
0.0008861486419
0.0008861483293
0.0008861489864
0.0008861474769
0.0008861475475
0.0008861474836
0.0008861474643
0.0008861474982
0.000886147476
0.0008861474867
0.0008861474681
0.0008861474604
0.0008861474529
0.0008861474555
0.0008861474468
0.0008861475091
0.0008861475122
0.000886147465
0.0008861488883
0.0008861475526
0.000886147978
0.000886150659
0.0008861481077
0.0008861483764
0.0008861563628
0.0008861488123
0.0008861495358
0.000886151189
0.0008861476983
0.0008861474818
0.0008861475741
0.0008861478367
0.0008861475901
0.0008861476242
0.0008861481756
0.0008861476714
0.0008861477348
0.0008861478362
0.0008861475145
0.0008861474647
0.0008861474851
0.0008861475321
0.0008861474853
0.0008861474891
0.0008861475701
0.0008861474941
0.0008861475006
0.0008861475118
0.0008861474721
0.0008861474772
0.0008861474679
0.0008861474695
0.0008861474642
0.0008861474614
0.0008861474701
0.0008861474589
0.0008861474567
0.0008861474519
0.0008861474568
)
;

boundaryField
{
    walls
    {
        type            zeroGradient;
    }
    wallFilmFace_top
    {
        type            zeroGradient;
    }
    region0_to_wallFilmRegion_wallFilmFace
    {
        type            zeroGradient;
    }
    mirrorFace_top
    {
        type            zeroGradient;
    }
    region0_to_wallFilmRegion_mirrorFace
    {
        type            zeroGradient;
    }
    procBoundary2to0
    {
        type            processor;
        value           nonuniform List<scalar> 
26
(
0.0008861474063
0.0008861474095
0.0008861474447
0.0008861475004
0.0008861473828
0.000886147371
0.0008861473974
0.0008861473962
0.0008861473896
0.000886147377
0.0008861473588
0.0008861473354
0.0008861472889
0.0008861472648
0.0008861472416
0.0008861474083
0.0008861474081
0.0008861474061
0.0008861474014
0.0008861473908
0.0008861473657
0.0008861473527
0.0008861473536
0.0008861473605
0.0008861473574
0.0008861473825
)
;
    }
    procBoundary2to1
    {
        type            processor;
        value           nonuniform List<scalar> 
33
(
0.0008861471146
0.0008861471146
0.0008861473453
0.0008861473453
0.0008861472536
0.0008861472999
0.0008861474387
0.0008861474387
0.0008861474173
0.0008861475436
0.0008861474927
0.0008861474283
0.0008861474335
0.0008861474388
0.0008861474279
0.0008861474328
0.0008861474354
0.000886147446
0.0008861474455
0.0008861474375
0.0008861474077
0.0008861473861
0.0008861473699
0.0008861473567
0.0008861473492
0.0008861474252
0.0008861474044
0.0008861473944
0.0008861473806
0.0008861473455
0.000886147356
0.0008861473617
0.0008861473719
)
;
    }
    procBoundary2to3
    {
        type            processor;
        value           nonuniform List<scalar> 
64
(
0.0008861477569
0.0008861476728
0.0008861476396
0.0008861475818
0.0008862085226
0.0008861476396
0.0008861478854
0.0008861489641
0.0008861684106
0.0008861475291
0.0008861475835
0.000886147555
0.0008861475694
0.0008861475835
0.0008861475354
0.0008861475204
0.0008861475139
0.0008861475112
0.0008861475197
0.0008861475837
0.0008861475762
0.0008861475786
0.0008861475474
0.0008861475298
0.0008861475298
0.0008861475276
0.0008861475231
0.0008861475231
0.0008861475153
0.0008861475231
0.0008861474586
0.0008861474582
0.0008861474586
0.0008861475007
0.0008861475383
0.000886147428
0.0008861474166
0.0008861475291
0.0008861475548
0.0008861474586
0.0008862222118
0.0008861493249
0.0008861538538
0.0008861678537
0.0008861666196
0.0008861670818
0.000886147491
0.0008861474185
0.0008861476479
0.0008861476994
0.0008861476728
0.0008861476089
0.0008861258278
0.0008865057986
0.0008861476992
0.0008861922569
0.0008861807355
0.0008861482316
0.0008861738015
0.0008861706353
0.0008861687375
0.0008861667816
0.000886166698
0.0008861678366
)
;
    }
}


// ************************************************************************* //
