/*--------------------------------*- C++ -*----------------------------------*\
  =========                 |
  \\      /  F ield         | OpenFOAM: The Open Source CFD Toolbox
   \\    /   O peration     | Website:  https://openfoam.org
    \\  /    A nd           | Version:  8
     \\/     M anipulation  |
\*---------------------------------------------------------------------------*/
FoamFile
{
    version     2.0;
    format      ascii;
    class       volVectorField;
    location    "0.9/wallFilmRegion";
    object      U;
}
// * * * * * * * * * * * * * * * * * * * * * * * * * * * * * * * * * * * * * //

dimensions      [0 1 -1 0 0 0 0];

internalField   nonuniform List<vector> 
1342
(
(-0.07929127722 0.01059329309 0)
(0.0770193698 0.2160446078 0)
(-0.03016673806 0.008197659968 0)
(0.04612839861 -0.1983033874 0)
(0.2776072169 -0.5127771397 0)
(-0.134776433 -0.3713380901 0)
(-0.9132799395 0.5443571992 0)
(-0.8908703033 0.6655226836 0)
(-0.857891226 0.8083294738 0)
(-0.7999044419 0.9425407857 0)
(-0.7030149698 1.005913221 0)
(-0.5557021458 0.9122926512 0)
(-0.3925546121 0.6439111163 0)
(-0.03582510454 -0.7530474279 0)
(-0.014316016 -0.8168628338 0)
(-2.199179975e-05 0.8234647347 0)
(-0.0004623924895 1.06370991 0)
(-0.002245753236 1.362477831 0)
(-0.01484254388 1.703592157 0)
(-0.07026426921 2.007703999 0)
(-0.2630136131 2.047137067 0)
(-0.221537144 0.6925585253 0)
(-0.2047169991 0.3116780851 0)
(-0.2497168082 -0.07458581041 0)
(-0.1202322386 -0.9452637883 0)
(-0.03524080292 0.9314442865 0)
(0.2329989448 0.2318557871 0)
(0.06786840715 0.1638857884 0)
(-0.05936238319 0.1772818953 0)
(-0.06820640126 -0.1986197058 0)
(-0.2675742066 -0.5121024028 0)
(-0.3712301821 -0.5619941221 0)
(-0.4233938011 -0.4667049597 0)
(-0.6569754295 0.556825364 0)
(-0.6278158462 0.6854396373 0)
(-0.6054325263 0.8483399032 0)
(-0.5722106227 1.026746503 0)
(-0.5182175105 1.170364854 0)
(-0.4421978628 1.210595225 0)
(-0.3578013845 1.106171113 0)
(-0.3077477124 0.8762356069 0)
(-0.3800389404 0.8006873837 0)
(0.4553109336 0.8301307738 0)
(0.4424131932 1.027519694 0)
(0.4003695799 1.241873811 0)
(0.3434096256 1.42896654 0)
(-0.5770232599 1.20531662 0)
(-0.9993773101 1.042233841 0)
(-0.2578560444 -0.2171159479 0)
(-0.1890226806 -0.04202963211 0)
(-0.1258208286 -0.5230364168 0)
(-0.06984296086 -0.9301795849 0)
(-0.04916638029 0.9159669043 0)
(0.2248117347 0.1881261429 0)
(0.1404595368 0.1747492741 0)
(0.1862236631 0.1599116653 0)
(-0.005990188462 -0.122924238 0)
(-0.1790798286 -0.4325121781 0)
(-0.1818935898 -0.7626974284 0)
(-0.1729003648 -0.6690032588 0)
(-0.1567602404 -0.5420277495 0)
(-0.3548022133 0.5546854062 0)
(-0.3358645054 0.7095198745 0)
(-0.3195413721 0.8884873645 0)
(-0.3004473429 1.102803139 0)
(-0.2731512405 1.310109994 0)
(-0.2420244203 1.446731964 0)
(-0.2140129216 1.474750498 0)
(-0.1884407251 1.376616533 0)
(-0.1951158951 1.103975675 0)
(0.8380687711 0.8403954252 0)
(0.8017335581 0.9766937124 0)
(0.7241930274 1.139147801 0)
(0.520902284 1.205096266 0)
(-1.448757363 0.9717969273 0)
(-1.288639662 1.015104156 0)
(-0.3187223128 -0.3703396193 0)
(-0.4268548473 0.5088842706 0)
(-0.09090611759 -0.1152728573 0)
(0.05753333856 -0.9565525185 0)
(0.04442257858 0.9419651054 0)
(0.1272531536 -0.06200838719 0)
(0.04978915614 -0.1974185196 0)
(0.03573047464 -0.2791781049 0)
(0.04801684142 -0.6467234285 0)
(0.124025575 -0.9568686218 0)
(0.1349267174 -0.7991557517 0)
(0.1258174913 -0.6457376851 0)
(0.1033597615 -0.5323895216 0)
(0.1828294945 0.5565577954 0)
(0.1751280751 0.7298385261 0)
(0.1642301636 0.9589639562 0)
(0.1525839706 1.222120156 0)
(0.1193523473 1.469929204 0)
(0.04924497855 1.64264286 0)
(0.02194517128 1.711575528 0)
(0.02779593475 1.70865703 0)
(0.03031522284 1.685063803 0)
(0.9247112756 1.007626151 0)
(1.062275997 0.97493381 0)
(0.8928836646 1.040433895 0)
(0.3239633169 1.022085041 0)
(-1.522389799 0.9539881597 0)
(-1.325876648 1.057327654 0)
(-1.004674626 1.116945375 0)
(-0.7859822632 1.156267118 0)
(-0.5204209324 1.283072394 0)
(0.1460999545 -0.7702108495 0)
(0.1174347852 0.8137532127 0)
(0.07967353957 -0.4563603729 0)
(0.07916465124 -0.5062920696 0)
(0.08706834698 -0.6163758617 0)
(0.1218730305 -0.7879640834 0)
(0.150414215 -0.9861153693 0)
(0.1456868872 -0.9141783241 0)
(0.122066037 -0.7424033385 0)
(0.08220817228 -0.5403361295 0)
(0.4404911545 0.5598808097 0)
(0.4372466986 0.7186985914 0)
(0.4087784443 0.899253432 0)
(0.3281086558 1.044266374 0)
(0.192630383 1.07275947 0)
(0.07480923111 1.037793238 0)
(-0.01908558893 0.9577648236 0)
(0.04273692397 0.9456945587 0)
(0.1888307279 0.8692181037 0)
(1.152076858 0.8631370102 0)
(1.113718897 0.8682701956 0)
(0.7835770129 0.8328529185 0)
(0.3323180511 0.8671526829 0)
(-1.211846722 0.9478691073 0)
(-1.090140827 1.138217236 0)
(-0.8654554678 1.223417309 0)
(-0.6605045222 1.249959548 0)
(-0.4433829435 1.323197579 0)
(0.1460133318 -0.7204838501 0)
(0.1859378842 0.7416112376 0)
(0.06678833438 -0.3085342758 0)
(0.09494151752 -0.3811857148 0)
(0.08916876959 -0.4274866249 0)
(0.1007957943 -0.4733006537 0)
(0.1515413155 -0.5484612296 0)
(0.2326122077 -0.6869413911 0)
(0.2440913792 -0.8371127345 0)
(0.2314387968 -0.7600791363 0)
(0.05216919461 -0.4931919377 0)
(0.7033457486 0.5620205478 0)
(0.6846914104 0.7060009815 0)
(0.5974134187 0.8210301166 0)
(0.4712295596 0.897541782 0)
(0.3096089959 0.9136677489 0)
(0.09741793477 0.8772847154 0)
(0.0343518655 0.8439099268 0)
(0.2207969779 0.7763930039 0)
(0.3817586455 0.6564402846 0)
(0.7644590119 0.6632083286 0)
(0.6330547264 0.6348660129 0)
(0.4316877556 0.5940321075 0)
(0.3305318655 0.6559348833 0)
(-0.6786101703 0.9409387909 0)
(-0.6303930637 1.240493948 0)
(-0.5285401343 1.427386632 0)
(-0.4155919506 1.459341408 0)
(-0.2951258902 1.41453113 0)
(0.1823704867 -0.6378375998 0)
(0.2402624094 0.7033989196 0)
(-0.1653342273 -0.1853931277 0)
(-0.1026536423 0.07496949424 0)
(-0.006911227542 -0.1267810014 0)
(0.03613949985 -0.3128041362 0)
(0.05498444234 -0.4508336455 0)
(0.1205116369 -0.5895550203 0)
(0.1264717605 -0.5968185615 0)
(0.01123197727 -0.3757817494 0)
(-0.266351858 0.104461085 0)
(0.8940237901 0.5265676513 0)
(0.9148674576 0.6287935333 0)
(0.8092116146 0.7567499067 0)
(0.6417703179 0.8190149014 0)
(0.3938095627 0.8261914304 0)
(0.08450266603 0.8361330545 0)
(0.1249212349 0.8158267578 0)
(0.3012256212 0.7559033893 0)
(0.3694701139 0.6536005873 0)
(0.4111909757 0.5638747304 0)
(0.3677687783 -0.1485579249 0)
(0.2657789242 -1.212462675 0)
(0.2273195239 -0.9186516009 0)
(0.2439029161 0.9395900755 0)
(0.2432232244 1.406436912 0)
(0.2419056581 1.821985836 0)
(0.2430394646 2.024119851 0)
(0.2433040322 2.003320354 0)
(0.2492107406 1.416056365 0)
(0.28703678 0.7281733443 0)
(0.02137067917 -0.6832834131 0)
(0.02076646154 -0.7678348271 0)
(0.06346285444 -0.7835266652 0)
(0.09780832651 -0.7835728847 0)
(0.125588421 -0.7615899278 0)
(0.08566882358 -0.6743485981 0)
(-0.006024798753 -0.4246420482 0)
(-0.1227113374 -0.03982463203 0)
(-0.3265704203 0.2019218569 0)
(0.8853204476 0.4319244634 0)
(1.092730326 0.5653271387 0)
(1.014483828 0.6644439924 0)
(0.8212850491 0.7424846375 0)
(0.5956391175 0.8308410193 0)
(0.3954358569 1.037807894 0)
(0.305175295 1.130615688 0)
(0.3150572519 1.021309678 0)
(0.3309839178 0.8903311016 0)
(0.3392532075 0.7705219161 0)
(0.3375112449 0.5528205393 0)
(0.3304370233 0.0831770429 0)
(0.278313059 -0.9123022028 0)
(0.9087679752 0.9421769127 0)
(0.8345502432 1.297038089 0)
(0.7065731099 1.559171631 0)
(0.5698336484 1.647176082 0)
(0.4603054518 1.646247687 0)
(0.3987205592 1.248925453 0)
(0.3301024699 0.7322220651 0)
(0.0503220976 -1.038136455 0)
(0.08245792216 -0.7678759757 0)
(0.103547784 -0.6644216298 0)
(0.0995799622 -0.6041581244 0)
(0.09047490732 -0.5794146436 0)
(0.1336104236 -0.5655760815 0)
(0.04504546276 -0.3371752792 0)
(-0.4114704322 0.3107536505 0)
(-0.4371239186 0.289832354 0)
(0.373784391 0.3706503394 0)
(0.6092113838 0.4308607123 0)
(0.6479254527 0.4801168779 0)
(0.5761021783 0.5934294103 0)
(0.4678006845 0.7484350934 0)
(0.4156068891 0.9804433876 0)
(0.3997052151 1.187268434 0)
(0.3785199409 1.205857479 0)
(0.3640664855 1.107581472 0)
(0.3525298574 0.9728795839 0)
(0.34150278 0.8369865757 0)
(0.3270381455 0.6506670606 0)
(0.3417412723 0.5038363282 0)
(1.395195824 0.9283075162 0)
(1.25026516 1.184255546 0)
(0.9980046072 1.333605447 0)
(0.7619416782 1.384755457 0)
(0.605398694 1.460962472 0)
(0.5323102339 1.031285986 0)
(0.3561072317 0.7582158307 0)
(0.1728867827 -0.9600797582 0)
(0.1852537269 -0.7012952117 0)
(0.1675855365 -0.4876109331 0)
(0.1531933402 -0.394882271 0)
(0.1446787364 -0.3194375993 0)
(0.08604232135 -0.2505375348 0)
(0.2864480867 -0.2160018732 0)
(-0.2354910232 0.1853547864 0)
(-0.3992388533 0.2594403939 0)
(0.02614753342 0.3750181869 0)
(0.3094535494 0.3782537991 0)
(0.4031975933 0.45816596 0)
(0.4245896856 0.58228229 0)
(0.4574669866 0.75786579 0)
(0.4993406083 0.9698603147 0)
(0.5126622425 1.176919424 0)
(0.4784154087 1.264045752 0)
(0.4337365516 1.211540232 0)
(0.3972973729 1.075609883 0)
(0.3636569034 0.9445677552 0)
(0.3393017657 0.8200324944 0)
(0.3772898649 0.7450794866 0)
(1.661297116 0.9272123522 0)
(1.438638526 1.090465428 0)
(1.104694867 1.171626843 0)
(0.8818565267 1.241059538 0)
(0.7689031548 1.376623797 0)
(0.6524140304 0.9036786029 0)
(0.3640428858 0.8144898597 0)
(0.09861763369 -0.3997805221 0)
(0.01842106776 -0.2852120594 0)
(-0.02696879026 -0.263962852 0)
(-0.03619803536 -0.2552081099 0)
(0.01564506952 -0.2187109738 0)
(0.1292083367 -0.1534695678 0)
(0.2418561038 -0.007231516149 0)
(0.03635417612 0.1374888927 0)
(-0.1755698112 0.2358334554 0)
(0.09589870847 0.3681368803 0)
(0.296894816 0.4175536112 0)
(0.4184247061 0.5018977905 0)
(0.5151305451 0.6261090256 0)
(0.5935148579 0.7813311944 0)
(0.6411400759 0.9545101283 0)
(0.6409671629 1.129699199 0)
(0.5761200018 1.229139626 0)
(0.477292693 1.21521496 0)
(0.4241922996 1.08026642 0)
(0.3800446748 0.9476777421 0)
(0.3952555383 0.8670167353 0)
(0.4488233552 0.8036648652 0)
(1.689873309 0.9244155035 0)
(1.433848337 1.017818547 0)
(1.15348104 1.097011342 0)
(1.011036873 1.187887283 0)
(0.9247407814 1.322397181 0)
(0.7887458486 0.8434021472 0)
(0.3549517651 0.895436639 0)
(0.052047231 -0.3766890854 0)
(-0.03268556901 -0.3724735535 0)
(-0.08186763423 -0.3891746178 0)
(-0.08422846884 -0.3844123553 0)
(-0.007046813986 -0.3001401417 0)
(0.09606678919 -0.1278010465 0)
(0.275747293 0.05427224999 0)
(0.1787862214 0.1500475271 0)
(-0.04054528407 0.245002198 0)
(0.320695569 0.4050552168 0)
(0.4883636378 0.4703785433 0)
(0.6091552668 0.5494911584 0)
(0.7026427293 0.6537889102 0)
(0.7633255752 0.7755679424 0)
(0.7863888978 0.9070229503 0)
(0.7605856314 1.041294787 0)
(0.6785683254 1.124968057 0)
(0.5605138146 1.110575873 0)
(0.477542183 1.025963108 0)
(0.4667232027 0.9312965254 0)
(0.4817503519 0.8510450251 0)
(0.5677428731 0.8027332843 0)
(1.564959469 0.9067545315 0)
(1.376218563 0.9860114107 0)
(1.222381238 1.067355717 0)
(1.149359574 1.158563937 0)
(1.051690809 1.266337518 0)
(0.8767061365 0.8471436515 0)
(0.3313276995 0.9926489438 0)
(0.2396406082 -0.8765317499 0)
(0.2213420308 -0.8492239626 0)
(0.1810562074 -0.7959421997 0)
(0.06780158544 -0.7150870811 0)
(-0.06344118816 -0.3938207313 0)
(-0.2369860134 -0.03004990262 0)
(0.3613849238 0.0494215588 0)
(0.2840231828 0.1315000656 0)
(0.3231010885 0.4528946853 0)
(0.5478701339 0.4670675679 0)
(0.6924124871 0.5197489705 0)
(0.8003173233 0.5888279183 0)
(0.8716531983 0.6671716764 0)
(0.9063899595 0.7476254404 0)
(0.9043232336 0.8266524307 0)
(0.8541761798 0.9199496085 0)
(0.7627051922 0.9881506605 0)
(0.6555370478 0.9839991207 0)
(0.5869030719 0.9215763086 0)
(0.566385368 0.8442128553 0)
(0.6043811889 0.7814819277 0)
(0.7206342481 0.7701133367 0)
(1.382282529 0.8864896389 0)
(1.371444884 0.9682358105 0)
(1.32453809 1.048799183 0)
(1.258548951 1.12735685 0)
(1.11927416 1.203236859 0)
(0.9134773777 0.8356941977 0)
(0.3014255464 1.068355865 0)
(0.08044780745 -0.5298173193 0)
(-0.01731940862 -0.4568973564 0)
(-0.1830375171 -0.3920308045 0)
(-0.3829257074 -0.3131184713 0)
(-0.4598040414 -0.1206721223 0)
(-0.569705183 0.1107247681 0)
(-0.085336377 -0.2526445924 0)
(0.4738229786 0.241630555 0)
(0.5843846709 0.5115358142 0)
(0.7140603878 0.5189301265 0)
(0.8368256703 0.5724341504 0)
(0.9297584959 0.6391371296 0)
(0.9708061775 0.6897700035 0)
(0.9596865442 0.7185645136 0)
(0.9330149687 0.7531396874 0)
(0.8884657714 0.7892950157 0)
(0.8232365711 0.8119251828 0)
(0.7176504092 0.805965578 0)
(0.5595619944 0.7912986548 0)
(0.4641997362 0.7582611592 0)
(0.5021120734 0.6805457601 0)
(0.5445456294 0.6877538181 0)
(0.9619513762 0.7879053413 0)
(1.241746769 0.9050633327 0)
(1.30737403 0.9983733878 0)
(1.250393149 1.070960866 0)
(1.094220208 1.127546121 0)
(0.9021701568 0.7691396656 0)
(0.2832728113 1.073595694 0)
(0.03610150808 -0.2962219442 0)
(-0.1014097081 -0.3338166304 0)
(-0.1525046307 -0.3565278772 0)
(-0.01214891077 -0.2641638361 0)
(-0.3877329482 0.1784996296 0)
(-0.7797703985 0.2809657956 0)
(-0.8633633862 0.3337939286 0)
(-0.4638048932 0.3473443837 0)
(0.1303507601 0.4378240299 0)
(0.7296938268 0.5546034039 0)
(0.8906543733 0.6326289377 0)
(0.9222733221 0.6693076719 0)
(0.8754148483 0.6684118578 0)
(0.7928364046 0.6638874195 0)
(0.6619400403 0.6272663594 0)
(0.5047478222 0.5622886772 0)
(0.3715680262 0.4884284404 0)
(0.2532881945 0.4209595649 0)
(0.1239578445 0.4345087024 0)
(0.0290937166 0.569400226 0)
(0.1170564707 0.6370984111 0)
(0.3222095966 0.6699128915 0)
(0.6192195043 0.6750282315 0)
(0.8810903076 0.780043157 0)
(1.034964188 0.8809018544 0)
(1.054689129 0.961853497 0)
(0.9769065695 1.02487925 0)
(0.8721606185 0.6685463821 0)
(0.286182229 1.026119233 0)
(0.035216515 -0.3106376523 0)
(-0.008351546019 -0.2498722164 0)
(0.0650442079 -0.1610886564 0)
(0.1379170856 -0.1573464595 0)
(0.3010542816 0.01611814223 0)
(-0.5356576054 0.2490723491 0)
(-0.729479713 0.3280099033 0)
(-0.2060087049 0.3593027936 0)
(0.3977742769 0.4548674512 0)
(0.7714284141 0.5863664139 0)
(0.8685633687 0.6723582838 0)
(0.8201535426 0.6525816764 0)
(0.7523810024 0.643423753 0)
(0.6578747608 0.6215917463 0)
(0.5369527729 0.5788476618 0)
(0.4038027565 0.5216688301 0)
(0.2677537098 0.4560669813 0)
(0.1184462908 0.4098414201 0)
(-0.05086705575 0.4386313796 0)
(-0.2291575317 0.4903946116 0)
(-0.5039686146 -0.1216710764 0)
(0.256999615 0.671066461 0)
(0.3426271117 0.6973400828 0)
(0.5834887328 0.7339483727 0)
(0.7445326405 0.7943533979 0)
(0.8302675338 0.8594441024 0)
(0.8818338289 0.9182820824 0)
(0.8401167706 0.5621279313 0)
(0.300448324 0.9689809448 0)
(-0.005267178955 -0.339722244 0)
(0.07851061677 -0.05079424985 0)
(0.1158664818 0.05273856345 0)
(0.1555651687 0.1123655238 0)
(0.2786527499 0.1284072678 0)
(-0.5166191572 0.2860132119 0)
(-0.6867184789 0.3479372233 0)
(0.1591618541 0.3809740414 0)
(0.6195901153 0.465231556 0)
(0.8047834759 0.5918355906 0)
(0.7973489606 0.6507056636 0)
(0.7383479628 0.6281173044 0)
(0.6671853349 0.6155398466 0)
(0.582438052 0.5928426949 0)
(0.4824760792 0.5567426238 0)
(0.3685234332 0.507144318 0)
(0.2547102186 0.4694503265 0)
(0.1043768529 0.505523093 0)
(-0.2294537166 0.6296770588 0)
(-0.509768477 -0.3980679048 0)
(-0.8605752862 -1.035701216 0)
(0.2850448351 0.945869222 0)
(0.3665824783 0.7250156735 0)
(0.5111789201 0.7293715447 0)
(0.6354221792 0.7593963478 0)
(0.7330667286 0.8064596272 0)
(0.8336660521 0.8539871602 0)
(0.7471884911 0.394937781 0)
(0.3169156108 0.9285009713 0)
(0.3452350529 -0.6680116209 0)
(0.6511440614 -0.8236613842 0)
(0.6691766306 -0.640425889 0)
(0.6760507739 -0.4478891714 0)
(0.594796634 -0.1860904293 0)
(0.7195990385 0.3270427614 0)
(0.7403782479 0.4540093843 0)
(0.6823819543 0.5850994964 0)
(0.7627249577 0.6761727015 0)
(0.8435711414 0.711307979 0)
(0.7819149921 0.6675440853 0)
(0.7027063975 0.6196017325 0)
(0.6249448412 0.5963159552 0)
(0.5436350838 0.5721548303 0)
(0.4492228617 0.5368434069 0)
(0.3550304453 0.5065846835 0)
(0.3058154766 0.5337070652 0)
(0.327170824 0.6369331222 0)
(0.4616171179 0.8328234497 0)
(0.4163272102 0.875027039 0)
(0.6070593728 0.7230929016 0)
(0.3308441136 0.7294135331 0)
(0.4054888567 0.7231981784 0)
(0.5129209656 0.7281421813 0)
(0.6138053934 0.7469453425 0)
(0.7053718974 0.7809829286 0)
(0.7599617478 0.6901535878 0)
(0.6512194502 -0.1388231884 0)
(0.3363956745 0.9160480281 0)
(0.5576940675 -0.7934570863 0)
(0.7308953365 -0.8160810928 0)
(0.7549532233 -0.6503765075 0)
(0.764339566 -0.4783000254 0)
(0.7488577843 -0.3009582337 0)
(0.8324621556 0.34770211 0)
(0.8354718513 0.4561555678 0)
(0.8166589552 0.6071189577 0)
(0.854422535 0.756606697 0)
(0.8796968041 0.8003130326 0)
(0.8054974078 0.7131030484 0)
(0.7138347914 0.6372760526 0)
(0.6228810841 0.5909427532 0)
(0.5357893639 0.5553907909 0)
(0.4481083743 0.5318766547 0)
(0.4018427123 0.567182061 0)
(0.3937813056 0.6486265654 0)
(0.4384641316 0.7343181816 0)
(0.4956891225 0.7811448279 0)
(0.5389892138 0.8190310106 0)
(0.5020537582 0.8187213064 0)
(0.4260961922 0.763535548 0)
(0.451419301 0.7366021288 0)
(0.5301420162 0.7307032574 0)
(0.6137565591 0.7418915767 0)
(0.6955379334 0.7652520784 0)
(0.7163478579 0.5505765451 0)
(0.5126237851 -0.8298165789 0)
(0.3639327747 0.9104556921 0)
(0.6575248868 -0.8034137293 0)
(0.7835504718 -0.7910193518 0)
(0.8159394966 -0.6423616916 0)
(0.8323629582 -0.4831439019 0)
(0.8375489381 -0.3290647926 0)
(0.9240797287 0.36017179 0)
(0.9300136355 0.462348954 0)
(0.9146719177 0.6115582745 0)
(0.9327317984 0.7817836286 0)
(0.9116152329 0.8190686683 0)
(0.8494880084 0.7482959236 0)
(0.7541393419 0.6597119215 0)
(0.6552837499 0.6001166118 0)
(0.5753061438 0.5804371018 0)
(0.5335495117 0.6560666628 0)
(0.5361892238 0.7984735955 0)
(0.5199525436 0.8869101995 0)
(0.395452511 0.822730399 0)
(0.291511769 0.7555420996 0)
(0.2427941499 0.6808042564 0)
(0.206282461 0.6591171293 0)
(0.2094432126 0.6869342323 0)
(0.3283339011 0.7192110785 0)
(0.4900231747 0.7327762573 0)
(0.600918294 0.7409349975 0)
(0.684216287 0.754621821 0)
(0.6871143641 0.5260080771 0)
(0.4514624598 -0.9123972742 0)
(0.3922675632 0.9038513926 0)
(0.7064638268 -0.7667481997 0)
(0.8226154725 -0.7547202265 0)
(0.8700632791 -0.6269566376 0)
(0.8984942955 -0.4804981198 0)
(0.9167797604 -0.3375143969 0)
(1.009410979 0.3672386179 0)
(1.013628408 0.4752082403 0)
(1.016344577 0.6166657808 0)
(1.007292715 0.7686119883 0)
(0.9779571126 0.8109903828 0)
(0.9084562812 0.7523595077 0)
(0.7976899571 0.6747553717 0)
(0.5938687084 0.6655873373 0)
(0.3178401474 0.741995046 0)
(0.1970878463 0.7856628984 0)
(0.1528344569 0.7891764369 0)
(0.1094818353 0.777426605 0)
(0.05847354961 0.7568826601 0)
(-0.02023199501 0.7262875163 0)
(-0.1072475676 0.6751920351 0)
(-0.1050225475 0.6617324349 0)
(0.00011241931 0.6959224587 0)
(0.1746806059 0.7282843565 0)
(0.3981505579 0.7470967888 0)
(0.5631199739 0.7515949538 0)
(0.6658538588 0.7545724177 0)
(0.6731913336 0.519558479 0)
(0.5030519865 -0.9042966981 0)
(0.4174771917 0.8943907084 0)
(0.7180880629 -0.7010171515 0)
(0.835687954 -0.699589198 0)
(0.9065393786 -0.5994569878 0)
(0.9556517097 -0.4715661601 0)
(0.991086002 -0.3407045879 0)
(1.115929386 0.3667937706 0)
(1.104017221 0.4721606187 0)
(1.051162605 0.6144789825 0)
(1.020280707 0.707139354 0)
(0.9975423861 0.7361263921 0)
(0.9423495848 0.703185108 0)
(0.8232841576 0.6507747755 0)
(0.5894728149 0.6688277712 0)
(0.341069191 0.7455236149 0)
(0.1889234907 0.7701042292 0)
(0.09895988807 0.7606599389 0)
(-0.08856938843 0.7392040429 0)
(-0.2514749441 0.7871076895 0)
(-0.1673168353 0.8228345499 0)
(-0.03406485501 0.819151338 0)
(0.06712184508 0.8017617747 0)
(0.1442570139 0.7851010583 0)
(0.2524434795 0.7848494747 0)
(0.4017076345 0.7870324132 0)
(0.5445719959 0.7834131045 0)
(0.650383355 0.7767438149 0)
(0.6750687189 0.5374587379 0)
(0.6439428721 -0.3226145991 0)
(0.4388060883 0.8729933048 0)
(0.7030614585 -0.6098325349 0)
(0.8070692725 -0.6160371243 0)
(0.8992604716 -0.5484773061 0)
(0.9770772505 -0.449268811 0)
(1.038375608 -0.3375447395 0)
(1.245968986 0.3625627065 0)
(1.233198071 0.465684693 0)
(0.8642595121 0.5769415147 0)
(0.7007572485 0.6010644097 0)
(0.7615824223 0.621083597 0)
(0.8014684019 0.6084146118 0)
(0.7477297431 0.5929402709 0)
(0.6052039379 0.6535491296 0)
(0.4202606167 0.714294798 0)
(0.2973221105 0.7493917967 0)
(0.2954416656 0.8557127132 0)
(0.4094054879 1.146135527 0)
(0.3724081744 1.26435267 0)
(0.2633814133 1.154981764 0)
(0.2205836146 1.031745399 0)
(0.2343679915 0.9518530983 0)
(0.2783120156 0.9036477015 0)
(0.3473600886 0.8747105838 0)
(0.447030208 0.8564514922 0)
(0.508328657 0.8488326904 0)
(0.636476733 0.8434360197 0)
(0.6915111671 0.7104978431 0)
(0.7432697779 0.1372974577 0)
(0.3709962866 0.8476849038 0)
(0.6800813261 -0.5256452995 0)
(0.7418686127 -0.5124919797 0)
(0.839424396 -0.4650249284 0)
(0.9317342961 -0.3974051351 0)
(1.016620813 -0.3068260826 0)
(1.390956046 0.3545206764 0)
(1.37725263 0.4566045556 0)
(0.8375878589 0.5414925165 0)
(0.5678721617 0.5401232619 0)
(0.6012647931 0.5481575937 0)
(0.6769930401 0.5378812362 0)
(0.6874205208 0.570465656 0)
(0.6023349011 0.6299597461 0)
(0.5020484727 0.6835256687 0)
(0.4765522874 0.748864086 0)
(0.5575644369 0.9107731093 0)
(0.6300949088 1.11082725 0)
(0.5974211968 1.218892354 0)
(0.4943727049 1.213387402 0)
(0.4070232089 1.142095678 0)
(0.37749013 1.06598464 0)
(0.3949913093 1.008164555 0)
(0.4437811978 0.9689077874 0)
(-0.07507844102 0.4630431633 0)
(-0.1985204837 0.04171021769 0)
(-0.1751071551 0.03060965637 0)
(0.1204329892 0.4968795059 0)
(0.4524846733 -0.1040993415 0)
(0.2077392985 0.7736474543 0)
(0.676066011 -0.365462532 0)
(0.7304112678 -0.2786384987 0)
(0.8400923707 -0.4438598289 0)
(0.9659127882 -0.4276497244 0)
(1.141579943 -0.3084016301 0)
(1.565344559 0.3404729023 0)
(1.533357274 0.4372473274 0)
(1.016898067 0.4759854821 0)
(0.6655997574 0.487056356 0)
(0.5953851844 0.5262079598 0)
(0.6648032748 0.5655938215 0)
(0.6985512232 0.6429380471 0)
(0.6951108914 0.751013781 0)
(0.6977285443 0.8613254555 0)
(0.7227577916 0.9573913796 0)
(0.75538519 1.032365296 0)
(0.7705938265 1.088756127 0)
(0.7447421792 1.144911296 0)
(0.6663356443 1.183083653 0)
(0.5698180465 1.172838083 0)
(0.5087548175 1.129080175 0)
(0.5005264184 1.084580371 0)
(0.4974684543 0.6245594763 0)
(-0.203416923 -0.1380155724 0)
(-0.1132120601 -0.0944642836 0)
(-0.1467784297 -0.1609463813 0)
(0.07802138578 -0.1737105685 0)
(0.2179003166 -0.6944119834 0)
(0.04908024335 0.6385099386 0)
(0.6969205292 -0.2733096646 0)
(0.7768459344 -0.1968382975 0)
(0.9338504671 -0.4314894875 0)
(1.016244673 -0.5392673394 0)
(1.266198688 -0.3028635768 0)
(1.710188402 0.2911233949 0)
(1.648504294 0.3822257564 0)
(1.212354047 0.4025641787 0)
(0.9191814788 0.4632219303 0)
(0.7963553005 0.5785557201 0)
(0.8117759849 0.6836597116 0)
(0.8441371937 0.8032591641 0)
(0.8658746958 0.9279624711 0)
(0.8787937413 1.032549659 0)
(0.8847751595 1.100221752 0)
(0.8837103129 1.127327596 0)
(0.874097888 1.126169819 0)
(0.8471288774 1.125985442 0)
(0.7867889624 1.145076911 0)
(0.6999613009 1.159292831 0)
(0.6252683782 1.149010207 0)
(0.6090131353 0.9634309737 0)
(-0.09359918674 -0.1821709343 0)
(-0.1224054518 -0.2435928302 0)
(-0.1633436299 -0.1998055312 0)
(-0.2210594195 -0.3277332345 0)
(-0.1639859998 -0.3670832051 0)
(0.01317111645 -0.5082382039 0)
(0.1749702697 0.4616453236 0)
(0.5527856842 -0.1695567313 0)
(0.3575045479 -0.09506770712 0)
(0.03413035406 -0.1364960417 0)
(-0.01186055881 -0.2009198429 0)
(1.275113386 -0.2909648177 0)
(1.706044374 0.1768769308 0)
(1.663144309 0.2794776861 0)
(1.300278239 0.3359355676 0)
(1.102063995 0.4705793654 0)
(1.022912228 0.6288830652 0)
(1.00842908 0.7663226353 0)
(1.011351466 0.8914965323 0)
(1.009189953 1.004190273 0)
(0.9991128712 1.091455687 0)
(0.9839301298 1.140685616 0)
(0.9666883205 1.149025108 0)
(0.9482348276 1.127383473 0)
(0.9224826218 1.102857288 0)
(0.8745352823 1.104355332 0)
(0.8007545091 1.124464883 0)
(0.7253685492 1.135021709 0)
(0.1011597752 -0.1956064912 0)
(-0.04080821872 -0.2136954076 0)
(0.0402748532 -0.1350818255 0)
(-0.3282141099 -0.2508739906 0)
(-0.3323140963 -0.250097415 0)
(-0.2301513173 -0.2775842283 0)
(-0.1456951476 -0.3668577316 0)
(0.007344472997 0.3229611693 0)
(0.5208546836 -0.1442396014 0)
(0.1847469414 -0.1709020443 0)
(0.1032108819 -0.1583775469 0)
(0.2280211267 -0.2461338369 0)
(1.241728286 -0.3347691994 0)
(1.565014422 0.03594619679 0)
(1.599721643 0.1338995658 0)
(1.341355422 0.3044115779 0)
(1.246120166 0.486585958 0)
(1.19789529 0.6391234236 0)
(1.164643065 0.7726751473 0)
(1.140665937 0.888079542 0)
(1.118237365 0.9849997554 0)
(1.091088657 1.05722378 0)
(1.062322169 1.082711442 0)
(1.047921505 1.055459026 0)
(1.047934102 1.001712658 0)
(1.049857729 0.9643313359 0)
(1.039669218 0.9665598683 0)
(1.007322548 1.005499889 0)
(0.9435840202 1.065306246 0)
(0.6241228416 0.388184581 0)
(0.1959735184 -0.1231786685 0)
(-0.2928750755 -0.05064863329 0)
(-0.4538214351 -0.1004601561 0)
(-0.413316639 -0.1844684142 0)
(-0.2105721583 -0.2479910182 0)
(-0.08073878511 -0.25500333 0)
(0.004851680792 0.0359262755 0)
(-0.504412917 -0.3609287072 0)
(-0.5020656885 -0.310766172 0)
(0.2320920096 -0.2375708462 0)
(0.6059503187 -0.3180400048 0)
(1.185347456 -0.3505491229 0)
(1.329594259 -0.1454654354 0)
(1.313217033 -0.05886265408 0)
(1.121455956 0.3347298588 0)
(1.117350854 0.4903503246 0)
(1.128350925 0.5780152169 0)
(1.117977323 0.6922996745 0)
(1.075124171 0.803265756 0)
(0.9809906576 0.8944841583 0)
(0.7695438083 0.942337851 0)
(0.2795009996 0.8482873472 0)
(-0.07139106579 0.8031607665 0)
(-0.3445285467 0.7795275878 0)
(-0.5412849546 0.7782725238 0)
(-0.614318461 0.7759636543 0)
(-0.5783257954 0.7850918509 0)
(-0.5359759233 0.8439767396 0)
(-0.1056666525 0.7817998987 0)
(0.07092704385 0.2146892978 0)
(-0.3264828274 0.2497405801 0)
(-0.5713191914 0.2918447898 0)
(-0.5803656472 -0.02743691186 0)
(-0.338316176 -0.1706905764 0)
(-0.1441795163 -0.1848655863 0)
(-0.02789159582 -0.09322841433 0)
(0.4990314331 -0.08018168596 0)
(0.5717295788 -0.2330147083 0)
(0.5815962285 -0.1862659498 0)
(0.5884853006 -0.1289481764 0)
(0.745430411 -0.0275202271 0)
(0.7313962697 0.1423254096 0)
(0.7510137261 0.2052707996 0)
(1.001957006 0.2938350769 0)
(1.036093002 0.3239128964 0)
(0.9725672781 0.3506831143 0)
(0.8991810411 0.3799828368 0)
(0.8749110447 0.4091093956 0)
(0.885025418 0.4252734497 0)
(0.87024965 0.4249288298 0)
(0.8184160332 0.4207700074 0)
(0.7557420111 0.4258320641 0)
(0.6961277446 0.4390852499 0)
(0.643273901 0.4561478021 0)
(0.5951798892 0.4736684793 0)
(0.5545247811 0.4926042672 0)
(0.5139108427 0.5101396716 0)
(0.4734533135 0.5353248627 0)
(0.4370571586 0.5154704341 0)
(0.4603913555 0.5059352567 0)
(0.5224217185 0.3671607973 0)
(0.4984616932 0.1132017178 0)
(0.2925753638 0.0868871097 0)
(0.1568432951 0.1045061473 0)
(-0.06081683268 -0.01314128603 0)
(-0.6608768147 -0.0003521932694 -0.4365123317)
(-2.577559093 -0.02260968793 -15.00559735)
(-4.764398886 0.7476619185 -12.62346402)
(-2.724176788 0.8258372348 -14.38131684)
(-4.71870885 2.955072236 -11.59781374)
(-2.841263426 3.453878572 -13.5619009)
(-1.632537496 3.495173155 -13.79365266)
(-0.6762228906 3.546647798 -13.95592969)
(-7.74761179 -3.988941289 -7.429976512)
(-5.183160545 -4.935266261 -9.432291228)
(-3.376669299 -5.33214487 -10.13249471)
(-0.7280730761 -6.101198872 -11.61525562)
(-8.314816138 -4.932128189 -5.211997167)
(-5.637876639 -6.088631848 -6.644487921)
(-3.659526341 -6.540083748 -7.128178379)
(-0.7010069679 -7.487934494 -8.202403345)
(-9.436805965 -4.128661856 -2.590064147)
(-6.466890833 -5.097055586 -3.245422621)
(-4.175814449 -5.508550623 -3.495221731)
(-0.6777099157 -6.323442491 -4.012165449)
(-6.57972385 8.724130863 -4.227118806)
(-3.92481888 10.34025953 -5.049256538)
(-2.155987459 10.6554489 -5.199830023)
(-0.6760484983 10.92706723 -5.336283527)
(2.046596745e-08 -0.9714736984 -0.8515260845)
(0.0002064237896 -1.195655002 -2.327969333)
(3.376075821e-05 -1.32896676 -1.811522551)
(0 0.2102020671 -0.3704728007)
(2.160982404e-06 -1.362448988 -1.658082411)
(1.473195149e-06 -1.462280152 -3.804445229)
(0 0.3121517231 -0.4194687991)
(0 -0.7461301614 -5.65498283)
(0 -0.5139019358 -5.768988828)
(0 0.3718534234 -0.4486554364)
(0 -0.3506034597 -5.209685393)
(0 0.1028127442 -5.198432056)
(0 -0.0989124554 -0.4517265588)
(0 0.3670823708 -4.860432346)
(0 0.8434121494 -3.981337325)
(0 -0.3697163172 -0.3830638519)
(0 1.153763539 -5.016975721)
(0 1.338442197 -6.723298929)
(0 -0.3753567658 -0.3756693969)
(0 1.490212388 -6.65142237)
(0 1.632608057 -7.094952629)
(0 -0.3311089442 -0.2358518297)
(0 1.775714187 -7.223460381)
(0 1.914883675 -6.890794873)
(2.890990194e-07 -0.309163782 -0.03714744785)
(1.87690379e-06 1.869141016 -4.880959405)
(9.465423848e-06 2.05583299 -3.127352025)
(7.137090262e-06 0.1330186255 -1.135210594)
(0.0002637852599 3.827790241 -7.90067287)
(0.0005491552866 2.576849302 -7.690515876)
(-4.062654308e-05 -1.38138676 -2.139845844)
(-0.001082951839 -1.415810494 -2.407116665)
(-0.001313702308 -1.508061056 -2.461177399)
(0.001488505097 3.669438542 -8.357166658)
(-0.00419294662 4.729949275 -7.816938538)
(-0.004153831035 4.495506788 -8.111608321)
(0.002693023669 -1.725050661 -2.673099888)
(0.003199695511 -2.11783568 -2.345825385)
(-3.88329838 2.6758537 -11.08417026)
(0.009435558436 6.512222083 -5.614185513)
(0.001059120954 -2.492040258 -2.342256214)
(-2.391605709e-05 -2.510725653 -1.727298362)
(2.593696193e-05 -3.058457495 -2.456240007)
(-9.151527426e-07 -3.035098642 -2.057427661)
(-0.001157606024 7.101128062 -4.216160606)
(-1.725731887e-06 7.23185697 -2.835323364)
(5.231170604e-05 7.222874513 -3.902459654)
(0 -3.229284134 -2.087287794)
(0 -2.229756341 -1.038412851)
(0 -2.890137103 -1.499488312)
(0 -2.524117068 -1.15656022)
(0 7.065925486 -1.70482293)
(0 6.618960502 -0.8971839482)
(0 6.951419498 -1.44687212)
(0 2.076731273 0.5044840111)
(0 3.446930159 0.5345956651)
(0 4.795792763 0.2637606128)
(0 5.865956996 -0.2627865169)
(0.2100904158 0.319883313 -0.0005104960281)
(-0.1627593689 0.3957647853 -0.0006309863223)
(0.2282591887 0.3721767455 -0.0005930328615)
(-0.752389138 0.03234823187 -5.312743966e-05)