/*--------------------------------*- C++ -*----------------------------------*\
  =========                 |
  \\      /  F ield         | OpenFOAM: The Open Source CFD Toolbox
   \\    /   O peration     | Website:  https://openfoam.org
    \\  /    A nd           | Version:  8
     \\/     M anipulation  |
\*---------------------------------------------------------------------------*/
FoamFile
{
    version     2.0;
    format      ascii;
    class       volScalarField;
    location    "1.8/wallFilmRegion";
    object      kappa;
}
// * * * * * * * * * * * * * * * * * * * * * * * * * * * * * * * * * * * * * //

dimensions      [1 1 -3 -1 0 0 0];

internalField   nonuniform List<scalar> 
1369
(
0.6088100019
0.6088100016
0.6088100016
0.6088100016
0.6088100017
0.6088100019
0.6088100021
0.6088100019
0.6088100013
0.6088100013
0.6088100013
0.6088100015
0.6088100017
0.608810002
0.6088100025
0.6088100053
0.6088100076
0.6088100107
0.6088100019
0.6088100011
0.6088100011
0.6088100012
0.6088100014
0.6088100017
0.6088100022
0.6088100029
0.608810004
0.6088100055
0.6088100138
0.6088100153
0.6088100127
0.6088100018
0.6088100011
0.6088100011
0.6088100012
0.6088100014
0.6088100019
0.6088100025
0.6088100027
0.6088100013
0.6088100021
0.608810015
0.6088100171
0.6088100191
0.6088100219
0.6088100268
0.6088100346
0.6088100453
0.6088100018
0.608810001
0.6088100011
0.6088100012
0.6088100016
0.6088100022
0.6088100028
0.6088100026
0.6088100011
0.6088100016
0.608810016
0.6088100177
0.6088100188
0.6088100201
0.6088100223
0.6088100259
0.60881003
0.6088100263
0.6088138187
0.6088100018
0.6088100011
0.6088100012
0.6088100015
0.6088100019
0.6088100025
0.6088100033
0.6088100048
0.6088100071
0.6088100109
0.6088100173
0.6088100186
0.6088100185
0.6088100182
0.6088100178
0.608810018
0.6088100181
0.6088100116
0.6088100027
0.6088099996
0.6088099984
0.6088099969
0.6088099961
0.6088100021
0.6088100015
0.6088100018
0.6088100021
0.6088100023
0.6088100025
0.6088100029
0.6088100036
0.6088100049
0.6088100077
0.608810019
0.6088100208
0.6088100195
0.6088100173
0.6088100146
0.6088100122
0.6088100104
0.6088100072
0.6088100011
0.6088099987
0.6088099979
0.6088099963
0.6088099956
0.6088099964
0.6088099959
0.6088100022
0.6088100024
0.608810003
0.608810003
0.6088100029
0.6088100027
0.6088100027
0.6088100028
0.6088100031
0.6088100043
0.6088100224
0.6088100264
0.6088100238
0.6088100194
0.608810014
0.6088100091
0.608810006
0.6088100049
0.6088100013
0.6088100006
0.6088099978
0.6088099962
0.6088099948
0.6088099965
0.6088099961
0.6088099957
0.6088100023
0.6088100034
0.6088100045
0.6088100046
0.608810004
0.6088100033
0.6088100027
0.6088100024
0.6088100021
0.6088100023
0.6088100293
0.6088100421
0.6088100388
0.6088100321
0.6088100227
0.6088100131
0.6088100045
0.6088100009
0.6088099998
0.6088099989
0.6088099976
0.6088099961
0.6088099937
0.6088099963
0.6088099963
0.6088099959
0.6088100024
0.6088100041
0.6088100064
0.608810007
0.6088100059
0.608810004
0.6088100024
0.6088100029
0.6088099985
0.6088100015
0.6088100431
0.6088100976
0.6088101052
0.6088101069
0.6088100996
0.6088100793
0.6088100084
0.6088100009
0.6088099989
0.6088099972
0.6088099963
0.6088099951
0.6088099926
0.6088099937
0.6088099955
0.6088099948
0.6088099938
0.6088100024
0.6088100042
0.6088100079
0.608810008
0.6088100041
0.6088099992
0.6088099964
0.6088099944
0.6088099903
0.6088100012
0.6088100733
0.6088104389
0.608810686
0.6088110814
0.6088113906
0.6088101658
0.6088100056
0.608810001
0.6088100001
0.6088100025
0.6088099978
0.6088099952
0.6088099932
0.6088099954
0.6088099957
0.608809995
0.6088099948
0.6088100025
0.6088100038
0.608810008
0.6088100039
0.6088099984
0.6088099945
0.6088099931
0.6088100044
0.6088100017
0.6088100011
0.6088100134
0.6088101153
0.6088101557
0.6088101636
0.6088100408
0.608810007
0.6088100017
0.6088100005
0.6088099999
0.6088100022
0.6088099993
0.6088099966
0.6088099946
0.6088099963
0.6088099966
0.6088099921
0.6088099954
0.6088100027
0.6088100034
0.6088100049
0.6088100044
0.608810003
0.6088100022
0.6088100019
0.6088100018
0.6088100014
0.6088099966
0.6088100094
0.6088100142
0.6088100125
0.6088100111
0.6088100115
0.6088100031
0.6088100011
0.6088100002
0.6088099997
0.6088099997
0.6088099986
0.6088099978
0.6088099961
0.6088099959
0.6088099962
0.6088099958
0.6088099966
0.6088099961
0.6088100029
0.6088100036
0.6088100045
0.6088100051
0.6088100041
0.6088100032
0.6088100023
0.6088100006
0.6088099966
0.6088099919
0.6088100041
0.6088100044
0.6088100033
0.6088100005
0.6088100008
0.6088100025
0.6088100007
0.6088100001
0.6088099995
0.6088099984
0.6088099971
0.608809997
0.6088099959
0.6088099953
0.6088099959
0.608809996
0.6088099968
0.6088099954
0.6088099947
0.6088100031
0.6088100036
0.6088100044
0.6088100057
0.6088100055
0.6088100053
0.6088100049
0.6088100038
0.6088100023
0.6088100006
0.6088100028
0.6088099993
0.6088099929
0.6088100005
0.6088100008
0.6088100017
0.6088100007
0.6088100002
0.6088099995
0.6088099979
0.6088099963
0.6088099964
0.6088099951
0.6088099935
0.6088099949
0.6088099956
0.6088099963
0.6088099941
0.6088099936
0.608810003
0.6088100036
0.6088100043
0.6088100058
0.6088100062
0.6088100066
0.6088100068
0.608810006
0.6088100045
0.6088100033
0.6088100036
0.6088100033
0.6088100023
0.6088100006
0.608810001
0.6088100013
0.6088100008
0.6088100006
0.60881
0.6088099977
0.6088099964
0.6088099963
0.6088099948
0.6088099952
0.6088099944
0.6088099956
0.6088099956
0.6088099947
0.6088099931
0.6088100029
0.6088100035
0.6088100043
0.6088100056
0.6088100063
0.6088100074
0.6088100086
0.6088100088
0.6088100074
0.6088100057
0.6088100047
0.6088100038
0.6088100025
0.6088100007
0.6088100013
0.6088100013
0.6088100014
0.608810002
0.6088100029
0.608809998
0.6088099972
0.6088099967
0.6088099953
0.6088099938
0.6088099928
0.6088099946
0.6088099946
0.6088099937
0.6088099919
0.6088099933
0.6088099947
0.6088099924
0.6088099917
0.6088099914
0.6088100027
0.6088100033
0.6088100041
0.6088100051
0.6088100061
0.6088100076
0.6088100095
0.6088100103
0.6088100084
0.608810005
0.6088100026
0.6088100014
0.608810001
0.6088100009
0.6088100012
0.608810002
0.6088100041
0.6088100065
0.6088100065
0.6088099981
0.608809998
0.6088099973
0.6088099958
0.6088099936
0.6088099925
0.6088099935
0.6088099937
0.6088099929
0.6088099913
0.608809992
0.6088099928
0.6088099918
0.6088099909
0.6088099904
0.6088100025
0.6088100032
0.6088100038
0.6088100048
0.6088100058
0.6088100075
0.6088100097
0.6088100106
0.6088100079
0.6088100042
0.6088100021
0.6088100013
0.6088100009
0.6088100008
0.6088100008
0.6088100006
0.6088100002
0.608809999
0.6088099977
0.608809997
0.6088099963
0.6088099951
0.6088099941
0.6088099934
0.6088099932
0.608809993
0.6088099935
0.6088099927
0.6088099915
0.6088099917
0.6088099916
0.6088099926
0.6088099927
0.6088099917
0.6088100024
0.6088100031
0.6088100037
0.6088100045
0.6088100055
0.6088100073
0.6088100096
0.6088100105
0.6088100078
0.6088100042
0.6088100022
0.6088100014
0.608810001
0.6088100008
0.6088100005
0.60881
0.6088099995
0.6088099989
0.608809998
0.6088099975
0.6088099972
0.6088099965
0.6088099954
0.6088099947
0.6088099941
0.6088099933
0.6088099932
0.6088099925
0.608809992
0.6088099928
0.6088099929
0.6088099943
0.6088099945
0.6088100023
0.6088100029
0.6088100034
0.608810004
0.6088100048
0.608810006
0.6088100075
0.6088100085
0.6088100074
0.6088100045
0.6088100026
0.6088100016
0.6088100011
0.6088100006
0.6088100002
0.6088099995
0.608809999
0.6088099987
0.6088099982
0.6088099976
0.6088099979
0.6088099978
0.6088099967
0.6088099938
0.6088099923
0.6088099938
0.608809993
0.6088099926
0.6088099928
0.6088099936
0.6088099953
0.6088099964
0.6088100021
0.6088100028
0.6088100029
0.608810003
0.6088100029
0.6088100027
0.6088100023
0.608810002
0.6088100019
0.6088100023
0.6088100019
0.6088100009
0.6088100004
0.60881
0.6088099995
0.608809999
0.6088099985
0.6088099982
0.6088099979
0.6088099973
0.6088099976
0.608809998
0.6088099979
0.6088099968
0.6088099945
0.6088099943
0.6088099933
0.6088099937
0.6088099937
0.6088099954
0.6088099977
0.6088099983
0.6088100018
0.6088100029
0.6088100028
0.6088100028
0.6088100027
0.6088100027
0.6088100027
0.6088100033
0.6088100027
0.6088100021
0.6088100021
0.608810001
0.6088100006
0.6088100002
0.6088099996
0.608809999
0.6088099984
0.6088099978
0.6088099973
0.6088099969
0.6088099972
0.6088099975
0.6088099975
0.6088099971
0.6088099964
0.6088099962
0.6088099948
0.6088099946
0.6088099947
0.6088099966
0.6088099984
0.608809999
0.6088100019
0.6088100037
0.6088100034
0.6088100032
0.608810003
0.6088100025
0.6088100019
0.6088100016
0.6088100013
0.6088100012
0.6088100007
0.6088100007
0.6088100007
0.6088100008
0.6088100007
0.6088100002
0.6088099994
0.6088099993
0.6088099973
0.6088099964
0.6088099966
0.6088099968
0.6088099969
0.6088099968
0.6088099966
0.6088099962
0.6088099955
0.608809995
0.608809995
0.6088099966
0.6088099984
0.608810002
0.608810005
0.6088100052
0.6088100048
0.6088100045
0.6088100033
0.6088100021
0.6088100015
0.6088100012
0.6088100009
0.6088100008
0.6088100007
0.6088100008
0.6088100012
0.6088100026
0.608810052
0.6088100239
0.6088100038
0.6088099966
0.6088099959
0.6088099959
0.6088099961
0.6088099963
0.6088099963
0.6088099962
0.6088099959
0.6088099956
0.6088099953
0.6088099952
0.6088099966
0.6088099983
0.6088100019
0.6088100078
0.6088100138
0.608810014
0.6088100129
0.6088100083
0.608810004
0.6088100021
0.6088100014
0.6088100011
0.6088100009
0.6088100008
0.6088100009
0.6088100013
0.6088100029
0.6088100978
0.6088100403
0.6088100074
0.608809997
0.6088099958
0.6088099956
0.6088099955
0.6088099954
0.6088099954
0.6088099954
0.6088099951
0.6088099946
0.6088099951
0.6088099954
0.6088099967
0.608809998
0.6088100021
0.6088100086
0.6088100124
0.6088100206
0.6088100264
0.6088100201
0.6088100101
0.6088100048
0.6088100026
0.6088100017
0.6088100012
0.608810001
0.6088100011
0.6088100015
0.6088100035
0.6088100525
0.6088100217
0.6088100067
0.6088099992
0.608809996
0.6088099953
0.6088099947
0.6088099945
0.6088099948
0.6088099952
0.6088099948
0.6088099937
0.608809994
0.6088099943
0.6088099953
0.6088099955
0.6088100018
0.6088100049
0.608810006
0.6088100232
0.6088100319
0.6088100197
0.6088100113
0.6088100069
0.6088100044
0.608810003
0.6088100022
0.6088100016
0.6088100013
0.6088100017
0.6088100039
0.608810018
0.6088100058
0.6088099992
0.6088099958
0.6088099943
0.6088099937
0.6088099936
0.6088099938
0.6088099941
0.6088099946
0.6088099939
0.6088099923
0.6088099925
0.6088099929
0.6088099938
0.6088099912
0.6088100013
0.6088100024
0.608810003
0.6088100097
0.6088100363
0.6088100245
0.6088100153
0.6088100099
0.6088100067
0.6088100045
0.608810003
0.6088100022
0.6088100017
0.6088100019
0.6088100036
0.6088100051
0.6088099988
0.6088099956
0.6088099944
0.6088099938
0.6088099936
0.6088099935
0.6088099936
0.6088099936
0.6088099936
0.6088099925
0.6088099951
0.6088099939
0.6088099916
0.608809992
0.6088099895
0.6088100008
0.608810002
0.6088100025
0.6088100036
0.6088100432
0.6088100344
0.6088100224
0.6088100154
0.608810011
0.6088100074
0.6088100045
0.6088100028
0.608810002
0.6088100013
0.6088099991
0.608809994
0.6088099941
0.6088099946
0.6088099941
0.6088099939
0.6088099938
0.6088099939
0.6088099939
0.6088099936
0.6088099931
0.6088099936
0.6088099965
0.608809995
0.60880999
0.6088099909
0.6088099893
0.6088100002
0.6088100022
0.6088100025
0.6088100024
0.6088100043
0.6088100042
0.6088100037
0.6088100034
0.6088100033
0.6088100031
0.6088100031
0.6088100029
0.6088100023
0.6088100016
0.6088100002
0.608809998
0.608809984
0.6088099949
0.6088099947
0.6088099946
0.6088099948
0.608809995
0.6088099957
0.6088099992
0.6088099949
0.6088099957
0.6088099978
0.608809996
0.6088099921
0.6088099921
0.6088099871
0.6088100001
0.6088100025
0.6088100025
0.6088100022
0.6088100023
0.6088100025
0.6088100022
0.608810002
0.6088100018
0.6088100018
0.6088100019
0.6088100022
0.6088100025
0.6088100023
0.6088100016
0.6088100006
0.6088099854
0.6088099969
0.6088099964
0.6088099963
0.6088099965
0.6088099967
0.6088099965
0.6088100094
0.6088100026
0.6088099998
0.6088099987
0.6088099994
0.6088099977
0.6088099968
0.6088099928
0.6088100009
0.6088100027
0.6088100027
0.6088100023
0.6088100021
0.6088100022
0.6088100017
0.6088100014
0.6088100012
0.608810001
0.6088100009
0.6088100005
0.6088099998
0.6088099984
0.6088099967
0.6088099948
0.6088099902
0.6088099976
0.6088099988
0.6088100003
0.6088099991
0.6088099934
0.6088099914
0.6088100812
0.6088102184
0.6088100013
0.6088099992
0.6088100011
0.6088099979
0.6088099984
0.6088099943
0.6088100013
0.608810003
0.6088100029
0.6088100026
0.6088100021
0.6088100017
0.6088100015
0.6088100011
0.6088100008
0.6088100004
0.60881
0.6088099993
0.6088099982
0.6088099972
0.6088099965
0.6088099959
0.608809995
0.608809998
0.6088099992
0.6088099995
0.6088099961
0.6088099911
0.6088099928
0.608810142
0.6088101629
0.608810046
0.6088100001
0.6088100022
0.6088099982
0.6088099988
0.6088099949
0.6088100016
0.6088100027
0.6088100032
0.6088100029
0.6088100025
0.6088100018
0.6088100017
0.6088100009
0.6088100005
0.60881
0.6088099995
0.6088099988
0.6088099979
0.6088099971
0.6088099964
0.6088099955
0.6088099932
0.6088099887
0.6088099835
0.6088099803
0.6088099789
0.6088099785
0.6088099784
0.608809988
0.6088099925
0.6088099998
0.6088100006
0.608810007
0.6088100048
0.6088100196
0.6088099956
0.6088100018
0.6088100026
0.6088100032
0.6088100031
0.6088100028
0.6088100021
0.6088100011
0.608810001
0.6088100003
0.6088099999
0.6088099993
0.6088099987
0.608809998
0.6088099974
0.6088099968
0.608809996
0.6088099941
0.6088099916
0.6088099894
0.6088099877
0.6088099867
0.6088099869
0.60880999
0.6088099983
0.6088099988
0.6088099993
0.6088099991
0.6088099988
0.6088099985
0.608809998
0.6088099971
0.608810002
0.6088100026
0.6088100032
0.6088100031
0.6088100029
0.6088100025
0.6088100015
0.6088100023
0.6088100005
0.6088099999
0.6088099994
0.6088099989
0.6088099984
0.6088099979
0.6088099974
0.608809997
0.6088099962
0.6088099948
0.6088099934
0.6088099922
0.6088099913
0.608809991
0.6088099922
0.6088099995
0.6088099996
0.6088099995
0.6088099992
0.6088099989
0.6088099988
0.6088099986
0.6088099984
0.6088100021
0.6088100025
0.6088100031
0.6088100031
0.608810003
0.6088100028
0.6088100023
0.6088100022
0.6088100011
0.6088100002
0.6088099998
0.6088099996
0.6088099993
0.6088099986
0.608809998
0.6088099979
0.6088099978
0.6088099975
0.608809997
0.6088099965
0.6088099958
0.6088099952
0.6088099959
0.6088100006
0.6088100004
0.6088100002
0.6088099997
0.6088099993
0.6088099991
0.608809999
0.608809999
0.6088100021
0.6088100025
0.608810003
0.608810003
0.608810003
0.6088100031
0.6088100027
0.6088100017
0.6088100021
0.6088100011
0.6088100006
0.6088100006
0.6088100006
0.6088099992
0.6088099985
0.6088099985
0.6088099985
0.6088099986
0.6088099988
0.608809999
0.6088099994
0.6088099995
0.6088099997
0.6088100009
0.6088100012
0.6088100013
0.608810001
0.6088100004
0.6088099999
0.6088099996
0.6088099995
0.6088100021
0.6088100027
0.6088100029
0.6088100029
0.608810003
0.6088100031
0.608810003
0.6088100024
0.6088100023
0.6088100025
0.6088100019
0.6088100016
0.6088100012
0.6088099995
0.6088099988
0.6088099987
0.6088099987
0.6088099988
0.608809999
0.6088099993
0.6088100001
0.6088100009
0.6088100009
0.6088100011
0.6088100015
0.6088100026
0.6088100039
0.6088100106
0.608810002
0.6088100012
0.6088100006
0.6088100022
0.6088100026
0.6088100028
0.6088100028
0.6088100029
0.608810003
0.6088100031
0.6088100029
0.6088100026
0.608810003
0.6088100036
0.6088100022
0.608810001
0.6088099992
0.6088099988
0.6088099987
0.6088099986
0.6088099987
0.6088099989
0.6088099993
0.6088100003
0.608810001
0.6088100008
0.6088100007
0.6088100008
0.608810001
0.608810001
0.6088100005
0.6088100014
0.6088100013
0.6088100012
0.6088100022
0.6088100026
0.6088100027
0.6088100028
0.6088100028
0.608810003
0.6088100032
0.6088100031
0.6088100026
0.6088100027
0.6088100041
0.608810002
0.6088100003
0.6088099991
0.6088099988
0.6088099987
0.6088099987
0.6088099988
0.608809999
0.6088099996
0.6088100007
0.6088100011
0.6088100008
0.6088100006
0.6088100005
0.6088100005
0.6088100004
0.6088100002
0.6088100007
0.6088100008
0.6088100009
0.6088100022
0.6088100026
0.6088100027
0.6088100027
0.6088100028
0.6088100029
0.6088100031
0.6088100032
0.6088100028
0.6088100027
0.6088100033
0.6088100018
0.6088100001
0.6088099993
0.608809999
0.6088099989
0.608809999
0.6088099991
0.6088099994
0.6088100001
0.6088100012
0.6088100014
0.6088100009
0.6088100006
0.6088100005
0.6088100004
0.6088100003
0.6088100002
0.6088100003
0.6088100005
0.6088100007
0.6088100022
0.6088100026
0.6088100026
0.6088100026
0.6088100027
0.6088100029
0.6088100031
0.6088100033
0.608810003
0.6088100028
0.6088100033
0.6088100016
0.6088100002
0.6088099996
0.6088099993
0.6088099993
0.6088099994
0.6088099997
0.6088100001
0.6088100008
0.6088100019
0.6088100021
0.6088100013
0.6088100008
0.6088100006
0.6088100004
0.6088100003
0.6088100001
0.6088100002
0.6088100003
0.6088100005
0.6088100023
0.6088100025
0.6088100025
0.6088100025
0.6088100026
0.6088100029
0.6088100032
0.6088100033
0.608810003
0.6088100028
0.608810003
0.6088100013
0.6088100004
0.60881
0.6088099999
0.6088099999
0.6088100001
0.6088100005
0.6088100008
0.6088100013
0.6088100019
0.6088100026
0.6088100021
0.6088100013
0.6088100008
0.6088100005
0.6088100003
0.6088100001
0.6088100002
0.6088100003
0.6088100005
0.6088100023
0.6088100024
0.6088100023
0.6088100023
0.6088100025
0.6088100027
0.6088100029
0.6088100032
0.6088100029
0.6088100027
0.608810002
0.6088100014
0.608810001
0.6088100009
0.608810001
0.6088100011
0.6088100012
0.6088100012
0.6088100011
0.608810001
0.608810001
0.6088100011
0.6088100013
0.6088100017
0.6088100014
0.6088100008
0.6088100005
0.6088100003
0.6088100005
0.6088100004
0.6088100006
0.6088100023
0.6088100023
0.6088100021
0.6088100021
0.6088100022
0.6088100023
0.6088100024
0.6088100025
0.6088100026
0.6088100021
0.6088100019
0.608810002
0.6088100017
0.6088100016
0.6088100016
0.6088100017
0.6088100017
0.6088100015
0.6088100012
0.6088100009
0.6088100007
0.6088100006
0.6088100006
0.6088100006
0.6088100009
0.6088100008
0.6088100006
0.6088100007
0.6088100029
0.6088100009
0.6088100009
0.6088100025
0.6088100021
0.6088100019
0.6088100019
0.6088100019
0.6088100019
0.6088100019
0.608810002
0.6088100019
0.6088100019
0.6088100018
0.6088100018
0.6088100019
0.6088100019
0.6088100019
0.6088100019
0.6088100019
0.6088100018
0.6088100015
0.6088100012
0.6088100011
0.6088100009
0.6088100008
0.6088100007
0.6088100007
0.6088100007
0.6088100006
0.6088100007
0.6088100008
0.6088100008
0.6088100009
)
;

boundaryField
{
    walls
    {
        type            zeroGradient;
    }
    wallFilmFace_top
    {
        type            zeroGradient;
    }
    region0_to_wallFilmRegion_wallFilmFace
    {
        type            zeroGradient;
    }
    mirrorFace_top
    {
        type            zeroGradient;
    }
    region0_to_wallFilmRegion_mirrorFace
    {
        type            zeroGradient;
    }
    procBoundary1to0
    {
        type            processor;
        value           nonuniform List<scalar> 
52
(
0.6088100019
0.6088100021
0.6088100026
0.608810003
0.6088100032
0.6088100033
0.6088100033
0.6088100024
0.6088100024
0.6088100042
0.6088100061
0.6088100067
0.608810008
0.608810008
0.608810004
0.6088100054
0.6088100054
0.6088100286
0.6088100399
0.6088100588
0.608810049
0.608810049
0.6088137288
0.6088132763
0.6088132763
0.6088099999
0.6088099983
0.608809997
0.6088099965
0.6088099965
0.6088099966
0.6088099943
0.6088099943
0.6088099964
0.6088099955
0.6088099955
0.6088099903
0.6088099921
0.6088099944
0.6088099944
0.6088099962
0.6088099962
0.608809994
0.6088099933
0.6088099941
0.6088099941
0.6088099936
0.6088099924
0.6088099923
0.6088099924
0.608809993
0.6088099919
)
;
    }
    procBoundary1to2
    {
        type            processor;
        value           nonuniform List<scalar> 
33
(
0.6088099933
0.6088099946
0.6088099946
0.6088099959
0.6088099959
0.6088099982
0.6088099992
0.6088099989
0.6088099989
0.6088099977
0.6088099972
0.6088099953
0.6088099931
0.608809993
0.6088099933
0.6088099892
0.6088099905
0.6088099926
0.6088099936
0.6088099942
0.6088099959
0.6088099981
0.608809999
0.6088099994
0.6088100001
0.6088100008
0.608810001
0.6088100009
0.6088100008
0.6088100008
0.6088100009
0.6088100012
0.608810001
)
;
    }
}


// ************************************************************************* //
