/*--------------------------------*- C++ -*----------------------------------*\
  =========                 |
  \\      /  F ield         | OpenFOAM: The Open Source CFD Toolbox
   \\    /   O peration     | Website:  https://openfoam.org
    \\  /    A nd           | Version:  8
     \\/     M anipulation  |
\*---------------------------------------------------------------------------*/
FoamFile
{
    version     2.0;
    format      ascii;
    class       surfaceScalarField;
    location    "1.8/wallFilmRegion";
    object      phi;
}
// * * * * * * * * * * * * * * * * * * * * * * * * * * * * * * * * * * * * * //

dimensions      [1 0 -1 0 0 0 0];

internalField   nonuniform List<scalar> 
2656
(
-0.0004213321586
-0.01356767054
-0.0009519756542
-0.001369718165
-0.001894112864
-0.001941554241
-0.002402871458
-0.002040827342
-0.003062538027
-0.002129841336
-0.003736271386
-0.001986342362
-0.001712514298
-0.001157193347
-0.01402859777
-0.001954626646
-0.002382473261
-0.00241095313
-0.002841018742
-0.002399849548
-0.002691183889
-0.002169397584
-0.002283752919
-0.001802490136
-0.001631501549
-0.001093660458
-0.00101916854
-0.0002612748056
-0.000485760445
-0.0001479498114
-0.0001859350718
-0.0001127830842
-0.0001333358564
-9.096926583e-05
-0.002556011447
-0.01564301288
-0.003335888687
-0.003684186633
-0.003220616266
-0.003459588247
-0.002598724145
-0.002744533547
-0.001831407601
-0.001899978376
-0.001140577432
-0.001070982356
-0.0005354736158
-0.0005187099945
-0.0001854521247
-0.0002460183489
-0.0001262497897
-0.0001661156628
-7.946398618e-05
-0.0001414922236
-7.331677217e-05
-7.901502882e-05
-0.0001053146273
-6.354038001e-05
-4.468140946e-05
-0.00411658034
-0.01790395584
-0.004187815159
-0.004388855073
-0.003320239752
-0.003255774152
-0.002241278047
-0.002181099756
-0.001310620067
-0.001354355472
-0.0006612164493
-0.0007307326667
-0.0003138566419
-0.0003585306773
-0.0001898106456
-0.0002012535704
-0.0001411429012
-0.0001574453228
-6.85800952e-05
-0.0001354312929
-5.562725019e-05
-6.636704251e-05
-4.56846552e-05
-5.390491672e-05
-4.00687947e-05
-4.904848812e-05
-2.29737672e-05
-4.284043507e-05
-1.428481936e-05
-3.513532971e-05
-7.804465549e-06
-2.607011225e-05
-1.711618761e-05
-0.004748780971
-0.01718434752
-0.00379372598
-0.003280913915
-0.002562462407
-0.002070553751
-0.001573121358
-0.001305078685
-0.0008971691087
-0.0008763140877
-0.0004764320656
-0.0005525282569
-0.0002715196729
-0.0003200219168
-0.0001949050792
-0.0001883699457
-0.0001469803898
-0.0001193341095
-6.248716595e-05
-7.915103111e-05
-5.178419041e-05
-5.248869767e-05
-4.267082809e-05
-4.402458378e-05
-3.386355965e-05
-4.226193866e-05
-2.533925812e-05
-3.95198143e-05
-1.734780991e-05
-3.533695605e-05
-1.08229452e-05
-2.878528292e-05
-6.697427222e-06
-2.050956841e-05
-7.197659001e-10
-2.100735296e-05
1.087385811e-09
-0.003156621496
-0.01210642187
-0.002193546766
-0.001232629958
-0.001450291344
-0.0008004502118
-0.0009767202142
-0.0005871427433
-0.0006619297545
-0.0005148163661
-0.0004293153882
-0.0004231148969
-0.0002654182055
-0.0003193562181
-0.0001643214404
-0.0002259951608
-0.0001025274768
-0.0001601602672
-5.91693486e-05
-0.0001083405164
-4.772038089e-05
-4.46202772e-05
-4.108243379e-05
-3.324202365e-05
-3.488648458e-05
-3.363105572e-05
-2.867345263e-05
-3.394266709e-05
-2.201881353e-05
-3.367763243e-05
-1.577764932e-05
-3.049585301e-05
-1.484958912e-05
-2.061959804e-05
-3.660004879e-05
-3.53180091e-06
-0.000123324656
3.300045845e-05
-0.0003679485696
-0.0002225527624
-0.0003545855216
-0.002197867805
9.20504487e-05
-0.00217987785
-0.002837740455
-0.0009172924311
-0.00894769734
-0.0007283562227
-0.0004895428701
-0.0006337916123
-0.0003398606611
-0.0005511157904
-0.0002711543974
-0.0004852229811
-0.0002912427227
-0.000402153081
-0.0003029277784
-0.0002976563341
-0.0002955339578
-0.0002013675036
-0.0002680138113
-0.0001238518335
-0.0002429451891
-5.019285151e-05
-0.0002007498104
-4.112348704e-05
-3.540195294e-05
-3.700394369e-05
-2.146635123e-05
-3.393325484e-05
-2.257066132e-05
-3.148195102e-05
-2.441145999e-05
-2.861457499e-05
-2.725563691e-05
-2.381521682e-05
-2.949014074e-05
-2.003927244e-05
-2.108190289e-05
-1.378201097e-05
3.340545789e-06
-0.0001522398545
-0.0001733837597
-0.0008074725127
-0.0001080228263
3.676223267e-05
-0.002608411623
-0.0002623401548
-0.004719353111
-0.0004939921684
-0.006941859088
-0.001645551764
-0.0001046970562
1.327721761e-05
-0.0002695818679
-0.007313376122
-0.0002512444997
-0.0002708067937
-0.0002905554021
-0.0001828185182
-0.0003040047471
-0.0001277035375
-0.0003225027272
-0.000145554101
-0.000326191927
-0.000171035244
-0.0002990690274
-0.0002046408932
-0.0002454391084
-0.0002422868258
-0.000177638441
-0.0003465757839
-3.854423586e-05
-0.0004704421027
-3.103711355e-05
-2.361386371e-05
-2.866028325e-05
-1.043881903e-05
-2.800766827e-05
-1.070094964e-05
-2.947878473e-05
-1.135412445e-05
-3.390698802e-05
-1.245186143e-05
-4.250755342e-05
-1.37818908e-05
-4.384026117e-05
-2.018729975e-05
-0.0001057695624
4.327838376e-06
1.740924521e-05
-0.001611901784
0.000146181009
-0.0003970101968
3.002300856e-05
-0.0027658195
-0.0005763934146
-0.005346299902
-0.001062021308
-0.006780573394
-0.001818270303
0.0003633249098
-0.0009042371765
0.0003490332204
0.001801432214
-0.0001096769267
-0.006334667521
-0.0001160398157
-0.0001826019698
-0.0001557680713
-0.0001128921186
-0.0001589489705
-5.961683194e-05
-0.0001714081062
-6.529517491e-05
-0.000188010295
-7.731516872e-05
-0.0001950815333
-9.6721483e-05
-0.0001690220449
-0.0001202593771
-0.0001547351874
-0.0004216397338
-2.671778584e-05
-0.0009948720336
-1.829941684e-05
-1.237240417e-05
-1.627163683e-05
-3.095170934e-06
-1.534009496e-05
-2.684127145e-06
-1.534500054e-05
-2.339919217e-06
-1.530352181e-05
-1.980773244e-06
-1.098316663e-05
-1.58331434e-06
2.739832661e-05
-1.047143816e-05
9.44319263e-05
-0.0004305651018
-0.0003201665953
-0.002294079419
-0.001124801915
-0.001412823378
-0.002198636944
-0.002881157826
-0.0007169408125
-0.002438599456
-0.0006978869105
-0.001906776427
-0.001292078147
0.0006681716538
-0.001936772194
0.0005146623048
-0.0005512296195
-3.282154931e-05
-0.005640227744
-5.558079524e-05
-0.0001566572381
-9.105252484e-05
-7.689849971e-05
-8.568920058e-05
-3.315663336e-05
-8.675953399e-05
-4.086052342e-05
-8.906334648e-05
-5.988085742e-05
-7.784007679e-05
-8.362201998e-05
-0.0001548627169
-0.0001606422725
-0.0001164444506
-0.002651966531
-1.467507698e-05
-0.001107877944
-6.956737132e-06
-3.937470994e-06
-5.261986749e-06
-3.318169202e-07
-3.980223112e-06
-1.85439152e-07
-2.951130546e-06
-9.839262962e-08
-1.963350234e-06
-5.349430096e-08
-6.331068791e-07
-2.494319729e-07
1.244535841e-05
-2.052292436e-05
-0.0002760619691
-0.000915468592
-0.002489506375
-0.0007543729866
-0.005187385991
-7.260534325e-05
-0.00569515724
0.0009871032515
-0.001668894512
0.001707201562
0.001362682869
0.002086520895
0.003510151576
0.0006729277135
-0.000941646242
0.002802094492
-0.003006449118
0.001339423114
0.001880664718
0.0001878201537
-0.004998181784
-3.361776531e-05
-0.000133197683
-7.055646418e-05
-4.541491394e-05
-7.688938332e-05
-2.491813192e-05
-9.849895368e-05
-4.507752175e-05
-0.0001209136156
-9.702677214e-05
-0.0002301757979
-0.0001490248091
-0.002956513987
-3.965242475e-05
-0.0004867376875
0.0001984559168
-5.259659536e-06
-0.000642811221
-1.118932852e-06
4.718508082e-07
-5.77218135e-07
6.478569056e-08
-2.668611356e-07
4.003996911e-08
-1.289702157e-07
2.273229869e-08
-5.531525123e-07
1.355508404e-08
-7.472898145e-06
1.187562556e-08
1.230560203e-05
-0.0002461713723
-0.0001711649844
-0.001020999159
-3.833587103e-06
-0.0006054031476
2.403991533e-05
-4.245871581e-05
-0.001403886855
0.0005820123449
-0.001266603885
0.003994582319
-0.000415142368
0.006598754298
-0.0003534612879
-0.000301129997
-0.0003423193956
0.0004612544681
-0.0007499760687
0.00129255985
0.001654887431
0.0002170232442
-0.004552231705
-2.785909013e-05
-8.683754008e-05
-8.188010795e-05
-4.51453604e-06
-0.0001291409319
-8.470235912e-06
-0.0002311109472
-2.247107901e-05
-0.0003265406894
-5.906420665e-05
-6.249841156e-05
-0.0001008073575
-3.379084744e-05
2.783599823e-06
1.839247047e-06
4.452093767e-05
-3.150410113e-05
-0.0002226279507
-4.963320075e-06
3.078454675e-05
-3.308321918e-06
1.682907137e-06
-2.375312808e-06
8.742105408e-07
-5.415177199e-06
5.087071656e-07
-2.974996591e-05
3.684675304e-06
-0.0001571463485
5.44945044e-07
-0.0002736303764
-0.0006347230026
-0.0001392693176
-0.0009077504553
-6.678188379e-06
-0.0005035339536
1.918006609e-05
-5.433177921e-05
0.0001042988864
-3.121537646e-05
6.64209254e-05
-3.979475738e-05
0.001120877088
0.004894403926
0.001437547084
-0.001068295215
-5.744410975e-06
-0.001250900997
-9.842352305e-05
0.001814538177
0.0008111985582
0.0002771485485
-0.004644098262
-8.729595075e-06
-4.613715348e-06
-0.0001191165719
8.953559478e-05
-0.0001937416098
2.984559787e-05
-0.0003631276239
3.19844622e-05
-0.0006605026087
1.506860789e-05
-0.0009396020567
-1.330823635e-05
-0.000710187954
-1.330603287e-05
-0.0006050025499
-3.30329254e-05
-9.858005855e-05
-0.001010959067
-4.958729468e-05
4.22553398e-05
-4.560000409e-05
1.679508566e-05
-3.799974246e-05
7.039620916e-06
-2.485431656e-05
2.446111228e-06
-0.0001462210959
2.365923571e-05
-0.0003020639227
-0.0002766365918
-0.0003307471959
-0.0006732105525
-0.0001595648657
-0.0007168021434
-1.993659518e-05
-0.0004245570517
4.073466739e-05
-0.0001013350821
0.0001117371106
-0.0001059523459
0.0002438208094
-0.0002957985346
0.0009133188449
-0.0001826777068
0.001390606869
-0.00133727088
0.001177923241
-0.0009501610537
0.000986992214
0.001427656754
0.0003393140517
0.0006856357744
0.0002997069517
0.0002734757962
-0.004924091766
-2.886251645e-05
7.737173872e-05
-0.0001189700808
0.0001878605778
-0.0001366059684
4.882843212e-05
-0.0001832003883
4.885714035e-05
-0.0003138995428
4.029010071e-05
-0.000689835072
2.387765412e-05
-0.001515286397
1.698296587e-05
-0.002451694291
7.134384297e-05
-0.0001335421862
0.0001417014634
-7.220485929e-05
9.777293382e-05
-7.322749799e-05
4.724472358e-05
-2.966794787e-06
-3.241005142e-05
0.0007348633615
0.0004544042034
-4.261006648e-05
0.0008235605632
-0.0003607931687
-0.0003833315821
-0.0003143472465
-0.0005952050807
-0.0001595481333
-0.0004765222829
-4.029260353e-05
-0.0003217690686
9.928077403e-05
-0.0001807952596
0.0002072746644
-0.0002509946989
0.0001509418475
-0.0002671608747
0.0005029135337
-0.0007498446292
0.0009231259904
-0.00122143359
0.0002191831303
0.0003137958448
0.001186883285
0.0009455012506
0.0004490955936
0.0007694431365
0.0003585250375
0.0002164414586
0.0003045952373
0.0002633757797
-0.004387084509
-5.964051346e-05
0.0002288533824
-0.0001158415618
0.000259381001
-0.0001093648827
6.766118551e-05
-0.000108929438
6.376769504e-05
-0.0001258157739
5.601157864e-05
-0.0001905103562
5.271511295e-05
-0.0003202209503
6.947928302e-05
-0.0003847450221
0.0001301679592
-0.0002406530273
0.0002227445822
-0.0002115686731
0.0001331684163
-0.0005446097796
9.502670715e-05
-0.0001381776911
6.415467976e-05
0.0008410184074
0.0007750105191
-0.0001239971662
0.0009984039247
-0.0004149131186
-0.000361955215
-0.0002699750189
-0.0003930544532
-0.0001414932826
-0.0002540202423
-4.529739174e-05
-0.0001774402634
0.0001518846383
-0.0002318388513
0.0001414652383
-0.0004284666413
7.792860893e-05
-0.0003276227655
0.0002238668115
-0.0007655050335
0.0001121514388
-6.381770685e-05
-7.351172582e-05
0.001001958317
-4.446125712e-05
0.0007147286827
0.0001404813812
0.001211353619
0.0006478264268
0.0006945777471
0.0005413799001
0.0002630793129
-0.002770196938
-6.400455424e-05
0.0003554966023
-0.0001267184918
0.0002950985688
-0.0001121473986
9.337159976e-05
-0.0001020900726
8.435427778e-05
-0.0001031400798
7.12819351e-05
-0.0001262687233
6.077820995e-05
-0.0001751349908
5.950397949e-05
-0.0002208676739
7.860462105e-05
-0.0001709671224
0.0001229080338
-0.0001098829531
0.0001084631298
-6.235649456e-05
8.990133673e-05
-1.926523982e-05
7.292398217e-05
0.0005254946974
0.001245103498
-0.0002786511741
0.0008171689877
-0.00036490769
-0.0002279724134
-0.0001864738959
-0.0001647991625
-9.777304448e-05
-8.862717981e-05
-2.63239144e-05
-4.464758785e-05
0.0002627161007
-0.0001583532508
0.0003477649699
-0.0003508208318
0.0001208966874
-0.0005039363163
-0.0006350339078
-0.0003570516189
-0.0004968707007
0.00114493018
-0.0004758393611
0.0006999438654
-0.0003610667277
0.001270490618
2.337970816e-05
0.001610065067
0.0004334651758
0.001343652043
0.0004811841362
-0.0001648888865
-0.001503277333
-0.0001527466114
0.0004693981501
-0.0001500653405
0.00029407784
-0.0001270521587
0.000128907093
-0.0001057694464
0.000111236222
-8.986326046e-05
8.738980004e-05
-8.378421498e-05
6.484004866e-05
-8.884206223e-05
4.963138751e-05
-9.822623359e-05
4.991547958e-05
-9.068119081e-05
7.171261934e-05
-7.343982051e-05
9.064283556e-05
-6.199857318e-05
0.0001076086608
-3.709135485e-05
0.0001448188367
-0.0002072885366
0.001694230601
-0.0003956967762
0.000681408669
-0.0002336457375
-2.023964749e-05
-9.695903709e-05
-1.627419893e-05
-3.743942457e-05
-1.142906693e-05
2.274456071e-06
-9.653894066e-06
0.0003518617716
-9.877934668e-05
0.001018006836
-0.0001979785382
0.001107345496
-0.0005501443659
0.0003550120664
-0.0006139339914
1.796895461e-06
0.001373154083
-0.0001996630112
0.0005297334648
-0.0003127387104
0.001248598589
-4.528782076e-05
0.001301897467
2.303436208e-05
0.001206166341
-0.0001071258545
0.0004847166805
-9.865977767e-05
0.0004575655626
0.0004815435936
0.001003960066
0.0003809322683
0.000415427957
0.0003727587335
0.0005869795608
0.000481087283
-0.0003388259275
-0.0007076499186
-0.0002278714062
0.0005524000843
-0.0001868419031
0.0003187262529
-0.0001523656779
0.0001759711974
-0.0001180095824
0.000145682245
-8.919416716e-05
0.0001070930866
-7.254980607e-05
7.22002313e-05
-7.478364425e-05
5.053112785e-05
-0.0001107365527
5.360242831e-05
-0.0002379367709
0.0001095701111
-0.0005879851607
0.0002892787053
-0.001198315819
0.000682567278
-0.001757213984
0.001121278028
-0.0009173704397
0.001451906601
-0.0002599286291
0.0004717451188
-9.783724553e-05
6.379633398e-05
-4.304552562e-05
2.211473778e-05
-2.230573487e-05
9.056215551e-06
-4.847356228e-05
2.923627899e-06
0.0003757232483
-0.0004608193971
0.001482716624
-0.0004251854953
0.00389161915
-0.0001543629076
0.003643237249
0.0003067317866
0.000792162032
0.001361274849
-0.0001324600718
0.0004572524836
-0.0002520034832
0.0007912726735
-0.0001508866358
0.0009168894211
-2.646379449e-05
0.0008700458549
-3.807472379e-05
0.000537351911
2.810917948e-05
0.0004228041009
0.00017744272
0.0005281655341
0.000304950645
0.0002906974408
0.0003537692408
0.0005337240815
0.0007032413312
-0.000456467946
0.0001087535824
-0.0002981286974
0.0006049223167
-0.0002335981456
0.0003699345328
-0.0001841428857
0.0002301126033
-0.0001345116562
0.0001840471569
-9.428292838e-05
0.0001281189576
-7.363454716e-05
8.138650644e-05
-8.336859115e-05
5.711143141e-05
-0.0001578614052
7.006054822e-05
-0.0004303650953
0.0001766157947
-0.001120811399
0.0005327446647
-0.001935413088
0.001177250196
-0.001948518398
0.00160462984
-0.0009633321201
0.001289028344
-0.0004250840755
0.0004979739927
-0.0002657146993
0.0002318690073
-0.0002350222644
0.0001983048132
-0.0003533474824
0.0002343054256
-0.0008071005827
0.0003046861149
-0.0009798887549
-0.0005073022467
-0.000805913704
-0.0003364150747
-0.0005185064919
0.000170238236
-0.000336756872
0.0005556391719
-0.0001304960515
-5.973640658e-05
-9.150536264e-05
9.841954763e-05
-0.0001248540187
0.0004579758081
-0.0001089594257
0.0007590371978
8.42533317e-05
0.0006442463839
0.000218053846
0.0004731007435
0.0001168965543
8.063294227e-05
-0.0004965699032
1.115293076e-05
-0.0005446085651
-0.0001459836231
3.99949865e-05
0.000166604702
-0.0005775717782
0.001280899043
-0.0003799797078
0.0006873601729
-0.0002883614933
0.0004420904337
-0.0002215799212
0.0002838477222
-0.0001559928181
0.0002201945301
-0.0001052199623
0.0001465367039
-8.189991658e-05
8.903730607e-05
-9.545186989e-05
6.188981284e-05
-0.0001835912462
7.64157694e-05
-0.000522723436
0.0001949840588
-0.001457428816
0.0005816929053
-0.002612638467
0.001236744436
-0.002639702242
0.001630137371
-0.00158404376
0.001186794085
-0.000885476434
0.0006453124958
-0.0007011525181
0.0006508682604
-0.0005819919949
0.0007220994471
-0.0006563849694
0.0008177728693
-0.001120868133
0.0008589158639
-0.001287818458
-0.0006057436321
-0.001265604044
-0.0003835318357
-0.0008413735929
0.0001063736523
-0.0003499397967
0.0005940565454
-6.738133552e-05
-0.0006726190643
-6.765411885e-05
0.001257225445
-0.0001447210699
0.0005970550365
-0.0002869751278
0.0007401562882
-0.0001781368037
0.0006654804671
0.0003023807137
0.0003289410047
0.0006711987382
-0.00022215189
0.0005198752471
-0.0002520914582
0.0001296169557
-0.0002971462309
-0.0008982358903
0.002274845665
-0.0006580793943
0.0009676734959
-0.0005112190206
0.0006422561514
-0.0004139757139
0.0004209857611
-0.0003237645661
0.0003219165972
-0.000241057664
0.0002094110749
-0.0001830462775
0.0001164159233
-0.000173280615
5.897956171e-05
-0.0002883575964
5.162509443e-05
-0.0008328392242
0.0001063779823
-0.002275882033
-0.0001160745929
-0.004060245429
-0.0003648663609
-0.004408079312
-0.0004473812345
-0.003032853024
-0.0004300487543
-0.001478414023
-2.328453551e-06
-0.001673732332
0.001324027306
-0.001582545261
0.001801292142
-0.00132146567
0.002281591383
-0.001172590835
0.002003311066
-0.001104960957
-0.0006515903567
-0.001299398554
-0.0003827807357
-0.001883726089
-9.886679244e-05
-0.002022154825
0.0004764562749
7.745765884e-05
0.001503755634
0.0007674210711
0.003159433516
9.241945392e-05
-3.18390377e-05
-0.0004876448785
0.001027882531
-0.0001490840018
0.0007486184845
0.0003532298148
0.0004566313788
0.0001872345566
-2.619132669e-05
-0.0003452621985
-0.0004163292698
-0.0006523001499
-0.001470564007
0.002271297047
-0.001314257363
0.00128643678
-0.001085881245
0.001031346794
-0.001024817061
0.0007716095049
-0.00104309277
0.0006675791294
-0.001157883064
0.0005401372009
-0.001339634371
0.0003531444321
-0.001457050362
4.842941708e-05
-0.00148668885
-4.194378106e-05
-0.001357254651
-0.0007326602433
-0.001566445545
-0.0003664662574
-0.001515110263
-0.0002198130904
-0.00139096562
-0.0002192330632
-0.001396777224
-0.0002096643666
-0.001704614818
-0.0001051898002
-0.002291625313
0.001403219077
-0.002784830624
0.002110329155
-0.002524966454
0.002973740214
-0.0009226773166
0.002811768665
-0.0007427760016
-0.0005886415425
-0.0007394952242
-0.0003287042683
-0.0007661317238
-0.0001896437284
-0.0007825509041
3.437801328e-05
-0.0003219591508
0.001299041635
-9.004776948e-05
0.002208539333
-0.0003593819271
-0.0008698310664
-0.0001891879359
0.0008002986216
-6.64626611e-05
0.0005878070209
-0.0001108338165
0.0004807772987
-0.0005711253655
1.248504094e-05
-0.0008514435319
-0.0005209747462
-0.0005842155329
-0.001528566467
0.002134723757
-0.001645084493
0.0009316305404
-0.001236586328
0.001020435127
-0.00104616192
0.0006606997603
-0.0007758461925
0.0004663521955
-0.0004302863109
0.0002722689185
-0.0001328313312
0.000129726119
-0.0001737630364
5.897208837e-05
-0.001015556442
8.323293984e-05
-0.0005097910853
0.0002732063173
-0.0004132074826
-1.925135305e-05
-0.0003711483473
-2.391036832e-05
-0.0003639654915
-1.664397737e-05
-0.0004436651198
-4.094447156e-07
-0.0008324742236
6.80492648e-05
-0.001206673759
0.0005428771254
-0.001440344195
0.0009115132419
-0.001665333735
0.0009595441833
-0.000916184148
0.0001820720591
-0.0007271250166
-0.0005752926712
-0.0006433611199
-0.0003416467572
-0.0007428924743
-0.0002685308578
-0.001545958931
-0.0001663956444
-0.002574334113
0.0002783097005
-0.0008413465099
0.001960908888
0.0009447133685
0.001553412145
0.0005459552612
0.0006042245279
-0.0006216322414
0.000556270363
-0.0008463482142
0.0007961277325
-0.0008838029417
0.0007111170939
-0.000827909106
0.0003402941131
-0.0006113230543
0.002413343173
-0.001045916531
0.000393431164
-0.00100817901
0.0006397236879
-0.001136372917
0.0003727821306
-0.001211142533
0.0002528174547
-0.001181906415
0.0001730278629
-0.001138981956
0.0001754327541
-0.001144990206
0.0002195012316
-0.00108493305
0.000210411546
-0.0006893761124
0.0002192650483
-0.0005795200807
0.0001846212765
-0.000492070849
0.0001701163308
-0.0003621331702
0.0001695000917
-0.0002149593016
0.0001340072361
-0.0001307886445
9.384123843e-05
0.000146478232
-3.364651017e-06
0.0004537531848
-2.717274979e-06
0.0003843947767
-7.531565401e-06
-0.0004644010172
-0.000224203479
-0.0008802330811
-0.0003568875305
-0.0008928438286
-0.0002746374589
-0.0009275467562
-0.0002425415919
-0.0009193572327
-0.0002517248283
-0.0009916781406
6.318280912e-05
-0.0008103007511
0.0008165704694
-0.000610002042
0.001225657655
-0.0004049747203
0.0002766856504
-0.0005277431639
0.000486225563
-0.0004984979919
0.0008993705551
-0.0004021908617
0.001235266665
0.0008134328147
-3.81319127e-05
0.003035315069
-0.0001771099967
0.0002501822068
-0.000383334269
0.0003053762838
-0.0004182133117
0.000146375513
-0.0005203130955
0.0001068262064
-0.0006786655058
9.163239702e-05
-0.0008118175902
0.0001236296229
-0.0008681589174
0.000184134477
-0.0008710310059
0.0002339481863
-0.0008223037795
0.0002730121292
-0.0007564119328
0.0003040766257
-0.0006357503816
0.0003231212017
-0.0004201407006
0.0003031922204
-0.0001728168608
0.0002131330017
-8.602187422e-06
9.659625975e-05
-1.101564615e-05
-1.755981769e-06
-1.720247519e-05
-2.708450141e-06
-8.662759433e-05
-7.421670129e-06
-0.0007980999813
-5.293008443e-05
-0.001028661844
-4.458903749e-05
-0.0009312612342
0.0001464674249
-0.0008754986181
5.994979025e-05
-0.0009317007461
-0.0002295889416
-0.001043359941
-0.0001774553666
-0.001135403766
0.0002501565698
-0.0008934372926
0.0004357005719
-0.0004896520777
0.0002074578951
-0.0003684990252
0.0004624344462
-0.000198269385
0.0008443565454
-2.6823414e-05
0.001297672572
0.0007918355127
-2.399576803e-06
0.003654962456
-0.0001341278288
0.0001586880854
-0.0002006189032
4.169262168e-05
-0.0002032593729
2.862932116e-06
-0.000263434321
-5.05938016e-06
-0.0003921274276
-6.376166506e-06
-0.0005263182541
3.177011197e-05
-0.0006239819193
0.0001299605857
-0.0006873260815
0.0002250653014
-0.0007197914209
0.0003039156971
-0.0007012138845
0.0003759911558
-0.000596643888
0.0004279287138
-0.0003771955592
0.0003825470976
-0.0001386581344
0.0002593185645
-2.467365364e-06
0.0001048181114
-4.376057941e-06
-6.300828662e-07
-9.838044047e-06
-8.342231629e-07
-4.352510984e-05
8.249072458e-07
-0.0003752068138
1.372946386e-05
-0.001404857036
4.902502314e-05
-0.001811075911
0.000557981908
-0.001962741436
6.263984661e-05
-0.001393271044
-0.0003996250755
-0.001105869039
-0.0005106813606
-0.001435560528
0.0005297984909
-0.001030369042
0.0004596179135
-0.0003166927456
0.0005932332922
-1.112188765e-05
0.000580686155
0.0002102631564
0.0008464998844
0.0005505985249
0.001233419389
0.0006631417679
-0.0005177122881
0.004564375917
-0.0003652365587
-3.270844328e-05
-0.0001767210681
-9.236310861e-05
-0.0001116802672
-1.747725364e-05
-0.0001203702766
-1.293636823e-05
-0.000217006911
-2.141001333e-05
-0.0004100032733
-2.715549393e-05
-0.0006116583999
6.078154719e-06
-0.0007486358607
0.0001366024897
-0.0008028597857
0.0002741224641
-0.0007505613813
0.0004027559919
-0.0005733332621
0.0004925478261
-0.0003295007929
0.0004416309189
-0.0001146119835
0.0002878824527
-5.444796035e-06
0.0001108368575
-1.204523359e-05
2.06108996e-06
-2.486770037e-05
3.468152588e-06
-5.004240219e-05
4.205336276e-06
-0.0001179177321
1.383013623e-06
-0.0005529218323
-8.151858996e-05
-0.001361067697
-0.000396489504
-0.001999088023
-0.0007034021214
-0.001914881575
-0.0008046869816
-0.0008697398883
-0.0004567616652
-0.0006968879708
0.0005174614005
-0.0003271514655
3.408151935e-05
0.0003403143763
0.0001931562396
0.0006491208583
0.0001753134923
0.0008233756686
0.000918243787
0.001083591109
0.001236786497
0.0004724386447
-0.0002389234092
0.005280763626
-0.0001748183524
-0.0001944030369
-4.688571654e-05
-0.000468398551
-3.421243103e-05
-3.87793622e-05
-5.394199511e-05
-9.080672667e-06
-0.0001031040923
-1.283243412e-05
-0.0002113465644
-2.094798598e-05
-0.0004203387595
-2.46279603e-05
-0.0006787784628
-1.822604411e-05
-0.0008109009798
3.946464356e-05
-0.0007795196502
0.0002737302977
-0.0005654507386
0.0004699141294
-0.0002947633918
0.0004758770766
-0.0001011242932
0.0003116377722
-1.671409352e-05
0.0001167743649
-3.33093205e-05
8.618030801e-06
-6.093413303e-05
1.018888478e-05
-0.0001258232308
1.974941242e-06
-0.0003058852986
-0.0001016020415
-0.0006921541389
-0.0003593667583
-0.001014916478
-0.000603684913
-0.001135388385
-0.0006382430162
-0.00144669819
-0.0006245201262
-0.001452249831
-0.0004711367091
-0.0002938644374
-0.0001752371999
0.0005015315188
0.0002165435137
0.001065827259
-0.002127915334
0.001337782204
-0.003368104529
0.0009885646399
0.0007355529668
0.0009252272209
0.001324465396
3.031846207e-05
-0.0005359898031
0.005530907198
-0.0004467752148
-0.00106345068
-7.843620302e-05
-0.001920293638
-1.861070016e-05
-0.0001345701427
-2.730073746e-05
-3.928410612e-06
-4.372898743e-05
-4.281716878e-06
-7.219380112e-05
-6.997311516e-06
-0.0001198166398
-8.82037249e-06
-0.0002129973395
-8.132785372e-06
-0.0004005030132
-9.887150506e-06
-0.0005424951651
3.061237438e-05
-0.000487271628
0.0003043811418
-0.000286698083
0.0004442255953
-0.0001146082267
0.0003315817546
-4.918616341e-05
0.0001244101955
-8.269675495e-05
1.503823867e-05
-0.0001665486432
1.229380353e-05
-0.0003583105005
-0.000101586557
-0.0006222087775
-0.0002681168246
-0.0007227306191
-0.0004584886396
-0.000677024521
-0.0004828779692
-0.0006612539464
-0.0004665301378
-0.0007599238103
-0.0004066193447
-0.0008125969877
-0.0003069544009
-0.0003413511198
-1.129641595e-05
4.259052888e-05
0.0001304458447
0.0001263019123
-0.004573507154
0.0009811978963
-0.006322823725
0.0009666150601
0.0005506969339
0.0006166848087
0.001364037061
0.0001702073265
-0.00106525058
0.004555104253
-0.0008090268616
-0.002254530268
-0.0002479837591
-0.005043076631
-8.012624277e-06
-0.0005582335745
-1.007623389e-05
1.004607396e-06
-1.529875405e-05
8.685535899e-07
-2.281137791e-05
1.157531293e-06
-3.264104628e-05
2.626797835e-06
-5.005347117e-05
6.668176921e-06
-0.0001015514702
9.269832683e-06
-0.0002446994758
2.957601924e-05
-0.0003515627846
0.0001523558221
-0.0002764108695
0.0003280763793
-0.0001514650317
0.0003323268109
-0.0001629032828
0.0001844427081
-0.0003334211945
7.312757619e-05
-0.000806316197
9.210004858e-05
-0.001085579855
-0.0002635663495
-0.0009209770353
-0.0002947181649
-0.0006997009874
-0.0003117084277
-0.0005131886994
-0.0003196176339
-0.000365535941
-0.0002426282656
-0.0003078578618
-0.0001123642406
-0.0002825453613
-3.716964201e-05
0.0001330051344
-8.390255941e-05
0.0002960030262
-0.0004347736129
-0.0003063687899
-0.003264039871
0.0001438388621
-0.002931232262
0.0004711772759
0.0001667102724
0.0002209810203
0.0003406911882
6.537051513e-05
-0.001075032331
0.002788297338
-0.0005336317913
-0.002533339505
-0.001070400162
-0.008455779874
-0.0001517610487
-0.002090178136
-0.0001133065646
3.970170059e-05
-0.000118679587
5.025991789e-05
-0.0001254804421
5.704593104e-05
-0.0001282750395
6.615995609e-05
-0.0001238346195
7.35446542e-05
-0.0001249336816
7.682681894e-05
-0.0001627415766
8.278220351e-05
-0.0002222537529
0.0001190237737
-0.0002079249725
0.0002055486633
-0.0001046349819
0.0002491656187
-2.08374994e-05
0.000148633987
2.004830925e-05
8.388907189e-05
-0.0008389991363
0.0008024238749
-0.0008173689609
-0.0001329613325
-0.0006209588347
-0.0001734578288
-0.0004415902909
-0.0001738995736
-0.0002627997667
-0.0001122203219
-0.0001073880778
-6.177011041e-05
-2.576364107e-05
-3.031079451e-05
9.875344151e-06
-1.374069487e-05
0.0001536549292
-5.309612557e-05
9.46046291e-05
-0.0002872530883
-0.0002426717413
-0.001555776396
-0.0006054254509
-0.0005127614696
-0.0002215482527
-0.0005520750412
6.190797141e-05
-0.001255350503
7.113380677e-06
-0.0001891554323
0.005040199026
0.0005386233614
-0.001860945991
-0.002245126494
-0.009558507898
-0.001200169322
-0.004423873252
-0.0002615356392
-0.001168062767
-0.0002939088905
0.0001850434645
-0.0003071974329
0.0001668210832
-0.0003099792088
0.0001926014322
-0.0002938021765
0.0002119113225
-0.0002572247496
0.0002157593744
-0.0002121253299
0.0001983113251
-0.0001765262953
0.0001685317641
-0.0001333521725
0.0001479839515
-5.338910441e-05
0.000127654241
2.767209382e-05
7.951415668e-05
0.0001197357226
0.0001340333411
-0.0001288498253
0.0008000915984
-0.0003192613122
-4.352430665e-06
-0.0002763432833
-1.095768824e-05
-0.0001536162079
-8.869210191e-06
-6.277568669e-05
-5.871212633e-06
-2.422825213e-05
-9.733979361e-06
-6.675262555e-06
-1.615612405e-05
-1.833313858e-05
2.400125685e-06
-4.83827887e-05
-2.216978649e-07
-0.0001044629546
-0.0001124315806
-3.031324078e-05
-0.0007441107926
-3.860008423e-05
-0.0001527524132
0.0002159044278
-0.000705418163
0.0007742418064
-0.0007709760017
0.0003530789415
-0.0003614731994
0.008833152002
-9.443289234e-05
-5.888423968e-05
-0.002911878235
-0.008306081079
-0.002212195577
-0.005751209646
-0.0005189745906
-0.004380335888
-0.000458043271
0.0002029664144
-0.0004877896436
0.000300668421
-0.0005030859204
0.0003498061621
-0.0004957766003
0.0003974176418
-0.0004579479973
0.0004254295219
-0.0003936730309
0.000401585971
-0.0003384824951
0.0003428668434
-0.0003145563703
0.0002852734031
-0.000313247251
0.0002578864594
-0.0003486161343
0.0003041918213
-0.0005070488982
0.0004354880662
-0.0002450426878
0.0003863507753
-0.000130950394
6.335563839e-05
-5.639167104e-05
2.489750575e-05
-2.996325104e-05
9.8443471e-06
-2.416989499e-05
1.716364744e-06
-1.545892932e-05
-7.550010649e-06
-8.977475759e-07
-1.178457495e-05
-1.187090836e-07
2.072624259e-06
1.123765898e-07
5.047266051e-07
-4.499967602e-05
-1.500127994e-06
-1.449771427e-05
-0.0002622712798
-5.654656519e-06
-7.945052352e-05
0.00028442626
-0.0005669644328
0.0002853400095
-0.0003485136964
0.0002631776512
7.886534449e-05
0.009017367147
0.0001005816767
0.0002037872674
-0.002956944493
-0.004115920848
-0.00218568475
-0.005645397412
-0.001937314503
-0.005760751042
-0.0004346738249
-0.001774139963
-0.0006276708776
0.0005720600713
-0.0006845808711