/*--------------------------------*- C++ -*----------------------------------*\
  =========                 |
  \\      /  F ield         | OpenFOAM: The Open Source CFD Toolbox
   \\    /   O peration     | Website:  https://openfoam.org
    \\  /    A nd           | Version:  8
     \\/     M anipulation  |
\*---------------------------------------------------------------------------*/
FoamFile
{
    version     2.0;
    format      ascii;
    class       volVectorField;
    location    "1.8/wallFilmRegion";
    object      U;
}
// * * * * * * * * * * * * * * * * * * * * * * * * * * * * * * * * * * * * * //

dimensions      [0 1 -1 0 0 0 0];

internalField   nonuniform List<vector> 
1369
(
(-0.2960907696 -0.4389316899 0)
(-0.4976979364 -0.002894309022 0)
(-0.4924830672 -0.6241175518 0)
(-0.4965232118 -0.5458672516 0)
(-0.4692078459 -0.470396997 0)
(-0.4224558258 -0.4040558069 0)
(-0.3898617039 -0.3942375403 0)
(-0.31558582 -0.468314411 0)
(-0.4444588835 -0.4023885579 0)
(-0.5054554625 -0.6926682462 0)
(-0.5583042533 -0.6668155556 0)
(-0.5837070806 -0.6275860474 0)
(-0.5847042897 -0.572604046 0)
(-0.5796260396 -0.5408410974 0)
(-0.6231873242 -0.614166714 0)
(-0.8204214818 -0.9060357223 0)
(-0.8576837424 -0.8045271535 0)
(-0.8112272452 -0.7348914254 0)
(-0.3083570948 -0.4740935784 0)
(-0.4462925799 -0.5697131587 0)
(-0.5215328516 -0.7452545015 0)
(-0.5859460248 -0.7486027819 0)
(-0.6235974282 -0.7501048319 0)
(-0.6373820707 -0.7464387219 0)
(-0.6556843678 -0.7617205499 0)
(-0.6880670545 -0.8151379629 0)
(-0.737252757 -0.8797149908 0)
(-0.758347761 -0.7895277566 0)
(-0.8506047797 -0.794093556 0)
(-0.8417195068 -0.7165756954 0)
(-0.4787512774 -0.6281115775 0)
(-0.3016964516 -0.4805243067 0)
(-0.4593391226 -0.6244863341 0)
(-0.5432493832 -0.7811571009 0)
(-0.6181765731 -0.8079893498 0)
(-0.664964948 -0.8502256105 0)
(-0.6839878386 -0.9138095418 0)
(-0.6866400152 -0.9528497042 0)
(-0.6495987207 -0.9088118537 0)
(-0.6371738365 -0.8044350011 0)
(-0.6487754575 -0.7268185317 0)
(-0.7801281253 -0.8172263256 0)
(-0.7885590713 -0.7397722605 0)
(-0.7818564828 -0.6663222054 0)
(-0.7686797362 -0.5983038727 0)
(-0.7527600464 -0.5345871903 0)
(-0.7330701771 -0.4707018468 0)
(-0.700213365 -0.3956177888 0)
(-0.2997032664 -0.4978217183 0)
(-0.4926719462 -0.6272138147 0)
(-0.5800213995 -0.8001185365 0)
(-0.6577882571 -0.8352357158 0)
(-0.6962879483 -0.8896340422 0)
(-0.6969763962 -0.9600064998 0)
(-0.6191914288 -0.9329961381 0)
(-0.5694296273 -0.8611605701 0)
(-0.5606458461 -0.7564477918 0)
(-0.580107601 -0.6984735679 0)
(-0.7062177938 -0.8282028999 0)
(-0.710111502 -0.7423898282 0)
(-0.6935743532 -0.6578835903 0)
(-0.6644922969 -0.5779678424 0)
(-0.6242764445 -0.5054197714 0)
(-0.5794557724 -0.4473724559 0)
(-0.5409512127 -0.4087903158 0)
(-0.6306609999 -0.4206825857 0)
(1.009019457 -0.3561501405 0)
(-0.2948918992 -0.5223179191 0)
(-0.5822070505 -0.607712448 0)
(-0.6600875236 -0.8247105119 0)
(-0.72014984 -0.8457550267 0)
(-0.724762781 -0.8821015271 0)
(-0.6497873638 -0.8779999871 0)
(-0.5527312348 -0.8370804498 0)
(-0.4940397059 -0.7975989922 0)
(-0.4852450866 -0.7735030174 0)
(-0.5300207235 -0.7952163912 0)
(-0.6314975839 -0.8498495421 0)
(-0.6354101575 -0.7412159341 0)
(-0.6089591961 -0.6400719203 0)
(-0.5598295828 -0.5389625057 0)
(-0.4822586764 -0.4405378913 0)
(-0.376448462 -0.3571377814 0)
(-0.2518665726 -0.3082085266 0)
(-0.07257844768 -0.2340852666 0)
(0.133919258 -0.08764054028 0)
(-0.01894835982 -0.03482066078 0)
(-0.1190730614 -0.02879422741 0)
(-0.09827672187 -0.02023373231 0)
(-0.1274117821 0.03293419167 0)
(-0.2758517205 -0.5483153738 0)
(-0.7738110636 -0.5559505417 0)
(-0.8015332458 -0.8935361306 0)
(-0.7513580943 -0.8392879317 0)
(-0.6760993234 -0.7966769983 0)
(-0.5851791754 -0.7483171807 0)
(-0.4949562799 -0.6909335518 0)
(-0.4211799157 -0.6240789068 0)
(-0.3808305803 -0.5638177026 0)
(-0.3906870012 -0.5843925733 0)
(-0.5596200311 -0.8772894714 0)
(-0.5695488179 -0.7488705403 0)
(-0.5384638791 -0.6284011877 0)
(-0.4753554331 -0.5005784193 0)
(-0.3688565366 -0.3673762031 0)
(-0.2231365051 -0.2463657439 0)
(-0.06965687153 -0.1587461781 0)
(0.03503397909 -0.07365077279 0)
(0.1320159139 0.05510071361 0)
(-0.04359018356 -0.1018411722 0)
(-0.1120885481 0.009195627738 0)
(-0.1170492139 -0.004990072899 0)
(-0.2530367529 -0.03339756922 0)
(-0.02974666222 -0.08888370694 0)
(-0.008086477072 -0.1401872607 0)
(-0.2394358541 -0.5803438021 0)
(-0.7287620454 -0.3287454405 0)
(-0.7025070907 -0.881709415 0)
(-0.6609515348 -0.7692371308 0)
(-0.6028649084 -0.687134248 0)
(-0.5329303198 -0.6114410973 0)
(-0.4557089861 -0.5332337301 0)
(-0.3783941635 -0.4401000874 0)
(-0.3161737994 -0.3280725009 0)
(-0.2795047298 -0.3188685238 0)
(-0.4896428324 -0.9273944201 0)
(-0.5127130476 -0.7796454322 0)
(-0.487139783 -0.6410609024 0)
(-0.4254457247 -0.4863979512 0)
(-0.3131651073 -0.3183132085 0)
(-0.1705529685 -0.1754917265 0)
(-0.05660221997 -0.102230191 0)
(0.0004746011377 -0.09150053658 0)
(-0.2750369944 -0.003703576644 0)
(0.01409228275 0.01937329966 0)
(-0.1575308461 0.02425604692 0)
(-0.1761138626 -0.02074930437 0)
(-0.4273210632 -0.04099043069 0)
(0.01119036626 -0.1644094526 0)
(0.009771361005 -0.07489586038 0)
(0.1830252212 -0.005300322054 0)
(-0.2086447155 -0.6074718231 0)
(-0.5976145905 0.01252999767 0)
(-0.6043323626 -0.9140315557 0)
(-0.5901504627 -0.7507547602 0)
(-0.5503647199 -0.6230890244 0)
(-0.4969396985 -0.5028539395 0)
(-0.4354123394 -0.3902754299 0)
(-0.3713888008 -0.268308887 0)
(-0.3156183389 -0.06782494235 0)
(-0.2249911818 -0.1131877386 0)
(-0.4150652686 -1.003672073 0)
(-0.4567113611 -0.850221353 0)
(-0.4491956519 -0.702984217 0)
(-0.4151401483 -0.5359408149 0)
(-0.3385503479 -0.3402105426 0)
(-0.2260431866 -0.1402073639 0)
(-0.1245052862 0.03270705172 0)
(0.01706808299 0.235454142 0)
(-0.570552682 -0.09253739095 0)
(-0.1998255934 -0.07085933969 0)
(-0.286506109 -0.1261567522 0)
(-0.2451020339 -0.06273691921 0)
(-0.4811290314 -0.04216635339 0)
(0.05320523618 -0.06889787733 0)
(0.03229312862 -0.09359196159 0)
(-0.03651521732 -0.06401017313 0)
(-0.1773581797 -0.6362526717 0)
(-0.4637749287 0.4175144303 0)
(-0.4937405814 -1.003317547 0)
(-0.5028812711 -0.8178332042 0)
(-0.477847468 -0.6541951054 0)
(-0.4378548896 -0.4901498831 0)
(-0.4007956289 -0.3498477619 0)
(-0.4023313686 -0.1964826486 0)
(-0.6305720825 -0.1826430322 0)
(-0.2644997641 0.1201426493 0)
(-0.3269621581 -1.081538294 0)
(-0.3807911337 -0.9719074187 0)
(-0.3922256534 -0.8275796559 0)
(-0.393678432 -0.6733012336 0)
(-0.3785289545 -0.4921909837 0)
(-0.3297465675 -0.2596558037 0)
(-0.1395757552 0.2422255868 0)
(-0.5800620546 0.1002391508 0)
(-0.6194424091 -0.2564815752 0)
(-0.1173396838 -0.3533094775 0)
(-0.07003478594 -0.3471369385 0)
(-0.03866869246 -0.3756468196 0)
(0.01068124106 -0.07360247581 0)
(0.04432960897 0.4404068704 0)
(0.0271708772 0.01519075491 0)
(-0.02714609881 -0.133805927 0)
(0.006431437063 -0.3116973767 0)
(-0.1482018281 -0.6780406294 0)
(-0.2978252001 0.6935142097 0)
(-0.3710728394 -1.102134778 0)
(-0.3707618571 -0.9259708712 0)
(-0.3304077055 -0.7332321632 0)
(-0.2801149793 -0.555130746 0)
(-0.2595404415 -0.4864846949 0)
(-0.377122833 -0.7319756398 0)
(-0.4513956925 -0.5839517863 0)
(-0.2417463893 0.341309397 0)
(-0.2207893637 -1.142787763 0)
(-0.247999537 -1.170313029 0)
(-0.2583161455 -1.038720554 0)
(-0.2665511761 -0.9147476466 0)
(-0.2720545228 -0.796345071 0)
(-0.2761822355 -0.6695503375 0)
(-0.3209192595 0.486620619 0)
(-0.8724226835 -0.18535535 0)
(-1.220751192 -0.2701252111 0)
(-0.4652536133 0.2364867225 0)
(0.1921911512 -0.02610099706 0)
(0.2373966018 -0.1147304905 0)
(0.5040932761 -0.07688209285 0)
(0.03564985226 -0.003599496917 0)
(0.182893686 -0.08777779884 0)
(0.1817384605 -0.1194489607 0)
(0.2490569029 -0.1396050338 0)
(-0.1201553647 -0.7156005283 0)
(-0.1575917547 0.7313522854 0)
(-0.2446519906 -1.140171736 0)
(-0.1997626176 -0.9049892485 0)
(-0.1643007304 -0.6411242246 0)
(-0.171760349 -0.5330559874 0)
(-0.1755910484 -0.5070612924 0)
(-0.08532514038 -0.2880494704 0)
(0.5325090913 -0.2641903877 0)
(-0.2410440256 0.2944050671 0)
(0.2864306303 -0.9459800292 0)
(0.3707679544 -0.9223180057 0)
(0.398780947 -0.8603204806 0)
(0.4190883882 -0.7668677523 0)
(0.4369078812 -0.6225450339 0)
(0.3050328858 -0.3781718112 0)
(-0.553945244 -0.2310793666 0)
(-0.8499259081 -0.2724756644 0)
(-1.016740939 -0.2890519811 0)
(-0.2251167525 0.1705116174 0)
(0.006413555979 0.1699178825 0)
(0.1299327167 0.03140832573 0)
(0.4106080702 -0.009296835867 0)
(-0.06955458917 0.1275095098 0)
(-0.07327784454 0.04948521114 0)
(0.535397105 -0.05205084362 0)
(0.2750104881 0.004648695893 0)
(-0.1080672143 -0.7333504403 0)
(-0.03565906107 0.7507761191 0)
(0.2180275242 -0.8044673429 0)
(0.1100007956 -0.5726186349 0)
(0.05329555978 -0.4714616453 0)
(0.03717898549 -0.4311800376 0)
(0.05488796289 -0.4316015243 0)
(0.1178661692 -0.6015318838 0)
(0.1346130064 -0.7289657308 0)
(-0.2366703992 -0.6871165984 0)
(0.2970269103 -0.8402207055 0)
(0.2099374478 -0.6556881004 0)
(0.03302175258 -0.452188915 0)
(-0.09969664432 -0.2138258652 0)
(0.429572783 -0.473375904 0)
(-0.2882235349 -0.3040257268 0)
(-0.6144934796 -0.3025835708 0)
(-0.864874119 -0.3790218383 0)
(-0.8586413103 -0.2692980336 0)
(-0.1600007123 0.1151359351 0)
(-0.1218490079 0.1998495578 0)
(-0.179934486 0.2509640455 0)
(0.06277490757 0.08354848643 0)
(-0.09449399847 0.1280585672 0)
(-0.0653875932 0.1048360245 0)
(0.1308769632 0.03756133878 0)
(0.08394210513 0.08706360362 0)
(0.05116427591 0.04044975403 0)
(-0.1233733779 -0.7078016043 0)
(0.02570768389 0.7248858524 0)
(0.310004703 -0.842121847 0)
(0.206283023 -0.6369803433 0)
(0.1047050374 -0.5249725938 0)
(-0.002845662763 -0.4439213053 0)
(-0.0885341007 -0.4215356391 0)
(-0.1340132724 -0.4914508471 0)
(-0.1579288178 -0.6756068081 0)
(-0.2694211054 -0.6633319339 0)
(0.303087505 -0.1884201996 0)
(0.2545030928 -0.4118186386 0)
(0.1237409141 -0.3081066999 0)
(0.1392268939 0.3058983367 0)
(0.1708568394 0.2313832272 0)
(-0.3283356646 -0.3350672147 0)
(-0.6134368527 -0.3828026945 0)
(-0.8009433725 -0.414143112 0)
(-0.7141516346 -0.2306435361 0)
(-0.1345207638 0.1028911888 0)
(-0.02957626005 0.211892248 0)
(-0.1453663802 0.1112379831 0)
(-0.1216298105 0.06989968328 0)
(-0.1040214179 0.1070170734 0)
(-0.04088727598 0.04252228551 0)
(0.03437828071 -0.01576114307 0)
(0.1520929718 0.175752319 0)
(0.03313239072 0.08621687702 0)
(0.04727594664 0.05866598559 0)
(-0.1274663476 -0.6161763927 0)
(0.141166477 0.6329674448 0)
(0.4039608804 -0.8562166577 0)
(0.3501860176 -0.698388631 0)
(0.276237228 -0.613329464 0)
(0.1981731258 -0.547926876 0)
(0.1488858737 -0.5266156959 0)
(0.1546204433 -0.5428603921 0)
(0.2082984612 -0.5682842368 0)
(0.3403644419 -0.5809894849 0)
(0.2684532078 -0.4650375896 0)
(0.1055573567 -0.3958125887 0)
(-0.1649157763 -0.3589300485 0)
(0.1653068238 0.2808200399 0)
(0.1910645104 0.194584992 0)
(-0.3062856602 -0.4185931017 0)
(-0.5953625462 -0.5006315822 0)
(-0.7026750464 -0.4286962187 0)
(-0.5994028812 -0.2014349438 0)
(-0.0853850414 0.1413248129 0)
(-0.1493037346 0.06022348987 0)
(-0.1480660721 0.04972640623 0)
(-0.1086196865 0.04370847179 0)
(-0.1274415779 0.0313077067 0)
(0.07597794286 -0.008127713658 0)
(0.08241656179 -0.0155990937 0)
(0.2591738253 -0.004660157044 0)
(0.04707096663 0.06867259454 0)
(0.04164828058 0.1223817868 0)
(-0.09940119699 -0.5849474689 0)
(0.3625450665 0.602128186 0)
(0.4954726163 -0.8554492637 0)
(0.4821585366 -0.7363524981 0)
(0.4248555669 -0.672494047 0)
(0.3491861936 -0.6182542396 0)
(0.2638171869 -0.580912982 0)
(0.2029245892 -0.5520069241 0)
(0.2057560136 -0.5262383931 0)
(0.2695887598 -0.5072380147 0)
(0.2621419047 -0.4304427934 0)
(0.2488715498 -0.310820128 0)
(0.2464155447 -0.227779432 0)
(0.2362673119 0.2181859139 0)
(0.2322537355 0.04158699529 0)
(-0.2867915923 -0.5396855271 0)
(-0.5037506909 -0.5734716596 0)
(-0.5927810663 -0.4639629418 0)
(-0.531330524 -0.2157442666 0)
(-0.1735618313 0.1836610037 0)
(-0.1321338027 0.136461336 0)
(-0.1151434482 0.1126655287 0)
(-0.04574599383 -0.006576732405 0)
(0.1147553213 -0.1309633219 0)
(0.1197702321 -0.02942112825 0)
(0.1288971518 -0.0998560719 0)
(0.2466268565 -0.01019369851 0)
(0.1406951831 0.01733969823 0)
(0.09513521475 0.09547310123 0)
(-0.05712430953 -0.5568664522 0)
(0.5052148686 0.1437334339 0)
(0.5859141435 -0.8508450917 0)
(0.5929987055 -0.761106322 0)
(0.546534246 -0.7132064866 0)
(0.4769448463 -0.6716699657 0)
(0.3839390251 -0.6362028007 0)
(0.2864718098 -0.5892006178 0)
(0.2378569444 -0.5134006708 0)
(0.2575923158 -0.4354202327 0)
(0.2831567786 -0.3460878875 0)
(0.3070496057 -0.2202333314 0)
(0.3308566757 -0.1186122344 0)
(0.3279755658 0.1026058368 0)
(0.2788897753 -0.2815188117 0)
(-0.2172251086 -0.6728761881 0)
(-0.3729641007 -0.6831103965 0)
(-0.4513287458 -0.5630011955 0)
(-0.4881468159 -0.3696022384 0)
(-0.1587631825 0.4262758386 0)
(-0.1022035324 0.3792858351 0)
(-0.09323764529 0.3625461871 0)
(-0.05973527318 0.1369201447 0)
(0.1125723944 -0.02251455327 0)
(0.0873108738 0.02272584977 0)
(0.1875594046 -0.08026769552 0)
(0.2031418484 -0.01017564269 0)
(0.1798898039 -0.002061391767 0)
(0.114616149 0.008282791265 0)
(0.1619198602 -0.09056249685 0)
(0.1438995076 0.05048489511 0)
(0.1392389924 0.1452085828 0)
(0.1200089128 0.0980502123 0)
(0.07864241106 0.05434312154 0)
(-0.03328729096 -0.5339483777 0)
(0.559954961 -0.2266565862 0)
(0.6654852818 -0.8501981375 0)
(0.6762808611 -0.7786925215 0)
(0.636685863 -0.7412702697 0)
(0.5719283148 -0.7080158448 0)
(0.4811048085 -0.6738012317 0)
(0.3789313248 -0.613619091 0)
(0.3300103944 -0.4998168196 0)
(0.3773940046 -0.4073309505 0)
(0.4329258979 -0.4126919961 0)
(0.4536334517 -0.4516975179 0)
(0.3945301807 -0.5108914893 0)
(0.3396329571 -0.4501064451 0)
(0.2601275075 -0.8573709078 0)
(0.07281062253 -1.165575504 0)
(0.04715127557 -0.9711220582 0)
(0.03470927646 -0.7406324262 0)
(0.01979739065 -0.4398545633 0)
(-0.06971099474 0.3175830267 0)
(-0.05427998068 0.63008125 0)
(-0.04123998689 0.6479077129 0)
(-0.01174263329 0.3898988355 0)
(0.06662451519 0.07325998945 0)
(0.05856676466 0.01359294043 0)
(0.1425460148 -0.05180466139 0)
(0.1419621174 -0.02077253377 0)
(0.1191361655 -0.01387426303 0)
(0.1154602465 0.004234084841 0)
(0.1601846329 -0.02388231397 0)
(0.2300858173 0.03838363511 0)
(0.1038624991 0.05668378557 0)
(0.1000598284 0.04334972504 0)
(0.07227484686 0.01546538748 0)
(-0.01151187973 -0.5304433684 0)
(0.5708623085 -0.4277106905 0)
(0.7172161372 -0.8552000449 0)
(0.7299887333 -0.79261768 0)
(0.695497688 -0.7612593547 0)
(0.6336896901 -0.7319101289 0)
(0.5442263016 -0.6948366202 0)
(0.443035998 -0.6187031641 0)
(0.4015572542 -0.4850514778 0)
(0.4453984757 -0.4184821048 0)
(0.480959311 -0.4601564379 0)
(0.4661795535 -0.5522764729 0)
(0.4311110626 -0.6649810729 0)
(0.3882298325 -0.7554590593 0)
(0.3561844118 -0.9935431766 0)
(0.3823324639 -0.8478621421 0)
(0.3955795719 -0.5668486843 0)
(0.295424913 -0.3021277143 0)
(0.1222457566 -0.132725911 0)
(-0.06131837108 -0.1175494663 0)
(-0.03226821556 -0.1000215994 0)
(0.01075477183 -0.07354054602 0)
(0.04741335704 -0.02928836948 0)
(0.07019638723 -0.02198686782 0)
(0.04710239405 -0.007845959394 0)
(0.06698698448 -0.01809784957 0)
(0.10007866 -0.01025534471 0)
(0.06409308485 -0.009918138334 0)
(0.06343821717 0.02551082366 0)
(0.03980236238 0.02036412323 0)
(0.02936191995 0.003237458257 0)
(-0.01630151487 -0.05989741024 0)
(-0.01871733037 -0.02178344503 0)
(0.02751859831 0.0277827352 0)
(0.0183783664 -0.5317969676 0)
(0.5890429146 -0.5455774273 0)
(0.7435377551 -0.8682827804 0)
(0.7579655297 -0.8066173799 0)
(0.7281490024 -0.7777620573 0)
(0.6699989009 -0.7496550985 0)
(0.5847314055 -0.7087309339 0)
(0.4908553572 -0.6216392077 0)
(0.448710083 -0.4776049621 0)
(0.4812356586 -0.3991364572 0)
(0.516050167 -0.4291308387 0)
(0.5086031997 -0.5273601832 0)
(0.4939834189 -0.6385698378 0)
(0.4731141365 -0.7366591984 0)
(0.4725428669 -0.7760561757 0)
(0.5383855647 -0.6109915693 0)
(0.5722345998 -0.4575539359 0)
(0.4986884903 -0.3096367863 0)
(0.2214381129 -0.1825611539 0)
(-0.06484025536 -0.1215099184 0)
(-0.02365678274 -0.1120276316 0)
(0.02288002599 -0.08728380618 0)
(0.05363935016 -0.04541923717 0)
(-0.07920008987 -0.01213463205 0)
(-0.02653923603 -0.008297470168 0)
(0.0520071788 -0.008843150752 0)
(0.0579759314 -0.01520995591 0)
(0.0453168607 -0.02557316347 0)
(0.02785973365 0.004038071392 0)
(-0.02465307534 0.03253551503 0)
(-0.02722316433 0.0237116821 0)
(-0.006453419034 0.02008412152 0)
(0.04156471266 0.00191348426 0)
(0.06448883353 -0.4863116778 0)
(0.5831659113 -0.5808755488 0)
(0.7655408827 -0.9011539128 0)
(0.7533178823 -0.8270499431 0)
(0.7151133018 -0.7997500401 0)
(0.6452461308 -0.770412894 0)
(0.5464773246 -0.7249842317 0)
(0.430571149 -0.6353101406 0)
(0.357741798 -0.48384673 0)
(0.3722353293 -0.3673652623 0)
(0.3288465103 -0.3609109587 0)
(0.2354543545 -0.4173295631 0)
(0.1729462379 -0.4450793129 0)
(0.09376015282 -0.4416684265 0)
(0.09245457402 -0.3976579538 0)
(0.3962253965 -0.3576153688 0)
(0.4365665448 -0.3068782606 0)
(0.4894901517 -0.2622903318 0)
(0.3689014747 -0.1928369809 0)
(-0.07903191148 -0.1109862126 0)
(-0.04781866224 -0.1136354383 0)
(-0.00752698081 -0.107029257 0)
(0.03225488505 -0.1760435139 0)
(-0.002980261575 -0.09357782142 0)
(0.374979559 0.103867452 0)
(0.08682494488 0.0446805223 0)
(0.05485505202 -0.029443398 0)
(0.04136203748 -0.03590265621 0)
(0.008536408863 0.01647458023 0)
(0.001810309896 0.02957439989 0)
(-0.0003924324529 -0.00865133951 0)
(-0.04079190384 -0.05131383177 0)
(0.06318919546 -0.4626380074 0)
(0.4683606417 -0.571303908 0)
(0.5612052431 -0.7680087867 0)
(0.5512553732 -0.689435029 0)
(0.4445198561 -0.5937328361 0)
(0.2857412228 -0.4685576557 0)
(0.1156296859 -0.3396353835 0)
(-0.02847814357 -0.241419873 0)
(-0.05154775335 -0.2039019863 0)
(-0.08421431373 -0.3198031278 0)
(-0.4082564566 -0.6932310352 0)
(-0.5198973295 -0.63869235 0)
(-0.493250864 -0.5441428518 0)
(-0.3664707228 -0.4176115764 0)
(-0.09356484681 -0.2801595467 0)
(0.2238209257 -0.2115220919 0)
(0.2190786516 -0.1966193497 0)
(0.2628489353 -0.1838513812 0)
(0.2636922315 -0.1478832477 0)
(-0.07413535854 -0.08880344431 0)
(-0.04794409456 -0.1138480831 0)
(-0.01856052114 -0.09866829427 0)
(0.03335577547 -0.08143632402 0)
(0.1867432138 -0.0525833504 0)
(0.1855981482 0.01643480134 0)
(-0.09075048293 -0.02856807925 0)
(0.06189406769 -0.02398447283 0)
(0.05053959774 -0.005983952573 0)
(0.04597395944 -0.004698005232 0)
(-0.004986421524 -0.009910269094 0)
(-0.04803147964 -0.06258963586 0)
(-0.06189057731 -0.08365140447 0)
(0.07056965933 -0.5786414654 0)
(0.3597218252 -0.4930897174 0)
(0.4026015916 -0.6934000334 0)
(0.3980749867 -0.6333857561 0)
(0.3216965128 -0.5617416022 0)
(0.2184908262 -0.4820088563 0)
(0.1103121393 -0.4213682228 0)
(0.04777436974 -0.1830070775 0)
(-0.01028442317 -0.09587202784 0)
(-0.06208218715 -0.125436243 0)
(-0.2597077874 -0.888521851 0)
(-0.2917585287 -0.7757551478 0)
(-0.2618528814 -0.6188230729 0)
(-0.184645908 -0.4248851241 0)
(-0.04588553724 -0.2166737551 0)
(0.1471774301 -0.1552703429 0)
(0.1254292493 -0.1453957531 0)
(0.1095469989 -0.134762867 0)
(0.07493431818 -0.1145993078 0)
(-0.06090566318 -0.1147359281 0)
(-0.0471124119 -0.1146276713 0)
(-0.04176340206 -0.1086478598 0)
(-0.02593731872 -0.09707938844 0)
(0.01721218168 -0.1307777405 0)
(0.04194689709 -0.1118223485 0)
(-0.005790940237 0.009878243961 0)
(0.04540376428 0.1045319543 0)
(0.03483487525 -0.02429041883 0)
(0.02486345597 -0.04794724457 0)
(0.006546728019 -0.04175599755 0)
(-0.01025764576 -0.06616161301 0)
(-0.02793332225 -0.07273444082 0)
(0.08235832918 -0.5584383261 0)
(0.2385560019 -0.1737884293 0)
(0.272238817 -0.6969623477 0)
(0.2517360044 -0.7558461213 0)
(0.1666656266 -0.9144382706 0)
(0.1172729462 -1.102846064 0)
(0.1393649461 -1.174109644 0)
(0.1982791825 -1.119739482 0)
(0.1327565558 -1.016613228 0)
(0.1167117394 -0.9412901671 0)
(0.2087390807 -1.050279361 0)
(0.2181662692 -0.8959664682 0)
(0.2098840821 -0.7806478636 0)
(0.1831845252 -0.6428328567 0)
(0.1361019097 -0.3664538954 0)
(0.07517274674 0.1229742481 0)
(0.08278073447 0.1497207179 0)
(0.06155512168 0.2137686796 0)
(-0.04994428248 0.01882939382 0)
(-0.04098504255 -0.108550623 0)
(-0.03142209211 -0.1122398448 0)
(-0.02203132821 -0.1192115425 0)
(-0.01235061622 -0.1137227766 0)
(0.02035652816 -0.1040039747 0)
(0.1274173341 -0.0889666137 0)
(0.1781965901 -0.05731545596 0)
(0.03600285933 -0.03035907503 0)
(0.03757687534 -0.03273914671 0)
(0.05991743851 -0.03955865664 0)
(0.0625226433 -0.01949877982 0)
(0.04832226652 -0.04301058174 0)
(0.1041289855 -0.4997862275 0)
(0.1926600696 0.4153438598 0)
(0.2162576566 -0.740066973 0)
(0.2406818184 -0.8120815412 0)
(0.1739706355 -1.014290939 0)
(0.1469067094 -1.203300992 0)
(0.1704417554 -1.238710753 0)
(0.2069426063 -1.194169306 0)
(0.2271157762 -1.123487825 0)
(0.2461547544 -1.04783709 0)
(0.2801756497 -0.9821834157 0)
(0.3055395832 -0.8954026784 0)
(0.3195202343 -0.8336489006 0)
(0.299677703 -0.7363354674 0)
(0.2677917782 -0.6075767082 0)
(-0.4301616205 -0.3820566175 0)
(-0.2023488718 -0.1448603349 0)
(-0.1375014586 -0.04391806812 0)
(-0.1490718658 -0.04006276702 0)
(-0.01819603525 -0.1043833206 0)
(-0.02363780697 -0.1205282412 0)
(-0.03541511755 -0.1198566804 0)
(-0.04996326123 -0.116258908 0)
(-0.006656351629 -0.1088070477 0)
(0.01829933677 -0.0975632106 0)
(0.02465348877 -0.0765794717 0)
(0.0004556905426 -0.04987075788 0)
(0.03184443653 -0.02581121526 0)
(0.05304902071 -0.02383274807 0)
(0.07167874307 -0.00052867077 0)
(0.06752104924 -0.004011424577 0)
(0.1251836385 -0.444403441 0)
(0.3007307329 0.4380043573 0)
(0.2985235841 -0.872065971 0)
(0.3026137517 -0.9008704866 0)
(0.2536779177 -1.007833383 0)
(0.2110925344 -1.117606467 0)
(0.2373401904 -1.160549355 0)
(0.298892964 -1.147843545 0)
(0.3453916255 -1.095647894 0)
(0.3776991508 -1.022290312 0)
(0.4079402117 -0.9445547448 0)
(0.4296808334 -0.8731475387 0)
(0.4363553922 -0.8220560939 0)
(0.4303885044 -0.7586728166 0)
(0.4207905743 -0.6791684401 0)
(-0.4115692323 -0.6111080006 0)
(-0.3402786654 -0.3453736744 0)
(-0.1589118461 -0.08335775749 0)
(-0.03685397231 -0.08347333187 0)
(-0.0008888891473 -0.09090313208 0)
(0.05305626848 -0.1117870882 0)
(0.04971028326 -0.1139105895 0)
(0.02713310243 -0.09932128714 0)
(-0.0137929957 -0.07588762971 0)
(0.02705349677 -0.1003162675 0)
(0.03660479247 -0.09653927082 0)
(0.02646480901 -0.04505179107 0)
(0.03366435396 -0.001664874837 0)
(0.05124057442 9.766404114e-05 0)
(0.07456583063 0.0295965412 0)
(0.05459180878 0.042277105 0)
(0.1411319918 -0.4198998006 0)
(-0.04248320735 -0.4156135432 0)
(-0.174597084 -0.9720619744 0)
(-0.279420534 -0.994507917 0)
(-0.3358987625 -0.9854231805 0)
(-0.3059939959 -0.9690055526 0)
(-0.06814511836 -0.9712633361 0)
(0.2236058367 -0.9933178464 0)
(0.3963852275 -0.9855846063 0)
(0.4807520377 -0.9428419619 0)
(0.5338471228 -0.8868549605 0)
(0.5871654978 -0.8382586178 0)
(0.5599743097 -0.8136403483 0)
(0.5657864287 -0.7608315841 0)
(0.5755612023 -0.7044836845 0)
(0.2256148808 -1.048509969 0)
(0.217556141 -0.88455201 0)
(0.1918643756 -0.6235570129 0)
(0.08508675347 -0.2079886264 0)
(0.02180769304 -0.0798311186 0)
(0.02069983573 -0.07098898475 0)
(-0.04256704924 -0.1201823135 0)
(-0.07083047011 -0.118183048 0)
(-0.03158895664 -0.06756284981 0)
(0.05034722665 -0.03557117836 0)
(0.02118803868 -0.05441214902 0)
(0.04823819412 0.008199665151 0)
(0.04481908831 0.03986673735 0)
(0.05828211175 0.05623293971 0)
(0.07305959434 0.06600098404 0)
(0.0523410872 0.09002709535 0)
(0.1624078942 -0.4274522172 0)
(-0.02819275059 -0.1395459546 0)
(-0.1856205928 -0.6026418034 0)
(-0.2461399426 -0.935449737 0)
(-0.339119158 -1.012039423 0)
(-0.4139475269 -0.9667329607 0)
(-0.3814682294 -0.8955495656 0)
(-0.1969089125 -0.8259079654 0)
(0.008736426459 -0.8035488272 0)
(0.1665241976 -0.784899108 0)
(0.3075369782 -0.7365070243 0)
(0.4505828608 -0.8186535261 0)
(0.6064250005 -0.7899191409 0)
(0.6951837772 -0.7501199637 0)
(0.7234000101 -0.7107354184 0)
(0.3826680449 -0.8087060377 0)
(0.2926436334 -0.5443754959 0)
(0.04191612454 -0.2263627303 0)
(-0.06401413547 -0.132233879 0)
(-0.08144779155 -0.1120478052 0)
(-0.165132628 -0.1630560575 0)
(-0.1592337397 -0.1544518409 0)
(-0.1158011091 -0.1326879428 0)
(-0.03812513717 -0.1078648799 0)
(0.005883616453 -0.06761002049 0)
(-0.01717218451 0.02259668293 0)
(-0.02318292511 0.05417137389 0)
(-0.02102158659 0.06674203381 0)
(0.06667221803 0.08058422814 0)
(0.09017002872 0.09235416872 0)
(0.003313553512 0.05857370939 0)
(0.1653165737 -0.4366473146 0)
(-0.1183451191 -0.005888327984 0)
(-0.1976363375 -0.3921230834 0)
(-0.1783099203 -0.5445359544 0)
(-0.3383439853 -0.970110355 0)
(-0.4097234455 -0.9415365575 0)
(-0.4294322912 -0.9051079076 0)
(-0.3505259842 -0.8455114772 0)
(-0.2342760212 -0.771920568 0)
(-0.08186743075 -0.7328430592 0)
(0.1632346873 -0.7294452356 0)
(0.4087820718 -0.7468327234 0)
(0.6345178271 -0.7531101467 0)
(0.7973334361 -0.7319431739 0)
(0.8229586592 -0.6920378927 0)
(0.3354896661 -0.5587639998 0)
(0.08674246889 -0.2799862595 0)
(-0.01903863685 -0.1877742357 0)
(-0.02712994865 -0.162838839 0)
(-0.1176909464 -0.2132909567 0)
(-0.1568104017 -0.207174118 0)
(-0.1743784942 -0.1789030465 0)
(-0.1604284942 -0.1401820563 0)
(-0.09922860175 -0.1014983912 0)
(-0.03578742111 -0.04955409671 0)
(0.04755454113 -0.008918286428 0)
(-0.2436761033 0.01617191834 0)
(-0.2216957108 0.001248903146 0)
(0.05127137254 0.07582928506 0)
(0.1078714025 0.09907141106 0)
(0.001389083775 0.009402455437 0)
(0.1313776387 -0.4305023905 0)
(-0.1983045655 0.08323737961 0)
(-0.2458546039 -0.2865067241 0)
(-0.1309299833 -0.3354179034 0)
(-0.2328206845 -0.9354864542 0)
(-0.3203795922 -0.9388732874 0)
(-0.3466658565 -0.9122274011 0)
(-0.2818538425 -0.8719219483 0)
(-0.1492163116 -0.8071560553 0)
(-0.1982054263 -0.7396045041 0)
(-0.06077665215 -0.7086148643 0)
(0.3504974985 -0.7086534624 0)
(0.6189650514 -0.7088762496 0)
(0.7770804212 -0.6730642791 0)
(0.5939952133 -0.508556483 0)
(0.01507268715 -0.2126577884 0)
(0.02757275743 -0.1794403047 0)
(-0.03140979695 -0.2572662903 0)
(-0.09386327311 -0.2771957991 0)
(-0.1300220417 -0.2656343816 0)
(-0.1648477451 -0.2428353879 0)
(-0.2081371395 -0.2161929081 0)
(-0.2270590222 -0.1638048332 0)
(-0.1389193618 -0.09673418661 0)
(0.03107538026 -0.03038064098 0)
(-0.02708354199 0.09020037056 0)
(-0.3846677726 -0.002113455155 0)
(-0.3390132333 -0.02747684359 0)
(0.03998876436 0.04134624447 0)
(0.1120395884 0.06844542358 0)
(0.09987641134 -0.001408836324 0)
(0.05319967174 -0.3944370728 0)
(-0.2087605924 0.1810543774 0)
(-0.2464167472 -0.2371451363 0)
(-0.1210322063 -0.2901056332 0)
(0.3788131992 -1.257099269 0)
(0.4684832189 -1.217494089 0)
(0.4750524154 -1.111251282 0)
(0.4701833649 -1.017363877 0)
(0.4636474674 -0.938659745 0)
(0.4607920941 -0.8701882419 0)
(0.4474116136 -0.7966027366 0)
(0.458393934 -0.7165797847 0)
(0.593630366 -0.6676860362 0)
(0.745957902 -0.6164109502 0)
(0.724984377 -0.4681177137 0)
(0.2816962833 0.2789420741 0)
(0.0717962562 -0.09654755859 0)
(-0.07913111631 -0.2873589146 0)
(-0.1035279141 -0.3098094977 0)
(-0.1506955425 -0.3002228636 0)
(-0.2340674246 -0.3010169928 0)
(-0.3297003193 -0.3344797129 0)
(-0.3363948432 -0.2529474982 0)
(-0.3509473016 -0.1173718371 0)
(-0.2070799833 0.2593258411 0)
(-0.2901138049 0.09219413155 0)
(-0.5055571295 -0.01685206238 0)
(-0.4247103211 -0.05213480693 0)
(-0.004355873683 -0.06598191783 0)
(-0.017307446 0.00569632278 0)
(-0.02662366852 0.01116417287 0)
(0.02452108019 -0.3253619261 0)
(-0.1881848193 0.2908226954 0)
(-0.2297467363 -0.1975213025 0)
(-0.1802728168 -0.1557947537 0)
(-0.007601603768 -0.4678116823 0)
(0.537748678 -1.167001753 0)
(0.5510303542 -1.070514573 0)
(0.5586101684 -0.9935488166 0)
(0.5643569165 -0.9276712856 0)
(0.5678983403 -0.8717098205 0)
(0.5649838329 -0.8186228887 0)
(0.556072839 -0.7534504078 0)
(0.5799052118 -0.6663194308 0)
(0.6645970308 -0.5473727768 0)
(0.6871983543 -0.1858659266 0)
(0.4155313442 0.5658211679 0)
(0.1657148205 0.06361710609 0)
(-0.08016485581 -0.2320316595 0)
(-0.1610349702 -0.2991378707 0)
(-0.2335054819 -0.366884755 0)
(-0.2400402918 -0.341096841 0)
(-0.2588714179 -0.3114300792 0)
(-0.3272277017 -0.2672525677 0)
(-0.4149720652 -0.1386785097 0)
(-0.4066496845 -0.0925033231 0)
(-0.532566117 -0.05867269387 0)
(-0.6045182055 -0.02263605516 0)
(-0.7424981412 -0.05270203559 0)
(-0.2072497348 0.03652243375 0)
(-0.1795328581 0.05381323931 0)
(0.03540034874 0.07863734487 0)
(0.09015968193 -0.2404100264 0)
(-0.1530923842 0.1661818559 0)
(-0.1898306403 -0.1700182054 0)
(-0.1858741262 -0.09314714779 0)
(-0.1439189547 -0.2197118403 0)
(0.5220969039 -1.091559603 0)
(0.6131647547 -1.040032933 0)
(0.6276407945 -0.9628637413 0)
(0.6395985392 -0.8943996371 0)
(0.6433954627 -0.8345651216 0)
(0.629605319 -0.7740089987 0)
(0.5888426218 -0.6840999692 0)
(0.5111185904 -0.5465848551 0)
(0.4004172673 -0.3744907788 0)
(0.313860526 -0.1919152339 0)
(0.230161882 -0.1627018941 0)
(0.1430832655 -0.254791942 0)
(0.0667000951 -0.5727334246 0)
(0.07505517684 -0.5479700512 0)
(0.0792017382 -0.5221939672 0)
(0.0597196845 -0.4817038729 0)
(-0.07011397972 -0.4094501502 0)
(-0.3528098586 -0.3003956852 0)
(0.548763726 -0.3184117103 0)
(0.172941017 0.1819100565 0)
(-0.5497170858 -0.05265409504 0)
(-0.7145476485 -0.03436795493 0)
(-0.56574045 -0.1011829182 0)
(-0.1613206748 0.09791436213 0)
(-0.2107557836 0.0641798622 0)
(0.0327291537 0.09339881006 0)
(0.1545336068 -0.2414992126 0)
(0.1005748273 0.2442855592 0)
(-0.1169350258 -0.1402792533 0)
(-0.1635243577 -0.05597048547 0)
(-0.1642645302 -0.1116738434 0)
(-0.05150825627 -0.1877226364 0)
(0.6696870489 -0.9639963884 0)
(0.688989514 -0.9147342005 0)
(0.7053017349 -0.8397948244 0)
(0.7166063362 -0.7641773045 0)
(0.6634449878 -0.7225525218 0)
(0.5752630193 -0.640522831 0)
(0.4396759565 -0.5573602568 0)
(0.2918030134 -0.5000596577 0)
(0.1903421859 -0.471317655 0)
(0.1759037622 -0.4688690645 0)
(0.148531161 -0.5527491301 0)
(0.1294197853 -0.630337843 0)
(0.1202730968 -0.5944446888 0)
(0.09204916424 -0.5497213663 0)
(-0.007013305062 -0.4764119049 0)