/*--------------------------------*- C++ -*----------------------------------*\
  =========                 |
  \\      /  F ield         | OpenFOAM: The Open Source CFD Toolbox
   \\    /   O peration     | Website:  https://openfoam.org
    \\  /    A nd           | Version:  8
     \\/     M anipulation  |
\*---------------------------------------------------------------------------*/
FoamFile
{
    version     2.0;
    format      ascii;
    class       volScalarField;
    location    "1.8/wallFilmRegion";
    object      alpha;
}
// * * * * * * * * * * * * * * * * * * * * * * * * * * * * * * * * * * * * * //

dimensions      [0 0 0 0 0 0 0];

internalField   nonuniform List<scalar> 
1342
(
1.185052568e-07
8.632613935e-07
1.05100007e-09
1.808905578e-10
1.778052977e-09
2.599193826e-08
1.345195262e-09
0.3074398086
0.6380394173
1.175607255
1.18312705
5.127089808e-16
9.344083089e-16
1.946528482e-15
4.854782163e-15
1.504113744e-14
1.251264038e-13
4.512633289e-12
2.95190945e-37
4.150526507e-38
6.83187637e-38
2.485893325e-37
4.713427142e-36
6.114150058e-34
1.167048143e-33
0.09983223147
0.2031388369
0.3673366518
0.3665168342
1.839781872e-31
9.030019678e-32
4.738096609e-32
2.02022047e-32
5.994272994e-33
1.301191658e-33
1.454710423e-33
2.083491909e-36
2.018406517e-38
4.37074628e-39
2.038229254e-39
7.113366766e-39
4.55197971e-37
1.282329761e-34
0.1843804471
0.184074046
4.183792227e-32
2.287164767e-32
1.264808503e-32
5.7519022e-33
1.819552389e-33
2.673764124e-34
8.065238698e-37
1.131452074e-36
1.97507231e-36
3.772758819e-36
7.471109607e-36
1.424579443e-35
2.01797267e-35
1.06221352e-35
9.517271344e-38
7.384154451e-40
1.30153769e-36
3.213751288e-36
1.101264249e-35
1.750364574e-37
2.0586721e-37
3.076513692e-37
5.111494074e-37
9.075422941e-37
1.67818541e-36
2.797822963e-36
2.559202811e-36
7.305366669e-37
8.609121866e-40
3.178637636e-38
1.029759915e-37
3.15111692e-38
2.918878084e-38
3.370489949e-38
4.099262908e-38
5.093207531e-38
6.76069409e-38
1.01699808e-37
1.5006039e-37
3.648141029e-38
5.967500655e-39
2.399983734e-39
3.270659439e-40
3.396956347e-41
4.217146031e-40
2.080876877e-40
1.230556281e-40
9.012623394e-41
6.998086295e-41
4.954909215e-41
2.77987454e-41
9.544812794e-42
2.676949225e-42
6.006580638e-27
2.010528992e-07
1.344568773e-26
2.23283049e-26
7.45926584e-26
8.226373135e-26
6.457966505e-06
1.221254302e-09
1.446749578e-36
1.510238754e-36
5.932676383e-10
2.462287057e-36
7.980163954e-36
2.070250635
0.5171578625
1.149664777
0.1943683996
1.130684936
0.1590120743
0.002595124954
0.002064704415
0.0003940565998
0.004742335961
0.0004247754015
0.0005898215933
0.01134491765
0.0008884377712
0.001563555148
0.0256346763
0.004601936712
0.01342108839
0.1542263981
0.01490259206
0.02330620158
0.1772813646
0.03678500392
0.05256878297
0.1952797353
0.06874781212
0.09319609708
0.3666518303
0.1570824733
0.2616041355
0.7038982524
0.3582691636
0.5503085478
0.2197895265
0.2487359135
0.04815849116
0.03535703326
0.02111876227
0.005636187034
0.00238044093
0.001997078261
0.0007869481897
0.001523536134
0.0004039994836
0.000305490018
0.002619346942
0.0001802545115
0.02591164285
0.005063128718
0.006119516255
0.002269915311
0.008408393545
0.002958194721
0.004644645635
0.01645200383
0.007109024078
0.009617198599
0.05349185766
0.01463523079
0.03227038979
0.1793579334
0.06404053613
0.09954889777
0.293126385
0.1457016305
0.2113747361
0.2821577226
0.292710667
0.3697946385
0.3906136853
0.2067597927
0.2172799878
0.03272972308
0.06084530035
0.02968826249
0.002181702462
0.005304830032
0.0008973898919
0.000455797792
0.0008452574858
0.0002915857525
0.0002834187876
0.0002620821926
0.0001528693197
0.02896841042
0.0007361379104
0.008314736272
0.00116162721
0.004813456762
0.001041230499
0.002849076014
0.0007544284313
0.001237562275
0.01179759927
0.00395314485
0.01124601792
0.01948366701
0.02432980449
0.03241536316
0.03695883215
0.02128780058
0.007817739994
0.09511210258
0.00185668403
0.0008857865115
0.2987880473
0.00206505348
0.005749243266
0.06385351936
0.03690149387
0.0182272714
0.02399689466
0.01291921147
0.01110181681
0.0003070225176
0.004748421917
0.0001366649977
0.0002081547274
0.0007859378312
0.0002283278711
0.0001646132065
0.0001928572621
0.0001419495578
0.007175101485
0.0002893524508
0.004950571202
0.001187143674
0.005355455201
0.001327917885
0.000297341714
0.0005581586338
0.0001135743957
0.002066842184
2.332143423e-05
2.428701752e-05
0.01359461003
5.647593219e-05
0.0001321270261
0.02290004341
0.0002374153158
0.0003837545545
0.0006130446689
0.0006765623256
0.0005082184255
0.0009670590244
0.0002762347234
0.001972844439
1.869510179
0.01188316473
0.8565034758
0.007119046069
0.00596925202
0.002609916961
0.005328953932
0.002116537523
0.001912666616
1.270737628e-05
0.009528687438
7.964681272e-07
0.0001704262902
9.951655253e-05
0.0001199111931
0.0001198096384
0.0001199527614
9.566835597e-05
0.001329009529
0.0004930804049
0.007055577711
0.001537301197
0.008776714395
0.002251305271
9.048296434e-05
0.0004684441074
6.722563683e-05
3.068973803e-06
7.939513809e-06
3.450952364e-06
5.566582014e-06
6.027002994e-06
1.308170636e-05
7.439043587e-06
2.127048267e-05
1.49241198e-05
2.845946657e-05
2.290913051e-05
6.903067644e-05
0.002382455236
0.0007514050012
0.004674778049
0.5649255501
0.0241586276
0.3818921474
0.0006219789797
6.969341451e-07
7.270394567e-08
6.695039603e-05
5.801644328e-26
1.283539898e-37
2.268927087e-07
1.062256686e-37
1.056206129e-07
8.54816904e-05
3.43317613e-05
6.208919388e-05
6.9152104e-05
6.672806e-05
5.059803582e-05
0.03077454463
0.01025362418
0.02735558211
0.01245305771
0.03363465497
0.01691575907
3.686462989e-05
0.001330388936
9.807274237e-06
4.962506609e-06
3.500164248e-06
9.559227395e-06
3.598022159e-05
3.121048299e-05
9.922427228e-05
3.792300984e-05
0.0003302935991
0.0001667649483
0.0002990114621
0.0002540723659
0.0007037455813
0.01037148842
0.007279117991
0.02755949901
1.933090869e-06
5.697127768e-07
6.488449676e-08
5.376375574e-07
9.13047112e-08
9.388976986e-26
1.241775601e-09
3.19532477e-09
7.057908563e-08
1.227267554e-08
7.442810642e-08
4.722596222e-05
2.336555929e-05
4.842831604e-05
0.001244905869
0.00197953911
0.04767411342
0.0551782151
0.1214370454
0.1198355609
0.001735490159
0.06300071048
0.001132373989
4.110905094e-06
0.0001875563999
2.311086964e-05
1.545071445e-06
7.270943293e-06
4.260783668e-07
1.140616111e-06
3.246988838e-07
1.924943324e-07
0.0008664166427
0.005941198863
0.003579875312
0.001746445321
0.002542438267
0.003576327725
0.07995845212
0.09538185297
0.2448917687
2.246477197e-05
0.01593157529
1.915154871e-05
0.009429793584
0.008571914179
3.682667928e-05
0.007842551272
0.007157135606
0.000424380166
0.006485207244
0.005835447862
0.008385625359
0.005252044891
0.006799206413
0.1055063079
0.03516037417
0.08184462088
0.1832669627
0.07842475502
0.05926540148
0.1204776721
0.04417546994
0.0326840529
0.01793168953
0.02440209873
0.01711514734
0.001986187097
0.009883162266
0.008778463809
0.02393028057
0.02704522997
0.03032527818
0.005031703646
0.007970808153
0.002061326374
1.449668877e-35
7.48777808e-36
2.263973891e-35
8.775593572e-36
1.111257953e-35
4.431970908e-35
1.494413799e-35
2.094535434e-35
9.523956642e-35
3.008948028e-35
4.379690563e-35
2.048013254e-34
6.400942414e-35
9.302214846e-35
3.824413422e-34
1.323271626e-34
1.792322707e-34
4.367098525e-34
2.212571858e-34
2.326551959e-34
1.52375925e-34
1.891426883e-34
1.045846471e-34
1.495081956e-35
3.762946844e-35
1.273889011e-35
6.51453427e-37
2.356092227e-37
1.006676253e-37
1.644617923e-38
4.375397264e-38
8.611334288e-39
4.066369508e-36
5.743984075e-36
1.043875005e-35
2.124897882e-35
4.435132238e-35
8.660679515e-35
1.231997196e-34
6.986958706e-35
2.394150459e-36
2.676566749e-36
1.138822654e-35
1.632007616e-35
2.341062016e-35
3.325961279e-35
4.740769782e-35
1.247728884e-35
2.304889504e-35
5.467745838e-36
6.152127458e-37
1.900151343e-36
3.853713941e-38
8.571214172e-38
8.311676872e-39
7.685753147e-37
9.206884089e-37
1.469016557e-36
6.798802282e-37
8.669179135e-37
2.712235215e-36
1.147174882e-36
5.298574104e-36
1.045956106e-35
4.118913875e-36
5.726197302e-36
1.812798033e-35
7.798035824e-36
1.003785775e-35
1.770488094e-35
4.041703536e-36
3.505503627e-37
8.317381725e-37
1.047990246e-38
1.7887885e-38
1.007715053e-38
6.58053527e-40
1.825986222e-37
8.118714639e-38
3.930959428e-37
9.438256066e-38
2.050571039e-37
2.612852381e-37
2.236671498e-36
3.396122233e-37
4.465733397e-37
3.037116723e-36
5.790951765e-37
1.577249e-36
2.492908315e-37
1.018542062e-39
2.053179944e-38
2.105893935e-38
3.446401639e-38
8.939694973e-38
1.427618727e-38
0.6354945096
7.74670821e-10
0.4979197869
7.927005186e-10
0.6506374305
1.597588227e-09
0.9459130315
3.803110561e-09
1.471771268
9.259201307e-09
2.098511192
1.645565813e-08
2.012611391
1.574968802e-08
1.339705164
1.641529689e-08
5.194456419e-08
0.8515358265
3.59073809e-08
0.2654857708
1.136592499
0.005276195218
0.003290053103
0.007149874526
0.01903778874
0.08629743781
0.1557764641
0.187144454
0.2410200948
0.5451014867
6.207469674e-07
0.5681540939
3.945582125e-07
0.6168718857
0.4180577869
0.2526372364
0.007134024431
0.001213754921
0.002106715874
0.005108491986
0.006110970236
0.01181178157
0.02611825013
0.1092510019
0.2442848331
0.3151512724
1.122910691e-06
2.448565951e-06
0.1782140565
0.2548315999
0.1379585817
0.008409951278
0.001278791676
0.0002627712191
0.0008555605265
0.004636567633
0.001411043185
0.006473731371
0.01502901147
0.02920704715
0.05452405035
0.1710450515
0.5070741198
0.12014106
0.02635214617
0.003168166041
0.001394261108
0.0002173256704
0.0009275322126
0.005267725749
0.0006112839933
0.0006342247633
0.005803564403
0.02370913431
0.01015364056
8.531099387e-05
0.01161060627
0.01376962842
0.00558023052
0.003025235058
0.0002290700358
0.0001563894195
0.0001712374771
0.005531308998
0.0005197791948
1.143173801e-05
3.078712004e-06
8.146643299e-06
9.545115257e-06
0.000320170705
0.01550519976
0.001869603631
0.0005980261157
7.520588286e-14
5.454290715e-05
8.97430347e-05
0.009977263568
0.03863602531
0.0005083083031
4.568254749e-06
1.371120235e-05
7.232346439e-05
6.977712015e-05
0.002113541611
0.04457415877
8.069104863e-07
7.797198824e-26
3.056865008e-35
2.438769558e-05
5.209561537e-05
0.04423391254
0.03185547997
0.0002790417274
1.273166138e-06
1.760938763e-06
0.001819624825
0.0008901359186
0.02564052854
0.2208952693
0.02747917719
1.94903963e-05
2.221880935e-05
0.0001042254629
0.001909076455
0.03624943492
0.1702577178
0.1559326869
0.04929295432
0.004720029014
0.008004182961
0.01195461809
0.04875921115
0.332400893
0.0005414450067
0.0003129207787
0.000260074511
0.0002413724234
0.03328063159
0.03744997982
0.02647785433
0.02475812341
0.03858019806
0.0198438995
0.001247462916
1.117806042e-15
0.003648672704
1.313764745e-35
1.745110578e-35
3.108013708e-35
6.462343356e-35
1.404952653e-34
2.891689044e-34
4.499032133e-34
3.164941674e-34
4.807997356e-35
4.619556094e-36
1.583233781e-36
4.630599725e-36
9.184840159e-38
1.034388573e-37
8.191345907e-38
1.0843786e-38
1.13145089e-33
1.222138394e-33
4.644407965e-36
7.571636553e-36
4.205881719e-36
1.478221703e-35
8.004810039e-36
3.072497405e-35
6.313441588e-35
1.103860204e-34
5.951876454e-35
1.102432633e-34
6.596249108e-35
2.684496959e-35
1.446792368e-35
3.0906213e-35
4.894680364e-35
9.718163953e-35
1.969732882e-36
3.483150552e-39
6.988183333e-39
2.795581096e-40
1.747931833e-40
6.509317702e-39
0.02935087974
0.0127416219
0.02947509723
4.006337285e-33
2.314473064e-33
2.472458162e-33
1.45103572e-33
7.717966274e-34
7.159520826e-34
2.593059416e-34
1.421641814e-34
4.347867962e-35
2.295550657e-38
1.913477083e-38
1.216026357e-40
4.858432264e-40
9.414234992e-40
2.454297259e-41
4.441279002e-11
3.315503624e-35
1.555171354e-35
9.79099441e-36
5.348173013e-35
2.076524692e-36
1.022249628e-36
2.729297695e-38
1.036389542e-38
8.643097906e-39
8.940605495e-39
2.650695256e-38
9.367286219e-39
3.127101528e-38
9.333654508e-39
8.84616762e-39
8.396183194e-39
8.983173824e-39
4.770271109e-39
3.745649427e-39
3.666559281e-39
3.623041724e-39
3.364011375e-39
2.867038302e-39
2.243468579e-39
1.876638135e-39
4.760812793e-39
1.827049528e-39
1.36235073e-39
1.242845978e-39
1.143725263e-39
9.934259038e-40
7.733482435e-40
5.068775493e-40
2.91270852e-40
6.074377691e-40
6.584622757e-40
4.760259942e-40
3.863540864e-40
3.237103945e-40
2.649178298e-40
1.943310014e-40
1.13899098e-40
4.650540487e-41
6.970377955e-41
0.860869533
1.204479421e-09
1.06477296
1.438673293e-34
0.4995243094
6.606453548e-10
0.5012592831
0.09163127439
3.010318538e-34
7.024680989e-34
0.5591050285
1.093704678e-09
0.01401498542
0.01208110301
1.784863516e-33
4.843341976e-33
0.7755612057
2.42935624e-09
0.01394404221
0.01652917987
1.38531051e-32
4.145551545e-32
1.175255196
6.007642483e-09
0.02105992936
0.03166585069
1.293004065e-31
4.185854949e-31
1.816261247
1.324216042e-08
0.06287824036
0.1613484342
1.396647958e-30
4.740092035e-30
2.16435657
1.709073141e-08
0.3253033861
0.3809097475
1.600600811e-29
5.208611914e-29
1.712616096
1.484582279e-08
0.3846637888
0.3884016833
1.568766204e-28
4.174189664e-28
1.02007006
2.143576342e-08
0.3812158001
0.3788640251
9.46731294e-28
1.890598339e-27
0.4246040382
0.570592572
3.496975556e-27
0.9114716687
0.6106148211
0.3477341525
0.3743736822
0.3352477934
0.2432326104
5.201634501e-26
0.3922552951
5.461131127e-26
1.107174425e-25
9.907993222
0.009420498021
3.427816006e-08
2.518952567
4.897821544e-30
6.475945141e-36
0.2832223933
0.1001998198
4.393276143e-09
8.212027791e-09
0.2945503122
5.51730166e-35
3.612367854e-34
7.799246134e-34
1.524481447e-08
0.4648705497
1.697032116e-33
0.06974136541
0.07371478929
1.555336948e-09
0.385847014
1.991321073e-08
0.5477008271
0.5802624442
2.141156369e-33
2.478476441e-33
3.090043673e-33
0.0007830110136
0.6299035696
0.1974204609
0.07313892116
0.0003837100406
0.8763372136
1.202394846
0.4502121697
0.113430229
0.164970451
0.0002803683387
1.63891204
2.206880345
0.8827851418
0.2314854924
0.3176913335
0.0002461831398
2.875001275
3.405676976
1.403892025
0.4208117153
0.5005328736
0.002644651349
3.153514482
1.863051735
6.725205383e-08
0.4195500824
3.559420228e-08
0.04883854694
1.783809778
1.784543195
6.818768346e-16
3.22212651e-31
2.205931808e-31
0.03042451065
1.709679863
1.563091618
1.323357852e-15
1.645291135e-31
1.200308181e-31
0.02431161702
1.366709486
1.148803483
2.994600376e-15
8.488273831e-32
5.776721143e-32
0.0307233122
0.9342116996
0.7339797463
8.299963687e-15
3.756086112e-32
2.268879908e-32
0.03650862952
0.5497872771
0.381784639
3.361538738e-14
1.157753386e-32
5.081870952e-33
0.007674925838
0.2226979749
0.08672423932
7.044631112e-13
2.759924545e-33
3.170401533e-33
4.68907772e-12
0.002771344726
0.01617038673
4.991303078e-33
1.047410818e-32
3.162682666e-33
3.673474421e-33
1.699161811e-37
3.314170874e-38
8.56958005e-38
1.593539643e-38
9.154144874e-39
4.770437182e-38
8.123697429e-39
2.428089082e-39
7.449075467e-39
1.195255184e-37
1.034884339e-38
1.738453653e-38
6.469873011e-37
3.70865541e-38
9.879518956e-38
6.21593404e-35
1.532277047e-34
6.188312354e-37
1.361149703e-35
8.984450323e-35
3.577661515e-34
5.233920287e-35
8.587344313e-34
2.783267875e-34
3.017531699e-34
2.054087196e-34
0.06431904298
0.1450091239
0.2779316922
0.2105249614
0.4367692998
0.2780780299
0.3309588113
4.823505917e-08
0.2776549343
4.557186462e-08
1.19275944e-31
9.621593132e-32
5.892480221e-32
6.664294144e-32
4.532858711e-32
3.396236751e-32
3.201031416e-32
2.452089207e-32
1.684302025e-32
1.165781277e-32
1.082055837e-32
6.349203635e-33
2.727104164e-33
3.278731803e-33
1.422164775e-33
1.312661809e-33
5.817044977e-34
5.355958497e-34
1.30605407e-33
5.283068831e-34
4.186288803e-34
4.05187751e-34
4.351762392e-34
3.244377535e-36
5.718793732e-36
4.587287635e-35
6.89371531e-35
2.338752429e-37
7.010263848e-37
3.604733438e-38
5.701783724e-39
2.915331407e-39
2.808730741e-39
1.762144196e-39
3.335471425e-39
1.945049228e-39
1.125623837e-39
7.610007482e-40
5.100125743e-40
2.926911076e-39
5.333257765e-40
2.878221298e-40
2.453868184e-38
8.905654393e-40
6.807987531e-40
3.185575363e-40
1.617323695e-36
1.033761607e-38
9.710657922e-37
2.495473852e-36
7.611307262e-36
2.074875869e-36
2.533629074e-35
8.651793857e-35
1.346898946e-34
1.186082627e-35
2.614978737e-35
0.08452222382
0.1393791022
0.2198896281
0.1125086348
0.1345769735
0.112311066
1.421311528e-08
2.759706966e-08
2.052174833e-32
1.559638012e-32
2.941732864e-32
1.731688576e-32
1.220493684e-32
9.301801889e-33
6.843811408e-33
4.807369452e-33
8.80598543e-33
1.935387414e-33
3.445647811e-33
3.177097245e-33
1.050413057e-33
7.855484086e-34
4.772701645e-34
1.976790648e-34
1.541430706e-34
1.995029111e-35
1.348020171e-34
3.052331454e-35
4.601768539e-35
4.165469157e-35
4.950895974e-37
5.069046286e-37
5.651336779e-37
1.551847817e-36
2.129429915e-36
2.95346245e-36
1.151405563e-35
1.073660163e-35
7.336170925e-36
3.534676934e-36
1.825807371e-37
2.467400152e-37
6.756901606e-37
1.233283876e-36
4.14090151e-37
2.399635416e-37
6.743361055e-39
1.112773157e-39
1.183718277e-39
3.680865509e-40
2.722075763e-40
8.674802683e-41
1.334519365e-40
1.170383764e-40
6.643790649e-41
1.487621118e-40
9.021022555e-41
7.306214723e-40
1.907546305e-38
1.424646272e-39
1.03027063e-39
4.627595785e-38
2.807237586e-37
3.480724422e-37
1.618199143e-10
0.01537932003
1.14115193e-10
0.01286568265
2.649104702e-10
2.492315867e-34
2.0595088e-34
1.305420524e-33
1.675397932e-34
1.026720784e-34
5.60039678e-34
7.606146631e-35
3.847721471e-34
2.46081554e-34
2.095175928e-35
1.080108343e-35
2.576713579e-35
4.260605642e-36
7.629727787e-36
2.260932268e-35
1.814221049e-36
2.722440733e-36
7.739257903e-36
5.47404069e-37
1.545955239e-36
0.02184321113
0.009487838167
0.03545802309
1.01107789e-09
3.095230207e-33
1.629635222e-33
1.925574856e-33
1.020195541e-33
1.048068962e-33
4.542135207e-34
1.248836205e-34
7.006846816e-35
8.103619821e-36
2.819301411e-36
7.790566203e-38
7.016163904e-38
6.860759125e-38
7.243721793e-38
1.11933443e-37
1.345651069e-37
1.644256164e-37
6.979701836e-37
6.994425696e-37
5.472161938e-37
3.93171372e-37
3.687459028e-38
2.681021715e-38
2.920290864e-38
2.252462501e-38
3.088965659e-38
2.020129497e-38
3.713331814e-38
2.262537275e-38
2.449828833e-38
4.546132802e-38
2.87052745e-38
5.798063553e-38
8.150506928e-38
3.874811814e-38
4.495595734e-38
1.281552358e-37
5.42102612e-38
6.729208502e-38
1.437085267e-37
8.176013026e-38
9.110406847e-38
8.015700346e-38
1.991650546e-38
5.166033265e-38
2.413759062e-39
1.366254403e-39
3.255204797e-38
1.621441151e-39
4.055050131e-39
2.299754074e-40
3.394268228e-40
1.139936409e-40
2.578029847e-40
2.116611318e-40
7.986281412e-41
4.444023135e-41
1.042143846e-40
5.934891198e-41
2.956831766e-41
1.187883864e-41
2.014133143e-41
1.36731445e-41
2.903321386e-42
9.931091255e-42
2.643994364e-40
4.911554251e-35
1.17549122e-40
4.010604e-35
4.246343816e-41
9.515371453e-42
4.120067898e-46
1.033646637e-40
2.273693424e-35
3.036103971e-46
2.363182883e-46
1.89564814e-46
1.252373819e-35
1.524593444e-46
6.005712966e-41
1.200850218e-46
9.082177859e-47
3.864023527e-41
5.241016132e-36
6.460713404e-47
3.473902431e-36
4.209385051e-47
2.406228413e-47
1.115955194e-47
3.998764594e-37
3.499604903e-48
1.72105562e-56
6.245650889e-45
2.322335053e-44
6.349748744e-38
2.087242686e-42
4.559157379e-42
1.577482049e-42
1.933465621e-10
6.107034629e-35
2.989973221e-34
2.720316333e-35
1.891751049e-35
1.331989884e-34
7.356698877e-36
3.512044837e-35
1.05680805e-36
5.094370971e-37
4.841006918e-38
1.280889637e-38
9.173409077e-39
9.107373484e-39
7.300078075e-39
6.312615953e-39
8.679596187e-39
5.9033912e-39
5.84907197e-39
9.204434856e-39
5.947261508e-39
6.041030326e-39
9.411739524e-39
6.06029924e-39
5.992675695e-39
9.134744821e-39
5.832026385e-39
5.579079986e-39
8.555181191e-39
5.24430501e-39
4.87177684e-39
8.531989798e-39
4.53686941e-39
4.351871652e-39
1.007599131e-38
4.494179793e-39
6.037184665e-39
9.006639706e-39
6.084117575e-39
3.857610571e-39
4.064099333e-39
2.98765786e-39
2.510430884e-39
3.658399194e-39
2.278971929e-39
2.190139468e-39
3.668948691e-39
2.157931965e-39
2.122313081e-39
3.522667173e-39
2.060896502e-39
1.970374046e-39
3.144144599e-39
1.8481409e-39
1.690718391e-39
2.554171984e-39
1.499116124e-39
1.284319508e-39
1.990645942e-39
1.065896856e-39
8.715882583e-40
2.163911552e-39
7.390136154e-40
7.818793635e-40
3.854595548e-39
1.675925344e-39
1.816837341e-39
8.704066894e-40
2.367182644e-39
1.411126014e-39
1.52164515e-39
1.096193737e-39
9.099042005e-40
1.286356854e-39
8.036294784e-40
7.425235009e-40
1.198778053e-39
6.996738053e-40
6.594389883e-40
1.076147335e-39
6.173306772e-40
5.718051846e-40
8.925407139e-40
5.203197312e-40
4.603903115e-40
6.414160651e-40
3.917819963e-40
3.169599288e-40
3.839191287e-40
2.407264529e-40
1.704280754e-40
2.719748661e-40
1.161029664e-40
9.879900192e-41
6.632197522e-40
2.066022865e-40
2.241080046e-40
1.20782854e-40
7.131237266e-41
8.189882995e-40
6.288468837e-40
6.292439452e-40
5.495894785e-40
4.835753207e-40
3.796876693e-40
2.901267382e-40
4.251526471e-40
3.056471604e-40
2.541380449e-40
1.558643723e-40
3.534101913e-40
2.176344898e-40
1.912337369e-40
2.95036763e-40
1.708026774e-40
1.531351808e-40
7.967355826e-41
2.315104396e-40
1.358075865e-40
1.174638255e-40
1.543942411e-40
9.759027918e-41
7.666287625e-41
7.623100825e-41
5.562959718e-41
3.60111704e-41
1.779079148e-41
3.57569117e-41
1.992619936e-41
1.381662194e-41
1.940793776e-41
3.54940278e-42
)
;

boundaryField
{
    walls
    {
        type            zeroGradient;
    }
    wallFilmFace_top
    {
        type            zeroGradient;
    }
    region0_to_wallFilmRegion_wallFilmFace
    {
        type            zeroGradient;
    }
    mirrorFace_top
    {
        type            zeroGradient;
    }
    region0_to_wallFilmRegion_mirrorFace
    {
        type            zeroGradient;
    }
    procBoundary3to2
    {
        type            processor;
        value           nonuniform List<scalar> 
64
(
0.1432516904
0.04390301205
0.07509836104
0.1537913808
0.1009966153
7.981587543e-37
2.073143862e-37
4.961325818e-38
9.51846874e-40
0.3332541286
0.5878121476
0.592400745
0.592400745
0.5616469203
0.263701403
0.1872560666
0.1780720151
0.1634304832
0.09820550764
0.04895786417
0.03021220991
0.01364579602
1.77961288e-06
1.77961288e-06
0.0002224930037
0.0001801332092
0.0001801332092
0.1515397159
0.09811418554
0.09811418554
1.146514731e-15
6.968465002e-36
6.968465002e-36
3.882652302e-36
2.335288994e-36
0.8644461854
1.459386305e-09
0.5627753111
0.0008859681216
7.865771664e-35
0.01571167495
3.996750893e-38
1.713895833e-38
8.401940801e-39
3.295329295e-39
1.049101549e-39
0.5627753111
7.865771664e-35
0.4844519199
0.04807076921
0.04801963242
0.1090574557
0.1537913808
0.06100915679
5.266248165e-37
0.006819947978
2.206055355e-10
9.485565603e-38
7.737046219e-35
5.311498125e-40
1.248373892e-38
5.382271348e-39
1.935140588e-39
8.427106957e-40
)
;
    }
}


// ************************************************************************* //
