/*--------------------------------*- C++ -*----------------------------------*\
  =========                 |
  \\      /  F ield         | OpenFOAM: The Open Source CFD Toolbox
   \\    /   O peration     | Website:  https://openfoam.org
    \\  /    A nd           | Version:  8
     \\/     M anipulation  |
\*---------------------------------------------------------------------------*/
FoamFile
{
    version     2.0;
    format      ascii;
    class       volScalarField;
    location    "1.8/wallFilmRegion";
    object      mu;
}
// * * * * * * * * * * * * * * * * * * * * * * * * * * * * * * * * * * * * * //

dimensions      [1 -1 -1 0 0 0 0];

internalField   nonuniform List<scalar> 
1342
(
0.0008861563445
0.000886153139
0.000886155183
0.0008861554921
0.0008861561128
0.0008861567448
0.0008861597253
0.000886147412
0.0008861474115
0.0008861474113
0.0008861474115
0.0008861594408
0.0008861584781
0.0008861583325
0.0008861599494
0.0008861604772
0.0008861603188
0.0008861608772
0.0008861595091
0.0008861599701
0.000886161431
0.0008861618745
0.0008861628659
0.0008861671258
0.0008861703303
0.0008861474126
0.0008861474119
0.0008861474117
0.0008861474118
0.0008861679789
0.0008861680653
0.0008861685531
0.0008861694737
0.0008861701525
0.000886172156
0.0008861727947
0.0008861705778
0.0008861588855
0.0008861595022
0.0008861637043
0.0008861652464
0.0008861668729
0.0008861749083
0.0008861474122
0.0008861474121
0.0008861723733
0.0008861726052
0.0008861733854
0.0008861749986
0.0008861768342
0.0008861773717
0.0008861773666
0.0008861758717
0.0008861732348
0.000886172283
0.0008861842921
0.000886176624
0.0008861717716
0.000886170363
0.000886160397
0.0008861612974
0.0008861712401
0.0008861753899
0.0008861778869
0.0008861751451
0.0008861726589
0.0008861704862
0.0008861686031
0.000886171011
0.0008861718135
0.0008861689519
0.0008861671941
0.0008861643138
0.0008861624975
0.000886172075
0.0008861767887
0.0008861711607
0.0008861685963
0.0008861671035
0.0008861662127
0.0008861665926
0.0008861666825
0.0008861659587
0.000886165468
0.000886164341
0.0008861652957
0.0008861670914
0.0008861681346
0.0008861700158
0.0008861650501
0.0008861640961
0.0008861641696
0.0008861654459
0.0008861670742
0.0008861687468
0.0008861699844
0.0008861710998
0.0008861735354
0.000886157977
0.0008861540103
0.0008861574203
0.000886154672
0.0008861550586
0.0008861551657
0.00088614956
0.000886155328
0.000886159092
0.0008861592421
0.0008861557429
0.0008861593203
0.0008861593346
0.000886147479
0.0008861475209
0.0008861474844
0.0008861474734
0.0008861474731
0.0008861474707
0.0008861474356
0.0008861474199
0.0008861473109
0.0008861474427
0.0008861473392
0.0008861473653
0.0008861474503
0.0008861473863
0.0008861474031
0.0008861474732
0.000886147425
0.0008861475158
0.0008861475856
0.0008861475794
0.0008861476099
0.0008861476368
0.0008861476268
0.0008861476375
0.000886147637
0.0008861476381
0.0008861476123
0.0008861475529
0.0008861475544
0.0008861475084
0.0008861475169
0.0008861475084
0.0008861475056
0.0008861475093
0.0008861475035
0.0008861474975
0.0008861474626
0.0008861474726
0.0008861474279
0.0008861473381
0.0008861473894
0.0008861473093
0.0008861472785
0.000886147259
0.0008861472411
0.0008861472557
0.0008861471847
0.0008861473819
0.0008861475362
0.0008861471493
0.0008861474308
0.0008861476337
0.0008861475789
0.0008861476275
0.0008861476415
0.0008861476411
0.0008861476402
0.0008861475709
0.000886147611
0.0008861475545
0.0008861474832
0.0008861475073
0.0008861474745
0.0008861474596
0.00088614746
0.0008861474559
0.0008861474544
0.0008861474543
0.0008861474533
0.0008861475049
0.0008861475053
0.0008861475045
0.0008861474972
0.0008861475023
0.0008861474972
0.0008861473632
0.000886147477
0.0008861472883
0.0008861472226
0.0008861473356
0.0008861471944
0.0008861469374
0.0008861470411
0.0008861443246
0.0008861472472
0.000886146509
0.0008861470317
0.0008861471714
0.0008861470679
0.0008861470258
0.0008861476079
0.0008861472977
0.0008861475623
0.0008861476427
0.000886147633
0.0008861476433
0.0008861475938
0.000886147646
0.0008861476471
0.0008861474818
0.0008861476476
0.0008861476466
0.0008861474542
0.0008861476299
0.0008861474911
0.0008861474524
0.0008861474513
0.0008861474489
0.0008861475035
0.0008861475032
0.0008861475011
0.0008861474968
0.0008861474981
0.0008861474932
0.000886147143
0.0008861474814
0.0008861469501
0.0008861471643
0.0008861472447
0.0008861471249
0.0008861460132
0.0008861469709
0.0008861463264
0.0008861470055
0.0008861457249
0.0008861469222
0.0008861470126
0.0008861470536
0.0008861470116
0.0008861473455
0.0008861471292
0.0008861469363
0.0008861476362
0.0008861466914
0.0008861472078
0.0008861476458
0.0008861474808
0.0008861475653
0.0008861476469
0.0008861475999
0.0008861476188
0.0008861476295
0.0008861476291
0.0008861476316
0.00088614747
0.0008861475482
0.0008861474555
0.0008861474472
0.0008861474461
0.0008861474463
0.0008861474968
0.0008861474981
0.0008861474886
0.0008861474858
0.0008861474796
0.0008861474667
0.0008861455671
0.0008861474767
0.0008861441192
0.0008861470217
0.0008861468851
0.0008861468705
0.0008861463477
0.0008861467307
0.0008861462483
0.0008861466325
0.0008861465585
0.0008861472566
0.0008861469973
0.0008861471289
0.0008861469823
0.0008861468438
0.0008861470306
0.0008861467203
0.0008861461583
0.0008861459802
0.000886146135
0.000886146779
0.000886146598
0.0008861469545
0.0008861470179
0.0008861471472
0.0008861471469
0.0008861472749
0.0008861472665
0.0008861473761
0.0008861474399
0.0008861474315
0.0008861474407
0.0008861474456
0.0008861474436
0.000886147445
0.0008861474672
0.0008861434796
0.000886143619
0.0008861471692
0.0008861400044
0.000886139437
0.0008861439258
0.0008861392089
0.0008861438648
0.0008861466587
0.000886146199
0.0008861463679
0.0008861460588
0.0008861462223
0.0008861457777
0.0008861474155
0.0008861474857
0.0008861474633
0.0008861472308
0.0008861474213
0.0008861473748
0.0008861464995
0.0008861473293
0.000886145976
0.0008861463287
0.0008861460315
0.0008861466895
0.0008861471798
0.0008861471258
0.0008861473361
0.0008861473098
0.0008861474152
0.0008861474089
0.0008861474173
0.0008861474254
0.000886147432
0.0008861474416
0.0008861474402
0.0008861474422
0.0008861432494
0.000886143139
0.0008861435619
0.0008861433525
0.000886143543
0.0008861396575
0.0008861436197
0.000886143682
0.0008861438398
0.0008861437466
0.0008861438186
0.0008861459848
0.0008861451363
0.0008861454652
0.0008861474142
0.0008861474202
0.0008861474972
0.0008861474826
0.0008861474952
0.0008861474879
0.0008861473331
0.000886147482
0.0008861472629
0.0008861456512
0.0008861470922
0.0008861464657
0.0008861459139
0.0008861461754
0.0008861454667
0.0008861462077
0.0008861455467
0.0008861455355
0.0008861474382
0.0008861474428
0.0008861474416
0.0008861474378
0.0008861474409
0.0008861474402
0.0008861474424
0.0008861474425
0.0008861474425
0.0008861439852
0.0008861475133
0.000886144202
0.0008861475108
0.000886147511
0.0008861457042
0.000886147514
0.0008861475198
0.0008861472911
0.0008861475285
0.0008861475401
0.000886147496
0.0008861475571
0.0008861475611
0.0008861474999
0.0008861475115
0.0008861474964
0.0008861474855
0.0008861474863
0.0008861474748
0.0008861474767
0.0008861474658
0.0008861474589
0.0008861474629
0.0008861474533
0.0008861474491
0.0008861474374
0.0008861474454
0.0008861474418
0.0008861474437
0.0008861474439
0.000886147444
0.0008861474401
0.0008861474421
0.0008861474336
0.000886299558
0.0008863057928
0.0008861784264
0.0008862105965
0.000886179558
0.0008861677654
0.0008861730715
0.000886170193
0.0008861683706
0.0008861697365
0.0008861696433
0.0008861757647
0.0008861716377
0.0008861775389
0.0008862318541
0.0008861920479
0.0008862181452
0.0008862240092
0.0008862900869
0.0008862267473
0.0008861784576
0.0008861866871
0.0008861780053
0.0008861867873
0.0008861786751
0.0008861820688
0.0008861634532
0.0008861612876
0.0008861591187
0.0008861580011
0.0008861574779
0.0008861593668
0.0008862308112
0.0008861816465
0.0008861718198
0.0008861705373
0.0008861766466
0.0008861900961
0.0008861929039
0.0008861753579
0.0008861933318
0.0008861893288
0.0008861707958
0.00088617069
0.0008861736979
0.0008861787543
0.0008861707397
0.0008861714737
0.0008861695226
0.0008861736888
0.0008861647021
0.0008861693027
0.0008861601211
0.0008861618314
0.0008861596294
0.0008861812035
0.0008861781072
0.0008861739689
0.0008861736324
0.0008861716983
0.0008861723258
0.0008861703515
0.0008861746246
0.0008861760313
0.0008861756685
0.0008861721893
0.0008861743266
0.000886177872
0.0008861735806
0.0008861701964
0.0008861703829
0.0008861640857
0.0008861663008
0.0008861606815
0.0008861621609
0.0008861603994
0.0008861616551
0.0008861752839
0.0008861699446
0.0008861693063
0.0008861685887
0.0008861683463
0.0008861688516
0.0008861697294
0.0008861685267
0.0008861668148
0.0008861679066
0.0008861658257
0.000886166127
0.000886162477
0.0008861639123
0.0008861672886
0.0008861656113
0.0008861643178
0.000886164652
0.0008861652926
0.0008861475881
0.0008861602395
0.0008861476148
0.0008861600529
0.0008861476149
0.0008861595902
0.0008861476157
0.0008861611144
0.0008861476183
0.0008861628215
0.0008861476271
0.0008861632764
0.0008861476439
0.0008861643754
0.0008861476524
0.0008861608798
0.0008861566314
0.0008861476475
0.0008861602458
0.0008861475226
0.0008861474751
0.0008861474515
0.0008861474386
0.0008861474468
0.0008861474549
0.0008861475228
0.0008861476202
0.0008861476432
0.0008861476029
0.0008861475173
0.0008861536805
0.0008861474718
0.0008861545099
0.000886147525
0.0008861475146
0.0008861474756
0.0008861474274
0.0008861472925
0.0008861472646
0.0008861473004
0.00088614761
0.0008861476414
0.0008861476232
0.000886147517
0.0008861474666
0.0008861474563
0.0008861530822
0.0008861517062
0.000886147453
0.0008861475058
0.000886147503
0.000886147475
0.0008861473516
0.0008861470964
0.0008861463964
0.0008861470796
0.0008861474741
0.0008861476373
0.000886147635
0.0008861475357
0.0008861474585
0.0008861474532
0.0008861474518
0.0008861475046
0.0008861475009
0.0008861474737
0.0008861473207
0.0008861470173
0.0008861461169
0.0008861470638
0.0008861471764
0.0008861475944
0.0008861476436
0.0008861476467
0.0008861476461
0.0008861475962
0.0008861474476
0.000886147501
0.0008861474922
0.0008861474688
0.0008861470993
0.0008861468757
0.0008861456556
0.0008861470312
0.000886147095
0.0008861462066
0.0008861464756
0.0008861469728
0.0008861471139
0.0008861474206
0.0008861474439
0.0008861474925
0.0008861474513
0.0008861434698
0.00088614659
0.0008861465183
0.0008861474225
0.0008861473697
0.0008861469076
0.0008861458055
0.0008861468641
0.0008861473236
0.0008861473725
0.0008861474372
0.0008861474433
0.0008861433974
0.000886140113
0.0008861398366
0.0008861457134
0.000886145835
0.0008861474954
0.0008861474677
0.0008861472706
0.0008861455829
0.000886146175
0.0008861474397
0.0008861474379
0.0008861474418
0.0008861474429
0.0008861474878
0.0008861440432
0.0008861446724
0.0008861467749
0.0008861474508
0.000886147504
0.0008861474929
0.0008861474805
0.0008861474701
0.0008861474528
0.0008861474422
0.0008861474431
0.0008861474498
0.0008861474428
0.0008861477088
0.0008861477119
0.0008861477317
0.0008861477607
0.0008861474843
0.000886147471
0.0008861474568
0.0008861474486
0.0008861474462
0.0008861474441
0.0008861474358
0.0008861603998
0.0008861474395
0.0008862260023
0.0008862152226
0.0008861702956
0.0008861676098
0.0008861698018
0.0008862020432
0.0008863527899
0.0008861907919
0.0008861832703
0.0008861693264
0.0008861617945
0.0008861659991
0.0008861576269
0.00088615726
0.0008861581411
0.0008861571804
0.0008861687877
0.0008861713503
0.0008862057814
0.000886174852
0.0008861755071
0.0008861713656
0.000886170733
0.0008861714619
0.0008861867151
0.000886182259
0.0008861758084
0.0008861755007
0.0008861719659
0.0008861736055
0.0008861678718
0.0008861699937
0.0008861713093
0.0008861779433
0.0008861653667
0.0008861605195
0.0008861596493
0.0008861645901
0.0008861646037
0.0008861689813
0.0008861474154
0.0008861474171
0.0008861474148
0.0008861743657
0.0008861728033
0.0008861752565
0.0008861764895
0.0008861743992
0.0008861776802
0.0008861787009
0.000886177386
0.0008861807376
0.0008861632328
0.0008861620641
0.0008861651552
0.0008861690399
0.0008861696132
0.0008861694954
0.0008861731189
0.0008861687079
0.0008861704168
0.0008861717266
0.0008861748459
0.0008861748074
0.0008861768728
0.0008861745197
0.0008861662179
0.0008861647397
0.0008861644753
0.0008861645171
0.0008861646275
0.0008861643161
0.0008861653553
0.0008861662131
0.0008861669377
0.000886167464
0.0008861608279
0.0008861611592
0.0008861621675
0.0008861634944
0.0008861650323
0.0008861666577
0.0008861681223
0.000886169136
0.0008861690431
0.0008861607188
0.0008861607411
0.0008861615679
0.0008861631209
0.0008861649887
0.0008861668342
0.0008861683744
0.0008861694696
0.0008861698648
0.0008861623249
0.0008861619218
0.0008861622495
0.0008861635706
0.0008861653241
0.0008861670423
0.0008861682926
0.0008861694558
0.0008861700652
0.0008861475623
0.0008861598248
0.0008861474788
0.0008862838011
0.0008861476096
0.0008861604079
0.0008861474765
0.0008861474745
0.0008861981898
0.0008861710205
0.0008861476149
0.0008861596721
0.0008861474667
0.0008861474645
0.0008861653753
0.0008861650603
0.0008861476152
0.0008861600218
0.0008861474663
0.0008861474717
0.0008861644819
0.0008861642974
0.0008861476167
0.0008861629157
0.0008861474825
0.0008861474994
0.0008861657697
0.0008861720442
0.0008861476213
0.0008861614795
0.0008861475211
0.0008861475463
0.0008861923326
0.000886226121
0.000886147636
0.0008861652661
0.0008861475703
0.0008861476039
0.0008863604789
0.0008862272801
0.0008861476494
0.0008861626661
0.0008861476289
0.0008861476424
0.0008861874103
0.000886174305
0.0008861476528
0.0008861609893
0.0008861476483
0.0008861476475
0.0008861824365
0.0008861833485
0.0008861476335
0.0008861476006
0.0008861663537
0.0008861475517
0.0008861474934
0.0008861474834
0.0008861474698
0.0008861474613
0.0008861474559
0.0008861553419
0.0008861474526
0.0008861566182
0.0008861562362
0.0008861474513
0.0008861474479
0.0008861550002
0.0008861474482
0.000886158577
0.0008861590318
0.0008861474443
0.0008861474431
0.0008861568132
0.0008861553012
0.0008861474437
0.0008861597489
0.0008861610539
0.0008861583882
0.0008861564321
0.0008861474426
0.0008861607291
0.0008861474478
0.0008861474446
0.0008861554967
0.0008861474429
0.0008861576771
0.0008861474426
0.0008861474424
0.0008861616115
0.0008861634548
0.0008861655663
0.0008861477142
0.0008861474527
0.0008861474124
0.0008861474129
0.0008861477078
0.0008861474477
0.0008861474435
0.0008861474117
0.0008861474123
0.0008861474119
0.0008861477206
0.0008861474402
0.0008861474378
0.0008861474114
0.0008861474117
0.0008861474115
0.0008861477445
0.0008861474371
0.0008861474396
0.0008861474114
0.0008861474115
0.0008861474115
0.0008861475181
0.0008861474498
0.0008861474766
0.000886162679
0.0008861474117
0.0008861694637
0.000886147479
0.0008861474725
0.0008861474685
0.0008861592244
0.0008861643313
0.0008861642461
0.0008861474629
0.0008861474643
0.00088614746
0.0008861580575
0.0008861637456
0.0008861638113
0.000886147452
0.0008861474558
0.0008861474517
0.0008861590805
0.0008861643948
0.0008861650855
0.000886147447
0.0008861474481
0.0008861474453
0.0008861598955
0.000886165486
0.0008861655896
0.0008861474454
0.0008861474433
0.0008861474421
0.0008861604768
0.0008861655673
0.0008861659225
0.0008861474416
0.0008861474413
0.0008861474411
0.0008861601092
0.0008861668216
0.0008861676075
0.0008861563633
0.0008861474373
0.0008861474423
0.000886161773
0.0008861683208
0.0008861615879
0.0008861654308
0.0008861572171
0.0008861570057
0.0008861573596
0.0008861584284
0.0008861578898
0.0008861609521
0.0008861613359
0.0008861600946
0.0008861623544
0.0008861616594
0.0008861629364
0.00088616351
0.0008861625161
0.0008861639949
0.0008861647654
0.0008861632201
0.0008861614178
0.0008861656601
0.0008861657793
0.0008861648479
0.0008861648713
0.0008861651473
0.0008861689881
0.0008861702723
0.0008861718029
0.0008861691835
0.0008861474133
0.0008861474122
0.0008861474117
0.000886147412
0.0008861474117
0.0008861474119
0.0008861474119
0.0008861756282
0.0008861474119
0.0008861788664
0.0008861682395
0.0008861710874
0.0008861713371
0.0008861681108
0.0008861712575
0.0008861714275
0.0008861691622
0.0008861718487
0.0008861723992
0.0008861697641
0.0008861729645
0.0008861735773
0.000886171162
0.0008861744581
0.0008861755397
0.0008861728426
0.0008861758175
0.0008861760851
0.0008861685854
0.0008861717671
0.0008861748524
0.0008861748554
0.0008861762955
0.0008861814465
0.0008861717468
0.0008861725991
0.0008861771149
0.0008861600775
0.0008861618539
0.000886159511
0.000886159857
0.0008861604705
0.0008861600775
0.0008861598852
0.0008861608135
0.0008861628906
0.0008861622046
0.000886162721
0.0008861616838
0.0008861645522
0.0008861650011
0.0008861652481
0.0008861659117
0.0008861644878
0.0008861659378
0.0008861661474
0.000886165828
0.0008861668787
0.0008861689463
0.0008861683794
0.0008861716561
0.0008861725865
0.0008861757835
0.0008861753893
0.0008861762514
0.0008861759098
0.0008861769379
0.000886147413
0.0008861474124
0.0008861474122
0.0008861474127
0.0008861474126
0.0008861474124
0.0008861761619
0.0008861789744
0.0008861717944
0.0008861720771
0.0008861726299
0.0008861728241
0.0008861722681
0.0008861727303
0.0008861734917
0.0008861743703
0.0008861741659
0.0008861762713
0.000886175917
0.0008861753585
0.0008861769679
0.0008861773031
0.0008861773059
0.0008861734993
0.0008861780822
0.0008861807976
0.000886178581
0.0008861805484
0.0008861804538
0.000886180508
0.0008861772026
0.000886176192
0.0008861752874
0.0008861698483
0.0008861707105
0.0008861716341
0.0008861713818
0.0008861700231
0.0008861697096
0.0008861676339
0.0008861741805
0.0008861715445
0.0008861686762
0.0008861698456
0.0008861617052
0.0008861618496
0.0008861613215
0.0008861619017
0.0008861616546
0.0008861636461
0.0008861636534
0.00088616636
0.0008861655829
0.0008861666337
0.0008861673815
0.000886167779
0.000886168268
0.0008861678082
0.0008861682933
0.0008861688265
0.0008861686281
0.000886174094
0.0008861712786
0.000886173557
0.000886172325
0.0008861474164
0.0008861733705
0.0008861474166
0.0008861747444
0.0008861700818
0.0008861707112
0.0008861735294
0.0008861713275
0.0008861728777
0.000886174947
0.0008861738474
0.0008861756397
0.0008861764513
0.0008861767198
0.0008861771768
0.0008861787415
0.0008861772093
0.0008861777097
0.0008861780475
0.0008861776019
0.0008861804691
0.0008861797014
0.0008861761812
0.0008861805833
0.0008861474162
0.0008861474183
0.0008861474149
0.0008861772693
0.0008861749003
0.0008861732086
0.0008861758056
0.0008861738831
0.0008861771753
0.0008861781888
0.0008861798532
0.0008861781649
0.000886181409
0.0008861792105
0.0008861750956
0.0008861737114
0.0008861728636
0.0008861712706
0.000886167507
0.0008861669789
0.0008861670337
0.0008861653758
0.0008861651098
0.0008861647659
0.0008861642119
0.000886177553
0.000886177203
0.0008861696175
0.0008861702124
0.0008861679006
0.0008861660891
0.0008861665435
0.0008861650816
0.0008861647514
0.0008861663036
0.0008861644017
0.0008861666793
0.000886166303
0.0008861642594
0.0008861642791
0.0008861656642
0.0008861643671
0.0008861644996
0.0008861651814
0.0008861646279
0.0008861626795
0.0008861648155
0.0008861629449
0.000886164671
0.0008861634334
0.0008861625128
0.0008861654025
0.0008861641514
0.0008861663438
0.0008861640607
0.0008861647253
0.0008861656728
0.000886166597
0.0008861677174
0.0008861669307
0.0008861679599
0.0008861683232
0.0008861690002
0.0008861686475
0.0008861718424
0.0008861684955
0.0008861709013
0.0008861734668
0.0008861718841
0.0008861671161
0.0008861684875
0.0008861667426
0.0008861685749
0.0008861666528
0.00088616661
0.0008861679633
0.0008861646733
0.0008861693322
0.000886167959
0.0008861679074
0.0008861682377
0.00088617101
0.0008861694192
0.000886167904
0.0008861706248
0.0008861717071
0.000886169469
0.0008861736077
0.0008861725814
0.0008861744763
0.000886173203
0.0008861740078
0.0008861742626
0.0008861741942
0.0008861740226
0.000886175136
0.0008861737116
0.0008861757891
0.0008861757889
0.0008861737849
0.0008861735292
0.000886175711
0.0008861710824
0.000886168368
0.0008861695078
0.0008861688559
0.0008861698358
0.0008861720371
0.0008861725865
0.0008861758539
0.0008861745703
0.0008861769411
0.0008861746162
0.0008861719147
0.0008861648169
0.0008861654973
0.0008861628204
0.0008861626501
0.0008861645614
0.0008861625275
0.0008861627253
0.0008861644787
0.0008861630025
0.0008861633545
0.0008861649129
0.0008861637801
0.0008861642923
0.0008861657761
0.0008861648871
0.0008861655286
0.0008861666011
0.0008861661887
0.0008861668276
0.000886167305
0.0008861674121
0.0008861679264
0.0008861674953
0.0008861682627
0.0008861682668
0.000886168127
0.0008861620621
0.0008861609958
0.0008861608676
0.0008861605101
0.0008861604984
0.0008861615995
0.0008861607268
0.0008861611639
0.0008861627999
0.0008861617716
0.0008861625227
0.0008861642415
0.0008861633675
0.0008861642271
0.0008861658473
0.0008861651539
0.0008861660434
0.000886167433
0.0008861669044
0.0008861676309
0.00088616872
0.0008861682588
0.0008861688527
0.0008861693085
0.0008861692936
0.0008861695186
0.0008861686386
0.0008861698548
0.0008861694423
0.0008861678233
0.0008861610798
0.0008861617132
0.0008861606216
0.0008861613187
0.0008861611056
0.0008861610227
0.000886161101
0.000886161283
0.0008861622771
0.0008861617105
0.0008861623638
0.0008861640389
0.0008861631787
0.0008861640885
0.0008861659345
0.0008861650297
0.0008861659332
0.0008861676602
0.0008861668427
0.000886167657
0.0008861689791
0.0008861683356
0.0008861688341
0.0008861697183
0.0008861692761
0.0008861696018
0.0008861695249
0.000886169906
0.0008861696108
0.0008861686737
0.000886168738
0.0008861626745
0.0008861640682
0.0008861653137
0.0008861620779
0.000886163762
0.0008861634326
0.0008861646104
0.0008861619723
0.0008861631158
0.0008861629656
0.0008861639456
0.000886162801
0.0008861631295
0.0008861635405
0.0008861644266
0.0008861642663
0.0008861650901
0.0008861662436
0.000886166223
0.0008861659885
0.0008861669292
0.0008861677271
0.0008861678194
0.0008861685071
0.0008861688383
0.0008861689962
0.0008861694399
0.0008861704083
0.0008861700557
0.0008861700012
0.0008861705428
0.0008861703421
0.0008861730294
)
;

boundaryField
{
    walls
    {
        type            zeroGradient;
    }
    wallFilmFace_top
    {
        type            zeroGradient;
    }
    region0_to_wallFilmRegion_wallFilmFace
    {
        type            zeroGradient;
    }
    mirrorFace_top
    {
        type            zeroGradient;
    }
    region0_to_wallFilmRegion_mirrorFace
    {
        type            zeroGradient;
    }
    procBoundary3to2
    {
        type            processor;
        value           nonuniform List<scalar> 
64
(
0.000886147413
0.0008861474143
0.0008861474131
0.0008861474122
0.0008861474127
0.0008861774
0.0008861756875
0.0008861847356
0.0008861655123
0.0008861475304
0.0008861475371
0.0008861475275
0.0008861475275
0.000886147543
0.0008861475217
0.000886147507
0.0008861475062
0.0008861475057
0.0008861475051
0.0008861475048
0.000886147505
0.0008861475051
0.0008861433269
0.0008861433269
0.000886147052
0.0008861472613
0.0008861472613
0.0008861474896
0.0008861475001
0.0008861475001
0.0008861686597
0.0008862194096
0.0008862194096
0.0008862021477
0.0008861840386
0.0008861475584
0.000886160807
0.0008861474869
0.0008861477238
0.0008862013971
0.0008861474174
0.0008861787503
0.0008861708457
0.0008861631318
0.0008861615705
0.0008861631587
0.0008861474869
0.0008862013971
0.0008861474578
0.0008861474138
0.000886147414
0.0008861474126
0.0008861474122
0.0008861474134
0.0008861749245
0.0008861474202
0.0008861701751
0.0008861796762
0.0008861681381
0.0008861675832
0.0008861667049
0.0008861615899
0.0008861622118
0.0008861643666
)
;
    }
}


// ************************************************************************* //
