/*--------------------------------*- C++ -*----------------------------------*\
  =========                 |
  \\      /  F ield         | OpenFOAM: The Open Source CFD Toolbox
   \\    /   O peration     | Website:  https://openfoam.org
    \\  /    A nd           | Version:  8
     \\/     M anipulation  |
\*---------------------------------------------------------------------------*/
FoamFile
{
    version     2.0;
    format      ascii;
    class       volScalarField;
    location    "1.8/wallFilmRegion";
    object      sigma;
}
// * * * * * * * * * * * * * * * * * * * * * * * * * * * * * * * * * * * * * //

dimensions      [1 0 -2 0 0 0 0];

internalField   nonuniform List<scalar> 
1342
(
0.07244722759
0.07244719431
0.07244721553
0.07244721874
0.07244722519
0.07244723175
0.0724472627
0.07244713484
0.07244713484
0.07244713483
0.07244713484
0.07244725974
0.07244724975
0.07244724823
0.07244726502
0.0724472705
0.07244726886
0.07244727466
0.07244726045
0.07244726524
0.07244728041
0.07244728501
0.07244729531
0.07244733954
0.07244737281
0.07244713485
0.07244713484
0.07244713484
0.07244713484
0.07244734839
0.07244734929
0.07244735436
0.07244736392
0.07244737096
0.07244739177
0.0724473984
0.07244737538
0.07244725397
0.07244726038
0.07244730401
0.07244732002
0.07244733691
0.07244742034
0.07244713484
0.07244713484
0.07244739402
0.07244739643
0.07244740453
0.07244742128
0.07244744034
0.07244744592
0.07244744587
0.07244743035
0.07244740297
0.07244739308
0.07244751778
0.07244743816
0.07244738778
0.07244737315
0.07244726967
0.07244727902
0.07244738226
0.07244742534
0.07244745127
0.0724474228
0.07244739699
0.07244737443
0.07244735488
0.07244737988
0.07244738821
0.0724473585
0.07244734025
0.07244731034
0.07244729148
0.07244739092
0.07244743987
0.07244738143
0.07244735481
0.07244733931
0.07244733006
0.072447334
0.07244733493
0.07244732742
0.07244732232
0.07244731062
0.07244732053
0.07244733918
0.07244735001
0.07244736954
0.07244731798
0.07244730808
0.07244730884
0.07244732209
0.072447339
0.07244735637
0.07244736922
0.0724473808
0.07244740609
0.07244724454
0.07244720335
0.07244723876
0.07244721023
0.07244721424
0.07244721535
0.07244715714
0.07244721704
0.07244725612
0.07244725768
0.07244722134
0.07244725849
0.07244725864
0.07244713554
0.07244713597
0.07244713559
0.07244713548
0.07244713548
0.07244713545
0.07244713509
0.07244713492
0.07244713379
0.07244713516
0.07244713409
0.07244713436
0.07244713524
0.07244713457
0.07244713475
0.07244713548
0.07244713498
0.07244713592
0.07244713664
0.07244713658
0.0724471369
0.07244713717
0.07244713707
0.07244713718
0.07244713718
0.07244713719
0.07244713692
0.0724471363
0.07244713632
0.07244713584
0.07244713593
0.07244713584
0.07244713581
0.07244713585
0.07244713579
0.07244713573
0.07244713537
0.07244713547
0.07244713501
0.07244713407
0.07244713461
0.07244713377
0.07244713345
0.07244713325
0.07244713307
0.07244713322
0.07244713248
0.07244713453
0.07244713613
0.07244713211
0.07244713504
0.07244713714
0.07244713657
0.07244713708
0.07244713722
0.07244713722
0.07244713721
0.07244713649
0.07244713691
0.07244713632
0.07244713558
0.07244713583
0.07244713549
0.07244713534
0.07244713534
0.0724471353
0.07244713528
0.07244713528
0.07244713527
0.07244713581
0.07244713581
0.0724471358
0.07244713573
0.07244713578
0.07244713573
0.07244713433
0.07244713552
0.07244713356
0.07244713287
0.07244713405
0.07244713258
0.07244712991
0.07244713099
0.07244710278
0.07244713313
0.07244712546
0.07244713089
0.07244713234
0.07244713127
0.07244713083
0.07244713687
0.07244713365
0.0724471364
0.07244713724
0.07244713714
0.07244713724
0.07244713673
0.07244713727
0.07244713728
0.07244713557
0.07244713729
0.07244713728
0.07244713528
0.0724471371
0.07244713566
0.07244713526
0.07244713525
0.07244713522
0.07244713579
0.07244713579
0.07244713577
0.07244713572
0.07244713573
0.07244713568
0.07244713205
0.07244713556
0.07244713004
0.07244713227
0.0724471331
0.07244713186
0.07244712032
0.07244713026
0.07244712357
0.07244713062
0.07244711732
0.07244712975
0.07244713069
0.07244713112
0.07244713068
0.07244713415
0.0724471319
0.0724471299
0.07244713717
0.07244712736
0.07244713272
0.07244713727
0.07244713556
0.07244713643
0.07244713728
0.07244713679
0.07244713699
0.0724471371
0.0724471371
0.07244713712
0.07244713544
0.07244713625
0.07244713529
0.07244713521
0.07244713519
0.0724471352
0.07244713572
0.07244713573
0.07244713564
0.07244713561
0.07244713554
0.07244713541
0.07244711568
0.07244713551
0.07244710065
0.07244713079
0.07244712937
0.07244712922
0.07244712379
0.07244712777
0.07244712276
0.07244712675
0.07244712598
0.07244713323
0.07244713053
0.0724471319
0.07244713038
0.07244712894
0.07244713088
0.07244712766
0.07244712182
0.07244711997
0.07244712158
0.07244712827
0.07244712639
0.07244713009
0.07244713075
0.07244713209
0.07244713209
0.07244713342
0.07244713333
0.07244713447
0.07244713513
0.07244713504
0.07244713514
0.07244713519
0.07244713517
0.07244713518
0.07244713541
0.07244709401
0.07244709546
0.07244713232
0.07244705792
0.07244705203
0.07244709864
0.07244704966
0.07244709801
0.07244712702
0.07244712225
0.072447124
0.07244712079
0.07244712249
0.07244711787
0.07244713488
0.07244713561
0.07244713537
0.07244713296
0.07244713494
0.07244713445
0.07244712537
0.07244713398
0.07244711993
0.07244712359
0.07244712051
0.07244712734
0.07244713243
0.07244713187
0.07244713405
0.07244713378
0.07244713487
0.07244713481
0.0724471349
0.07244713498
0.07244713505
0.07244713515
0.07244713513
0.07244713515
0.07244709162
0.07244709047
0.07244709486
0.07244709269
0.07244709467
0.07244705432
0.07244709546
0.07244709611
0.07244709775
0.07244709678
0.07244709753
0.07244712002
0.07244711121
0.07244711463
0.07244713486
0.07244713493
0.07244713573
0.07244713557
0.0724471357
0.07244713563
0.07244713402
0.07244713557
0.07244713329
0.07244711656
0.07244713152
0.07244712502
0.07244711929
0.072447122
0.07244711464
0.07244712234
0.07244711547
0.07244711536
0.07244713511
0.07244713516
0.07244713515
0.07244713511
0.07244713514
0.07244713513
0.07244713516
0.07244713516
0.07244713516
0.07244709926
0.07244713589
0.07244710151
0.07244713587
0.07244713587
0.07244711711
0.0724471359
0.07244713596
0.07244713359
0.07244713605
0.07244713617
0.07244713571
0.07244713635
0.07244713639
0.07244713575
0.07244713587
0.07244713572
0.0724471356
0.07244713561
0.07244713549
0.07244713551
0.0724471354
0.07244713533
0.07244713537
0.07244713527
0.07244713523
0.0724471351
0.07244713519
0.07244713515
0.07244713517
0.07244713517
0.07244713517
0.07244713513
0.07244713515
0.07244713506
0.07244871447
0.07244877919
0.07244745687
0.07244779089
0.07244746862
0.07244734618
0.07244740127
0.07244737138
0.07244735246
0.07244736664
0.07244736568
0.07244742924
0.07244738638
0.07244744766
0.07244801159
0.0724475983
0.07244786926
0.07244793014
0.07244861615
0.07244795857
0.0724474572
0.07244754264
0.0724474525
0.07244754368
0.07244745945
0.07244749469
0.0724473014
0.07244727892
0.0724472564
0.07244724479
0.07244723936
0.07244725897
0.07244800076
0.07244749031
0.07244738828
0.07244737496
0.07244743839
0.07244757804
0.07244760719
0.07244742501
0.07244761163
0.07244757007
0.07244737764
0.07244737654
0.07244740778
0.07244746028
0.07244737706
0.07244738468
0.07244736442
0.07244740768
0.07244731437
0.07244736214
0.0724472668
0.07244728456
0.0724472617
0.07244748571
0.07244745356
0.07244741059
0.0724474071
0.07244738701
0.07244739353
0.07244737303
0.0724474174
0.072447432
0.07244742824
0.07244739211
0.0724474143
0.07244745112
0.07244740656
0.07244737142
0.07244737336
0.07244730797
0.07244733097
0.07244727262
0.07244728799
0.07244726969
0.07244728273
0.07244742424
0.07244736881
0.07244736218
0.07244735473
0.07244735221
0.07244735746
0.07244736657
0.07244735408
0.07244733631
0.07244734764
0.07244732604
0.07244732917
0.07244729127
0.07244730617
0.07244734123
0.07244732381
0.07244731038
0.07244731385
0.0724473205
0.07244713667
0.07244726803
0.07244713695
0.0724472661
0.07244713695
0.07244726129
0.07244713696
0.07244727712
0.07244713698
0.07244729484
0.07244713707
0.07244729957
0.07244713725
0.07244731098
0.07244713734
0.07244727468
0.07244723057
0.07244713729
0.0724472681
0.07244713599
0.0724471355
0.07244713525
0.07244713512
0.0724471352
0.07244713529
0.07244713599
0.072447137
0.07244713724
0.07244713682
0.07244713593
0.07244719993
0.07244713546
0.07244720854
0.07244713601
0.07244713591
0.0724471355
0.072447135
0.0724471336
0.07244713331
0.07244713368
0.0724471369
0.07244713722
0.07244713703
0.07244713593
0.07244713541
0.0724471353
0.07244719372
0.07244717943
0.07244713527
0.07244713581
0.07244713579
0.0724471355
0.07244713421
0.07244713156
0.0724471243
0.07244713139
0.07244713549
0.07244713718
0.07244713716
0.07244713613
0.07244713532
0.07244713527
0.07244713525
0.0724471358
0.07244713576
0.07244713548
0.07244713389
0.07244713074
0.07244712139
0.07244713123
0.07244713239
0.07244713673
0.07244713725
0.07244713728
0.07244713727
0.07244713675
0.07244713521
0.07244713577
0.07244713567
0.07244713543
0.07244713159
0.07244712927
0.0724471166
0.07244713089
0.07244713155
0.07244712232
0.07244712512
0.07244713028
0.07244713175
0.07244713493
0.07244713517
0.07244713568
0.07244713525
0.07244709391
0.07244712631
0.07244712556
0.07244713495
0.0724471344
0.0724471296
0.07244711816
0.07244712915
0.07244713392
0.07244713443
0.0724471351
0.07244713517
0.07244709315
0.07244705905
0.07244705618
0.0724471172
0.07244711847
0.07244713571
0.07244713542
0.07244713337
0.07244711585
0.072447122
0.07244713513
0.07244713511
0.07244713515
0.07244713516
0.07244713563
0.07244709986
0.07244710639
0.07244712823
0.07244713524
0.0724471358
0.07244713568
0.07244713555
0.07244713544
0.07244713526
0.07244713515
0.07244713516
0.07244713523
0.07244713516
0.07244713792
0.07244713795
0.07244713816
0.07244713846
0.07244713559
0.07244713545
0.07244713531
0.07244713522
0.0724471352
0.07244713517
0.07244713509
0.0724472697
0.07244713513
0.07244795084
0.07244783892
0.07244737245
0.07244734456
0.07244736732
0.07244770208
0.07244926705
0.07244758526
0.07244750717
0.07244736239
0.07244728418
0.07244732784
0.07244724091
0.0724472371
0.07244724625
0.07244723627
0.07244735679
0.0724473834
0.07244774089
0.07244741976
0.07244742656
0.07244738356
0.07244737699
0.07244738456
0.07244754293
0.07244749667
0.07244742969
0.07244742649
0.07244738979
0.07244740682
0.07244734728
0.07244736931
0.07244738297
0.07244745186
0.07244732127
0.07244727094
0.07244726191
0.07244731321
0.07244731335
0.0724473588
0.07244713488
0.07244713489
0.07244713487
0.07244741471
0.07244739849
0.07244742396
0.07244743676
0.07244741506
0.07244744912
0.07244745972
0.07244744607
0.07244748087
0.07244729911
0.07244728698
0.07244731908
0.07244735941
0.07244736536
0.07244736414
0.07244740176
0.07244735596
0.07244737371
0.07244738731
0.0724474197
0.0724474193
0.07244744074
0.07244741631
0.07244733011
0.07244731476
0.07244731202
0.07244731245
0.0724473136
0.07244731036
0.07244732115
0.07244733006
0.07244733758
0.07244734305
0.07244727414
0.07244727758
0.07244728805
0.07244730183
0.0724473178
0.07244733468
0.07244734988
0.07244736041
0.07244735944
0.07244727301
0.07244727324
0.07244728183
0.07244729795
0.07244731735
0.07244733651
0.0724473525
0.07244736387
0.07244736798
0.07244728969
0.0724472855
0.0724472889
0.07244730262
0.07244732083
0.07244733867
0.07244735165
0.07244736373
0.07244737006
0.0724471364
0.07244726373
0.07244713553
0.07244855089
0.07244713689
0.07244726978
0.07244713551
0.07244713549
0.07244766207
0.07244737998
0.07244713695
0.07244726214
0.07244713541
0.07244713539
0.07244732136
0.07244731809
0.07244713695
0.07244726577
0.0724471354
0.07244713546
0.07244731208
0.07244731017
0.07244713697
0.07244729582
0.07244713557
0.07244713575
0.07244732546
0.0724473906
0.07244713701
0.07244728091
0.07244713597
0.07244713623
0.07244760126
0.07244795207
0.07244713717
0.07244732023
0.07244713648
0.07244713683
0.07244934686
0.0724479641
0.07244713731
0.07244729323
0.07244713709
0.07244713723
0.07244755015
0.07244741408
0.07244713734
0.07244727582
0.07244713729
0.07244713729
0.07244749851
0.07244750798
0.07244713714
0.0724471368
0.07244733152
0.07244713629
0.07244713569
0.07244713558
0.07244713544
0.07244713535
0.0724471353
0.07244721718
0.07244713526
0.07244723043
0.07244722647
0.07244713525
0.07244713521
0.07244721363
0.07244713522
0.07244725077
0.07244725549
0.07244713518
0.07244713516
0.07244723246
0.07244721676
0.07244713517
0.07244726294
0.07244727649
0.07244724881
0.0724472285
0.07244713516
0.07244727312
0.07244713521
0.07244713518
0.07244721879
0.07244713516
0.07244724143
0.07244713516
0.07244713516
0.07244728228
0.07244730142
0.07244732334
0.07244713798
0.07244713526
0.07244713484
0.07244713485
0.07244713791
0.07244713521
0.07244713517
0.07244713484
0.07244713484
0.07244713484
0.07244713805
0.07244713513
0.07244713511
0.07244713483
0.07244713484
0.07244713484
0.07244713829
0.0724471351
0.07244713513
0.07244713483
0.07244713484
0.07244713484
0.07244713594
0.07244713523
0.07244713551
0.07244729336
0.07244713484
0.07244736381
0.07244713554
0.07244713547
0.07244713543
0.07244725749
0.07244731052
0.07244730964
0.07244713537
0.07244713538
0.07244713534
0.07244724538
0.07244730444
0.07244730512
0.07244713526
0.0724471353
0.07244713525
0.072447256
0.07244731118
0.07244731835
0.0724471352
0.07244713522
0.07244713519
0.07244726446
0.07244732251
0.07244732359
0.07244713519
0.07244713517
0.07244713515
0.0724472705
0.07244732335
0.07244732704
0.07244713515
0.07244713515
0.07244713514
0.07244726668
0.07244733638
0.07244734454
0.07244722779
0.0724471351
0.07244713516
0.07244728396
0.07244735194
0.07244728204
0.07244732194
0.07244723665
0.07244723446
0.07244723813
0.07244724923
0.07244724364
0.07244727543
0.07244727942
0.07244726653
0.07244728999
0.07244728278
0.07244729604
0.07244730199
0.07244729167
0.07244730703
0.07244731503
0.07244729898
0.07244728027
0.07244732432
0.07244732556
0.07244731588
0.07244731613
0.07244731899
0.07244735887
0.07244737221
0.0724473881
0.0724473609
0.07244713485
0.07244713484
0.07244713484
0.07244713484
0.07244713484
0.07244713484
0.07244713484
0.07244742782
0.07244713484
0.07244746144
0.0724473511
0.07244738067
0.07244738326
0.07244734976
0.07244738244
0.0724473842
0.07244736068
0.07244738857
0.07244739429
0.07244736693
0.07244740016
0.07244740652
0.07244738145
0.07244741567
0.0724474269
0.0724473989
0.07244742978
0.07244743256
0.07244735469
0.07244738773
0.07244741976
0.07244741979
0.07244743475
0.07244748823
0.07244738752
0.07244739637
0.07244744325
0.07244726635
0.0724472848
0.07244726047
0.07244726406
0.07244727043
0.07244726635
0.07244726436
0.07244727399
0.07244729556
0.07244728844
0.0724472938
0.07244728303
0.07244731281
0.07244731748
0.07244732004
0.07244732693
0.07244731215
0.0724473272
0.07244732938
0.07244732606
0.07244733697
0.07244735844
0.07244735255
0.07244738658
0.07244739624
0.07244742943
0.07244742534
0.07244743429
0.07244743074
0.07244744142
0.07244713485
0.07244713484
0.07244713484
0.07244713485
0.07244713485
0.07244713485
0.07244743336
0.07244746256
0.07244738801
0.07244739095
0.07244739669
0.0724473987
0.07244739293
0.07244739773
0.07244740563
0.07244741476
0.07244741264
0.0724474345
0.07244743082
0.07244742502
0.07244744173
0.07244744521
0.07244744524
0.07244740571
0.0724474533
0.07244748149
0.07244745848
0.07244747891
0.07244747792
0.07244747849
0.07244744417
0.07244743367
0.07244742428
0.07244736781
0.07244737676
0.07244738635
0.07244738373
0.07244736962
0.07244736637
0.07244734481
0.07244741279
0.07244738542
0.07244735563
0.07244736778
0.07244728325
0.07244728475
0.07244727927
0.07244728529
0.07244728273
0.07244730341
0.07244730348
0.07244733159
0.07244732352
0.07244733443
0.07244734219
0.07244734632
0.0724473514
0.07244734662
0.07244735166
0.0724473572
0.07244735514
0.07244741189
0.07244738266
0.07244740631
0.07244739352
0.07244713489
0.07244740438
0.07244713489
0.07244741864
0.07244737023
0.07244737676
0.07244740603
0.07244738316
0.07244739926
0.07244742075
0.07244740933
0.07244742794
0.07244743636
0.07244743915
0.0724474439
0.07244746014
0.07244744424
0.07244744943
0.07244745294
0.07244744831
0.07244747808
0.07244747011
0.07244743356
0.07244747927
0.07244713488
0.07244713491
0.07244713487
0.07244744486
0.07244742026
0.0724474027
0.07244742966
0.0724474097
0.07244744388
0.07244745441
0.07244747169
0.07244745416
0.07244748784
0.07244746501
0.07244742229
0.07244740792
0.07244739911
0.07244738257
0.07244734349
0.07244733801
0.07244733858
0.07244732137
0.0724473186
0.07244731503
0.07244730928
0.0724474478
0.07244744417
0.07244736541
0.07244737159
0.07244734758
0.07244732877
0.07244733349
0.07244731831
0.07244731488
0.072447331
0.07244731125
0.0724473349
0.07244733099
0.07244730977
0.07244730998
0.07244732436
0.07244731089
0.07244731227
0.07244731935
0.0724473136
0.07244729337
0.07244731555
0.07244729613
0.07244731405
0.0724473012
0.07244729164
0.07244732164
0.07244730865
0.07244733142
0.07244730771
0.07244731461
0.07244732445
0.07244733405
0.07244734568
0.07244733751
0.0724473482
0.07244735197
0.072447359
0.07244735534
0.07244738851
0.07244735376
0.07244737874
0.07244740538
0.07244738894
0.07244733944
0.07244735368
0.07244733556
0.07244735458
0.07244733463
0.07244733418
0.07244734823
0.07244731407
0.07244736245
0.07244734819
0.07244734765
0.07244735108
0.07244737987
0.07244736335
0.07244734762
0.07244737587
0.07244738711
0.07244736387
0.07244740684
0.07244739618
0.07244741586
0.07244740264
0.07244741099
0.07244741364
0.07244741293
0.07244741115
0.07244742271
0.07244740792
0.07244742949
0.07244742949
0.07244740868
0.07244740602
0.07244742868
0.07244738062
0.07244735243
0.07244736427
0.0724473575
0.07244736768
0.07244739053
0.07244739624
0.07244743016
0.07244741683
0.07244744145
0.07244741731
0.07244738926
0.07244731556
0.07244732263
0.07244729483
0.07244729306
0.07244731291
0.07244729179
0.07244729385
0.07244731205
0.07244729672
0.07244730038
0.07244731656
0.0724473048
0.07244731012
0.07244732552
0.07244731629
0.07244732295
0.07244733409
0.07244732981
0.07244733644
0.0724473414
0.07244734251
0.07244734785
0.07244734337
0.07244735134
0.07244735138
0.07244734993
0.07244728696
0.07244727589
0.07244727456
0.07244727084
0.07244727072
0.07244728216
0.07244727309
0.07244727763
0.07244729462
0.07244728394
0.07244729174
0.07244730959
0.07244730051
0.07244730944
0.07244732626
0.07244731906
0.0724473283
0.07244734273
0.07244733724
0.07244734478
0.07244735609
0.0724473513
0.07244735747
0.0724473622
0.07244736205
0.07244736438
0.07244735524
0.07244736787
0.07244736359
0.07244734678
0.07244727676
0.07244728334
0.072447272
0.07244727924
0.07244727703
0.07244727617
0.07244727698
0.07244727887
0.07244728919
0.07244728331
0.07244729009
0.07244730748
0.07244729855
0.072447308
0.07244732717
0.07244731777
0.07244732715
0.07244734509
0.0724473366
0.07244734505
0.07244735878
0.0724473521
0.07244735727
0.07244736645
0.07244736186
0.07244736525
0.07244736445
0.0724473684
0.07244736534
0.07244735561
0.07244735628
0.07244729332
0.07244730779
0.07244732072
0.07244728712
0.07244730461
0.07244730119
0.07244731342
0.07244728603
0.0724472979
0.07244729634
0.07244730652
0.07244729463
0.07244729804
0.07244730231
0.07244731151
0.07244730985
0.0724473184
0.07244733038
0.07244733016
0.07244732773
0.07244733749
0.07244734578
0.07244734674
0.07244735388
0.07244735732
0.07244735896
0.07244736356
0.07244737362
0.07244736996
0.07244736939
0.07244737502
0.07244737293
0.07244740083
)
;

boundaryField
{
    walls
    {
        type            zeroGradient;
    }
    wallFilmFace_top
    {
        type            zeroGradient;
    }
    region0_to_wallFilmRegion_wallFilmFace
    {
        type            zeroGradient;
    }
    mirrorFace_top
    {
        type            zeroGradient;
    }
    region0_to_wallFilmRegion_mirrorFace
    {
        type            zeroGradient;
    }
    procBoundary3to2
    {
        type            processor;
        value           nonuniform List<scalar> 
64
(
0.07244713485
0.07244713487
0.07244713485
0.07244713484
0.07244713485
0.07244744622
0.07244742843
0.07244752238
0.07244732278
0.07244713607
0.07244713614
0.07244713604
0.07244713604
0.0724471362
0.07244713598
0.07244713583
0.07244713582
0.07244713581
0.07244713581
0.0724471358
0.07244713581
0.07244713581
0.07244709242
0.07244709242
0.0724471311
0.07244713328
0.07244713328
0.07244713565
0.07244713576
0.07244713576
0.07244735546
0.07244788239
0.07244788239
0.07244770317
0.07244751514
0.07244713636
0.07244727393
0.07244713562
0.07244713808
0.07244769537
0.0724471349
0.07244746023
0.07244737816
0.07244729807
0.07244728185
0.07244729835
0.07244713562
0.07244769537
0.07244713532
0.07244713486
0.07244713486
0.07244713485
0.07244713484
0.07244713486
0.07244742051
0.07244713493
0.0724473712
0.07244746985
0.07244735005
0.07244734429
0.07244733517
0.07244728206
0.07244728851
0.07244731089
)
;
    }
}


// ************************************************************************* //
