/*--------------------------------*- C++ -*----------------------------------*\
  =========                 |
  \\      /  F ield         | OpenFOAM: The Open Source CFD Toolbox
   \\    /   O peration     | Website:  https://openfoam.org
    \\  /    A nd           | Version:  8
     \\/     M anipulation  |
\*---------------------------------------------------------------------------*/
FoamFile
{
    version     2.0;
    format      ascii;
    class       volScalarField;
    location    "1.8/wallFilmRegion";
    object      T;
}
// * * * * * * * * * * * * * * * * * * * * * * * * * * * * * * * * * * * * * //

dimensions      [0 0 0 1 0 0 0];

internalField   nonuniform List<scalar> 
1342
(
299.9995351
299.9997019
299.9995955
299.9995794
299.9995471
299.9995142
299.9993591
299.9999999
299.9999999
299.9999999
299.9999999
299.9993739
299.999424
299.9994316
299.9993475
299.99932
299.9993282
299.9992992
299.9993704
299.9993464
299.9992704
299.9992473
299.9991957
299.998974
299.9988073
299.9999999
299.9999999
299.9999999
299.9999999
299.9989296
299.9989251
299.9988997
299.9988518
299.9988165
299.9987122
299.998679
299.9987944
299.9994028
299.9993707
299.9991521
299.9990718
299.9989872
299.998569
299.9999999
299.9999999
299.9987009
299.9986889
299.9986483
299.9985643
299.9984688
299.9984408
299.9984411
299.9985189
299.9986561
299.9987056
299.9980807
299.9984797
299.9987322
299.9988056
299.9993242
299.9992773
299.9987599
299.998544
299.998414
299.9985567
299.9986861
299.9987991
299.9988971
299.9987718
299.9987301
299.998879
299.9989705
299.9991203
299.9992149
299.9987165
299.9984712
299.998764
299.9988975
299.9989752
299.9990215
299.9990018
299.9989971
299.9990348
299.9990603
299.9991189
299.9990692
299.9989758
299.9989215
299.9988236
299.999082
299.9991317
299.9991279
299.9990614
299.9989767
299.9988897
299.9988253
299.9987672
299.9986405
299.9994501
299.9996565
299.9994791
299.9996221
299.999602
299.9995964
299.9998881
299.999588
299.9993921
299.9993843
299.9995664
299.9993802
299.9993795
299.9999964
299.9999942
299.9999961
299.9999967
299.9999967
299.9999969
299.9999987
299.9999995
300.0000052
299.9999983
300.0000037
300.0000023
299.9999979
300.0000013
300.0000004
299.9999967
299.9999992
299.9999945
299.9999909
299.9999912
299.9999896
299.9999882
299.9999887
299.9999882
299.9999882
299.9999881
299.9999895
299.9999926
299.9999925
299.9999949
299.9999945
299.9999949
299.999995
299.9999948
299.9999952
299.9999955
299.9999973
299.9999968
299.9999991
300.0000038
300.0000011
300.0000053
300.0000069
300.0000079
300.0000088
300.000008
300.0000117
300.0000015
299.9999935
300.0000136
299.9999989
299.9999884
299.9999912
299.9999887
299.999988
299.999988
299.999988
299.9999916
299.9999896
299.9999925
299.9999962
299.999995
299.9999967
299.9999974
299.9999974
299.9999976
299.9999977
299.9999977
299.9999978
299.9999951
299.9999951
299.9999951
299.9999955
299.9999952
299.9999955
300.0000025
299.9999965
300.0000064
300.0000098
300.0000039
300.0000112
300.0000246
300.0000192
300.0001606
300.0000085
300.0000469
300.0000197
300.0000124
300.0000178
300.00002
299.9999897
300.0000059
299.9999921
299.9999879
299.9999884
299.9999879
299.9999905
299.9999877
299.9999877
299.9999963
299.9999877
299.9999877
299.9999977
299.9999886
299.9999958
299.9999978
299.9999979
299.999998
299.9999952
299.9999952
299.9999953
299.9999955
299.9999954
299.9999957
300.0000139
299.9999963
300.000024
300.0000128
300.0000086
300.0000149
300.0000727
300.0000229
300.0000564
300.0000211
300.0000877
300.0000254
300.0000207
300.0000186
300.0000208
300.0000034
300.0000146
300.0000247
299.9999882
300.0000374
300.0000105
299.9999877
299.9999963
299.9999919
299.9999877
299.9999901
299.9999892
299.9999886
299.9999886
299.9999885
299.9999969
299.9999928
299.9999976
299.9999981
299.9999981
299.9999981
299.9999955
299.9999954
299.9999959
299.9999961
299.9999964
299.9999971
300.0000959
299.9999965
300.0001713
300.0000202
300.0000273
300.0000281
300.0000553
300.0000354
300.0000605
300.0000405
300.0000443
300.000008
300.0000215
300.0000146
300.0000223
300.0000295
300.0000198
300.0000359
300.0000652
300.0000744
300.0000664
300.0000329
300.0000423
300.0000237
300.0000204
300.0000137
300.0000137
300.000007
300.0000075
300.0000018
299.9999985
299.9999989
299.9999984
299.9999982
299.9999983
299.9999982
299.999997
300.0002046
300.0001973
300.0000126
300.0003854
300.0004149
300.0001813
300.0004268
300.0001845
300.0000391
300.000063
300.0000542
300.0000703
300.0000618
300.000085
299.9999997
299.9999961
299.9999972
300.0000093
299.9999994
300.0000019
300.0000474
300.0000042
300.0000746
300.0000563
300.0000718
300.0000375
300.000012
300.0000148
300.0000039
300.0000052
299.9999997
300.0000001
299.9999996
299.9999992
299.9999989
299.9999984
299.9999984
299.9999983
300.0002165
300.0002223
300.0002003
300.0002112
300.0002013
300.0004035
300.0001973
300.000194
300.0001858
300.0001907
300.0001869
300.0000742
300.0001183
300.0001012
299.9999998
299.9999995
299.9999955
299.9999962
299.9999956
299.999996
300.000004
299.9999963
300.0000077
300.0000915
300.0000166
300.0000492
300.0000779
300.0000643
300.0001011
300.0000626
300.000097
300.0000976
299.9999986
299.9999983
299.9999984
299.9999986
299.9999984
299.9999984
299.9999983
299.9999983
299.9999983
300.0001782
299.9999946
300.000167
299.9999948
299.9999948
300.0000888
299.9999946
299.9999943
300.0000062
299.9999939
299.9999932
299.9999955
299.9999924
299.9999922
299.9999953
299.9999947
299.9999955
299.9999961
299.999996
299.9999966
299.9999965
299.9999971
299.9999975
299.9999973
299.9999978
299.999998
299.9999986
299.9999982
299.9999984
299.9999983
299.9999983
299.9999982
299.9999985
299.9999983
299.9999988
299.9920831
299.9917588
299.9983859
299.9967119
299.9983271
299.9989407
299.9986646
299.9988144
299.9989092
299.9988382
299.998843
299.9985245
299.9987392
299.9984321
299.9956058
299.9976771
299.9963191
299.996014
299.9925759
299.9958715
299.9983843
299.9979561
299.9984079
299.9979509
299.998373
299.9981964
299.9991651
299.9992778
299.9993907
299.9994489
299.9994761
299.9993778
299.9956601
299.9982184
299.9987297
299.9987965
299.9984786
299.9977787
299.9976326
299.9985456
299.9976103
299.9978186
299.998783
299.9987885
299.998632
299.9983689
299.9987859
299.9987478
299.9988493
299.9986325
299.9991001
299.9988607
299.9993385
299.9992495
299.9993641
299.9982414
299.9984026
299.9986179
299.9986354
299.9987361
299.9987034
299.9988062
299.9985838
299.9985106
299.9985295
299.9987105
299.9985993
299.9984148
299.9986381
299.9988142
299.9988045
299.9991322
299.9990169
299.9993094
299.9992324
299.9993241
299.9992587
299.9985495
299.9988273
299.9988605
299.9988979
299.9989105
299.9988842
299.9988385
299.9989011
299.9989902
299.9989334
299.9990417
299.999026
299.9992159
299.9991412
299.9989655
299.9990528
299.9991201
299.9991027
299.9990694
299.9999908
299.9993324
299.9999894
299.9993421
299.9999894
299.9993662
299.9999893
299.9992868
299.9999892
299.999198
299.9999887
299.9991743
299.9999878
299.9991171
299.9999874
299.9992991
299.9995201
299.9999877
299.999332
299.9999942
299.9999966
299.9999979
299.9999985
299.9999981
299.9999977
299.9999941
299.9999891
299.9999879
299.99999
299.9999944
299.9996737
299.9999968
299.9996305
299.999994
299.9999946
299.9999966
299.9999991
300.0000061
300.0000076
300.0000057
299.9999896
299.999988
299.9999889
299.9999944
299.9999971
299.9999976
299.9997048
299.9997764
299.9999978
299.999995
299.9999952
299.9999966
300.0000031
300.0000163
300.0000528
300.0000172
299.9999967
299.9999882
299.9999883
299.9999935
299.9999975
299.9999978
299.9999978
299.9999951
299.9999953
299.9999967
300.0000047
300.0000205
300.0000673
300.000018
300.0000122
299.9999904
299.9999879
299.9999877
299.9999877
299.9999903
299.9999981
299.9999953
299.9999957
299.999997
300.0000162
300.0000278
300.0000913
300.0000197
300.0000164
300.0000626
300.0000486
300.0000228
300.0000154
299.9999995
299.9999983
299.9999957
299.9999979
300.0002051
300.0000427
300.0000464
299.9999994
300.0000021
300.0000262
300.0000835
300.0000284
300.0000045
300.000002
299.9999986
299.9999983
300.0002088
300.0003798
300.0003941
300.0000883
300.000082
299.9999956
299.999997
300.0000073
300.0000951
300.0000643
299.9999985
299.9999986
299.9999984
299.9999983
299.999996
300.0001752
300.0001425
300.0000331
299.9999979
299.9999951
299.9999957
299.9999963
299.9999969
299.9999978
299.9999983
299.9999983
299.9999979
299.9999983
299.9999845
299.9999843
299.9999833
299.9999818
299.9999961
299.9999968
299.9999976
299.999998
299.9999981
299.9999982
299.9999987
299.999324
299.9999985
299.9959103
299.9964712
299.9988091
299.9989488
299.9988348
299.997157
299.9893137
299.9977425
299.9981339
299.9988595
299.9992515
299.9990326
299.9994683
299.9994874
299.9994416
299.9994916
299.9988875
299.9987542
299.9969625
299.998572
299.9985379
299.9987534
299.9987863
299.9987484
299.9979546
299.9981865
299.9985222
299.9985382
299.9987221
299.9986368
299.9989352
299.9988248
299.9987563
299.9984111
299.9990656
299.9993178
299.9993631
299.999106
299.9991053
299.9988775
299.9999997
299.9999996
299.9999998
299.9985973
299.9986786
299.9985509
299.9984867
299.9985955
299.9984248
299.9983717
299.9984401
299.9982657
299.9991766
299.9992374
299.9990766
299.9988744
299.9988446
299.9988507
299.9986621
299.9988917
299.9988028
299.9987346
299.9985723
299.9985743
299.9984668
299.9985892
299.9990213
299.9990982
299.9991119
299.9991098
299.999104
299.9991202
299.9990661
299.9990215
299.9989838
299.9989564
299.9993018
299.9992845
299.999232
299.999163
299.999083
299.9989984
299.9989222
299.9988694
299.9988742
299.9993074
299.9993063
299.9992632
299.9991824
299.9990852
299.9989892
299.998909
299.998852
299.9988315
299.9992238
299.9992448
299.9992278
299.999159
299.9990678
299.9989784
299.9989133
299.9988528
299.998821
299.9999921
299.999354
299.9999964
299.9929029
299.9999896
299.9993236
299.9999966
299.9999967
299.9973575
299.9987713
299.9999894
299.9993619
299.9999971
299.9999972
299.9990651
299.9990815
299.9999893
299.9993437
299.9999971
299.9999968
299.9991116
299.9991212
299.9999893
299.9991931
299.9999962
299.9999954
299.9990446
299.9987181
299.999989
299.9992678
299.9999942
299.9999929
299.9976623
299.9959041
299.9999883
299.9990708
299.9999917
299.9999899
299.9889137
299.9958438
299.9999876
299.9992061
299.9999886
299.9999879
299.9979184
299.9986004
299.9999874
299.9992933
299.9999876
299.9999877
299.9981773
299.9981298
299.9999884
299.9999901
299.9990142
299.9999926
299.9999957
299.9999962
299.9999969
299.9999974
299.9999976
299.9995872
299.9999978
299.9995208
299.9995407
299.9999979
299.999998
299.999605
299.999998
299.9994189
299.9993952
299.9999982
299.9999983
299.9995107
299.9995894
299.9999983
299.9993579
299.99929
299.9994287
299.9995305
299.9999983
299.9993069
299.999998
299.9999982
299.9995792
299.9999983
299.9994657
299.9999983
299.9999983
299.999261
299.9991651
299.9990552
299.9999842
299.9999978
299.9999999
299.9999999
299.9999845
299.9999981
299.9999983
299.9999999
299.9999999
299.9999999
299.9999839
299.9999984
299.9999986
299.9999999
299.9999999
299.9999999
299.9999826
299.9999986
299.9999985
299.9999999
299.9999999
299.9999999
299.9999944
299.9999979
299.9999966
299.9992054
299.9999999
299.9988524
299.9999964
299.9999968
299.999997
299.9993852
299.9991194
299.9991239
299.9999973
299.9999972
299.9999974
299.9994459
299.9991499
299.9991465
299.9999978
299.9999976
299.9999978
299.9993927
299.9991161
299.9990802
299.9999981
299.999998
299.9999982
299.9993503
299.9990593
299.999054
299.9999982
299.9999983
299.9999983
299.99932
299.9990551
299.9990366
299.9999984
299.9999984
299.9999984
299.9993392
299.9989898
299.9989489
299.9995341
299.9999986
299.9999983
299.9992526
299.9989118
299.9992622
299.9990622
299.9994897
299.9995007
299.9994822
299.9994266
299.9994546
299.9992953
299.9992753
299.9993399
299.9992223
299.9992585
299.999192
299.9991622
299.9992139
299.9991369
299.9990968
299.9991773
299.9992711
299.9990503
299.9990441
299.9990926
299.9990913
299.999077
299.9988771
299.9988103
299.9987306
299.9988669
299.9999998
299.9999999
299.9999999
299.9999999
299.9999999
299.9999999
299.9999999
299.9985316
299.9999999
299.9983631
299.9989161
299.9987679
299.9987549
299.9989228
299.998759
299.9987502
299.998868
299.9987282
299.9986996
299.9988367
299.9986702
299.9986383
299.998764
299.9985924
299.9985362
299.9986765
299.9985217
299.9985078
299.9988981
299.9987325
299.9985719
299.9985718
299.9984968
299.9982288
299.9987335
299.9986892
299.9984542
299.9993408
299.9992484
299.9993703
299.9993523
299.9993204
299.9993408
299.9993508
299.9993025
299.9991944
299.9992301
299.9992032
299.9992572
299.9991079
299.9990846
299.9990717
299.9990372
299.9991113
299.9990358
299.9990249
299.9990416
299.9989869
299.9988793
299.9989088
299.9987383
299.9986898
299.9985235
299.998544
299.9984991
299.9985169
299.9984634
299.9999999
299.9999999
299.9999999
299.9999999
299.9999999
299.9999999
299.9985038
299.9983574
299.9987311
299.9987164
299.9986876
299.9986775
299.9987064
299.9986824
299.9986427
299.998597
299.9986077
299.9984981
299.9985165
299.9985456
299.9984618
299.9984444
299.9984443
299.9986423
299.9984039
299.9982626
299.9983779
299.9982755
299.9982804
299.9982776
299.9984496
299.9985022
299.9985493
299.9988323
299.9987875
299.9987394
299.9987525
299.9988232
299.9988396
299.9989476
299.9986069
299.9987441
299.9988933
299.9988325
299.9992561
299.9992486
299.9992761
299.9992459
299.9992587
299.9991551
299.9991547
299.9990139
299.9990543
299.9989996
299.9989607
299.99894
299.9989146
299.9989385
299.9989133
299.9988855
299.9988958
299.9986114
299.9987579
299.9986393
299.9987035
299.9999997
299.998649
299.9999997
299.9985776
299.9988202
299.9987874
299.9986408
299.9987554
299.9986747
299.998567
299.9986242
299.998531
299.9984887
299.9984748
299.998451
299.9983696
299.9984493
299.9984232
299.9984057
299.9984289
299.9982797
299.9983196
299.9985028
299.9982737
299.9999997
299.9999996
299.9999998
299.9984462
299.9985694
299.9986575
299.9985223
299.9986224
299.9984511
299.9983983
299.9983117
299.9983996
299.9982307
299.9983451
299.9985593
299.9986313
299.9986754
299.9987583
299.9989542
299.9989817
299.9989788
299.9990651
299.9990789
299.9990968
299.9991256
299.9984314
299.9984496
299.9988443
299.9988134
299.9989337
299.999028
299.9990043
299.9990804
299.9990976
299.9990168
299.9991158
299.9989972
299.9990168
299.9991232
299.9991222
299.9990501
299.9991176
299.9991107
299.9990752
299.999104
299.9992054
299.9990942
299.9991916
299.9991018
299.9991662
299.9992141
299.9990637
299.9991288
299.9990147
299.9991335
299.9990989
299.9990496
299.9990015
299.9989432
299.9989842
299.9989306
299.9989117
299.9988765
299.9988948
299.9987286
299.9989027
299.9987775
299.998644
299.9987264
299.9989745
299.9989032
299.998994
299.9988986
299.9989986
299.9990009
299.9989304
299.9991016
299.9988592
299.9989307
299.9989333
299.9989161
299.9987719
299.9988547
299.9989335
299.9987919
299.9987356
299.9988521
299.9986367
299.9986901
299.9985915
299.9986578
299.9986159
299.9986026
299.9986062
299.9986151
299.9985572
299.9986313
299.9985232
299.9985232
299.9986275
299.9986408
299.9985273
299.9987681
299.9989094
299.9988501
299.998884
299.998833
299.9987184
299.9986898
299.9985198
299.9985866
299.9984632
299.9985842
299.9987248
299.9990942
299.9990588
299.9991981
299.9992069
299.9991075
299.9992133
299.999203
299.9991118
299.9991886
299.9991703
299.9990892
299.9991481
299.9991215
299.9990442
299.9990905
299.9990571
299.9990013
299.9990228
299.9989895
299.9989647
299.9989591
299.9989324
299.9989548
299.9989149
299.9989146
299.9989219
299.9992375
299.999293
299.9992997
299.9993183
299.9993189
299.9992616
299.999307
299.9992843
299.9991991
299.9992526
299.9992136
299.9991241
299.9991696
299.9991249
299.9990405
299.9990766
299.9990303
299.998958
299.9989855
299.9989477
299.9988911
299.9989151
299.9988841
299.9988604
299.9988612
299.9988495
299.9988953
299.998832
299.9988535
299.9989377
299.9992886
299.9992557
299.9993125
299.9992762
299.9992873
299.9992916
299.9992875
299.9992781
299.9992263
299.9992558
299.9992218
299.9991347
299.9991794
299.9991321
299.999036
299.9990831
299.9990361
299.9989462
299.9989887
299.9989464
299.9988776
299.9989111
299.9988851
299.9988391
299.9988621
299.9988452
299.9988492
299.9988293
299.9988447
299.9988935
299.9988901
299.9992057
299.9991331
299.9990683
299.9992367
299.9991491
299.9991662
299.9991049
299.9992422
299.9991827
299.9991905
299.9991395
299.9991991
299.999182
299.9991606
299.9991145
299.9991228
299.9990799
299.9990199
299.999021
299.9990332
299.9989842
299.9989427
299.9989379
299.9989021
299.9988849
299.9988767
299.9988536
299.9988032
299.9988215
299.9988244
299.9987962
299.9988066
299.9986668
)
;

boundaryField
{
    walls
    {
        type            zeroGradient;
    }
    wallFilmFace_top
    {
        type            zeroGradient;
    }
    region0_to_wallFilmRegion_wallFilmFace
    {
        type            zeroGradient;
    }
    mirrorFace_top
    {
        type            zeroGradient;
    }
    region0_to_wallFilmRegion_mirrorFace
    {
        type            zeroGradient;
    }
    procBoundary3to2
    {
        type            processor;
        value           nonuniform List<scalar> 
64
(
299.9999999
299.9999998
299.9999999
299.9999999
299.9999999
299.9984394
299.9985285
299.9980576
299.999058
299.9999938
299.9999934
299.9999939
299.9999939
299.9999931
299.9999942
299.999995
299.999995
299.999995
299.9999951
299.9999951
299.9999951
299.9999951
300.0002125
300.0002125
300.0000186
300.0000078
300.0000078
299.9999959
299.9999953
299.9999953
299.9988942
299.9962533
299.9962533
299.9971516
299.9980939
299.9999923
299.9993028
299.999996
299.9999837
299.9971906
299.9999996
299.9983691
299.9987804
299.9991819
299.9992631
299.9991805
299.999996
299.9971906
299.9999975
299.9999998
299.9999998
299.9999999
299.9999999
299.9999998
299.9985682
299.9999995
299.9988153
299.9983209
299.9989213
299.9989502
299.9989959
299.9992621
299.9992297
299.9991176
)
;
    }
}


// ************************************************************************* //
