/*--------------------------------*- C++ -*----------------------------------*\
  =========                 |
  \\      /  F ield         | OpenFOAM: The Open Source CFD Toolbox
   \\    /   O peration     | Website:  https://openfoam.org
    \\  /    A nd           | Version:  8
     \\/     M anipulation  |
\*---------------------------------------------------------------------------*/
FoamFile
{
    version     2.0;
    format      ascii;
    class       volScalarField;
    location    "0.6/wallFilmRegion";
    object      alpha;
}
// * * * * * * * * * * * * * * * * * * * * * * * * * * * * * * * * * * * * * //

dimensions      [0 0 0 0 0 0 0];

internalField   nonuniform List<scalar> 
1342
(
0.05883060989
0.06204877739
0.05090469866
0.06732943192
0.005977228705
0.0002028540391
1.545493243e-05
0.0004730160491
0.003196802923
0.03282096745
0.04498665637
0.03702521484
0.04500767975
0.03141343763
0.01187500136
0.001848670065
0.0001298224145
1.04749426e-05
0.0566888766
0.03248146675
0.02625595899
0.02678653548
0.003241530623
0.0001031438837
1.062560479e-05
4.441017872e-10
3.784800562e-10
3.326305955e-10
2.520594218e-10
1.473415574e-09
7.140642715e-08
2.377158588e-06
4.723199377e-05
0.0004726894602
0.0002823926605
9.729418864e-05
6.399679067e-08
0.1155346314
0.0781343183
0.06265528536
0.04040567722
0.003947228182
0.0004612710214
1.531304139e-10
1.625988473e-10
3.168413475e-08
1.745589869e-06
6.032953848e-05
0.001067321394
0.007309348727
0.006626683506
3.09107977e-17
2.387289245e-18
6.102053209e-20
3.981682087e-19
1.120208477e-18
2.627367739e-18
5.700963762e-18
1.277824684e-17
0.1632794429
0.2285260435
0.0002824895052
0.0001787341694
0.04543818576
7.780653149e-18
4.978048353e-19
9.638500069e-22
6.122245981e-21
1.901376744e-20
5.077726894e-20
1.26881252e-19
3.132190907e-19
1.20632124e-07
0.4858938814
0.0001859394882
0.009635637559
9.344027217e-19
5.153002478e-20
3.169604674e-23
8.14094207e-23
2.198969012e-22
5.753810158e-22
1.491459678e-21
3.804039752e-21
7.871489569e-07
0.4459494717
0.1767058611
0.005223582143
0.000166431477
3.990909914e-12
4.089487022e-12
3.936092327e-12
6.329565186e-17
1.686355335e-17
3.467572978e-18
3.57369163e-19
1.97873306e-20
4.80699601e-20
0.0129763415
0.0819611482
0.03694577917
0.0431572181
0.0341298355
0.02502568977
0.05528906148
0.05841738435
0.01842629619
0.02241406468
0.02915378271
0.02224933915
0.01256685538
0.01159310942
0.004924445064
0.00676190879
0.01105216533
0.006659165429
0.00611346669
0.009625586449
0.005404828664
0.004808096455
0.009309655634
0.005080195424
0.005260172992
0.01478573988
0.005685622486
0.006515377111
0.02053872651
0.007611725783
0.008988750654
0.02660072094
0.01061635759
0.0124322859
0.02644758586
0.01428670645
0.01566525898
0.01933272062
0.01642757452
0.01454485024
0.0202564109
0.01114479263
0.009772106713
0.04032893547
0.2163677438
0.1339628362
0.006017432821
0.06282216537
0.0276428346
0.002186612521
0.01174546408
0.002379052715
0.002224386294
1.322228332e-05
1.836594093e-06
0.004626439141
2.308338354e-05
0.0001472977204
0.006854405925
0.0002996076312
0.0004553813014
0.009155203006
0.0005960510519
0.0005597496966
0.01040096821
0.0006349360328
0.0008544889161
0.008570658126
0.000580728678
0.001117428129
0.004445960172
0.0007936692157
0.0001213417018
0.002656038333
0.0007536675863
0.0002199666004
0.005135330137
0.0006609142761
0.001561452665
0.06870985471
0.003840509639
0.01757056966
0.2335707802
0.2384041672
0.2857343711
0.05768952578
0.2129900818
0.09617632212
0.008034098068
0.03689362686
0.01221798231
0.0003842389358
0.004877105941
0.005013817662
1.348390706e-15
0.001514578236
8.507497245e-07
3.818322203e-10
3.228835348e-15
7.268331664e-25
4.746020196e-09
2.402913527e-31
5.970481399e-36
3.165473655e-08
1.800735815e-41
2.010739074e-41
8.499962312e-09
1.955235141e-41
1.078276724e-21
4.890228577e-18
5.12899451e-30
1.618384602e-30
2.993790302e-06
1.083855427e-18
2.367891456e-19
0.0004864593187
6.712074129e-05
0.0001208013339
0.006070800719
0.0004787007957
0.002110802753
0.3336197306
0.3087633263
0.3914782527
0.1181995897
0.2923747251
0.111721855
0.01379482269
0.03661904697
0.0126522572
0.005810430812
0.005822241262
0.006407507791
0.001983472581
0.01132664673
0.01105615796
4.296839077e-15
0.0009877864195
6.704419345e-08
6.228303874e-35
1.373618145e-17
1.755165973e-27
7.72339151e-53
2.551061723e-37
4.168972566e-47
5.134411143e-33
7.692709485e-57
2.004790244e-42
8.322048054e-41
1.574562241e-50
1.787110505e-50
7.729436183e-29
1.088404701e-37
4.846499277e-38
2.037504067e-05
1.082240241e-10
2.520083095e-08
0.000806230225
4.955076567e-05
0.0005210882089
0.7963008288
0.005143078287
0.8217081641
0.3963325524
0.353323469
0.3157090907
0.07530536147
0.128955501
0.04330932543
0.01005458654
0.01685191079
0.007580254968
0.007210268906
0.005290657299
0.008912902959
0.02011742292
0.02140439294
0.03126621255
3.587903545e-05
0.01142415673
0.0002700366514
2.279388624e-22
4.27449824e-10
4.094313962e-20
3.926935006e-42
4.579808367e-30
5.90182001e-40
6.40497217e-47
1.016508285e-38
6.838731377e-37
1.422110881e-44
3.203523792e-36
1.685063652e-34
8.066809581e-33
3.256936468e-22
8.863382245e-26
7.696884222e-14
1.322809449e-10
1.690996791e-14
0.0002551096189
6.123694168e-15
3.06065952e-15
0.8953726547
0.001156292161
1.261903322
0.1754224797
0.2121057128
0.0785595445
0.0245900397
0.03233533305
0.01470161998
0.005921199245
0.007685625241
0.006155388867
0.01320047417
0.009732185759
0.01598024155
0.04490775952
0.08818405623
0.07210071038
0.0002965197782
0.006847992349
0.001188069678
3.818946983e-20
4.731256153e-05
2.303630017e-11
6.594592577e-40
9.683503321e-21
1.355611974e-29
8.776129254e-05
2.44709501e-18
7.743470423e-05
0.0007782732835
0.002598769698
0.0009363784868
0.0004345710025
0.001399517154
0.007007981027
0.001002825561
0.02555717832
0.075531842
0.002510088055
0.2019336093
0.4589206813
0.2777419138
0.2172975704
0.04061715445
0.07026031628
0.03918735163
0.01223586668
0.1149844258
0.02475611227
0.01691658821
0.5754326897
0.5269992097
0.1850373526
0.3275399717
0.154044853
0.01182109817
0.02131738732
0.009433337096
0.003900142402
0.005957288887
0.003086537085
9.135082949e-05
0.001295421378
0.0006606941002
1.906156179e-13
0.001354022911
0.001470500159
0.003020279987
0.003259096839
0.002698294368
0.001193865272
0.002199103025
0.00261570753
0.01290501295
0.005699674688
0.0140424349
0.1391928389
0.03435370531
0.08355867713
0.8662950506
0.1876166025
0.3579053683
0.285846199
0.4264027468
0.4381256936
0.6932896325
0.3807850994
0.3310356271
0.277690032
0.2428680631
0.2849479337
0.2573682391
0.2985875669
0.1395134154
0.2971020824
0.2145195119
0.02499566964
0.1282936966
0.1032302403
0.0103758829
0.08661170851
0.056181758
7.062641602e-06
0.02751226172
0.008863701986
1.287249647e-05
0.003025983507
0.004642226789
0.004103110815
0.007373643524
0.01121159269
0.006194753537
0.01526496378
0.02431491252
0.02004199314
0.03976119201
0.05745005223
6.938123146e-16
4.411890153e-16
2.675996717e-16
2.040819592e-16
1.070040165e-16
2.975650409e-16
7.633249642e-17
7.934858349e-17
4.03245312e-16
9.899247635e-17
1.178352556e-16
6.24554344e-16
1.39400468e-16
2.151106905e-16
9.445663948e-16
2.857404715e-16
3.600103271e-16
1.407804825e-15
4.371678273e-16
5.442191483e-16
1.973532858e-15
6.19060178e-16
7.873213166e-16
2.468708455e-15
9.373319407e-16
1.350370821e-15
0.05067820104
0.07792794676
0.086255898
0.06972126988
0.03007548137
0.04747825933
2.930272905e-16
5.202715529e-17
2.341933804e-17
3.562207501e-17
7.739947873e-17
1.390652939e-16
2.171273895e-16
3.233485871e-16
2.003363852e-16
7.75759028e-17
1.349069776e-17
1.456705008e-17
3.296623025e-17
4.524113616e-17
1.461146106e-16
6.256762867e-16
1.940489135e-16
1.637264864e-16
0.06920284563
6.855839309e-08
0.1217530516
0.1396482162
0.1547698151
9.124784473e-17
9.300046997e-18
4.732169709e-19
1.488511897e-18
2.7889365e-19
1.894206191e-19
2.170626805e-20
6.919975802e-19
1.738755556e-18
4.865459096e-19
7.688512319e-19
3.900775187e-18
1.182962393e-18
1.78631826e-18
8.47951558e-18
1.97067195e-17
0.1038016817
8.062315304e-08
0.2043199272
0.2041894266
0.2560960014
0.3555548881
2.496964634e-17
2.622767315e-20
2.934807135e-21
1.613045044e-22
1.618607253e-21
2.655420685e-21
8.075213901e-20
4.304306259e-21
6.919675954e-21
1.987298659e-19
1.105205771e-20
4.974063382e-19
6.04547663e-07
0.5773060353
1.450395178e-19
4.701090678e-21
1.98559772e-22
4.054234937e-21
0.2851737595
0.147279368
1.954818165e-10
0.1587420622
2.380114429e-10
0.1730955209
2.818951081e-10
0.1910276224
3.235894304e-10
0.2122952632
3.907496481e-10
0.2304976042
4.464504475e-10
0.1892689389
3.028182367e-10
0.1831823753
3.207071125e-10
0.02157029059
0.3339412831
2.577021766e-08
0.01118909514
0.01150976887
0.01034869396
0.009099138528
0.01136654522
0.01757928589
0.0236707063
0.02790920161
0.02323578581
0.01804285629
0.04533435952
0.07238473626
0.2658957264
0.07383477596
0.1002689878
0.02298589145
0.001669393235
0.002056650338
0.003383076349
0.005716319448
0.008330054857
0.009202927815
0.009879307113
0.008383376626
0.00272232514
0.00351253877
0.01147492702
0.06206771608
0.05801542543
0.4221014539
0.2356828589
0.1352454217
0.02351693713
0.003495077615
9.878077392e-09
1.256898007e-17
6.231202068e-09
6.778161756e-09
4.980981762e-09
1.102425133e-08
5.062336974e-05
0.0001760841179
0.001322519157
0.1404521344
0.2619271355
0.2720823624
0.04078114665
0.005715484667
0.008026502838
1.341679667e-06
5.008529538e-25
8.501127282e-45
6.176637975e-53
4.476090015e-41
2.324532015e-28
1.3360482e-05
0.0001573702869
0.01388396391
0.3301793011
0.2317751073
0.02595590704
0.005500529549
0.01529101898
0.005806688385
2.020041383e-12
2.843699256e-32
9.136937658e-49
3.177460011e-46
6.053150417e-31
4.879865638e-14
3.984326563e-06
0.001778205544
0.3347310517
0.06164733769
0.01088660719
0.005977334732
0.0326533791
0.01341118446
4.65746338e-10
3.619677608e-30
1.96168512e-28
0.004210476849
0.0002042495087
0.0006881647352
0.00147457247
0.003258022116
0.1049501921
0.02108099188
0.009787601444
0.08123973362
0.05357861402
0.006181058754
0.002553321872
1.223609134e-07
4.071917233e-05
0.001963911672
0.003117573023
0.04684721912
0.3627975779
1.940365179
0.4060035552
0.2859143906
0.4376992784
0.2804966353
0.2559683663
0.04057453144
0.01866874412
0.003761314568
6.574022457e-07
0.001875287588
0.004118451763
0.01115691429
0.036264816
0.2194339063
1.095408678
0.4051899029
0.395359672
0.3966533874
0.3434254459
0.2615929856
0.1112347341
0.05929392672
0.05837268176
0.07220007124
0.1149711848
1.549447758e-06
0.1033631708
1.421118488e-15
3.826847287e-16
2.540716758e-16
3.595456481e-16
4.670631428e-16
7.827652636e-16
1.102557599e-15
1.509442799e-15
1.960496914e-15
2.32922359e-08
0.02132697783
4.234407604e-08
0.06008030889
0.0517458759
0.03198621674
0.04931600122
1.016513047e-05
1.373308992e-05
1.213573772e-16
2.786285358e-17
1.315892918e-17
2.825677945e-17
1.02258777e-17
4.075681952e-17
1.085780083e-16
1.730936499e-16
7.540817837e-17
2.583767886e-16
1.172588003e-16
4.286108591e-16
0.0006189161587
0.0002701311841
7.483106255e-05
0.002247101821
1.169756867e-07
0.2705063993
0.2045953766
0.1503533666
0.1984269877
0.003306101339
5.777899367e-11
4.252629034e-11
4.580879992e-10
4.77155912e-07
1.052780357e-06
3.350199836e-05
0.001410684266
0.004557954186
0.02318535224
0.1244233597
0.3945155635
0.1390380632
0.2921835334
0.2211401829
0.2739288171
0.002787700403
0.0006332948269
0.001558575863
1.209222555e-09
1.08365868e-11
8.545358884e-12
8.15559705e-10
0.2480354871
4.244016964e-06
0.3520235334
1.19710873e-07
1.043428687e-19
5.590386784e-21
1.988457016e-24
4.466451229e-23
6.306998555e-24
1.21785111e-22
1.943538255e-23
5.702457798e-23
1.637688352e-22
4.594924226e-22
1.546207658e-20
8.377945516e-22
2.509927081e-25
1.46365167e-24
6.109171536e-24
2.200106663e-23
7.337881845e-23
2.378284089e-22
7.9067347e-22
2.76398853e-13
3.080768006e-13
9.774159206e-13
1.213592264e-16
4.952598672e-18
1.012940956e-18
1.03616234e-19
3.863738943e-21
1.584067319e-20
1.174854183e-12
1.278145077e-12
2.084072595e-12
3.740428745e-17
7.500311963e-18
1.543893516e-18
1.56978622e-19
6.597109235e-21
1.759851001e-20
0.1423605278
1.81844185e-10
0.01767002621
1.137555377e-15
0.1527328137
2.148725401e-10
0.01885215657
0.02063294971
7.750490987e-16
6.879580599e-16
0.1654794933
2.614056608e-10
0.02316636544
0.02638798037
7.573395417e-16
9.057554631e-16
0.1816125188
3.001712712e-10
0.03016113759
0.03440414402
1.043481637e-15
1.12658355e-15
0.2013509711
3.556346297e-10
0.03904017715
0.04401628994
1.273791876e-15
1.579541118e-15
0.2228915976
4.239382995e-10
0.04941065351
0.05521477802
1.898639757e-15
2.220117899e-15
0.2273804746
4.37843654e-10
0.06081189811
0.06403808009
2.550120347e-15
3.222275194e-15
0.1762732046
2.923921907e-10
0.05945905234
0.05081140354
3.324222949e-15
4.52067144e-15
0.2062056946
2.100762217e-10
0.04080083708
0.03518271365
3.640820902e-15
4.087765052e-15
0.03687328868
0.06297881189
1.508334592e-08
0.1542499363
0.1039011809
0.0124182293
0.01714441666
0.05348020922
0.2492060463
0.04042512006
0.3164286673
0.02165875116
0.02037232254
0.9906402742
0.04220018967
0.05490143388
0.8041060161
0.02144639007
0.01904624388
1.888836214
0.8145724799
0.003728229889
0.001458339338
8.233237722
0.002914696556
0.001811993877
0.0007202100755
0.0003928444354
0.8380447033
0.0001838282617
0.07668702515
0.06514163731
5.414673864e-06
0.05949118534
4.909646809e-05
0.1671257802
0.08209215357
9.25697628e-05
2.305225727e-05
7.924356874e-06
3.270061833
3.750780949
0.0002031484444
7.445215761e-10
0.4703056305
2.660373387
2.483847766
0.001179309099
7.032450149e-10
7.417042569e-10
0.3911764298
2.618207934
2.633049084
0.0109163494
9.189296038e-10
1.404546204e-09
0.4054575677
2.485319977
2.213188105
0.04967225962
1.681300896e-09
1.430938255e-09
0.3692338156
1.912074692
1.727573476
0.03663456382
1.031649942e-09
5.71533001e-10
0.3138180735
1.772567428
2.009231223
0.04257468191
4.498377099e-10
2.530065184e-09
0.1799292794
2.252516228
2.342373782
0.04055172847
1.461181417e-08
8.613922531e-08
0.0845158097
2.281242949
2.150733368
0.02115336295
4.738413996e-07
2.34665033e-06
0.05725101927
1.96207332
1.663631531
0.0053044206
9.94585165e-06
3.516679826e-05
0.06274428197
1.281787886
0.8794043708
0.0005685905441
0.0001107711876
0.0004010256427
0.09102150082
0.5439678592
0.3396782584
3.341665874e-05
5.263863573e-05
2.967120635e-05
1.854186528e-06
0.1116465331
0.2411665408
7.757791389e-06
1.74380429e-05
3.193261484e-06
2.598891473e-06
0.06342108334
0.08411591724
0.03726859001
0.05966696045
0.09857025985
0.02771928452
0.05232874663
0.08227906323
0.0440078659
0.03110354695
0.04029693377
0.0439506579
0.01497053314
0.03279053496
0.01844992279
0.001616414186
0.0007689393123
0.003685766823
0.001905314108
0.000250360026
0.0002090856854
0.0008739284531
2.546204651e-05
2.619355438e-05
4.194314152e-05
6.406326252e-05
4.932381373e-10
4.069634286e-10
3.551534296e-10
2.38236262e-10
3.024273992e-10
2.239371585e-10
2.0654243e-10
2.229082925e-10
1.857243671e-10
4.060180158e-10
1.207782999e-08
7.313851054e-09
6.331054077e-08
4.294555915e-07
3.774441696e-07
2.285069142e-06
1.157940892e-05
1.267348609e-05
6.102323467e-05
0.0001589833855
0.0002388038386
0.000748849186
0.001730825875
0.002007887552
0.007268275639
0.0001628964742
0.001497394828
0.0008689068839
4.433451707e-05
0.0005306233745
0.0001292121418
5.076991661e-05
8.049653657e-05
2.966247872e-17
9.118791535e-18
5.923680245e-17
9.582130975e-17
0.1010462556
0.07929621442
0.1579383525
0.1437797991
0.1197682382
0.1818281203
0.1233794602
0.07717765147
0.07246836916
0.1443066637
0.1132861439
0.0920666809
0.06185162132
0.08393857749
0.1009756644
0.0228487214
0.02563391796
0.04818458188
0.05693146418
0.002193722113
0.004708690089
0.001581515111
0.0007264811642
0.0001468958835
0.0001689003874
0.0008254206708
9.359733374e-05
0.0001642054153
9.870202095e-05
0.0001420485639
1.154274656e-10
1.625278125e-10
1.437611044e-10
1.090353277e-10
1.061595229e-10
2.060502119e-10
3.661186591e-09
1.217017255e-09
1.108043468e-07
1.067838286e-06
2.883395468e-07
1.074261743e-05
6.687044992e-06
4.262880422e-05
0.0002470047376
0.001178270601
0.000288216465
0.01072667182
0.003067336138
0.004053143384
0.02392147617
0.02625923163
0.08047899711
0.004334546885
0.02663848015
0.01632391327
0.0007050082529
0.01008002433
0.003653798553
0.002409001694
6.199445303e-17
2.046348127e-17
5.990243884e-18
7.973422698e-20
1.666465757e-19
2.951240951e-19
2.655234562e-18
3.9301266e-18
5.786762082e-18
8.691362148e-18
2.145505691e-18
8.348329138e-20
1.111816763e-20
3.141987685e-20
0.09925107952
0.1073345659
0.3392888776
0.2548514866
0.1822102873
0.2073591763
0.2866642732
0.112119978
0.1151522921
0.0606250302
0.05154056657
0.01966664061
0.01464350396
0.02109123838
0.001946379054
0.001259089752
0.003846892489
0.000300006621
0.0003403502226
0.0001340250394
2.290338991e-11
6.490106034e-11
5.837667362e-11
7.996301737e-10
2.731209548e-08
2.087133696e-06
2.909192148e-05
8.949299062e-05
0.0002443487958
0.016718777
0.02165612122
0.07806801611
0.06985477631
0.1756992882
1.694352409
5.88708199
0.4552882594
1.948241196
0.00860458632
0.01353962968
0.06897680051
0.1103747037
0.001281883994
0.001329416688
0.01690843287
6.053390429e-11
4.399975357e-11
6.85040806e-11
1.371026263e-08
5.046701094e-06
1.235913605e-05
0.0002278775534
0.0006721599094
0.006892897151
0.05767429269
0.3752029336
1.214876335
0.06610533571
0.2157443797
9.4680934e-18
2.827166802e-18
7.469525675e-19
1.654180118e-19
2.995527395e-22
5.591815872e-22
9.679768209e-22
1.760842336e-20
2.80616395e-20
4.7948826e-20
2.027988573e-07
3.222782249e-18
1.965965505e-18
2.399081367e-19
5.673660391e-19
7.871278974e-21
3.100254131e-20
4.77013069e-23
1.753365052e-23
2.618254722e-23
1.347698946e-22
7.423047174e-23
3.563222788e-22
9.272226842e-22
3.227961972e-22
5.237950842e-22
2.39381583e-21
8.485461421e-22
1.37209976e-21
6.127341733e-21
2.200598052e-21
0.1120105166
4.338970744e-07
0.3953054011
0.1621967576
0.4515034349
0.3708914229
0.2448562218
0.5336706149
0.5002703522
0.43739462
0.5798683965
0.3263625461
0.2198726579
0.02966275285
0.08106990983
0.03206289499
0.01069602024
0.002172479212
0.006824653642
4.294817424e-12
0.0007688376923
0.0001938569479
1.546954579e-05
4.061497512e-05
5.956903478e-12
1.105997372e-11
5.608359175e-12
1.079985157e-11
5.509679135e-12
5.686843128e-12
5.963357193e-12
6.924182641e-14
7.255802752e-12
4.850718086e-12
5.554743989e-14
7.881888196e-17
8.181400183e-11
4.197932044e-17
8.040641185e-18
2.155827434e-17
1.02923334e-17
1.286392265e-18
6.908513574e-08
4.445331213e-18
5.450275023e-07
1.6538166e-18
4.632489251e-19
3.370840739e-20
4.629765065e-06
2.802341631e-20
4.392477855e-20
8.971332267e-20
3.001376169e-10
0.04255529948
2.106573352e-12
6.001582533e-05
6.758279145e-06
2.275971936e-11
1.171211877e-11
4.642594516e-08
1.049778351e-11
1.020086351e-12
0.002227277507
8.019387526e-09
0.6686419604
4.80611495e-05
0.8231632833
6.574668147e-07
3.66942062e-19
1.801108905e-19
2.638623713e-20
5.122542684e-20
1.297011119e-20
8.38450664e-22
2.752682117e-21
4.13225069e-22
3.427962218e-24
9.035685634e-25
1.723900548e-24
1.117944945e-23
3.388154593e-24
6.331851643e-24
3.34058874e-23
1.150851127e-23
2.054816866e-23
9.684722575e-23
3.626686137e-23
6.342590187e-23
2.758130795e-22
1.101084516e-22
1.903055944e-22
7.610280479e-22
3.291831587e-22
7.055598754e-22
1.71038279e-07
5.433030339e-20
1.12129935e-21
3.926381737e-21
2.62037177e-22
5.34423624e-23
1.266951989e-22
8.926432489e-24
1.034367833e-24
6.354759938e-25
8.834117487e-28
1.683508217e-25
3.070607353e-24
6.260294779e-25
1.713321547e-24
1.173451128e-23
4.064969763e-24
8.849400724e-24
4.04823158e-23
1.819132088e-23
3.588297588e-23
1.318942777e-22
6.857273844e-23
1.284403794e-22
4.247356029e-22
2.389246291e-22
4.408031129e-22
1.699923593e-07
7.73656474e-22
1.233166185e-08
0.01610324983
2.965663061e-13
6.880243458e-13
2.754623916e-13
6.438194985e-13
6.42366485e-13
4.321237085e-13
7.125879161e-13
9.501473538e-13
1.24856564e-12
1.54792219e-12
3.432722538e-13
1.372120366e-17
4.259539877e-17
1.134043351e-17
2.33486828e-18
5.299632944e-18
2.518869666e-18
3.776007454e-19
1.088742785e-18
4.037930626e-19
2.161412272e-21
1.105902071e-19
2.605582191e-21
8.273449007e-21
4.441568926e-21
8.301095628e-21
1.804414356e-10
1.536636093e-20
2.170208911e-11
0.0008672994821
1.023239289e-11
1.252604834e-12
1.906638213e-12
4.248455198e-12
1.169800436e-12
1.796482336e-12
1.790778618e-12
3.92433059e-12
1.601701929e-12
1.937901723e-12
2.320209919e-12
4.434362064e-12
1.772457032e-13
2.607247825e-12
1.125901309e-13
1.510377123e-17
4.059755739e-17
1.914282843e-17
3.296721574e-17
3.574423056e-18
9.674490809e-18
4.611031369e-18
5.720511654e-19
1.989319256e-18
7.36430821e-19
4.168689294e-21
2.025494778e-19
5.90139454e-21
1.288392349e-20
1.177172101e-20
8.936420588e-21
1.379034345e-20
3.191029445e-20
3.534694286e-20
)
;

boundaryField
{
    walls
    {
        type            zeroGradient;
    }
    wallFilmFace_top
    {
        type            zeroGradient;
    }
    region0_to_wallFilmRegion_wallFilmFace
    {
        type            zeroGradient;
    }
    mirrorFace_top
    {
        type            zeroGradient;
    }
    region0_to_wallFilmRegion_mirrorFace
    {
        type            zeroGradient;
    }
    procBoundary3to2
    {
        type            processor;
        value           nonuniform List<scalar> 
64
(
0.0001895630565
5.601679503e-10
2.983312425e-10
2.540309758e-10
1.735463307e-10
2.449690199e-16
7.267026391e-17
1.013829845e-17
4.672655639e-12
0.01411594795
0.007202311373
0.004550847546
0.004550847546
0.4099172936
0.2770532101
0.1987722655
0.1732607402
0.1863923632
0.2243156997
0.2666218219
0.3115073877
0.3506142794
0.3542810324
0.3542810324
0.4418618624
0.4571824241
0.4571824241
0.2637427069
0.9812148353
0.9812148353
3.080894058e-15
9.812284489e-16
9.812284489e-16
6.900072369e-16
4.920395565e-16
0.1379315066
1.737737261e-10
0.01686252418
1.838150903
2.050210765e-15
6.496844674e-11
6.220718782e-18
1.184067946e-18
1.758658833e-19
3.318300359e-13
1.388683706e-12
0.01686252418
2.050210765e-15
0.5237177066
1.02241265e-09
3.301558493e-10
2.734984248e-10
2.540309758e-10
1.234497525e-10
1.705364231e-16
4.733212842e-11
2.454450103e-11
2.881548894e-17
1.274182013e-11
6.527446182e-12
5.819904831e-19
4.336599403e-21
7.659154452e-13
2.101967883e-12
)
;
    }
}


// ************************************************************************* //
