/*--------------------------------*- C++ -*----------------------------------*\
  =========                 |
  \\      /  F ield         | OpenFOAM: The Open Source CFD Toolbox
   \\    /   O peration     | Website:  https://openfoam.org
    \\  /    A nd           | Version:  8
     \\/     M anipulation  |
\*---------------------------------------------------------------------------*/
FoamFile
{
    version     2.0;
    format      ascii;
    class       volScalarField;
    location    "0.6/wallFilmRegion";
    object      delta;
}
// * * * * * * * * * * * * * * * * * * * * * * * * * * * * * * * * * * * * * //

dimensions      [0 1 0 0 0 0 0];

internalField   nonuniform List<scalar> 
1342
(
4.873068919e-05
5.149362192e-05
3.935083302e-05
5.204780296e-05
4.615572721e-06
1.58465713e-07
1.279219005e-08
3.695209501e-07
2.496466068e-06
2.562986967e-05
3.513001627e-05
2.891314944e-05
3.514709504e-05
2.453111182e-05
9.273162387e-06
1.442588319e-06
1.002830276e-07
8.692854159e-09
5.541431523e-05
3.178981101e-05
2.574851269e-05
2.626030724e-05
3.180028648e-06
1.010715888e-07
1.037664185e-08
4.404448216e-13
3.753247888e-13
3.298880731e-13
2.499390217e-13
1.461366337e-12
7.082396581e-11
2.357707877e-09
4.684310792e-08
4.685698347e-07
2.771703728e-07
9.526834315e-08
6.265856259e-11
0.0001129157014
7.635357582e-05
6.122728021e-05
3.952940958e-05
3.852231494e-06
4.515613386e-07
1.511612848e-13
1.605161384e-13
3.127714196e-11
1.722884989e-09
5.954574123e-08
1.053182927e-06
7.21179605e-06
6.469246266e-06
3.043056293e-20
2.35062684e-21
6.009485467e-23
3.92109192e-22
1.103156478e-21
2.587310282e-21
5.612175469e-21
1.245690624e-20
0.0001595937247
0.0002231378158
2.761134344e-07
1.745912422e-07
4.449176592e-05
7.682687376e-21
4.915489214e-22
9.517499699e-25
6.043814264e-24
1.877329748e-23
5.013253824e-23
1.252284745e-22
3.061643299e-22
1.178416027e-10
0.000474794157
1.81572885e-07
9.41486207e-06
9.202722024e-22
5.074858487e-23
3.121896034e-26
8.016034045e-26
2.165699654e-25
5.665045978e-25
1.467739793e-24
3.706823087e-24
7.69304686e-10
0.0004347695628
0.0001728884617
5.119875281e-06
1.627724813e-07
3.952896911e-15
4.051106075e-15
3.899094349e-15
6.270276708e-20
1.670330931e-20
3.434279285e-21
3.537599115e-22
1.939738933e-23
4.701425031e-23
1.283338933e-05
6.008359827e-05
3.632228365e-05
4.269147083e-05
3.373150046e-05
2.473629589e-05
4.044907108e-05
4.514659009e-05
1.818017247e-05
2.210446046e-05
2.253896844e-05
2.19424123e-05
1.239763921e-05
1.159310906e-05
4.924444327e-06
6.761908428e-06
1.105216336e-05
6.659165855e-06
6.113466752e-06
9.625585233e-06
5.404828658e-06
4.808096526e-06
9.309655151e-06
5.080196462e-06
5.260173865e-06
1.478573888e-05
5.685623545e-06
6.515377773e-06
2.053872668e-05
7.611725465e-06
8.988751111e-06
2.660072346e-05
1.061635594e-05
1.243228428e-05
2.644757291e-05
1.428670484e-05
1.566525691e-05
1.933261019e-05
1.642756404e-05
1.45447729e-05
2.025680355e-05
1.11447369e-05
9.772062443e-06
4.032893537e-05
0.0002163677629
0.0001339628267
6.017432188e-06
6.282216507e-05
2.764283379e-05
2.186612832e-06
1.174546187e-05
2.37905273e-06
2.224386104e-06
1.322228087e-08
1.836593905e-09
4.626439134e-06
2.308338432e-08
1.472977069e-07
6.854406114e-06
2.996075975e-07
4.553812621e-07
9.155203864e-06
5.960510252e-07
5.597496796e-07
1.040096732e-05
6.349360603e-07
8.544888785e-07
8.570657518e-06
5.807286268e-07
1.117428186e-06
4.445957995e-06
7.936691659e-07
1.213417079e-07
2.656037417e-06
7.536676192e-07
2.199666088e-07
5.135328921e-06
6.609142252e-07
1.561452101e-06
6.623625492e-05
3.840509576e-06
1.75705666e-05
0.0002335707459
0.0002384041745
0.0002857343636
5.768953244e-05
0.0002129900608
9.617631827e-05
8.0340974e-06
3.689362451e-05
1.221798174e-05
3.84238944e-07
4.87710564e-06
5.013818122e-06
1.348390518e-18
1.514578347e-06
8.507496519e-10
3.818321838e-13
3.228835298e-18
7.268331842e-28
4.746019922e-12
2.402913375e-34
5.970481041e-39
3.165473752e-11
1.800736006e-44
2.010739081e-44
8.499961869e-12
1.955234527e-44
1.078276608e-24
4.890228486e-21
5.128995121e-33
1.618384527e-33
2.993790152e-09
1.083855241e-21
2.367891172e-22
4.864592503e-07
6.712073903e-08
1.208013392e-07
6.070800974e-06
4.787008666e-07
2.110802792e-06
0.0003336197454
0.0003087632902
0.0003914782955
0.0001181995703
0.0002923747412
0.0001117218443
1.379482491e-05
3.661904512e-05
1.265225635e-05
5.810430473e-06
5.822240253e-06
6.407506605e-06
1.983472827e-06
1.132664494e-05
1.105615653e-05
4.296838997e-18
9.877862685e-07
6.704419485e-11
6.228302728e-38
1.373618018e-20
1.755165786e-30
7.723391126e-56
2.551062316e-40
4.168973064e-50
5.134411768e-36
7.692709426e-60
2.004790637e-45
8.322048258e-44
1.574562048e-53
1.787110009e-53
7.729435499e-32
1.088404638e-40
4.846498786e-41
2.037504184e-08
1.082240062e-13
2.520082919e-11
8.062301055e-07
4.955076605e-08
5.210881073e-07
0.0006207809934
5.143078097e-06
0.000644265707
0.000396332661
0.0003533234138
0.0003157091157
7.530534998e-05
0.0001289554981
4.330932638e-05
1.005458549e-05
1.685191203e-05
7.580255108e-06
7.210268194e-06
5.290658199e-06
8.912903508e-06
2.011742055e-05
2.140439234e-05
3.126621274e-05
3.587903942e-08
1.1424157e-05
2.700366543e-07
2.279388276e-25
4.274498284e-13
4.09431408e-23
3.926934715e-45
4.579808189e-33
5.901819467e-43
6.404971879e-50
1.016508127e-41
6.838731066e-40
1.422110518e-47
3.203523984e-39
1.685063704e-37
8.066810636e-36
3.256936909e-25
8.863383316e-29
7.696884274e-17
1.322809396e-13
1.690996689e-17
2.551095959e-07
6.123694191e-18
3.060659542e-18
0.0007022234087
1.156292279e-06
0.0009837157628
0.0001754224825
0.0002121057171
7.855954184e-05
2.459004227e-05
3.233532708e-05
1.470161674e-05
5.921199249e-06
7.685624104e-06
6.155388983e-06
1.32004742e-05
9.73218364e-06
1.598023846e-05
4.49077599e-05
8.818404745e-05
7.210071032e-05
2.965197656e-07
6.847992858e-06
1.188069711e-06
3.818947247e-23
4.731256321e-08
2.303629542e-14
6.594593462e-43
9.683500975e-24
1.355611878e-32
8.776130618e-08
2.447094791e-21
7.743470207e-08
7.78273241e-07
2.598769552e-06
9.363783922e-07
4.345710217e-07
1.399516886e-06
7.007980281e-06
1.002825325e-06
2.555717878e-05
7.553184317e-05
2.51008785e-06
0.000201933627
0.0004589206486
0.0002777418887
0.0002172975763
4.061715213e-05
7.026032913e-05
3.918735611e-05
1.223586423e-05
0.0001149844264
2.47561102e-05
1.691659031e-05
0.0005754326212
0.0005269992234
0.000185037352
0.0003275399768
0.0001540448586
1.182109702e-05
2.131738925e-05
9.433337128e-06
3.900142028e-06
5.957288163e-06
3.086536832e-06
9.135081617e-08
1.295421253e-06
6.606941369e-07
1.906156254e-16
1.354023086e-06
1.470500238e-06
3.020279808e-06
3.259096868e-06
2.698294468e-06
1.193865243e-06
2.199102877e-06
2.615706707e-06
1.290501077e-05
5.699673104e-06
1.404242822e-05
0.0001391928422
3.43536901e-05
8.355866453e-05
0.000866294811
0.0001876165704
0.0003450270201
0.0002858461827
0.0004264026833
0.0004381256647
0.0006932894992
0.0003807849855
0.0003310356043
0.0002776900511
0.0002428680701
0.0002849479753
0.0002573682236
0.0002985876122
0.0001395133971
0.0002971020668
0.0002145194886
2.499566907e-05
0.0001282937078
0.0001032302416
1.037588319e-05
8.661169693e-05
5.618175535e-05
7.06264271e-09
2.751225992e-05
8.863701299e-06
1.287249533e-08
3.025983398e-06
4.642227231e-06
4.103110112e-06
7.373642743e-06
1.121159224e-05
6.194722779e-06
1.526495559e-05
2.431479985e-05
2.004190754e-05
3.976174329e-05
5.745122061e-05
6.882306954e-19
4.363584364e-19
2.654676255e-19
2.018951284e-19
1.058478959e-19
2.951879619e-19
7.55121626e-20
7.849760143e-20
4.000365723e-19
9.791757972e-20
1.165492759e-19
6.194622932e-19
1.37853962e-19
2.127311887e-19
9.368267963e-19
2.826154286e-19
3.560798719e-19
1.396575278e-18
4.323759807e-19
5.382977065e-19
1.946258868e-18
6.119845159e-19
7.739574159e-19
2.423756978e-18
9.170810968e-19
1.319526011e-18
4.962702143e-05
7.594628271e-05
8.429236534e-05
6.811520667e-05
2.956183451e-05
4.639316234e-05
2.891218487e-19
5.133634114e-20
2.310472581e-20
3.514372928e-20
7.636704882e-20
1.372234267e-19
2.142927083e-19
3.172787263e-19
1.983846673e-19
7.682873451e-20
1.336111618e-20
1.442695399e-20
3.265367407e-20
4.479768303e-20
1.439267548e-19
6.112778362e-19
1.898018007e-19
1.603329823e-19
6.757046985e-05
6.693702574e-11
0.00011888647
0.0001365202541
0.0001512018471
8.983018886e-20
9.157024519e-21
4.659465415e-22
1.472182607e-21
2.757838051e-22
1.865154046e-22
2.146537028e-23
6.816121959e-22
1.712285779e-21
4.811237611e-22
7.604812329e-22
3.841386931e-21
1.16988484e-21
1.76648832e-21
8.305387919e-21
1.921750102e-20
0.0001014963336
7.879198735e-11
0.0001998695386
0.000199561135
0.0002502002805
0.0003478663541
2.465493888e-20
2.593215902e-23
2.897879194e-24
1.595024663e-25
1.600750576e-24
2.626259607e-24
7.972942509e-23
4.25717566e-24
6.844423655e-24
1.951035615e-22
1.092676807e-23
4.865006957e-22
5.916295101e-10
0.0005649699496
1.436608627e-22
4.65667269e-24
1.966228922e-25
3.966702618e-24
0.0002787438034
0.0001149098471
1.52439332e-13
0.0001238476632
1.856032126e-13
0.0001350395326
2.198232278e-13
0.0001490223528
2.523344417e-13
0.0001656060761
3.046996498e-13
0.0001798001802
3.481263889e-13
0.0001476200394
2.359569994e-13
0.000141797422
2.473463495e-13
1.581472829e-05
0.0002143353047
2.136028193e-11
1.11890941e-05
1.1509769e-05
1.034869274e-05
9.099138682e-06
1.136654415e-05
1.757928339e-05
2.367070671e-05
2.790919763e-05
2.323572951e-05
1.80430963e-05
4.389586594e-05
5.651115067e-05
0.0001792528144
6.105330934e-05
0.0001002689902
2.298588834e-05
1.669393344e-06
2.056649863e-06
3.383076893e-06
5.716319475e-06
8.330055558e-06
9.202927032e-06
9.879306788e-06
8.383374734e-06
2.722323864e-06
3.512537461e-06
1.147492825e-05
4.843108332e-05
4.799012156e-05
0.000277272661
0.0002356828425
0.00013524543
2.351693322e-05
3.495077533e-06
9.878077177e-12
1.256897859e-20
6.231201226e-12
6.778162594e-12
4.980980921e-12
1.10242513e-11
5.062336418e-08
1.760841086e-07
1.322519348e-06
0.0001358597018
0.000261927157
0.0002720823216
4.078114977e-05
5.71548404e-06
8.026503835e-06
1.341679788e-09
5.008528437e-28
8.501128292e-48
6.176636469e-56
4.476090428e-44
2.324532177e-31
1.336048183e-08
1.573702905e-07
1.38839613e-05
0.0003301792788
0.0002317751144
2.595590344e-05
5.500529993e-06
1.529101474e-05
5.806688226e-06
2.020041347e-15
2.8436992e-35
9.136935511e-52
3.177459854e-49
6.053150205e-34
4.879865479e-17
3.984326966e-09
1.778205636e-06
0.0003347310581
6.164733743e-05
1.088660812e-05
5.977334229e-06
3.265338221e-05
1.341118328e-05
4.657463962e-13
3.619677465e-33
1.961685616e-31
4.210476926e-06
2.042495063e-07
6.88164662e-07
1.474572209e-06
3.258022493e-06
0.00010495018
2.108098925e-05
9.787599897e-06
8.123973496e-05
5.357861378e-05
6.181058224e-06
2.553321548e-06
1.223609115e-10
4.071916657e-08
1.963911528e-06
3.117572672e-06
4.684722378e-05
0.0003627975577
0.001659040618
0.0004060035139
0.0002859144234
0.0004376992701
0.0002804966072
0.0002559683791
4.057452895e-05
1.866874206e-05
3.761314752e-06
6.574022943e-10
1.875287312e-06
4.118449503e-06
1.115686311e-05
3.6264594e-05
0.0002115849628
0.001095408669
0.0004051899344
0.0003953596156
0.0003966532795
0.0003434255176
0.0002615929564
0.0001112347242
5.929392409e-05
5.837269124e-05
7.21997374e-05
0.0001113317429
1.28486538e-09
7.052687256e-05
1.409691174e-18
3.796507995e-19
2.520450358e-19
3.566616727e-19
4.63305128e-19
7.763473203e-19
1.093634554e-18
1.496460649e-18
1.924500497e-18
2.280880932e-11
2.092411111e-05
4.135674347e-11
5.867994342e-05
5.070722773e-05
3.125607699e-05
4.821238267e-05
9.994110674e-09
1.342319594e-08
1.197655122e-19
2.748914703e-20
1.303045113e-20
2.787751567e-20
1.012849479e-20
4.02067316e-20
1.071331289e-19
1.708189496e-19
7.4677836e-20
2.54910022e-19
1.160940022e-19
4.184610271e-19
6.045176656e-07
2.639760589e-07
7.302155532e-08
2.199552781e-06
1.143806219e-10
0.0002644268108
0.0001998563653
0.0001468637958
0.0001940338337
3.223171416e-06
5.686578418e-14
4.20580671e-14
4.508672388e-13
4.695985864e-10
1.041295381e-09
3.298090776e-08
1.389347573e-06
4.507918816e-06
2.282640751e-05
0.0001224899681
0.000389997097
0.0001355638857
0.000285430853
0.0002160814986
0.000267777852
2.721083982e-06
6.188403368e-07
1.522126664e-06
1.194175221e-12
1.071472839e-14
8.450840556e-15
8.066849937e-13
0.0002448662313
4.195770797e-09
0.0003438697489
1.168921375e-10
1.029673623e-22
5.515012346e-24
1.961520604e-27
4.422979193e-26
6.222647243e-27
1.206210949e-25
1.917544334e-26
5.62784879e-26
1.615270698e-25
4.485671649e-25
1.528856823e-23
8.284767648e-25
2.481847886e-28
1.447294028e-27
6.040119193e-27
2.17555448e-26
7.251655313e-26
2.326949852e-25
7.738402511e-25
2.732876694e-16
3.046007476e-16
9.665036417e-16
1.199850613e-19
4.89705088e-21
1.001375086e-21
1.024045577e-22
3.77989628e-24
1.549658625e-23
1.161853975e-15
1.26397507e-15
2.061145363e-15
3.699276749e-20
7.419495542e-21
1.526929547e-21
1.551663133e-22
6.455717437e-24
1.720425469e-23
0.0001110754948
1.418061889e-13
1.767002601e-05
1.134285792e-18
0.0001191619621
1.675596703e-13
1.885215713e-05
2.063294606e-05
7.728357581e-19
6.860007513e-19
0.0001291009979
2.038458842e-13
2.316635804e-05
2.638797694e-05
7.552062332e-19
9.032419328e-19
0.0001416808103
2.340742898e-13
3.016114003e-05
3.440413939e-05
1.040620289e-18
1.12356018e-18
0.0001570721008
2.773206384e-13
3.90401695e-05
4.401628706e-05
1.270428609e-18
1.575437052e-18
0.0001738688242
3.305762334e-13
4.941065242e-05
5.521477539e-05
1.893756627e-18
2.214381181e-18
0.0001773707194
3.414047864e-13
6.081188779e-05
6.403808131e-05
2.543516385e-18
3.214048458e-18
0.0001372641172
2.267503535e-13
5.945905124e-05
5.081139459e-05
3.313886296e-18
4.484981714e-18
0.0001572890466
1.61894194e-13
4.080070019e-05
3.518209449e-05
3.59573809e-18
4.036009549e-18
3.570595584e-05
5.419340969e-05
1.485221305e-11
0.0001050520457
8.916094757e-05
1.241815158e-05
1.714437929e-05
5.156610143e-05
0.0001865287459
3.973745687e-05
0.0002706112058
2.129178613e-05
2.013864903e-05
0.000641223491
4.220018453e-05
4.239199051e-05
0.0006169897325
2.111848659e-05
1.879799418e-05
0.001448772647
0.0007878909698
3.094176238e-06
1.067363526e-06
0.005313718604
2.876197292e-06
1.784397716e-06
7.119303445e-07
3.250862352e-07
0.0005498275832
1.806954023e-07
7.668686158e-05
6.307687087e-05
3.976497484e-09
5.106286173e-05
3.83801772e-08
0.0001251645639
5.540302296e-05
9.149100623e-08
2.278092966e-08
7.789012567e-09
0.003270062352
0.002930689094
1.587952269e-07
7.4223328e-13
0.0004703055672
0.002077242821
0.001938788524
9.210398244e-07
7.011218535e-13
7.39495125e-13
0.000391176422
0.00204338655
0.00205485139
8.524629771e-06
9.161828479e-13
1.400387832e-12
0.0004054575401
0.001939502884
0.001727094568
3.878895287e-05
1.676339664e-12
1.426740062e-12
0.0003692338007
0.001492083425
0.001348076518
2.860791896e-05
1.028622526e-12
5.698467279e-13
0.0003138180873
0.001383155908
0.001567793389
3.324693401e-05
4.485018309e-13
2.522482221e-12
0.0001799292508
0.001757587319
0.001827660149
3.166741476e-05
1.456832638e-11
8.588532376e-11
8.451581036e-05
0.001779922595
0.001678062124
1.651882707e-05
4.724673493e-10
2.340001042e-09
5.725102336e-05
0.001530847267
0.001298012418
4.142075931e-06
9.918313784e-09
3.507200784e-08
6.27442842e-05
0.0009999545376
0.0006849813517
4.415920656e-07
1.104155045e-07
3.978105454e-07
9.101886145e-05
0.0004212982631
0.0002593367464
2.57956619e-08
5.197704184e-08
2.928567246e-08
1.361926194e-09
9.608981189e-05
0.000155101414
7.671928848e-09
1.716868779e-08
3.158596954e-09
2.554708027e-09
6.235903549e-05
8.223557905e-05
3.65214599e-05
5.831166386e-05
9.618769712e-05
2.71957952e-05
5.103960242e-05
8.042817738e-05
4.304218503e-05
3.049229286e-05
3.93949161e-05
4.295098983e-05
1.468054237e-05
3.204427854e-05
1.803640317e-05
1.581973227e-06
7.557539883e-07
3.604803091e-06
1.858401818e-06
2.447559747e-07
2.042926876e-07
8.539473238e-07
2.494861661e-08
2.560645946e-08
4.097706868e-08
6.260784878e-08
4.8916408e-13
4.036241854e-13
3.522209801e-13
2.356613349e-13
2.999135329e-13
2.215308746e-13
2.043144265e-13
2.210512301e-13
1.8369468e-13
4.016183205e-13
1.19790594e-11
7.235610132e-12
6.263305456e-11
4.259291879e-10
3.734127626e-10
2.260318938e-09
1.148514884e-08
1.253609753e-08
6.036326912e-08
1.576640312e-07
2.361872917e-07
7.405885229e-07
1.706816739e-06
1.985129531e-06
7.145773249e-06
1.599154401e-07
1.464982489e-06
8.49091674e-07
4.34931991e-08
5.18231424e-07
1.265229952e-07
4.960009059e-08
7.844637053e-08
2.9377971e-20
9.029643273e-21
5.865054877e-20
9.490531449e-20
9.879171488e-05
7.751538914e-05
0.0001543789044
0.0001404646568
0.0001170614085
0.0001776386383
0.0001205756279
7.538084302e-05
7.072454662e-05
0.0001411502851
0.0001108221807
9.008367266e-05
6.051096017e-05
8.190773107e-05
9.859391702e-05
2.23277052e-05
2.508177504e-05
4.701880599e-05
5.558858067e-05
2.144322713e-06
4.606172983e-06
1.54691184e-06
7.099839712e-07
1.435730224e-07
1.650061508e-07
8.064106643e-07
9.147615574e-08
1.602854974e-07
9.642761378e-08
1.387806289e-07
1.142957493e-13
1.604215896e-13
1.419190081e-13
1.079794613e-13
1.051304992e-13
2.040675115e-13
3.625429523e-12
1.201443834e-12
1.097123459e-10
1.057469602e-09
2.846198598e-10
1.060202595e-08
6.62134396e-09
4.2210201e-08
2.446622628e-07
1.166823833e-06
2.844387217e-07
1.06217341e-05
3.026927685e-06
4.012835812e-06
2.368299979e-05
2.576732103e-05
7.927016669e-05
4.234887768e-06
2.605295119e-05
1.598349153e-05
6.886290016e-07
9.847828547e-06
3.561982716e-06
2.353992947e-06
6.132220091e-20
2.024029492e-20
5.924544962e-21
7.884735937e-23
1.647908216e-22
2.918326375e-22
2.624813618e-21
3.864319795e-21
5.662288123e-21
8.490400994e-21
2.118298727e-21
8.242471736e-23
1.097672389e-23
3.102654444e-23
9.693491113e-05
0.0001049231734
0.00033147576
0.0002488903185
0.0001780983426
0.0002021572177
0.0002799911472
0.000109527904
0.0001125393734
5.924956265e-05
5.034893848e-05
1.923125603e-05
1.431430422e-05
2.060193367e-05
1.900486973e-06
1.231878122e-06
3.757375356e-06
2.930857016e-07
3.323850547e-07
1.310170751e-07
2.261853779e-14
6.418456603e-14
5.765513281e-14
7.908066049e-13
2.701120676e-11
2.061229537e-09
2.872306527e-08
8.851780761e-08
2.413069065e-07
1.651012914e-05
2.141504916e-05
7.708013001e-05
6.906610171e-05
0.0001737691386
0.001672375961
0.005779077727
0.0004455191565
0.001904221884
8.414301383e-06
1.323424885e-05
6.73267185e-05
0.0001078321267
1.253840976e-06
1.298707592e-06
1.652397442e-05
5.957427487e-14
4.35170303e-14
6.741654971e-14
1.34927623e-11
4.968008338e-09
1.222391607e-08
2.243373336e-07
6.647137637e-07
6.787744096e-06
5.679410962e-05
0.0003675084131
0.001194340749
6.445083386e-05
0.0002106966621
9.361337633e-21
2.79552932e-21
7.385748649e-22
1.635763137e-22
2.961994303e-25
5.528506938e-25
9.572766231e-25
1.731372791e-23
2.746252675e-23
4.682649896e-23
1.980233505e-10
3.173861922e-21
1.947377004e-21
2.362666313e-22
5.62073388e-22
7.752197241e-24
3.070512418e-23
4.697832809e-26
1.736928604e-26
2.593309278e-26
1.327332039e-25
7.352654503e-26
3.508565185e-25
9.129011478e-25
3.196894959e-25
5.187747295e-25
2.343338855e-24
8.399310596e-25
1.35118898e-24
5.967111233e-24
2.157233806e-24
0.0001095414948
4.243974821e-10
0.0003866283951
0.0001581551387
0.0004411402362
0.0003621997873
0.0002398113977
0.0005219035233
0.0004892945117
0.0004269365728
0.0005662908272
0.0003187349837
0.0002140951036
2.8890373e-05
7.931877301e-05
3.136960819e-05
1.041741148e-05
2.115375337e-06
6.664939572e-06
4.206038665e-15
7.524423858e-07
1.895840552e-07
1.512988501e-08
3.959531957e-08
5.864559643e-15
1.093678652e-14
5.521240169e-15
1.067971174e-14
5.423921587e-15
5.597565805e-15
5.869599592e-15
6.858765019e-17
7.174704813e-15
4.774691597e-15
5.467524513e-17
7.758592395e-20
8.092070003e-14
4.131717954e-20
7.963133171e-21
2.121934766e-20
1.013065097e-20
1.27437617e-21
6.831921582e-11
4.375847883e-21
5.39034622e-10
1.628305534e-21
4.558811769e-22
3.299734781e-23
4.530954843e-09
2.73071137e-23
4.277688531e-23
8.77973818e-23
2.935459837e-13
4.159953368e-05
2.05408393e-15
5.863279738e-08
6.601944291e-09
2.24741367e-14
1.157961836e-14
4.58510122e-11
1.038083464e-14
1.008484809e-15
2.199510178e-06
7.931422197e-12
0.000660274931
4.725984838e-08
0.0008051641622
6.420867061e-10
3.620602384e-22
1.780739642e-22
2.603430533e-23
5.064205791e-23
1.282392411e-23
8.270842488e-25
2.722308399e-24
4.086291892e-25
3.381845948e-27
8.934240092e-28
1.704690564e-27
1.103158381e-26
3.350900055e-27
6.261743952e-27
3.295710498e-26
1.138025068e-26
2.031809305e-26
9.559226208e-26
3.586604297e-26
6.273313951e-26
2.706262309e-25
1.088333687e-25
1.871470197e-25
7.426138532e-25
3.221609891e-25
6.905405419e-25
1.67175164e-10
5.372452746e-23
1.109019816e-24
3.882536639e-24
2.591594319e-25
5.285361324e-26
1.252683251e-25
8.826678742e-27
1.022732938e-27
6.284169611e-28
8.736805837e-31
1.665075971e-28
3.035609902e-27
6.190433143e-28
1.693945579e-27
1.160334057e-26
4.019662384e-27
8.749917795e-27
4.003115234e-26
1.798481898e-26
3.548153787e-26
1.296772981e-25
6.776954227e-26
1.262665959e-25
4.155036805e-25
2.337335228e-25
4.311103715e-25
1.658597279e-10
7.56846856e-25
1.203285992e-11
1.578213192e-05
2.932259872e-16
6.804164181e-16
2.723769469e-16
6.367188567e-16
6.352705366e-16
4.272569196e-16
7.046546158e-16
9.396450981e-16
1.234627315e-15
1.530926155e-15
3.395260539e-16
1.356550165e-20
4.212682785e-20
1.121612959e-20
2.308248093e-21
5.242411066e-21
2.491502262e-21
3.733754194e-22
1.0767581e-21
3.992889401e-22
2.124858049e-24
1.092940819e-22
2.561806567e-24
8.091794789e-24
4.345492726e-24
8.119969031e-24
1.7608075e-13
1.503859796e-23
2.117549503e-14
8.486081439e-07
1.000167849e-14
1.238672567e-15
1.881121553e-15
4.208180561e-15
1.156842175e-15
1.772602129e-15
1.767149009e-15
3.887380979e-15
1.584163965e-15
1.912338061e-15
2.289661981e-15
4.392587675e-15
1.752816726e-16
2.572710897e-15
1.110828512e-16
1.493876445e-20
4.006191693e-20
1.888954656e-20
3.265240186e-20
3.535673389e-21
9.547092574e-21
4.549671038e-21
5.657459677e-22
1.962832709e-21
7.268028811e-22
4.099439982e-24
1.997644788e-22
5.790171652e-24
1.26874448e-23
1.152138236e-23
8.723683708e-24
1.345880283e-23
3.118960229e-23
3.458343419e-23
)
;

boundaryField
{
    walls
    {
        type            zeroGradient;
    }
    wallFilmFace_top
    {
        type            zeroGradient;
    }
    region0_to_wallFilmRegion_wallFilmFace
    {
        type            zeroGradient;
    }
    mirrorFace_top
    {
        type            zeroGradient;
    }
    region0_to_wallFilmRegion_mirrorFace
    {
        type            zeroGradient;
    }
    procBoundary3to2
    {
        type            processor;
        value           nonuniform List<scalar> 
64
(
1.483625419e-07
5.55612658e-13
2.951251389e-13
2.512645761e-13
1.712974831e-13
2.411742108e-19
7.17408804e-20
9.984089185e-21
4.628616291e-15
1.411594968e-05
7.202311609e-06
4.550847924e-06
4.550847924e-06
0.0004099172622
0.0002770532114
0.0001987722653
0.0001732607265
0.0001863923445
0.0002243156411
0.0002666217843
0.0003115073598
0.0003506142624
0.0003542810496
0.0003542810496
0.0004418618087
0.0004571824113
0.0004571824113
0.0002637426971
0.000981214713
0.000981214713
3.056261136e-18
9.706430179e-19
9.706430179e-19
6.809484272e-19
4.873126853e-19
0.0001076260481
1.355172336e-13
1.686252485e-05
0.00183815149
2.044289564e-18
6.394562655e-14
6.161834207e-21
1.168289715e-21
1.739170188e-22
3.281206323e-16
1.373285609e-15
1.686252485e-05
2.044289564e-18
0.0004097838823
1.019225898e-12
3.265889571e-13
2.705550702e-13
2.512645761e-13
1.222587572e-13
1.686766204e-19
4.68087788e-14
2.42347153e-14
2.848411049e-20
1.259855029e-14
6.427183683e-15
5.755040674e-22
4.289072379e-24
7.575156428e-16
2.073852848e-15
)
;
    }
}


// ************************************************************************* //
