/*--------------------------------*- C++ -*----------------------------------*\
  =========                 |
  \\      /  F ield         | OpenFOAM: The Open Source CFD Toolbox
   \\    /   O peration     | Website:  https://openfoam.org
    \\  /    A nd           | Version:  8
     \\/     M anipulation  |
\*---------------------------------------------------------------------------*/
FoamFile
{
    version     2.0;
    format      ascii;
    class       volScalarField;
    location    "0.6/wallFilmRegion";
    object      kappa;
}
// * * * * * * * * * * * * * * * * * * * * * * * * * * * * * * * * * * * * * //

dimensions      [1 1 -3 -1 0 0 0];

internalField   nonuniform List<scalar> 
1342
(
0.6088099997
0.6088099997
0.6088099997
0.6088099996
0.6088099953
0.6088099166
0.6088095398
0.6088099696
0.6088099713
0.6088099715
0.6088099712
0.6088099714
0.6088099721
0.6088099727
0.6088099726
0.6088099692
0.6088099367
0.6088097639
0.6088099998
0.6088099999
0.6088099998
0.6088099997
0.6088099978
0.6088099534
0.6088097317
0.6088089622
0.6088088909
0.6088088458
0.6088088
0.608808736
0.6088086707
0.6088095979
0.6088099594
0.6088099961
0.6088099939
0.6088099818
0.6088087112
0.6088099999
0.6088099999
0.6088099999
0.6088099998
0.6088099985
0.6088099908
0.6088084732
0.6088083971
0.6088083193
0.6088093957
0.6088099591
0.6088099949
0.6088099997
0.6088099996
0.6088081715
0.6088082127
0.6088082272
0.6088082529
0.6088082682
0.608808291
0.6088083708
0.6088084392
0.6088099999
0.60881
0.6088099867
0.6088099803
0.6088099997
0.6088082505
0.6088082712
0.6088082155
0.608808209
0.6088082499
0.6088082875
0.6088083635
0.6088084413
0.6088085443
0.60881
0.6088099864
0.608809999
0.6088084831
0.6088084336
0.6088083798
0.6088083751
0.608808383
0.6088084078
0.6088084823
0.6088086029
0.6088085062
0.60881
0.60881
0.6088099995
0.6088099949
0.6088087555
0.6088088761
0.6088089473
0.6088085114
0.6088085241
0.6088085794
0.6088086868
0.6088086046
0.6088084577
0.6088099998
0.6088099998
0.6088099998
0.6088099998
0.6088099998
0.6088099998
0.6088099997
0.6088099997
0.6088099998
0.6088099998
0.608809999
0.6088099997
0.6088099994
0.608809984
0.6088099855
0.6088099851
0.6088099845
0.6088099847
0.6088099845
0.608809986
0.6088099844
0.6088099844
0.6088099877
0.6088099849
0.6088099854
0.6088099872
0.6088099853
0.6088099848
0.6088099874
0.6088099843
0.6088099838
0.6088099882
0.6088099835
0.6088099832
0.6088099888
0.6088099831
0.6088099828
0.6088099885
0.6088099823
0.6088099821
0.6088099926
0.6088099832
0.6088099857
0.6088099964
0.6088099969
0.6088099968
0.6088099952
0.6088099966
0.6088099966
0.6088100018
0.6088099967
0.608809995
0.6088100014
0.6088101676
0.608810242
0.608809991
0.6088101588
0.6088100698
0.6088099875
0.6088100367
0.6088100203
0.6088099849
0.6088100107
0.6088100082
0.6088099836
0.6088100073
0.6088100042
0.6088099827
0.6088100089
0.6088100134
0.6088099821
0.6088100122
0.6088100779
0.608809984
0.6088099977
0.6088099898
0.6088099897
0.6088099882
0.6088099896
0.6088099951
0.6088099919
0.6088099941
0.6088099968
0.6088099969
0.6088099969
0.6088099968
0.6088099969
0.6088099969
0.6088099959
0.6088099968
0.6088099963
0.6088100081
0.6088099909
0.608809983
0.60881
0.6088099875
0.6088102756
0.6088103117
0.60881
0.60881
0.6088103151
0.60881
0.60881
0.6088103148
0.60881
0.60881
0.6088103164
0.60881
0.60881
0.60881
0.60881
0.60881
0.6088101901
0.60881
0.60881
0.6088099913
0.6088100186
0.6088099978
0.6088099938
0.6088099937
0.608809994
0.608809997
0.6088099971
0.6088099971
0.6088099969
0.608809997
0.6088099969
0.6088099963
0.6088099968
0.608809996
0.6088099833
0.6088099913
0.6088099829
0.608809985
0.6088099803
0.6088099804
0.60881
0.6088099876
0.6088103099
0.60881
0.60881
0.60881
0.60881
0.60881
0.60881
0.60881
0.60881
0.60881
0.60881
0.60881
0.60881
0.60881
0.60881
0.60881
0.6088100425
0.6088103176
0.6088103135
0.6088099946
0.6088100053
0.6088099955
0.6088099908
0.6088099924
0.6088099898
0.6088099971
0.6088099972
0.6088099971
0.6088099968
0.6088099969
0.6088099966
0.6088099953
0.608809996
0.6088099938
0.608809982
0.6088099869
0.6088099807
0.6088099797
0.6088099794
0.6088099794
0.6088100375
0.60880998
0.608809992
0.60881
0.6088103145
0.60881
0.60881
0.60881
0.60881
0.60881
0.60881
0.60881
0.60881
0.60881
0.60881
0.60881
0.60881
0.60881
0.6088102917
0.6088103249
0.6088103055
0.6088099977
0.6088102516
0.6088102604
0.6088099885
0.6088099919
0.6088099853
0.6088099969
0.608809997
0.6088099966
0.6088099961
0.6088099961
0.6088099949
0.6088099907
0.6088099919
0.6088099856
0.6088099796
0.6088099803
0.608809979
0.6088099791
0.6088099788
0.6088099777
0.608809989
0.60880997
0.6088099711
0.60881
0.6088100509
0.6088103086
0.60881
0.60881
0.60881
0.6088100708
0.60881
0.6088100644
0.6088099984
0.6088099938
0.6088099911
0.6088099828
0.6088099797
0.6088099797
0.6088099818
0.6088099797
0.6088099798
0.6088099831
0.60880998
0.6088099802
0.6088099969
0.6088099961
0.608809996
0.6088099961
0.6088099918
0.6088099918
0.6088099732
0.6088099677
0.6088099804
0.6088099674
0.6088099661
0.6088099724
0.6088099655
0.6088099663
0.6088099646
0.6088099641
0.6088099664
0.6088099671
0.6088099678
0.6088099696
0.6088100495
0.6088099729
0.608809982
0.60881
0.6088099998
0.608810002
0.6088099931
0.6088099875
0.6088099868
0.6088099706
0.6088099777
0.6088099623
0.608809969
0.6088099596
0.608809962
0.608809972
0.6088099646
0.6088099671
0.6088099699
0.6088099681
0.6088099664
0.608809991
0.6088099826
0.6088099727
0.6088099806
0.6088099769
0.6088099685
0.6088099738
0.6088099702
0.6088099656
0.6088099669
0.6088099656
0.6088099651
0.6088099655
0.6088099661
0.608809968
0.6088099676
0.6088099689
0.6088099699
0.6088099696
0.6088099705
0.6088100861
0.6088099719
0.6088099742
0.6088100924
0.6088099777
0.608809977
0.6088099803
0.6088099759
0.6088099734
0.6088099637
0.6088099689
0.6088099661
0.6088099616
0.6088099646
0.6088099637
0.6088088141
0.6088085466
0.6088088877
0.6088085875
0.6088086162
0.6088089346
0.6088086139
0.6088086279
0.6088089575
0.6088086558
0.6088086752
0.6088089544
0.6088086889
0.6088087
0.6088089866
0.6088087134
0.6088087302
0.6088090012
0.6088087402
0.6088087367
0.6088090138
0.6088087489
0.6088087763
0.6088090301
0.6088088177
0.6088088653
0.6088099999
0.6088099999
0.6088099999
0.6088099999
0.6088099998
0.6088099999
0.6088084069
0.608808411
0.6088084563
0.6088084598
0.6088084961
0.6088085604
0.6088085995
0.6088086668
0.6088083568
0.6088083423
0.6088083826
0.6088083843
0.6088083669
0.6088083975
0.6088085656
0.6088088364
0.6088085887
0.6088085762
0.6088099999
0.6088086412
0.6088099999
0.6088099999
0.6088099999
0.6088082186
0.6088081984
0.6088082367
0.6088082209
0.6088082215
0.6088082205
0.6088082057
0.6088082559
0.6088082905
0.6088082701
0.6088082763
0.6088083246
0.6088082999
0.6088083353
0.6088084062
0.6088085111
0.6088099999
0.6088085177
0.6088099999
0.6088099999
0.60881
0.60881
0.6088082269
0.6088083073
0.6088082063
0.6088083267
0.6088082876
0.6088083218
0.6088083249
0.6088083461
0.6088083785
0.608808407
0.6088084218
0.608808469
0.6088083986
0.60881
0.6088085782
0.6088085738
0.608808518
0.6088087619
0.60881
0.6088099966
0.6088093675
0.6088099967
0.608809418
0.6088099967
0.6088094436
0.6088099968
0.6088094604
0.6088099969
0.6088094746
0.608809997
0.6088094859
0.6088099973
0.6088094943
0.6088099975
0.6088094891
0.6088099997
0.6088099972
0.6088094327
0.6088099841
0.6088099841
0.6088099851
0.6088099869
0.6088099875
0.6088099872
0.6088099878
0.6088099887
0.6088099883
0.6088099905
0.6088099959
0.6088099997
0.6088099972
0.6088099998
0.6088099968
0.6088099957
0.6088099975
0.6088100029
0.6088099943
0.6088099891
0.6088099861
0.6088099841
0.6088099832
0.6088099823
0.6088099825
0.6088099872
0.6088099928
0.6088099997
0.6088099997
0.6088099953
0.6088099969
0.6088099968
0.6088099968
0.6088099874
0.6088102927
0.60881
0.6088103137
0.6088103157
0.6088103167
0.6088103168
0.6088101999
0.6088099926
0.6088099922
0.608809994
0.608809997
0.6088099969
0.6088099968
0.6088099917
0.608809981
0.6088102498
0.60881
0.60881
0.60881
0.60881
0.60881
0.6088102805
0.6088099971
0.6088099927
0.6088099972
0.608809997
0.6088099966
0.6088099897
0.6088099798
0.6088099811
0.6088103165
0.60881
0.60881
0.60881
0.60881
0.60881
0.6088101493
0.6088099923
0.6088099972
0.6088099966
0.6088099948
0.6088099833
0.6088099791
0.6088099797
0.6088103109
0.60881
0.60881
0.6088099977
0.6088099878
0.6088099818
0.6088099823
0.6088099849
0.6088099968
0.6088099947
0.6088099859
0.6088099774
0.6088099646
0.6088099657
0.60880997
0.6088103025
0.6088100804
0.6088099878
0.608809965
0.608809971
0.6088099717
0.6088099674
0.6088099904
0.608809976
0.6088099705
0.6088099666
0.6088099653
0.6088099659
0.6088099688
0.6088099713
0.6088102723
0.6088099841
0.6088099713
0.6088099617
0.6088099616
0.6088099602
0.6088099827
0.608809974
0.6088099662
0.6088099656
0.6088099687
0.6088099702
0.6088099722
0.6088099738
0.6088099723
0.608809969
0.6088099661
0.6088094115
0.6088099636
0.6088087378
0.6088088495
0.6088089169
0.6088089482
0.6088089641
0.6088089669
0.608808999
0.6088090093
0.6088090253
0.6088090506
0.6088099998
0.6088089982
0.6088099999
0.6088099999
0.6088099998
0.6088099999
0.6088098079
0.6088098997
0.6088084233
0.6088084266
0.6088083552
0.6088084566
0.6088083814
0.6088084758
0.608808535
0.6088085754
0.6088084569
0.6088086266
0.6088085421
0.6088087068
0.6088099921
0.6088099825
0.6088099441
0.6088099966
0.6088087436
0.60881
0.6088099999
0.60881
0.60881
0.6088099986
0.6088082682
0.608808318
0.6088081815
0.6088086925
0.6088091727
0.6088099346
0.6088099941
0.6088099972
0.6088099995
0.60881
0.60881
0.60881
0.6088099999
0.6088099999
0.60881
0.6088099988
0.608809996
0.6088099984
0.6088083471
0.6088085658
0.6088083304
0.6088081226
0.6088099999
0.6088095809
0.60881
0.6088078911
0.6088086499
0.6088086716
0.6088086432
0.6088084916
0.6088085547
0.6088085174
0.6088085328
0.6088086132
0.6088087199
0.6088087794
0.608808756
0.6088088628
0.608808886
0.6088086868
0.6088086292
0.6088087103
0.608808872
0.6088089865
0.6088088818
0.6088089477
0.6088090357
0.6088090828
0.6088089082
0.6088087963
0.6088087572
0.608808846
0.6088088958
0.6088087522
0.6088088479
0.6088089291
0.6088089486
0.6088087595
0.6088087269
0.6088086937
0.6088087763
0.6088087372
0.6088085925
0.6088099966
0.6088093236
0.6088099913
0.6088090919
0.6088099966
0.6088093974
0.6088099916
0.6088099918
0.6088091543
0.6088091812
0.6088099967
0.6088094326
0.6088099921
0.6088099923
0.6088092066
0.6088092272
0.6088099967
0.6088094523
0.6088099925
0.6088099928
0.6088092461
0.6088092554
0.6088099968
0.6088094679
0.6088099931
0.6088099934
0.6088092611
0.6088092576
0.608809997
0.6088094806
0.6088099938
0.6088099942
0.6088092586
0.6088092616
0.6088099971
0.6088094908
0.6088099945
0.6088099949
0.608809265
0.6088092741
0.6088099976
0.6088094948
0.6088099952
0.6088099955
0.6088092801
0.6088092947
0.6088099973
0.6088094647
0.6088099953
0.6088099955
0.6088092877
0.6088092739
0.6088099962
0.608809997
0.6088092461
0.6088099983
0.6088099974
0.6088099902
0.6088099928
0.6088099952
0.6088099964
0.6088099998
0.6088099949
0.6088099998
0.6088099998
0.6088099929
0.6088099933
0.6088099997
0.6088099918
0.6088099998
0.6088099998
0.6088099826
0.6088099805
0.6088099913
0.6088099846
0.608809981
0.6088099972
0.608809995
0.6088099905
0.6088099504
0.6088099637
0.6088099672
0.6088099613
0.6088099627
0.608809398
0.6088099614
0.6088097572
0.6088099621
0.6088099599
0.6088099421
0.6088098184
0.6088096247
0.6088099874
0.6088099843
0.6088099672
0.6088092275
0.608809978
0.6088099805
0.6088099771
0.6088099708
0.6088091857
0.6088091494
0.6088099695
0.6088099732
0.6088099691
0.6088099715
0.6088091221
0.6088091075
0.6088099651
0.608809966
0.6088099649
0.6088099714
0.6088091039
0.6088090999
0.6088099671
0.6088099657
0.6088099677
0.6088099712
0.6088090843
0.6088090573
0.6088099696
0.6088099696
0.6088099706
0.6088099718
0.6088090242
0.6088090075
0.6088099711
0.6088099712
0.6088099718
0.6088099724
0.6088089737
0.6088089469
0.6088099731
0.6088099725
0.608809973
0.6088099728
0.6088091676
0.6088096292
0.6088099733
0.6088099732
0.6088099732
0.6088099718
0.6088098675
0.6088099536
0.6088099708
0.6088099728
0.608809972
0.6088099651
0.6088099844
0.608809996
0.6088099674
0.6088099708
0.608809969
0.6088098673
0.6088099759
0.60880996
0.6088096902
0.608809965
0.6088099671
0.6088099085
0.6088099403
0.6088094956
0.6088096678
0.6088099999
0.6088099999
0.6088099998
0.6088099999
0.6088099999
0.6088099999
0.6088099999
0.6088099999
0.6088099999
0.6088099998
0.6088099999
0.6088099999
0.6088099995
0.6088099998
0.6088099996
0.6088099961
0.6088099924
0.6088099982
0.6088099969
0.6088099794
0.6088099742
0.6088099937
0.6088098535
0.6088098709
0.6088099061
0.6088099305
0.6088090047
0.6088089234
0.6088088658
0.6088086443
0.6088088254
0.6088086132
0.6088085818
0.6088087692
0.6088085481
0.6088085118
0.6088086803
0.6088084732
0.6088084244
0.6088089789
0.6088087651
0.6088095291
0.6088098781
0.6088098724
0.6088099618
0.6088099861
0.6088099863
0.6088099955
0.6088099991
0.608809999
0.6088099998
0.6088099886
0.6088099985
0.6088099965
0.6088099704
0.6088099935
0.608809982
0.6088099496
0.6088099717
0.6088083132
0.6088083749
0.608808423
0.6088084975
0.6088099999
0.6088099999
0.6088099999
0.6088099999
0.6088099999
0.6088099999
0.6088099999
0.6088099999
0.6088099999
0.6088099999
0.6088099999
0.6088099999
0.6088099999
0.6088099999
0.6088099999
0.6088099997
0.6088099997
0.6088099998
0.6088099998
0.6088099975
0.6088099988
0.608809997
0.6088099939
0.6088099718
0.6088099783
0.6088099936
0.6088099611
0.6088099794
0.608809961
0.6088099737
0.6088084481
0.6088085107
0.6088084357
0.6088084094
0.6088083701
0.6088083291
0.6088082858
0.6088083569
0.608808327
0.6088091336
0.608808541
0.6088098468
0.6088097775
0.608809947
0.6088099843
0.6088099943
0.6088099863
0.6088099995
0.6088099985
0.6088099981
0.6088099999
0.6088099999
0.60881
0.608809999
0.6088099999
0.6088099995
0.6088099932
0.608809999
0.6088099974
0.6088099966
0.6088082256
0.6088081891
0.6088082251
0.6088082186
0.608808219
0.608808242
0.6088083436
0.6088083944
0.6088084539
0.6088084965
0.6088082574
0.608808234
0.6088082239
0.6088082751
0.6088099999
0.6088099999
0.60881
0.60881
0.60881
0.60881
0.60881
0.6088099999
0.6088099999
0.6088099999
0.6088099999
0.6088099997
0.6088099996
0.6088099997
0.6088099978
0.6088099973
0.6088099989
0.6088099918
0.6088099902
0.6088099778
0.6088083836
0.6088082846
0.608808368
0.6088082475
0.6088082358
0.6088095643
0.608809942
0.6088099711
0.6088099886
0.6088099989
0.6088099991
0.6088099997
0.6088099998
0.60881
0.60881
0.60881
0.60881
0.60881
0.6088099984
0.608809999
0.6088099997
0.6088099999
0.6088099954
0.6088099966
0.6088099991
0.6088083106
0.6088083498
0.6088082253
0.6088081437
0.6088096877
0.6088098573
0.6088099829
0.6088099919
0.608809998
0.6088099999
0.60881
0.60881
0.6088099999
0.60881
0.6088083349
0.6088083466
0.6088083617
0.6088083228
0.6088082939
0.6088082843
0.6088082825
0.6088084775
0.6088085022
0.6088085434
0.6088082579
0.6088084437
0.6088085973
0.6088084601
0.6088086168
0.6088084149
0.6088085738
0.6088083798
0.6088085213
0.6088084971
0.6088083949
0.6088084917
0.6088083889
0.6088084344
0.608808532
0.6088085628
0.6088085415
0.608808605
0.6088086636
0.6088086016
0.6088087209
0.6088099999
0.608808291
0.60881
0.6088099999
0.60881
0.60881
0.60881
0.60881
0.60881
0.60881
0.60881
0.60881
0.60881
0.6088099998
0.6088099999
0.6088099998
0.6088099996
0.6088099989
0.6088099994
0.6088082294
0.6088099975
0.608809991
0.60880993
0.608809984
0.6088085954
0.6088085213
0.6088086362
0.6088085428
0.6088086827
0.6088087332
0.6088087762
0.6088087095
0.6088085922
0.6088087995
0.6088084632
0.608808339
0.6088082237
0.608808316
0.608808524
0.6088083492
0.6088083505
0.6088085918
0.608808035
0.6088083938
0.6088086067
0.6088084112
0.6088084811
0.6088084366
0.6088095493
0.6088084363
0.6088084128
0.6088084699
0.6088079636
0.6088099996
0.6088080935
0.6088099727
0.6088098603
0.6088083965
0.6088085026
0.6088083981
0.6088085837
0.608808343
0.6088099967
0.6088080598
0.60881
0.6088098777
0.60881
0.6088084146
0.6088086879
0.6088087281
0.6088086556
0.608808728
0.6088087443
0.6088087006
0.6088087889
0.6088088098
0.6088085984
0.6088087731
0.6088087061
0.6088085275
0.6088086273
0.608808597
0.6088085713
0.6088085927
0.6088086237
0.6088086685
0.6088086807
0.6088087443
0.6088087621
0.6088088133
0.6088088979
0.6088087575
0.6088089427
0.6088089363
0.6088086099
0.6088087333
0.6088086932
0.6088088115
0.6088087479
0.6088087802
0.6088088591
0.6088088438
0.6088089306
0.6088088077
0.6088089246
0.6088088394
0.6088086274
0.6088087163
0.6088086391
0.6088086544
0.6088086329
0.6088086643
0.608808787
0.6088087183
0.6088087964
0.6088089411
0.6088088771
0.6088089336
0.6088089605
0.6088089511
0.6088089175
0.6088086904
0.6088088321
0.6088083528
0.6088099998
0.6088089018
0.6088088566
0.608808994
0.6088089015
0.6088089449
0.6088090671
0.6088089816
0.6088090052
0.6088090832
0.6088090094
0.6088089929
0.608808851
0.6088088374
0.6088088177
0.6088087626
0.6088087754
0.6088087464
0.6088087981
0.6088087364
0.6088087754
0.6088089178
0.6088088175
0.6088088574
0.6088088477
0.6088088183
0.6088087644
0.6088083876
0.6088086724
0.6088083745
0.6088099983
0.6088084323
0.6088088025
0.6088087393
0.6088087038
0.608808892
0.6088087848
0.6088088304
0.6088088142
0.6088089515
0.6088088712
0.6088088987
0.6088089287
0.6088088701
0.6088088976
0.6088087805
0.6088087489
0.6088086488
0.6088086418
0.6088084941
0.6088087088
0.6088086322
0.6088086224
0.6088087245
0.6088086273
0.6088086362
0.6088087643
0.6088086977
0.608808643
0.6088086187
0.6088086661
0.608808629
0.6088085753
0.6088086053
0.6088085277
)
;

boundaryField
{
    walls
    {
        type            zeroGradient;
    }
    wallFilmFace_top
    {
        type            zeroGradient;
    }
    region0_to_wallFilmRegion_wallFilmFace
    {
        type            zeroGradient;
    }
    mirrorFace_top
    {
        type            zeroGradient;
    }
    region0_to_wallFilmRegion_mirrorFace
    {
        type            zeroGradient;
    }
    procBoundary3to2
    {
        type            processor;
        value           nonuniform List<scalar> 
64
(
0.6088099616
0.6088090437
0.6088087586
0.6088086781
0.6088085498
0.6088082493
0.608808273
0.6088084315
0.6088086609
0.6088099846
0.6088099874
0.608809986
0.608809986
0.6088099971
0.608809997
0.608809997
0.608809997
0.6088099971
0.6088099972
0.6088099973
0.6088099973
0.6088099973
0.6088099972
0.6088099972
0.6088099959
0.608809995
0.608809995
0.6088099844
0.6088099879
0.6088099879
0.6088087077
0.6088085408
0.6088085408
0.6088084326
0.6088083635
0.6088099966
0.6088092548
0.6088099911
0.6088099883
0.6088089999
0.6088083534
0.608808565
0.6088086899
0.6088087329
0.6088088595
0.6088087596
0.6088099911
0.6088089999
0.6088099845
0.6088092653
0.6088088032
0.6088087163
0.6088086781
0.608808488
0.6088082821
0.6088083808
0.6088084102
0.6088083208
0.6088084889
0.608808562
0.6088087446
0.6088086443
0.6088088137
0.6088086976
)
;
    }
}


// ************************************************************************* //
