/*--------------------------------*- C++ -*----------------------------------*\
  =========                 |
  \\      /  F ield         | OpenFOAM: The Open Source CFD Toolbox
   \\    /   O peration     | Website:  https://openfoam.org
    \\  /    A nd           | Version:  8
     \\/     M anipulation  |
\*---------------------------------------------------------------------------*/
FoamFile
{
    version     2.0;
    format      ascii;
    class       volScalarField;
    location    "0.6/wallFilmRegion";
    object      mu;
}
// * * * * * * * * * * * * * * * * * * * * * * * * * * * * * * * * * * * * * //

dimensions      [1 -1 -1 0 0 0 0];

internalField   nonuniform List<scalar> 
1342
(
0.0008861474139
0.0008861474145
0.0008861474142
0.0008861474154
0.0008861474754
0.0008861485743
0.0008861538353
0.0008861478341
0.0008861478112
0.000886147808
0.0008861478122
0.0008861478094
0.0008861478002
0.0008861477918
0.0008861477928
0.0008861478404
0.0008861482938
0.0008861507062
0.0008861474125
0.0008861474123
0.0008861474125
0.0008861474139
0.0008861474414
0.0008861480606
0.0008861511552
0.0008861618981
0.0008861628943
0.0008861635239
0.0008861641634
0.0008861650564
0.0008861659675
0.0008861530239
0.0008861479775
0.0008861474655
0.0008861474961
0.0008861476648
0.0008861654031
0.0008861474115
0.0008861474116
0.0008861474116
0.0008861474131
0.0008861474318
0.0008861475394
0.000886168726
0.0008861697883
0.0008861708741
0.0008861558463
0.0008861479818
0.000886147481
0.0008861474144
0.0008861474158
0.0008861729379
0.0008861723616
0.0008861721596
0.0008861718006
0.0008861715879
0.0008861712684
0.0008861701543
0.0008861692003
0.0008861474113
0.0008861474109
0.0008861475967
0.0008861476858
0.0008861474142
0.000886171835
0.0008861715452
0.0008861723227
0.000886172414
0.0008861718426
0.0008861713179
0.0008861702564
0.0008861691703
0.0008861677326
0.0008861474108
0.0008861475996
0.000886147424
0.0008861685867
0.0008861692788
0.0008861700289
0.0008861700948
0.0008861699844
0.0008861696381
0.0008861685983
0.0008861669146
0.000886168265
0.0008861474109
0.000886147411
0.000886147417
0.0008861474817
0.0008861647845
0.0008861631011
0.000886162107
0.0008861681921
0.0008861680152
0.0008861672423
0.0008861657432
0.0008861668913
0.0008861689422
0.0008861474135
0.0008861474138
0.0008861474129
0.0008861474127
0.0008861474128
0.000886147413
0.0008861474145
0.0008861474139
0.0008861474129
0.000886147413
0.0008861474243
0.0008861474143
0.0008861474186
0.0008861476344
0.0008861476131
0.0008861476184
0.0008861476271
0.0008861476233
0.0008861476268
0.0008861476062
0.0008861476283
0.0008861476277
0.0008861475827
0.0008861476211
0.0008861476144
0.0008861475896
0.0008861476161
0.0008861476228
0.0008861475858
0.0008861476301
0.0008861476364
0.0008861475751
0.0008861476413
0.0008861476446
0.0008861475673
0.0008861476461
0.0008861476498
0.0008861475714
0.000886147657
0.0008861476602
0.0008861475141
0.0008861476446
0.0008861476093
0.0008861474609
0.0008861474536
0.0008861474553
0.0008861474772
0.0008861474577
0.0008861474575
0.0008861473853
0.0008861474564
0.0008861474803
0.0008861473911
0.0008861450701
0.0008861440316
0.0008861475363
0.0008861451936
0.0008861464357
0.0008861475852
0.0008861468974
0.0008861471267
0.0008861476211
0.0008861472609
0.000886147296
0.0008861476398
0.0008861473089
0.0008861473518
0.0008861476512
0.0008861472867
0.0008861472237
0.00088614766
0.00088614724
0.0008861463226
0.0008861476339
0.000886147442
0.000886147552
0.0008861475535
0.0008861475745
0.0008861475549
0.000886147479
0.0008861475233
0.0008861474924
0.0008861474544
0.0008861474529
0.0008861474535
0.0008861474552
0.000886147454
0.0008861474542
0.0008861474671
0.0008861474544
0.0008861474624
0.0008861472978
0.0008861475379
0.000886147647
0.0008861474103
0.0008861475845
0.000886143563
0.0008861430586
0.0008861474103
0.0008861474103
0.0008861430118
0.0008861474103
0.0008861474103
0.000886143016
0.0008861474103
0.0008861474103
0.0008861429927
0.0008861474103
0.0008861474103
0.0008861474103
0.0008861474103
0.0008861474103
0.0008861447563
0.0008861474103
0.0008861474103
0.0008861475324
0.0008861471513
0.0008861474404
0.000886147497
0.0008861474979
0.0008861474948
0.0008861474524
0.0008861474502
0.0008861474514
0.0008861474535
0.0008861474524
0.0008861474534
0.0008861474625
0.0008861474554
0.0008861474665
0.0008861476438
0.000886147532
0.0008861476485
0.00088614762
0.0008861476848
0.0008861476841
0.0008861474103
0.0008861475832
0.0008861430837
0.0008861474103
0.0008861474103
0.0008861474103
0.0008861474103
0.0008861474103
0.0008861474103
0.0008861474103
0.0008861474103
0.0008861474103
0.0008861474103
0.0008861474103
0.0008861474103
0.0008861474103
0.0008861474103
0.0008861474103
0.0008861468164
0.000886142977
0.0008861430341
0.0008861474861
0.0008861473357
0.0008861474725
0.0008861475392
0.0008861475161
0.0008861475524
0.0008861474509
0.0008861474489
0.0008861474514
0.0008861474544
0.0008861474538
0.0008861474573
0.0008861474763
0.0008861474659
0.0008861474974
0.0008861476619
0.000886147593
0.0008861476798
0.0008861476937
0.0008861476981
0.0008861476985
0.0008861468868
0.0008861476894
0.0008861475214
0.0008861474103
0.0008861430193
0.0008861474103
0.0008861474103
0.0008861474103
0.0008861474103
0.0008861474103
0.0008861474103
0.0008861474103
0.0008861474103
0.0008861474103
0.0008861474103
0.0008861474103
0.0008861474103
0.0008861474103
0.0008861433378
0.0008861428745
0.0008861431454
0.000886147442
0.0008861438984
0.0008861437753
0.0008861475702
0.0008861475238
0.0008861476158
0.0008861474532
0.0008861474519
0.0008861474575
0.0008861474645
0.0008861474654
0.0008861474811
0.0008861475404
0.0008861475228
0.000886147612
0.0008861476954
0.0008861476854
0.0008861477032
0.0008861477015
0.0008861477056
0.0008861477221
0.0008861475644
0.0008861478285
0.0008861478145
0.0008861474103
0.0008861466997
0.0008861431026
0.0008861474103
0.0008861474103
0.0008861474103
0.0008861464218
0.0008861474103
0.0008861465119
0.0008861474329
0.0008861474974
0.0008861475343
0.0008861476511
0.0008861476933
0.0008861476942
0.0008861476642
0.0008861476934
0.0008861476917
0.0008861476463
0.0008861476895
0.0008861476865
0.000886147454
0.0008861474649
0.0008861474661
0.0008861474645
0.000886147525
0.0008861475244
0.0008861477848
0.0008861478608
0.0008861476835
0.0008861478655
0.0008861478838
0.0008861477954
0.0008861478926
0.0008861478809
0.0008861479038
0.000886147911
0.0008861478797
0.0008861478697
0.0008861478601
0.0008861478346
0.0008861467189
0.0008861477884
0.0008861476617
0.0008861474103
0.0008861474134
0.0008861473829
0.000886147506
0.0008861475845
0.0008861475941
0.0008861478206
0.0008861477215
0.0008861479369
0.0008861478431
0.0008861479737
0.0008861479414
0.0008861478019
0.0008861479039
0.0008861478695
0.0008861478299
0.0008861478559
0.0008861478791
0.0008861475358
0.0008861476539
0.0008861477915
0.0008861476814
0.000886147733
0.0008861478497
0.000886147776
0.0008861478264
0.0008861478904
0.0008861478723
0.0008861478903
0.0008861478974
0.0008861478919
0.0008861478842
0.0008861478575
0.0008861478633
0.0008861478445
0.0008861478309
0.0008861478347
0.0008861478217
0.0008861462088
0.0008861478031
0.0008861477711
0.0008861461209
0.0008861477215
0.0008861477313
0.0008861476859
0.0008861477466
0.0008861477815
0.0008861479168
0.000886147844
0.000886147884
0.0008861479466
0.0008861479039
0.0008861479171
0.0008861639661
0.0008861677001
0.0008861629384
0.0008861671303
0.0008861667285
0.0008861622836
0.000886166761
0.0008861665651
0.0008861619646
0.0008861661754
0.0008861659052
0.0008861620079
0.0008861657142
0.000886165559
0.0008861615586
0.0008861653724
0.0008861651376
0.0008861613542
0.0008861649975
0.0008861650465
0.0008861611779
0.000886164876
0.0008861644932
0.0008861609507
0.0008861639164
0.0008861632507
0.0008861474124
0.0008861474121
0.0008861474119
0.0008861474119
0.0008861474124
0.0008861474119
0.0008861696513
0.0008861695932
0.0008861689616
0.0008861689125
0.000886168406
0.0008861675075
0.0008861669622
0.0008861660223
0.0008861703501
0.0008861705531
0.0008861699901
0.000886169966
0.0008861702099
0.0008861697823
0.0008861674358
0.0008861636543
0.0008861671133
0.0008861672876
0.0008861474121
0.0008861663797
0.0008861474116
0.0008861474115
0.0008861474113
0.0008861722803
0.0008861725624
0.0008861720266
0.0008861722483
0.0008861722389
0.0008861722526
0.0008861724594
0.0008861717587
0.0008861712754
0.000886171561
0.0008861714741
0.0008861708002
0.0008861711452
0.0008861706503
0.00088616966
0.0008861681969
0.0008861474116
0.0008861681039
0.0008861474111
0.0008861474112
0.000886147411
0.0008861474108
0.0008861721645
0.0008861710418
0.0008861724519
0.0008861707704
0.000886171316
0.0008861708383
0.0008861707952
0.0008861705004
0.0008861700476
0.00088616965
0.0008861694433
0.0008861687834
0.0008861697673
0.0008861474108
0.0008861672591
0.000886167321
0.0008861680998
0.0008861646946
0.0008861474109
0.0008861474575
0.0008861562409
0.0008861474571
0.000886155536
0.0008861474564
0.0008861551778
0.0008861474554
0.000886154944
0.0008861474538
0.0008861547448
0.0008861474515
0.0008861545868
0.0008861474486
0.0008861544707
0.0008861474457
0.0008861545432
0.0008861474144
0.0008861474495
0.0008861553296
0.0008861476327
0.0008861476325
0.0008861476183
0.0008861475925
0.0008861475845
0.0008861475889
0.0008861475809
0.0008861475679
0.0008861475741
0.0008861475431
0.0008861474679
0.000886147414
0.0008861474499
0.0008861474138
0.0008861474553
0.0008861474702
0.000886147445
0.0008861473704
0.0008861474896
0.0008861475628
0.0008861476047
0.0008861476329
0.0008861476449
0.0008861476581
0.0008861476545
0.0008861475893
0.0008861475103
0.0008861474144
0.0008861474146
0.0008861474765
0.0008861474535
0.0008861474552
0.0008861474551
0.0008861475866
0.0008861433242
0.0008861474103
0.0008861430307
0.0008861430033
0.0008861429896
0.0008861429873
0.0008861446193
0.0008861475136
0.0008861475186
0.0008861474947
0.0008861474516
0.000886147453
0.0008861474544
0.000886147526
0.0008861476755
0.0008861439225
0.0008861474103
0.0008861474103
0.0008861474103
0.0008861474103
0.0008861474103
0.0008861434951
0.0008861474503
0.0008861475117
0.0008861474492
0.0008861474525
0.0008861474585
0.0008861475537
0.0008861476919
0.0008861476749
0.0008861429912
0.0008861474103
0.0008861474103
0.0008861474103
0.0008861474103
0.0008861474103
0.0008861453254
0.0008861475174
0.0008861474498
0.0008861474574
0.0008861474833
0.000886147644
0.0008861477027
0.0008861476938
0.0008861430695
0.0008861474103
0.0008861474103
0.0008861474421
0.0008861475804
0.0008861476647
0.0008861476578
0.0008861476217
0.0008861474556
0.0008861474836
0.0008861476067
0.0008861477264
0.000886147904
0.0008861478886
0.0008861478298
0.0008861431872
0.0008861462881
0.0008861475804
0.0008861478988
0.0008861478145
0.0008861478054
0.0008861478654
0.0008861475438
0.0008861477459
0.0008861478217
0.0008861478762
0.000886147895
0.0008861478858
0.0008861478452
0.0008861478113
0.0008861436085
0.0008861476322
0.0008861478114
0.0008861479454
0.0008861479462
0.0008861479655
0.0008861476519
0.0008861477736
0.0008861478826
0.00088614789
0.0008861478479
0.0008861478262
0.0008861477988
0.0008861477767
0.0008861477968
0.0008861478433
0.0008861478839
0.0008861556258
0.0008861479192
0.0008861650319
0.0008861634725
0.0008861625315
0.0008861620942
0.0008861618718
0.0008861618333
0.000886161385
0.0008861612416
0.0008861610175
0.0008861606646
0.0008861474129
0.0008861613957
0.0008861474123
0.0008861474123
0.0008861474125
0.000886147412
0.000886150092
0.0008861488099
0.0008861694213
0.0008861693762
0.0008861703724
0.0008861689568
0.0008861700067
0.0008861686886
0.0008861678628
0.0008861672992
0.0008861689535
0.0008861665843
0.0008861677631
0.0008861654646
0.0008861475213
0.000886147654
0.0008861481901
0.0008861474577
0.0008861649509
0.000886147411
0.0008861474111
0.000886147411
0.0008861474109
0.0008861474303
0.0008861715878
0.000886170892
0.0008861727978
0.0008861656639
0.0008861589596
0.0008861483236
0.0008861474923
0.0008861474497
0.0008861474173
0.0008861474108
0.0008861474107
0.0008861474107
0.0008861474111
0.0008861474112
0.0008861474108
0.0008861474278
0.0008861474668
0.0008861474331
0.0008861704857
0.000886167433
0.0008861707191
0.0008861736193
0.0008861474112
0.0008861532609
0.000886147411
0.0008861768522
0.0008861662584
0.0008861659554
0.0008861663515
0.0008861684691
0.000886167588
0.0008861681081
0.0008861678926
0.0008861667706
0.0008861652817
0.0008861644511
0.0008861647768
0.0008861632868
0.0008861629628
0.0008861657432
0.0008861665468
0.0008861654148
0.0008861631575
0.0008861615593
0.0008861630203
0.0008861621011
0.000886160872
0.0008861602154
0.0008861626519
0.0008861642152
0.00088616476
0.0008861635212
0.0008861628253
0.0008861648304
0.000886163494
0.0008861623611
0.0008861620879
0.0008861647289
0.0008861651833
0.0008861656467
0.0008861644935
0.0008861650403
0.0008861670597
0.0008861474576
0.0008861568537
0.0008861475315
0.0008861600874
0.0008861474573
0.0008861558228
0.0008861475279
0.0008861475245
0.0008861592162
0.0008861588416
0.0008861474568
0.0008861553313
0.0008861475212
0.000886147518
0.000886158487
0.0008861581993
0.000886147456
0.0008861550568
0.0008861475148
0.0008861475111
0.0008861579347
0.0008861578051
0.0008861474547
0.0008861548392
0.0008861475067
0.0008861475019
0.0008861577262
0.0008861577752
0.0008861474527
0.0008861546608
0.0008861474967
0.0008861474915
0.0008861577607
0.0008861577185
0.0008861474502
0.0008861545185
0.0008861474865
0.0008861474818
0.0008861576714
0.0008861575448
0.0008861474433
0.0008861544628
0.0008861474773
0.000886147473
0.00088615746
0.0008861572573
0.0008861474483
0.0008861548832
0.0008861474754
0.0008861474736
0.0008861573544
0.0008861575474
0.0008861474632
0.0008861474521
0.0008861579358
0.0008861474344
0.000886147446
0.0008861475472
0.000886147511
0.0008861474772
0.0008861474605
0.0008861474127
0.0008861474815
0.0008861474131
0.000886147413
0.0008861475098
0.0008861475044
0.0008861474144
0.0008861475247
0.0008861474128
0.0008861474129
0.0008861476528
0.0008861476824
0.0008861475323
0.0008861476255
0.000886147676
0.0008861474491
0.0008861474798
0.0008861475427
0.0008861481029
0.0008861479169
0.0008861478686
0.0008861479512
0.0008861479308
0.0008861558144
0.0008861479485
0.0008861507996
0.0008861479389
0.0008861479707
0.0008861482182
0.0008861499451
0.000886152649
0.0008861475865
0.000886147629
0.0008861478684
0.0008861581947
0.0008861477171
0.000886147683
0.0008861477306
0.0008861478181
0.000886158778
0.0008861592857
0.0008861478354
0.0008861477849
0.0008861478419
0.0008861478086
0.0008861596659
0.0008861598696
0.0008861478979
0.0008861478844
0.0008861479
0.0008861478093
0.0008861599207
0.0008861599759
0.0008861478695
0.000886147889
0.0008861478612
0.0008861478131
0.0008861601939
0.0008861605709
0.0008861478347
0.0008861478347
0.0008861478202
0.0008861478047
0.0008861610331
0.0008861612659
0.0008861478143
0.0008861478119
0.0008861478034
0.0008861477956
0.0008861617379
0.0008861621122
0.0008861477859
0.0008861477943
0.0008861477876
0.00088614779
0.0008861590305
0.000886152587
0.0008861477827
0.0008861477844
0.0008861477851
0.0008861478046
0.00088614926
0.000886148058
0.0008861478176
0.0008861477902
0.0008861478006
0.0008861478976
0.0008861476274
0.0008861474658
0.0008861478658
0.0008861478183
0.0008861478433
0.0008861492633
0.0008861477466
0.0008861479687
0.0008861517352
0.0008861478995
0.0008861478697
0.0008861486873
0.0008861482432
0.0008861544522
0.000886152048
0.0008861474123
0.0008861474118
0.0008861474125
0.0008861474119
0.0008861474115
0.0008861474124
0.0008861474118
0.0008861474114
0.0008861474119
0.0008861474126
0.000886147412
0.0008861474122
0.000886147417
0.0008861474135
0.0008861474159
0.0008861474649
0.0008861475164
0.0008861474358
0.0008861474539
0.0008861476974
0.0008861477708
0.0008861474985
0.0008861494559
0.0008861492126
0.0008861487217
0.0008861483801
0.0008861613056
0.0008861624398
0.0008861632445
0.0008861663362
0.000886163808
0.0008861667714
0.0008861672085
0.0008861645936
0.00088616768
0.0008861681859
0.000886165834
0.0008861687259
0.0008861694071
0.0008861616651
0.0008861646505
0.0008861539846
0.0008861491124
0.0008861491918
0.000886147944
0.0008861476048
0.0008861476009
0.0008861474731
0.0008861474228
0.0008861474248
0.0008861474136
0.0008861475698
0.0008861474318
0.0008861474588
0.000886147824
0.0008861475009
0.0008861476614
0.0008861481139
0.0008861478057
0.0008861709584
0.0008861700979
0.0008861694258
0.000886168386
0.0008861474118
0.0008861474119
0.0008861474113
0.0008861474112
0.0008861474113
0.0008861474111
0.0008861474112
0.0008861474115
0.0008861474115
0.0008861474111
0.0008861474112
0.0008861474113
0.0008861474119
0.0008861474116
0.0008861474115
0.000886147415
0.0008861474146
0.0008861474128
0.0008861474124
0.0008861474453
0.0008861474272
0.0008861474519
0.0008861474959
0.0008861478039
0.0008861477138
0.0008861474999
0.0008861479529
0.0008861476979
0.0008861479549
0.0008861477776
0.000886169076
0.0008861682021
0.0008861692492
0.0008861696161
0.0008861701653
0.0008861707374
0.0008861713418
0.0008861703493
0.0008861707671
0.0008861595063
0.0008861677786
0.0008861495488
0.0008861505167
0.0008861481506
0.0008861476298
0.0008861474899
0.0008861476016
0.0008861474171
0.0008861474309
0.0008861474372
0.0008861474117
0.0008861474113
0.0008861474107
0.0008861474249
0.0008861474116
0.0008861474169
0.0008861475054
0.000886147425
0.0008861474465
0.000886147458
0.0008861721815
0.0008861726918
0.0008861721895
0.0008861722803
0.000886172274
0.0008861719526
0.0008861705346
0.0008861698255
0.0008861689952
0.0008861683994
0.0008861717374
0.000886172065
0.0008861722052
0.0008861714915
0.0008861474116
0.0008861474116
0.0008861474109
0.0008861474109
0.000886147411
0.0008861474109
0.0008861474108
0.0008861474113
0.0008861474113
0.0008861474123
0.0008861474124
0.000886147415
0.0008861474158
0.0008861474152
0.0008861474404
0.0008861474479
0.0008861474259
0.0008861475252
0.0008861475465
0.00088614772
0.0008861699765
0.0008861713585
0.0008861701935
0.0008861718763
0.000886172039
0.0008861534933
0.0008861482206
0.0008861478137
0.0008861475688
0.0008861474257
0.0008861474225
0.0008861474143
0.000886147413
0.000886147411
0.0008861474107
0.0008861474109
0.0008861474107
0.0008861474107
0.0008861474322
0.0008861474242
0.0008861474148
0.0008861474121
0.0008861474751
0.000886147458
0.0008861474231
0.0008861709957
0.0008861704482
0.0008861721859
0.0008861733255
0.0008861517697
0.0008861494025
0.0008861476489
0.0008861475231
0.0008861474387
0.0008861474119
0.0008861474106
0.0008861474107
0.0008861474118
0.0008861474109
0.0008861706555
0.0008861704929
0.0008861702821
0.0008861708254
0.000886171229
0.000886171362
0.0008861713877
0.0008861686655
0.0008861683208
0.000886167745
0.0008861717309
0.0008861691365
0.0008861669921
0.0008861689085
0.0008861667209
0.0008861695397
0.0008861673215
0.0008861700292
0.0008861680535
0.0008861683922
0.0008861698182
0.0008861684675
0.0008861699022
0.0008861692671
0.0008861679047
0.0008861674745
0.0008861677719
0.0008861668859
0.0008861660668
0.0008861669328
0.0008861652666
0.0008861474116
0.0008861712684
0.000886147411
0.0008861474112
0.0008861474109
0.0008861474109
0.000886147411
0.0008861474108
0.0008861474108
0.0008861474108
0.0008861474108
0.0008861474108
0.0008861474109
0.0008861474125
0.0008861474115
0.000886147413
0.0008861474154
0.0008861474254
0.0008861474188
0.0008861721284
0.0008861474456
0.0008861475358
0.0008861483871
0.0008861476338
0.0008861670193
0.0008861680532
0.0008861664502
0.0008861677541
0.0008861658
0.0008861650958
0.0008861644956
0.0008861654271
0.0008861670634
0.0008861641705
0.0008861688645
0.000886170599
0.0008861722092
0.0008861709195
0.0008861680158
0.000886170457
0.0008861704381
0.00088616707
0.0008861748432
0.0008861698345
0.0008861668622
0.0008861695913
0.0008861686147
0.0008861692361
0.0008861537026
0.0008861692405
0.0008861695683
0.0008861687715
0.0008861758396
0.0008861474155
0.0008861740261
0.0008861477917
0.0008861493613
0.0008861697958
0.0008861683143
0.0008861697743
0.0008861671826
0.0008861705424
0.0008861474559
0.0008861744965
0.0008861474106
0.0008861491181
0.0008861474107
0.0008861695435
0.000886165728
0.0008861651671
0.0008861661786
0.0008861651679
0.0008861649409
0.0008861655504
0.0008861643173
0.0008861640256
0.0008861669781
0.0008861645383
0.0008861654746
0.0008861679673
0.0008861665743
0.0008861669969
0.0008861673551
0.0008861670567
0.0008861666248
0.000886165999
0.0008861658281
0.0008861649406
0.0008861646923
0.0008861639773
0.0008861627968
0.0008861647569
0.0008861621712
0.0008861622604
0.0008861668169
0.0008861650938
0.0008861656536
0.000886164003
0.0008861648904
0.0008861644395
0.0008861633379
0.0008861635519
0.0008861623392
0.0008861640551
0.0008861624238
0.0008861636133
0.0008861665724
0.0008861653309
0.0008861664088
0.0008861661962
0.0008861664956
0.0008861660576
0.0008861643444
0.0008861653038
0.0008861642131
0.0008861621932
0.0008861630865
0.0008861622975
0.0008861619226
0.0008861620529
0.0008861625227
0.0008861656927
0.0008861637148
0.0008861704063
0.000886147413
0.0008861627421
0.0008861633726
0.0008861614552
0.0008861627457
0.00088616214
0.0008861604345
0.0008861616275
0.0008861612983
0.0008861602098
0.0008861612403
0.0008861614702
0.0008861634516
0.0008861636404
0.0008861639163
0.0008861646846
0.0008861645065
0.0008861649115
0.00088616419
0.0008861650507
0.0008861645064
0.0008861625187
0.0008861639186
0.0008861633616
0.0008861634974
0.0008861639073
0.00088616466
0.0008861699206
0.0008861659447
0.0008861701038
0.0008861474341
0.0008861692968
0.0008861641276
0.0008861650102
0.0008861655059
0.0008861628792
0.0008861643757
0.0008861637381
0.0008861639641
0.0008861620474
0.0008861631683
0.0008861627845
0.0008861623663
0.0008861631842
0.0008861628005
0.0008861644347
0.0008861648757
0.0008861662744
0.0008861663715
0.0008861684335
0.0008861654357
0.0008861665058
0.0008861666424
0.0008861652169
0.0008861665735
0.0008861664501
0.0008861646612
0.0008861655906
0.0008861663542
0.0008861666941
0.0008861660327
0.00088616655
0.0008861672994
0.0008861668807
0.0008861679651
)
;

boundaryField
{
    walls
    {
        type            zeroGradient;
    }
    wallFilmFace_top
    {
        type            zeroGradient;
    }
    region0_to_wallFilmRegion_wallFilmFace
    {
        type            zeroGradient;
    }
    mirrorFace_top
    {
        type            zeroGradient;
    }
    region0_to_wallFilmRegion_mirrorFace
    {
        type            zeroGradient;
    }
    procBoundary3to2
    {
        type            processor;
        value           nonuniform List<scalar> 
64
(
0.0008861479459
0.0008861607614
0.0008861647405
0.0008861658649
0.0008861676565
0.0008861718515
0.0008861715204
0.0008861693071
0.0008861661054
0.0008861476256
0.0008861475867
0.000886147606
0.000886147606
0.0008861474511
0.0008861474519
0.0008861474526
0.0008861474522
0.0008861474509
0.0008861474493
0.0008861474481
0.0008861474474
0.0008861474476
0.0008861474498
0.0008861474498
0.0008861474672
0.0008861474806
0.0008861474806
0.0008861476275
0.0008861475787
0.0008861475787
0.0008861654509
0.000886167782
0.000886167782
0.0008861692917
0.0008861702562
0.0008861474577
0.0008861578134
0.0008861475352
0.0008861475737
0.0008861613716
0.0008861703984
0.0008861674433
0.0008861656996
0.0008861650997
0.0008861633329
0.000886164727
0.0008861475352
0.0008861613716
0.0008861476265
0.0008861576676
0.0008861641189
0.0008861653312
0.0008861658649
0.0008861685185
0.000886171393
0.0008861700154
0.0008861696049
0.0008861708524
0.0008861685056
0.0008861674855
0.000886164937
0.0008861663371
0.0008861639719
0.0008861655932
)
;
    }
}


// ************************************************************************* //
