/*--------------------------------*- C++ -*----------------------------------*\
  =========                 |
  \\      /  F ield         | OpenFOAM: The Open Source CFD Toolbox
   \\    /   O peration     | Website:  https://openfoam.org
    \\  /    A nd           | Version:  8
     \\/     M anipulation  |
\*---------------------------------------------------------------------------*/
FoamFile
{
    version     2.0;
    format      ascii;
    class       volScalarField;
    location    "0.6/wallFilmRegion";
    object      rho;
}
// * * * * * * * * * * * * * * * * * * * * * * * * * * * * * * * * * * * * * //

dimensions      [1 -3 0 0 0 0 0];

internalField   nonuniform List<scalar> 
1342
(
994.5114685
994.5114685
994.5114685
994.5114685
994.5114693
994.5114843
994.5115559
994.5114742
994.5114739
994.5114738
994.5114739
994.5114739
994.5114737
994.5114736
994.5114736
994.5114743
994.5114805
994.5115133
994.5114685
994.5114684
994.5114685
994.5114685
994.5114688
994.5114773
994.5115194
994.5116657
994.5116793
994.5116879
994.5116966
994.5117087
994.5117211
994.5115449
994.5114761
994.5114692
994.5114696
994.5114719
994.5117135
994.5114684
994.5114684
994.5114684
994.5114685
994.5114687
994.5114702
994.5117587
994.5117732
994.511788
994.5115833
994.5114762
994.5114694
994.5114685
994.5114685
994.5118161
994.5118082
994.5118055
994.5118006
994.5117977
994.5117933
994.5117782
994.5117652
994.5114684
994.5114684
994.511471
994.5114722
994.5114685
994.5118011
994.5117971
994.5118077
994.5118089
994.5118012
994.511794
994.5117796
994.5117648
994.5117452
994.5114684
994.511471
994.5114686
994.5117568
994.5117662
994.5117765
994.5117774
994.5117758
994.5117711
994.511757
994.511734
994.5117524
994.5114684
994.5114684
994.5114685
994.5114694
994.511705
994.5116821
994.5116686
994.5117514
994.511749
994.5117385
994.5117181
994.5117337
994.5117617
994.5114685
994.5114685
994.5114685
994.5114685
994.5114685
994.5114685
994.5114685
994.5114685
994.5114685
994.5114685
994.5114686
994.5114685
994.5114685
994.5114715
994.5114712
994.5114713
994.5114714
994.5114713
994.5114714
994.5114711
994.5114714
994.5114714
994.5114708
994.5114713
994.5114712
994.5114709
994.5114712
994.5114713
994.5114708
994.5114714
994.5114715
994.5114707
994.5114716
994.5114716
994.5114706
994.5114716
994.5114717
994.5114706
994.5114718
994.5114718
994.5114698
994.5114716
994.5114711
994.5114691
994.511469
994.511469
994.5114693
994.5114691
994.5114691
994.5114681
994.511469
994.5114694
994.5114682
994.5114365
994.5114224
994.5114701
994.5114382
994.5114551
994.5114708
994.5114614
994.5114646
994.5114713
994.5114664
994.5114669
994.5114715
994.511467
994.5114676
994.5114717
994.5114667
994.5114659
994.5114718
994.5114661
994.5114536
994.5114715
994.5114689
994.5114704
994.5114704
994.5114707
994.5114704
994.5114694
994.51147
994.5114695
994.511469
994.511469
994.511469
994.511469
994.511469
994.511469
994.5114692
994.511469
994.5114691
994.5114669
994.5114702
994.5114716
994.5114684
994.5114708
994.511416
994.5114092
994.5114684
994.5114684
994.5114085
994.5114684
994.5114684
994.5114086
994.5114684
994.5114684
994.5114083
994.5114684
994.5114684
994.5114684
994.5114684
994.5114684
994.5114323
994.5114684
994.5114684
994.5114701
994.5114649
994.5114688
994.5114696
994.5114696
994.5114696
994.511469
994.511469
994.511469
994.511469
994.511469
994.511469
994.5114691
994.511469
994.5114692
994.5114716
994.5114701
994.5114717
994.5114713
994.5114722
994.5114721
994.5114684
994.5114708
994.5114095
994.5114684
994.5114684
994.5114684
994.5114684
994.5114684
994.5114684
994.5114684
994.5114684
994.5114684
994.5114684
994.5114684
994.5114684
994.5114684
994.5114684
994.5114684
994.5114603
994.511408
994.5114088
994.5114695
994.5114674
994.5114693
994.5114702
994.5114699
994.5114704
994.511469
994.5114689
994.511469
994.511469
994.511469
994.5114691
994.5114693
994.5114692
994.5114696
994.5114718
994.5114709
994.5114721
994.5114723
994.5114723
994.5114723
994.5114613
994.5114722
994.5114699
994.5114684
994.5114086
994.5114684
994.5114684
994.5114684
994.5114684
994.5114684
994.5114684
994.5114684
994.5114684
994.5114684
994.5114684
994.5114684
994.5114684
994.5114684
994.511413
994.5114066
994.5114103
994.5114689
994.5114206
994.5114189
994.5114706
994.51147
994.5114712
994.511469
994.511469
994.5114691
994.5114692
994.5114692
994.5114694
994.5114702
994.51147
994.5114712
994.5114723
994.5114722
994.5114724
994.5114724
994.5114724
994.5114727
994.5114705
994.5114741
994.5114739
994.5114684
994.5114587
994.5114098
994.5114684
994.5114684
994.5114684
994.511455
994.5114684
994.5114562
994.5114687
994.5114696
994.5114701
994.5114717
994.5114723
994.5114723
994.5114719
994.5114723
994.5114723
994.5114716
994.5114722
994.5114722
994.511469
994.5114692
994.5114692
994.5114692
994.51147
994.51147
994.5114735
994.5114746
994.5114721
994.5114746
994.5114749
994.5114737
994.511475
994.5114748
994.5114751
994.5114752
994.5114748
994.5114747
994.5114745
994.5114742
994.511459
994.5114736
994.5114718
994.5114684
994.5114685
994.511468
994.5114697
994.5114708
994.5114709
994.511474
994.5114727
994.5114756
994.5114743
994.5114761
994.5114757
994.5114738
994.5114751
994.5114747
994.5114741
994.5114745
994.5114748
994.5114701
994.5114717
994.5114736
994.5114721
994.5114728
994.5114744
994.5114734
994.5114741
994.511475
994.5114747
994.511475
994.5114751
994.511475
994.5114749
994.5114745
994.5114746
994.5114743
994.5114741
994.5114742
994.511474
994.5114521
994.5114738
994.5114733
994.5114509
994.5114727
994.5114728
994.5114722
994.511473
994.5114735
994.5114753
994.5114743
994.5114749
994.5114757
994.5114751
994.5114753
994.5116939
994.5117447
994.5116799
994.511737
994.5117315
994.511671
994.511732
994.5117293
994.5116666
994.511724
994.5117203
994.5116672
994.5117177
994.5117156
994.5116611
994.511713
994.5117098
994.5116583
994.5117079
994.5117086
994.5116559
994.5117063
994.5117011
994.5116528
994.5116932
994.5116841
994.5114684
994.5114684
994.5114684
994.5114684
994.5114685
994.5114684
994.5117713
994.5117705
994.5117619
994.5117613
994.5117544
994.5117421
994.5117347
994.5117219
994.5117808
994.5117836
994.5117759
994.5117756
994.5117789
994.5117731
994.5117411
994.5116896
994.5117368
994.5117391
994.5114684
994.5117268
994.5114684
994.5114684
994.5114684
994.5118071
994.511811
994.5118037
994.5118067
994.5118066
994.5118067
994.5118096
994.5118
994.5117934
994.5117973
994.5117961
994.511787
994.5117917
994.5117849
994.5117714
994.5117515
994.5114684
994.5117502
994.5114684
994.5114684
994.5114684
994.5114684
994.5118055
994.5117903
994.5118095
994.5117866
994.511794
994.5117875
994.5117869
994.5117829
994.5117767
994.5117713
994.5117685
994.5117595
994.5117729
994.5114684
994.5117387
994.5117396
994.5117502
994.5117038
994.5114684
994.5114691
994.5115887
994.5114691
994.5115791
994.511469
994.5115742
994.511469
994.511571
994.511469
994.5115683
994.511469
994.5115662
994.5114689
994.5115646
994.5114689
994.5115656
994.5114685
994.511469
994.5115763
994.5114714
994.5114714
994.5114713
994.5114709
994.5114708
994.5114709
994.5114707
994.5114706
994.5114707
994.5114702
994.5114692
994.5114685
994.511469
994.5114685
994.511469
994.5114692
994.5114689
994.5114679
994.5114695
994.5114705
994.5114711
994.5114715
994.5114716
994.5114718
994.5114717
994.5114709
994.5114698
994.5114685
994.5114685
994.5114693
994.511469
994.511469
994.511469
994.5114708
994.5114128
994.5114684
994.5114088
994.5114084
994.5114082
994.5114082
994.5114304
994.5114698
994.5114699
994.5114696
994.511469
994.511469
994.511469
994.51147
994.511472
994.5114209
994.5114684
994.5114684
994.5114684
994.5114684
994.5114684
994.5114151
994.511469
994.5114698
994.511469
994.511469
994.5114691
994.5114704
994.5114723
994.511472
994.5114082
994.5114684
994.5114684
994.5114684
994.5114684
994.5114684
994.51144
994.5114699
994.511469
994.5114691
994.5114694
994.5114716
994.5114724
994.5114723
994.5114093
994.5114684
994.5114684
994.5114689
994.5114707
994.5114719
994.5114718
994.5114713
994.511469
994.5114694
994.5114711
994.5114727
994.5114751
994.5114749
994.5114741
994.5114109
994.5114531
994.5114707
994.5114751
994.5114739
994.5114738
994.5114746
994.5114702
994.511473
994.511474
994.5114748
994.511475
994.5114749
994.5114743
994.5114739
994.5114166
994.5114714
994.5114739
994.5114757
994.5114757
994.511476
994.5114717
994.5114734
994.5114749
994.511475
994.5114744
994.5114741
994.5114737
994.5114734
994.5114737
994.5114743
994.5114749
994.5115803
994.5114754
994.5117084
994.5116872
994.5116744
994.5116684
994.5116654
994.5116648
994.5116587
994.5116568
994.5116537
994.5116489
994.5114685
994.5116589
994.5114684
994.5114684
994.5114685
994.5114684
994.5115049
994.5114875
994.5117682
994.5117676
994.5117811
994.5117619
994.5117762
994.5117582
994.511747
994.5117393
994.5117618
994.5117295
994.5117456
994.5117143
994.5114699
994.5114717
994.511479
994.5114691
994.5117073
994.5114684
994.5114684
994.5114684
994.5114684
994.5114687
994.5117977
994.5117882
994.5118142
994.511717
994.5116257
994.5114809
994.5114695
994.511469
994.5114685
994.5114684
994.5114684
994.5114684
994.5114684
994.5114684
994.5114684
994.5114687
994.5114692
994.5114687
994.5117827
994.5117411
994.5117859
994.5118254
994.5114684
994.5115481
994.5114684
994.5118694
994.5117251
994.511721
994.5117264
994.5117552
994.5117432
994.5117503
994.5117474
994.5117321
994.5117118
994.5117005
994.5117049
994.5116846
994.5116802
994.5117181
994.511729
994.5117136
994.5116829
994.5116611
994.511681
994.5116685
994.5116518
994.5116428
994.511676
994.5116973
994.5117047
994.5116878
994.5116784
994.5117057
994.5116875
994.511672
994.5116683
994.5117043
994.5117105
994.5117168
994.5117011
994.5117085
994.511736
994.5114691
994.511597
994.5114701
994.5116411
994.5114691
994.511583
994.51147
994.51147
994.5116292
994.5116241
994.5114691
994.5115763
994.5114699
994.5114699
994.5116193
994.5116154
994.511469
994.5115726
994.5114698
994.5114698
994.5116118
994.51161
994.511469
994.5115696
994.5114697
994.5114697
994.5116089
994.5116096
994.511469
994.5115672
994.5114696
994.5114695
994.5116094
994.5116088
994.511469
994.5115652
994.5114695
994.5114694
994.5116082
994.5116064
994.5114689
994.5115645
994.5114693
994.5114693
994.5116053
994.5116025
994.5114689
994.5115702
994.5114693
994.5114693
994.5116038
994.5116065
994.5114691
994.511469
994.5116118
994.5114687
994.5114689
994.5114703
994.5114698
994.5114693
994.5114691
994.5114685
994.5114694
994.5114685
994.5114685
994.5114698
994.5114697
994.5114685
994.51147
994.5114685
994.5114685
994.5114717
994.5114721
994.5114701
994.5114714
994.511472
994.5114689
994.5114694
994.5114702
994.5114779
994.5114753
994.5114747
994.5114758
994.5114755
994.5115829
994.5114758
994.5115146
994.5114756
994.5114761
994.5114794
994.5115029
994.5115398
994.5114708
994.5114714
994.5114747
994.5116153
994.5114726
994.5114721
994.5114728
994.511474
994.5116232
994.5116301
994.5114742
994.5114735
994.5114743
994.5114738
994.5116353
994.5116381
994.5114751
994.5114749
994.5114751
994.5114739
994.5116388
994.5116395
994.5114747
994.5114749
994.5114746
994.5114739
994.5116425
994.5116477
994.5114742
994.5114742
994.511474
994.5114738
994.5116539
994.5116571
994.5114739
994.5114739
994.5114738
994.5114737
994.5116635
994.5116686
994.5114735
994.5114737
994.5114736
994.5114736
994.5116267
994.5115389
994.5114735
994.5114735
994.5114735
994.5114738
994.5114936
994.5114772
994.511474
994.5114736
994.5114737
994.5114751
994.5114714
994.5114692
994.5114746
994.511474
994.5114743
994.5114937
994.511473
994.511476
994.5115273
994.5114751
994.5114747
994.5114858
994.5114798
994.5115643
994.5115316
994.5114684
994.5114684
994.5114685
994.5114684
994.5114684
994.5114684
994.5114684
994.5114684
994.5114684
994.5114685
994.5114684
994.5114684
994.5114685
994.5114685
994.5114685
994.5114692
994.5114699
994.5114688
994.511469
994.5114723
994.5114733
994.5114696
994.5114963
994.511493
994.5114863
994.5114816
994.5116577
994.5116731
994.5116841
994.5117262
994.5116917
994.5117321
994.511738
994.5117024
994.5117445
994.5117514
994.5117193
994.5117587
994.511768
994.5116626
994.5117032
994.511558
994.5114916
994.5114927
994.5114757
994.5114711
994.511471
994.5114693
994.5114686
994.5114686
994.5114685
994.5114706
994.5114687
994.5114691
994.5114741
994.5114697
994.5114718
994.511478
994.5114738
994.5117891
994.5117774
994.5117682
994.5117541
994.5114684
994.5114684
994.5114684
994.5114684
994.5114684
994.5114684
994.5114684
994.5114684
994.5114684
994.5114684
994.5114684
994.5114684
994.5114684
994.5114684
994.5114684
994.5114685
994.5114685
994.5114685
994.5114684
994.5114689
994.5114687
994.511469
994.5114696
994.5114738
994.5114726
994.5114696
994.5114758
994.5114723
994.5114758
994.5114734
994.5117635
994.5117516
994.5117658
994.5117708
994.5117783
994.5117861
994.5117943
994.5117808
994.5117865
994.5116332
994.5117458
994.5114975
994.5115107
994.5114785
994.5114714
994.5114695
994.511471
994.5114685
994.5114687
994.5114688
994.5114684
994.5114684
994.5114684
994.5114686
994.5114684
994.5114685
994.5114697
994.5114686
994.5114689
994.5114691
994.5118058
994.5118127
994.5118059
994.5118071
994.511807
994.5118027
994.5117833
994.5117737
994.5117624
994.5117543
994.5117997
994.5118042
994.5118061
994.5117964
994.5114684
994.5114684
994.5114684
994.5114684
994.5114684
994.5114684
994.5114684
994.5114684
994.5114684
994.5114684
994.5114684
994.5114685
994.5114685
994.5114685
994.5114688
994.5114689
994.5114686
994.51147
994.5114703
994.5114726
994.5117757
994.5117946
994.5117787
994.5118016
994.5118038
994.5115513
994.5114795
994.5114739
994.5114706
994.5114686
994.5114686
994.5114685
994.5114685
994.5114684
994.5114684
994.5114684
994.5114684
994.5114684
994.5114687
994.5114686
994.5114685
994.5114684
994.5114693
994.5114691
994.5114686
994.5117896
994.5117822
994.5118058
994.5118214
994.5115278
994.5114956
994.5114717
994.51147
994.5114688
994.5114684
994.5114684
994.5114684
994.5114684
994.5114684
994.511785
994.5117828
994.5117799
994.5117873
994.5117928
994.5117946
994.511795
994.5117579
994.5117532
994.5117454
994.5117996
994.5117643
994.5117351
994.5117612
994.5117314
994.5117698
994.5117396
994.5117765
994.5117496
994.5117542
994.5117736
994.5117552
994.5117747
994.5117661
994.5117475
994.5117417
994.5117457
994.5117337
994.5117225
994.5117343
994.5117116
994.5114684
994.5117933
994.5114684
994.5114684
994.5114684
994.5114684
994.5114684
994.5114684
994.5114684
994.5114684
994.5114684
994.5114684
994.5114684
994.5114685
994.5114684
994.5114685
994.5114685
994.5114686
994.5114685
994.511805
994.5114689
994.5114701
994.5114817
994.5114715
994.5117355
994.5117496
994.5117277
994.5117455
994.5117189
994.5117093
994.5117011
994.5117138
994.5117361
994.5116967
994.5117606
994.5117842
994.5118061
994.5117886
994.511749
994.5117823
994.511782
994.5117362
994.511842
994.5117738
994.5117333
994.5117705
994.5117572
994.5117657
994.5115541
994.5117657
994.5117702
994.5117593
994.5118556
994.5114685
994.5118309
994.5114736
994.511495
994.5117733
994.5117531
994.511773
994.5117377
994.5117834
994.511469
994.5118373
994.5114684
994.5114917
994.5114684
994.5117698
994.5117179
994.5117102
994.511724
994.5117103
994.5117072
994.5117155
994.5116987
994.5116947
994.5117349
994.5117017
994.5117144
994.5117484
994.5117294
994.5117352
994.51174
994.511736
994.5117301
994.5117216
994.5117192
994.5117072
994.5117038
994.511694
994.511678
994.5117047
994.5116694
994.5116707
994.5117327
994.5117092
994.5117169
994.5116944
994.5117065
994.5117003
994.5116853
994.5116882
994.5116717
994.5116951
994.5116729
994.5116891
994.5117294
994.5117125
994.5117272
994.5117243
994.5117283
994.5117224
994.511699
994.5117121
994.5116973
994.5116697
994.5116819
994.5116712
994.5116661
994.5116678
994.5116742
994.5117174
994.5116905
994.5117816
994.5114685
994.5116772
994.5116858
994.5116597
994.5116773
994.511669
994.5116458
994.511662
994.5116576
994.5116427
994.5116568
994.5116599
994.5116869
994.5116895
994.5116932
994.5117037
994.5117012
994.5117068
994.5116969
994.5117087
994.5117012
994.5116742
994.5116932
994.5116857
994.5116875
994.5116931
994.5117033
994.511775
994.5117208
994.5117775
994.5114687
994.5117665
994.5116961
994.5117081
994.5117149
994.5116791
994.5116995
994.5116908
994.5116939
994.5116678
994.511683
994.5116778
994.5116721
994.5116832
994.511678
994.5117003
994.5117063
994.5117253
994.5117266
994.5117547
994.5117139
994.5117285
994.5117303
994.5117109
994.5117294
994.5117277
994.5117034
994.511716
994.5117264
994.511731
994.511722
994.5117291
994.5117393
994.5117336
994.5117484
)
;

boundaryField
{
    walls
    {
        type            zeroGradient;
    }
    wallFilmFace_top
    {
        type            zeroGradient;
    }
    region0_to_wallFilmRegion_wallFilmFace
    {
        type            zeroGradient;
    }
    mirrorFace_top
    {
        type            zeroGradient;
    }
    region0_to_wallFilmRegion_mirrorFace
    {
        type            zeroGradient;
    }
    procBoundary3to2
    {
        type            processor;
        value           nonuniform List<scalar> 
64
(
994.5114757
994.5116502
994.5117044
994.5117197
994.5117441
994.5118013
994.5117968
994.5117666
994.511723
994.5114714
994.5114708
994.5114711
994.5114711
994.511469
994.511469
994.511469
994.511469
994.511469
994.511469
994.5114689
994.5114689
994.5114689
994.511469
994.511469
994.5114692
994.5114694
994.5114694
994.5114714
994.5114707
994.5114707
994.5117141
994.5117459
994.5117459
994.5117664
994.5117796
994.5114691
994.5116101
994.5114701
994.5114706
994.5116586
994.5117815
994.5117412
994.5117175
994.5117093
994.5116853
994.5117043
994.5114701
994.5116586
994.5114714
994.5116081
994.511696
994.5117125
994.5117197
994.5117559
994.511795
994.5117763
994.5117707
994.5117877
994.5117557
994.5117418
994.5117071
994.5117262
994.511694
994.511716
)
;
    }
}


// ************************************************************************* //
