/*--------------------------------*- C++ -*----------------------------------*\
  =========                 |
  \\      /  F ield         | OpenFOAM: The Open Source CFD Toolbox
   \\    /   O peration     | Website:  https://openfoam.org
    \\  /    A nd           | Version:  8
     \\/     M anipulation  |
\*---------------------------------------------------------------------------*/
FoamFile
{
    version     2.0;
    format      ascii;
    class       volVectorField;
    location    "0.6/wallFilmRegion";
    object      U;
}
// * * * * * * * * * * * * * * * * * * * * * * * * * * * * * * * * * * * * * //

dimensions      [0 1 -1 0 0 0 0];

internalField   nonuniform List<vector> 
1342
(
(0.7004907592 0.3373916081 -6.166440918)
(0.5958579186 1.677652743 -6.789805587)
(0.2835739084 1.80414757 -7.281598393)
(-0.0515259679 0.982083865 -8.895340757)
(0.3187616492 -1.269621308 -10.71811822)
(0.588081493 -0.6017921812 -8.029600051)
(-0.008306388587 0.01505363255 -6.790428013)
(-2.606589125 -0.01022466424 -7.236195682)
(-1.900334552 -0.008646087277 -6.046625729)
(-0.7688193779 -0.0005465646834 -0.5906957109)
(-0.8333053017 -0.001050121743 -0.9257370046)
(-0.8734440608 -0.001508699803 -1.230425015)
(-0.8815051479 -0.001227152817 -1.054820722)
(-0.892641315 -0.001243168161 -1.068859997)
(-0.8843231347 -0.001485248646 -1.220111602)
(-0.8689151252 -0.002120830408 -1.614024703)
(-0.8396165327 0.07664476976 -2.091492912)
(-0.806140428 0.2119938918 -2.310663438)
(0.09896244829 -0.1828898129 -4.804931822)
(0.3373319194 0.4312678665 -4.366297799)
(0.3581480738 0.9418618154 -4.659464695)
(0.2545128517 0.7675681669 -6.243385108)
(0.7793821487 -1.008141504 -11.73953771)
(1.341257426 -1.231015365 -10.49231968)
(0.8150275345 -0.2315962525 -9.622199911)
(-3.097277152 0.392622065 -7.050781793)
(-2.450943135 0.4012482188 -7.420880889)
(-1.81681687 0.4190854391 -7.701559021)
(-1.330290171 0.4198994919 -7.915936947)
(-1.264601193 0.4541124809 -8.240818074)
(-3.632702193 0.4536323648 -8.278743248)
(-3.181701745 0.4381551246 -8.213014704)
(-2.489380594 0.4415844998 -8.729827467)
(-1.403294285 0.4475876465 -9.268635654)
(-0.3116775375 0.3606290803 -8.044288738)
(-0.2447813584 0.3467885655 -8.064069151)
(3.553481109 -0.8867771522 -6.720152893)
(0.3889064194 -0.9992016162 -3.863051977)
(0.7010772556 -0.5850273432 -3.499568698)
(1.024411921 0.617960701 -3.461903585)
(1.234813006 0.7610383817 -4.685490482)
(2.921923349 -0.3165545541 -11.15918293)
(1.923069666 1.827878919 -8.965267893)
(-1.941933936 1.849029373 -7.304249217)
(-1.356125002 1.914910543 -7.557567066)
(-1.204461105 1.986702187 -7.848120965)
(-4.635257054 1.834166616 -7.291180084)
(-3.771328864 1.970394883 -7.767574529)
(-2.777653996 2.120784903 -8.446319647)
(-1.746231422 2.220930674 -8.854802642)
(0.6540464369 1.981491315 -8.265126555)
(-3.355192287 -3.091287858 -5.87704353)
(-2.310163184 -3.467024782 -6.618491117)
(-0.9530512031 -3.858656056 -7.408441423)
(0.9024641847 -3.226815837 -6.180783359)
(2.236754478 -3.023391919 -5.786047465)
(3.331533919 -2.888031017 -5.491113311)
(4.272546692 -2.765777494 -5.264754481)
(5.022498691 -2.223724461 -5.29658997)
(0.8109115855 -1.596608261 -3.266302024)
(1.314853675 -0.3551262651 -2.515292492)
(5.053163358 1.025011716 -9.505907007)
(4.807150098 1.744469785 -8.872809036)
(6.459747683 0.8483574266 -5.445252734)
(-3.480102418 -3.925151964 -4.287050215)
(-2.453703539 -4.553399513 -4.960744058)
(-0.713288327 -5.638370945 -6.133705108)
(2.372212125 -4.648563149 -5.073905327)
(4.006657534 -4.185091585 -4.563791937)
(5.277602876 -3.840462229 -4.165486418)
(6.298392561 -3.562418943 -3.855465735)
(7.048051594 -2.854100558 -4.098056207)
(7.196368935 -1.912798461 -4.864189974)
(1.544466568 -0.6497416897 -1.788061023)
(6.585092539 2.21390137 -7.590030231)
(5.794516588 2.722641508 -6.412079495)
(-3.8294833 -3.6781809 -2.336483753)
(-2.802873901 -4.347186962 -2.768471372)
(-0.4555710821 -5.851861307 -3.702539951)
(3.752061603 -5.069077845 -3.236371681)
(6.044792154 -4.423790483 -2.80994509)
(7.636126232 -3.903207446 -2.50262653)
(8.77885829 -3.509133961 -2.239609432)
(9.531548041 -2.75073053 -2.815095532)
(10.4839379 -1.759924357 -3.8873777)
(1.503615183 -0.8416233063 -1.130433685)
(1.866946483 -0.4440170128 -1.029502587)
(3.151694313 0.5239574091 -1.614468248)
(7.320171816 2.018889298 -4.496466797)
(-3.063554052 4.905718855 -2.391267186)
(-1.890654814 5.565461522 -2.708075552)
(-0.9993911425 6.030053191 -2.932726203)
(-5.747552297 3.755971817 -1.823232212)
(-4.78099874 4.072129695 -1.971389774)
(-3.65722638 4.529598133 -2.196665786)
(-2.004371896 5.304523432 -2.595995867)
(2.279534338 5.64289633 -2.9915581)
(4.965110058 4.471120471 -3.918545947)
(0.9656503217 0.3687502665 -6.26447944)
(0.4773048069 0.2333884129 -6.00000519)
(0.2334648997 0.1134436787 -5.242309901)
(0.03866541208 0.01852187082 -5.090500954)
(0.02623085287 0.01804347366 -5.037413872)
(0.2134830956 0.268623415 -5.203757297)
(0.782281785 1.484722877 -6.719067016)
(0.09507270633 1.611082385 -7.533356164)
(0.1817190408 1.231796149 -5.698325321)
(0.05978948777 1.21493582 -5.885390363)
(0.09218744979 -0.7164138952 -11.26367938)
(-0.05216071294 0.7823120326 -7.265084251)
(0.05455364632 -0.4485334968 -10.32117742)
(-0.4851307281 0.04648151652 -7.478900405e-05)
(-0.282767566 0.0286603865 -4.522573345e-05)
(-0.2332011209 0.02457929684 -3.968098796e-05)
(-0.3930050285 0.04680558319 -7.460364652e-05)
(-0.1914436716 0.02313592296 -3.648313171e-05)
(-0.1475515744 0.02243678967 -3.581696936e-05)
(-0.2995283652 0.04663840614 -7.421557689e-05)
(-0.09693459961 0.02233563863 -3.548168772e-05)
(-0.0306921951 0.02270379096 -3.61898587e-05)
(-0.174275792 0.04729627972 -7.506744485e-05)
(0.03431316118 0.02857754008 -4.541655474e-05)
(0.07992957639 0.03204025646 -5.101517906e-05)
(-0.07334183485 0.04909372837 -7.80594373e-05)
(0.1212457526 0.03496622036 -5.557453831e-05)
(0.1584559962 0.0380413163 -6.088786577e-05)
(-0.01087914385 0.0512732798 -8.160441847e-05)
(0.1900774181 0.04029964444 -6.412242579e-05)
(0.216327381 0.04186247958 -6.675073742e-05)
(0.0641618109 0.05411711252 -8.630328232e-05)
(0.2384430698 0.04297380395 -6.898230372e-05)
(0.2589247483 0.04377840026 -6.936533056e-05)
(0.1886643808 0.05672183569 -8.99714024e-05)
(0.2796489447 0.04460926277 -7.140000561e-05)
(0.3075336396 0.04469631157 -7.066322516e-05)
(0.3375622039 0.05602552398 -8.229501823e-05)
(0.3376481753 0.04395709677 -7.013691779e-05)
(0.3703021327 0.043401277 -6.847500949e-05)
(0.6025548714 0.114450737 -0.0002832129305)
(0.4763634831 0.06039654648 -9.105717511e-05)
(0.6812194588 0.1122314234 -0.0001863750189)
(0.1166898915 0.3364711323 -0.0005361476712)
(0.2078163206 0.3034983377 -0.000483556137)
(0.1380529845 0.4046389126 -0.0006448109757)
(0.01183707486 0.03878555509 -6.175784221e-05)
(0.1670171581 0.3704318795 -0.0005896656584)
(0.1720856147 0.337767991 -0.0005382058315)
(-0.001629399124 0.000229575107 -3.633733591e-07)
(0.09500681276 0.1598052269 -0.0002546489624)
(0.001775018995 0.002449693557 -3.898892087e-06)
(0.0001408462066 0.0002068175923 -3.290715975e-07)
(1.902386538e-08 -8.513321348e-08 1.353190118e-10)
(5.084277766e-09 -1.342636255e-08 2.13905667e-11)
(0.01545367498 0.002787127806 -4.437312351e-06)
(2.057271906e-07 -2.860466298e-07 4.551807709e-10)
(2.906438558e-06 -1.437774969e-06 2.289202541e-09)
(0.03874814554 0.006098620157 -9.690476864e-06)
(1.087458109e-05 -1.237778427e-06 1.961594516e-09)
(2.784450057e-05 1.091050969e-06 -1.710221279e-09)
(0.05715494447 0.008103326742 -1.293152378e-05)
(5.450822e-05 6.012377274e-06 -9.625878841e-09)
(5.325935139e-05 6.311605792e-06 -1.00282196e-08)
(0.08736536761 0.01053894044 -1.670008924e-05)
(8.024619332e-05 8.058054088e-06 -1.287037807e-08)
(0.0001710411971 2.12727377e-05 -3.404836184e-08)
(0.1256999973 0.01195862734 -1.90335163e-05)
(8.45321287e-05 8.177087932e-06 -1.301330341e-08)
(0.0004354479154 1.071103651e-05 -1.667467736e-08)
(0.1729376253 0.005151047156 -7.911734402e-06)
(0.0002871893703 1.203853117e-05 -1.959590935e-08)
(1.664124099e-05 -6.19196571e-06 9.896112295e-09)
(0.9241041998 0.1065911941 -0.0001683752535)
(0.02771078507 0.001512632383 -2.464803913e-06)
(0.09235029547 0.008878028373 -1.395791807e-05)
(1.330244985 0.3267808746 -0.0005199918141)
(1.733774959 0.394058005 -0.0006329342612)
(1.905862151 0.5131563175 -0.0008155173241)
(1.320621626 0.4958902747 -0.0007913844329)
(1.656710837 0.4679322361 -0.0007430795218)
(1.447333135 0.4648517779 -0.0007434343294)
(0.2459537039 0.3514134505 -0.0005597209772)
(0.309171793 0.3200547662 -0.0005086425443)
(0.2763168327 0.3446406644 -0.0005490338964)
(0.1629351788 0.3930125942 -0.0006259732472)
(0.1787235179 0.3849674092 -0.0006136529367)
(0.1693739491 0.3779774992 -0.0006026903724)
(0.08750411186 0.1097998046 -0.0001749459085)
(0.1571595281 0.3193365029 -0.0005085949662)
(0.1317552972 0.1821811105 -0.0002898089002)
(6.629951616e-06 2.241860748e-06 -3.56731731e-09)
(0.08905508058 0.08761250487 -0.0001393524775)
(0.02624458258 0.02492590897 -3.967672826e-05)
(4.673656814e-11 -7.933886754e-11 1.264884988e-13)
(0.0001870873744 0.0001619138636 -2.576877932e-07)
(2.357287377e-09 -7.271469277e-10 1.155880249e-12)
(6.160077449e-11 -7.845423863e-11 1.249183088e-13)
(5.592439362e-11 -6.423614858e-11 1.022056369e-13)
(6.331667972e-11 -5.858848071e-11 9.327372553e-14)
(1.104949739e-10 -8.571458321e-11 1.365265744e-13)
(7.683783168e-11 -5.352418391e-11 8.529989861e-14)
(9.034863591e-11 -5.260082267e-11 8.392456641e-14)
(3.169369536e-10 -1.198359479e-10 1.903572141e-13)
(1.039574875e-10 -4.923584305e-11 7.851422353e-14)
(1.18176018e-10 -4.27011199e-11 6.781399268e-14)
(2.107795137e-10 -9.572992576e-11 1.528927633e-13)
(1.34398681e-10 -3.967548866e-11 6.300640717e-14)
(1.542525935e-10 -1.914316136e-11 3.081717492e-14)
(1.863002892e-10 -7.036875508e-11 1.122608226e-13)
(1.789092397e-10 -2.813322469e-11 4.481720352e-14)
(2.099798909e-10 -2.484170387e-11 3.904471731e-14)
(1.60778177e-06 -5.482491623e-07 8.762022697e-10)
(2.50409909e-10 -9.561794382e-12 1.535658248e-14)
(2.951260108e-10 -6.544217377e-12 1.042567066e-14)
(1.477189023 0.3742708253 -0.0005931965009)
(0.009762312785 0.002426706043 -3.854372708e-06)
(0.4971773605 0.1237501607 -0.000196766877)
(1.625119832 0.5232686337 -0.0008339428588)
(2.046611051 0.7595634263 -0.00121057492)
(1.822030554 0.6288530449 -0.00100496179)
(0.2685023504 0.3479645887 -0.0005547373305)
(0.2690355334 0.3489341624 -0.0005550204028)
(0.2394043405 0.348905839 -0.0005551594889)
(0.1011399512 0.3758835959 -0.0005983762747)
(0.1526759637 0.3396949493 -0.0005408766882)
(0.1094911381 0.3150963249 -0.0005019107927)
(0.1483911296 0.2073767825 -0.0003305650374)
(0.1378155997 0.2916423475 -0.000464953615)
(0.1596965195 0.2127036396 -0.0003392159124)
(0.08697427445 0.08384023854 -0.0001335872008)
(0.1476416523 0.1519615561 -0.0002417990998)
(0.1159492399 0.1142298008 -0.0001818733986)
(0.0003580401426 0.0003228819344 -5.147033164e-07)
(0.08031427638 0.07837747147 -0.0001247722996)
(0.02459361695 0.02382361453 -3.797354931e-05)
(7.14335935e-11 -3.286250061e-11 5.224630866e-14)
(7.200812345e-05 6.466656304e-05 -1.030301455e-07)
(2.299025096e-10 1.916713484e-11 -3.023729522e-14)
(1.003771742e-10 -2.051112269e-11 3.272648913e-14)
(9.767279743e-11 -2.144720066e-12 3.2207493e-15)
(1.166828249e-10 6.078395855e-12 -9.430832243e-15)
(1.36955662e-10 -3.396219626e-12 4.96749884e-15)
(1.406653831e-10 1.635377516e-11 -2.595711918e-14)
(1.64955074e-10 2.929485904e-11 -4.689383221e-14)
(1.806183354e-10 2.102628861e-11 -3.330137197e-14)
(1.916159341e-10 4.617905963e-11 -7.331638247e-14)
(2.199589538e-10 6.647244524e-11 -1.05876919e-13)
(2.388538399e-10 4.945776519e-11 -7.857993932e-14)
(2.497776678e-10 9.032583379e-11 -1.444179174e-13)
(2.8320164e-10 1.114700155e-10 -1.772356583e-13)
(3.209951501e-10 7.564573046e-11 -1.20564706e-13)
(3.248220957e-10 1.341172985e-10 -2.135169082e-13)
(3.667065326e-10 1.587499081e-10 -2.526239681e-13)
(0.003434345316 0.0008551968888 -1.362975382e-06)
(4.447558011e-10 1.91579164e-10 -3.051648426e-13)
(3.55706508e-08 -3.451628199e-09 5.535299488e-12)
(2.481170887 1.098991167 -0.00175308948)
(0.7039016441 0.2981296519 -0.0004753474831)
(1.882214229 0.9438217759 -0.001505891275)
(1.318760836 0.9288809096 -0.001479241438)
(1.4746039 0.7175209736 -0.001140099517)
(1.226465349 0.967874854 -0.001542482384)
(0.2027295332 0.3401742094 -0.0005415868513)
(0.2053452114 0.3549206782 -0.0005651636376)
(0.1367461344 0.3094789709 -0.0004932136221)
(0.1074739525 0.2946419485 -0.0004692715782)
(0.05430283742 0.2459574611 -0.0003918009808)
(0.1025741944 0.2804352599 -0.0004459833408)
(0.1690380598 0.2144711526 -0.0003411063929)
(0.1462641878 0.2620605154 -0.0004176005162)
(0.1710324423 0.217569594 -0.0003462723485)
(0.133117876 0.1351906641 -0.000215567528)
(0.1621907004 0.1808219706 -0.0002880297984)
(0.1414583167 0.1495131812 -0.0002379500328)
(0.0604027523 0.06002654353 -9.544160547e-05)
(0.1146322759 0.118384634 -0.0001881599086)
(0.07789168888 0.07970779024 -0.000126870845)
(1.133674811e-07 6.805948359e-08 -1.08252065e-10)
(0.01951759927 0.01975657515 -3.148433206e-05)
(4.493869176e-06 4.218464343e-06 -6.719377282e-09)
(1.36899413e-10 3.766496381e-11 -5.979429993e-14)
(1.293557368e-10 5.10551178e-11 -8.123588067e-14)
(1.602817387e-10 6.503442608e-11 -1.035518139e-13)
(1.96345885e-10 7.018030872e-11 -1.119546451e-13)
(1.9517318e-10 8.1851e-11 -1.303705865e-13)
(2.31356093e-10 1.001683015e-10 -1.593064512e-13)
(2.667491697e-10 1.274225951e-10 -2.026230524e-13)
(2.78728603e-10 1.209109584e-10 -1.922680304e-13)
(3.055667424e-10 1.35304402e-10 -2.147355617e-13)
(3.298837882e-10 1.888759615e-10 -3.005301272e-13)
(3.207391026e-10 1.526177764e-10 -2.431504201e-13)
(3.566388526e-10 1.656016633e-10 -2.63206031e-13)
(4.442115204e-10 2.754704864e-10 -4.385718662e-13)
(3.769469426e-10 2.176251788e-10 -3.463307903e-13)
(4.341853281e-10 3.457606743e-10 -5.509986038e-13)
(6.909999534e-10 3.204241536e-10 -5.085857635e-13)
(6.865919106e-07 4.430658153e-07 -7.068798047e-10)
(3.853156278e-05 -1.130282808e-06 1.806849578e-09)
(0.6843663369 -0.1778461285 0.000282705665)
(0.5117293908 -0.3312304219 0.0005284121783)
(0.5757929144 -0.2684836813 0.0004283084442)
(1.079108671 0.9557322193 -0.001524244307)
(1.00426534 2.214846545 -0.003529939282)
(0.9571941124 0.9407225238 -0.001500576243)
(0.04783730123 0.2441092439 -0.0003886699985)
(0.04689501889 0.2685377683 -0.0004281603649)
(0.04912910655 0.2622724499 -0.0004181100604)
(0.1095570303 0.2844636331 -0.000453442795)
(0.07825292051 0.290581289 -0.000463117295)
(0.1153257548 0.2960454402 -0.0004722225857)
(0.1629802906 0.2194459292 -0.0003496268024)
(0.1417752257 0.2584899534 -0.0004118357477)
(0.1490909617 0.2199135113 -0.0003503630834)
(0.1417957549 0.1583552223 -0.0002523804828)
(0.1472616114 0.1909269072 -0.000303952651)
(0.1313244819 0.149061212 -0.0002371428587)
(0.08223652529 0.08706338454 -0.0001386672952)
(0.1052210978 0.1195627884 -0.0001904283843)
(0.03987299416 0.06744828518 -0.0001074073796)
(6.051105473e-06 6.359516117e-06 -1.012247932e-08)
(-0.01746934361 -0.002701107884 4.312425693e-06)
(-0.0006344815284 -0.0001798370871 2.863092956e-07)
(1.837189145e-10 1.03077026e-10 -1.643992246e-13)
(3.943747863e-07 3.836157308e-07 -6.115639832e-10)
(2.055764059e-10 1.297414235e-10 -2.072461671e-13)
(2.532906551e-10 1.396426465e-10 -2.220217161e-13)
(2.468377419e-10 1.479794051e-10 -2.351123297e-13)
(2.833892378e-10 1.741320447e-10 -2.774798167e-13)
(1.734267363e-06 1.181261413e-06 -1.884583662e-09)
(3.242393888e-10 1.865518544e-10 -2.974720702e-13)
(1.327532133e-06 1.031456201e-06 -1.643129733e-09)
(-0.08680008675 0.08058815505 -0.0001284831727)
(-0.00478640045 0.005490548726 -8.738168834e-06)
(-0.1045364626 0.1161340045 -0.0001847720695)
(-0.5478130049 0.5075539144 -0.0008081697145)
(-0.2939760714 0.3712207961 -0.0005908101617)
(-0.4449639186 0.7421280552 -0.001183714674)
(-0.9431853015 0.9501351714 -0.001512198928)
(-0.6385735801 1.107478826 -0.001763467612)
(-0.692045307 1.150129948 -0.001831059812)
(-0.7499182487 1.606446787 -0.002558866985)
(-0.7230702499 1.146415677 -0.00182435616)
(-0.7843268416 1.117522796 -0.001780280758)
(0.1059297171 0.3415035433 -0.0005442046423)
(0.1049035055 0.3431623514 -0.0005462705792)
(0.05500742078 0.2961544927 -0.000471443734)
(0.04779060149 0.327178769 -0.0005207124789)
(0.03005970574 0.3028987571 -0.0004823219333)
(0.1120632968 0.2968167342 -0.0004723850135)
(-0.212785523 0.06505911978 -0.00010366478)
(-0.3611229355 -0.06680694089 0.0001068232791)
(0.1313942737 0.1327222253 -0.0002112083112)
(-0.3836002332 -0.08011918442 0.0001270041046)
(-0.4507826489 -0.1275819675 0.0002034000589)
(-0.1518555796 0.3962503192 -0.0006309047824)
(-0.5133306577 -0.1445585404 0.0002297485206)
(-0.5487923499 -0.07288095053 0.0001164413841)
(-0.4314641533 -0.1177076934 0.0001877578555)
(-0.7572607028 -0.1617305444 0.0002572222822)
(-0.6852862586 -0.1548705718 0.0002474861396)
(-0.1539013756 -0.04567592263 7.291056343e-05)
(-0.6334799847 -0.1505250241 0.0002393675997)
(-0.5397220937 -0.1410930256 0.0002246104137)
(1.753336295e-06 1.868277531e-06 -2.972349227e-09)
(-0.3655436962 -0.1028095079 0.0001634700167)
(-0.03130285981 -0.006312097448 1.000716111e-05)
(3.145856685e-10 2.461642722e-10 -3.921887379e-13)
(0.0005834683451 6.386577504e-05 -1.021328573e-07)
(0.0007265825601 0.0001046579909 -1.672102976e-07)
(-0.003791423742 0.005424417377 -8.648111715e-06)
(0.002420677096 0.002023331675 -3.225180725e-06)
(-0.05647668149 0.1062438719 -0.0001691047299)
(-0.2249597974 0.3333416999 -0.0005314551562)
(-0.2092099804 0.347250357 -0.0005526393906)
(-0.3278150249 0.5684237287 -0.0009051228274)
(-0.4343863012 0.7231481292 -0.001151893217)
(-0.4183164107 0.6915087167 -0.001099774556)
(-0.4011255966 0.5326166604 -0.0008476851489)
(-0.4550197933 0.7578488557 -0.001206987422)
(-0.3787747101 0.4390823261 -0.0007007538553)
(-0.3753122528 0.4822590889 -0.000767217971)
(-0.4352629241 0.5997938388 -0.000954616657)
(-0.3630160667 0.5093770685 -0.0008107409147)
(-0.3197729366 0.4212698324 -0.0006704153964)
(0.102319876 0.2505019693 -0.0003992358506)
(-0.3822839792 -0.1042218581 0.0001657531075)
(-0.4272794015 -0.07885740467 0.000126535907)
(-0.5028878482 -0.08539460051 0.0001366357076)
(-0.5469144365 -0.1574693407 0.0002504734089)
(-0.4794638289 -0.1973993437 0.0003150949509)
(-0.5596940511 -0.1788120781 0.0002834585867)
(-0.5761663354 -0.1904283297 0.0003046446211)
(-0.5099602869 -0.2362834003 0.0003757606547)
(-0.601279127 -0.1971245476 0.0003131887192)
(-0.6316394264 -0.1907447607 0.0003044858346)
(-0.7034166607 -0.1884904261 0.0003012460699)
(-0.6819667806 -0.1685130632 0.0002694526086)
(-0.7690436854 -0.1217520789 0.0001932755634)
(-0.7902622188 -0.1109348181 0.0001775991311)
(-0.8511146168 -0.0536022645 8.420216466e-05)
(-0.8396882309 -0.07149232218 0.0001151865912)
(-0.7525418068 -0.1220152587 0.0001938424627)
(-0.7946671047 -0.1163512857 0.0001851754002)
(-0.7781425238 -0.1317022304 0.0002092130411)
(-0.5055352051 -0.08322882814 0.0001319481369)
(-0.744674246 -0.129153794 0.0002063006254)
(-0.5913811498 0.09960724113 -0.0001592589576)
(0.07672105928 -0.01576634861 2.50554404e-05)
(-0.3758717487 0.6343748409 -0.001010920273)
(-0.3609739497 0.6206500167 -0.0009875783999)
(-0.22785232 0.4183938526 -0.0006674348492)
(-0.3393297255 0.5774136661 -0.0009179328145)
(-0.3726686783 0.566413912 -0.0009015702828)
(-0.3974237008 0.6344285583 -0.001011756864)
(-0.392071692 0.5387566998 -0.0008568156844)
(-0.3794282232 0.4730703037 -0.0007532524364)
(-0.2982017757 0.3776101998 -0.0005920843219)
(-0.3589450853 0.3963423043 -0.0006267673851)
(-0.3427665178 0.3226026803 -0.0004028919575)
(-4.603821743 -0.421353531 -7.57090112)
(-4.32324721 -1.113921208 -7.202270497)
(-3.330409177 -0.4385996413 -7.944345881)
(-3.694011843 -1.151374724 -7.441560785)
(-3.09181066 -1.174237928 -7.671001289)
(-2.518329571 -0.4373147122 -8.123727433)
(-2.574980579 -1.218270713 -7.877100048)
(-2.190186904 -1.233323674 -8.002135785)
(-2.426722352 -0.4176104529 -7.933678592)
(-2.021202064 -1.221333507 -7.905086571)
(-1.962687092 -1.164541011 -7.588190908)
(-1.511176018 -0.4008941741 -7.9640379)
(-1.481828807 -1.164246064 -7.559909554)
(-0.9340999212 -1.171297194 -7.512726392)
(-0.606008273 -0.4017566739 -8.014549915)
(-0.4326945414 -1.180046647 -7.488738104)
(0.03317798325 -1.180100506 -7.490944541)
(0.2931255922 -0.4101298614 -8.047294575)
(0.4817827425 -1.167630916 -7.505726683)
(0.9478082643 -1.162561353 -7.488072305)
(1.269076806 -0.3337203416 -7.733989555)
(1.264924419 -1.181908105 -7.533804362)
(1.909767535 -1.114475748 -7.235540907)
(2.272652418 0.04113089754 -8.487096943)
(2.237956323 -0.9593473877 -7.507999853)
(2.655454047 -0.6552065376 -7.536919185)
(0.2882458916 -0.6933502645 -4.566130037)
(0.2018284118 -0.6582350248 -4.484344214)
(0.145282567 -0.6708087579 -4.388658983)
(0.2512645716 -0.6427164513 -4.143690056)
(0.3997229606 0.3272337491 -4.517052773)
(0.5860406653 -0.05146287466 -3.84828865)
(-4.096064393 -1.7344207 -6.804163306)
(-2.948398109 -1.859345175 -7.351347391)
(-1.955256755 -1.965723289 -7.849788475)
(-1.448267867 -1.837052535 -7.258683418)
(-0.2548678584 -1.780907957 -7.048872967)
(0.7829003944 -1.73349206 -6.943941756)
(1.70764154 -1.740159474 -6.873801136)
(2.651221399 -1.671448574 -6.657446541)
(-3.962116114 -2.434072599 -6.339086641)
(-3.425040467 -2.544404848 -6.616167847)
(-0.9781175492 -2.677820236 -6.915630657)
(-0.2664312425 -2.60965856 -6.730842578)
(0.3963757692 -2.560160466 -6.58518069)
(0.963197452 -2.519600566 -6.480075057)
(3.371409522 -2.320131012 -6.058946636)
(3.413015635 -1.189286246 -6.688455752)
(3.722916346 -2.024850004 -6.084703826)
(4.257287069 -1.584364734 -6.022550259)
(0.3835965747 -1.063916022 -4.257760444)
(4.335306474 -1.213450176 -6.199343286)
(0.3797027813 -1.032642526 -3.98250296)
(0.5891209909 -1.349402179 -3.701345029)
(0.682268076 -1.18622347 -3.429531912)
(-3.830650585 -2.941081952 -5.590989377)
(-2.857062974 -3.264315173 -6.217484086)
(-1.686711664 -3.696599217 -7.063213416)
(-2.350172934 -4.104786689 -5.984965762)
(-1.695605114 -4.427292602 -6.461965906)
(-0.0007583306455 -3.37982382 -6.480861532)
(-0.8666528364 -4.763813966 -6.948182328)
(1.614367832 -3.111907312 -5.966049178)
(2.805635792 -2.958195056 -5.625713681)
(2.840258433 -3.620706309 -5.302394051)
(3.442018582 -3.506472093 -5.123226051)
(3.820736177 -2.815901837 -5.376040631)
(3.99154516 -3.399899779 -4.968956746)
(4.496239652 -3.302797357 -4.834202513)
(4.717664262 -2.671974824 -5.162735823)
(5.161964084 -1.7910422 -5.49260512)
(0.7684060618 -1.650863232 -3.390980658)
(6.10865555 -1.708410048 -5.322906516)
(0.8720155634 -1.410791404 -3.102050442)
(1.015709717 -1.584348022 -2.763077357)
(1.084334604 -1.468798816 -2.643199824)
(1.461104559 -0.5010306444 -2.150029934)
(-3.902600393 -3.702200825 -4.040091272)
(-1.860629957 -5.233258945 -4.229269236)
(1.32943614 -4.960473972 -5.402871234)
(-0.5609670522 -6.089926862 -4.924319359)
(5.078693989 -4.572373128 -3.693888731)
(5.839470499 -4.319967232 -3.495691098)
(5.813895011 -3.687095792 -4.008823643)
(6.496939636 -4.104448816 -3.312045939)
(7.069353492 -3.905284011 -3.158583073)
(6.734356191 -3.394895896 -3.77046633)
(7.571812835 -3.737020977 -3.00991544)
(7.199061981 -2.307962694 -4.505289965)
(9.26034467 -1.619341842 -4.524413896)
(1.644013733 -0.5418525979 -1.324300043)
(-3.489178214 -3.820806123 -1.884218717)
(-2.112484082 -4.727206591 -2.330680336)
(7.348248843 -4.008043511 -1.97233945)
(10.19378749 -2.194634545 -3.12423769)
(1.537052852 -0.796006752 -0.8451926099)
(-1.108675573 -0.0439098683 7.00168173e-05)
(-3.922276043 -0.01549187848 -8.456252237)
(-0.9296871854 -0.03666227435 5.84781207e-05)
(-3.143906693 -0.01511066743 -8.478002398)
(-0.7539567451 -0.02875095052 4.641274413e-05)
(-2.855538436 -0.01504439362 -8.520946174)
(-0.582595172 -0.02144888123 3.327955247e-05)
(-2.293995222 -0.01491575291 -8.613447958)
(-0.4170032775 -0.01448460864 2.264694557e-05)
(-1.50879602 -0.01461300169 -8.683425699)
(-0.2599389095 -0.006273349039 1.05342977e-05)
(-0.7545108573 -0.01436697474 -8.783881307)
(-0.1134141866 -0.00898154447 1.422417132e-05)
(-0.07662509343 -0.01409224897 -8.842902953)
(0.1276399548 -0.0205056456 3.341709427e-05)
(0.8422895275 0.06131741358 -9.898915519)
(1.622139022 0.5599328637 -7.629865936)
(0.1927696561 -0.04136459556 0.0001377495103)
(2.397199717 0.6349710038 -9.60519848)
(-0.5423600521 0.046658704 -7.328499057e-05)
(-0.4368998255 0.04664293318 -7.339063139e-05)
(-0.3484077218 0.04676432741 -7.462103783e-05)
(-0.243371693 0.0468199217 -7.499312733e-05)
(-0.1050945666 0.04828605188 -7.687337768e-05)
(-0.04371226052 0.05010129502 -7.973415575e-05)
(0.02380231034 0.05260112485 -8.382442076e-05)
(0.1118113541 0.05631586751 -9.000164251e-05)
(0.2577637399 0.05586082702 -8.873081552e-05)
(0.4403654695 0.072876932 -5.380889519e-05)
(0.766203069 0.249442835 -0.0004820338737)
(0.4835119486 0.3655777994 -6.075343269)
(0.9989226887 0.3692491562 -0.0005879185985)
(0.3558652843 0.2633444026 -5.920581554)
(0.0173742968 0.3791346331 -0.0006035830765)
(0.115531858 0.2822190938 -0.0004493114543)
(-0.002366534039 0.0002937848525 -4.73006344e-07)
(-0.0007903975331 0.0001770230768 -2.811586293e-07)
(0.003927664422 0.0009278519545 -1.484002028e-06)
(0.0267607502 0.004454318813 -7.128153016e-06)
(0.05048842746 0.007537647965 -1.200901504e-05)
(0.06974469072 0.009128263619 -1.465244034e-05)
(0.09021324594 0.01027490493 -1.644580204e-05)
(0.1575544103 0.01187097785 -1.90126089e-05)
(0.5180677142 0.03530407686 -5.64835919e-05)
(1.251727538 0.2697891344 -0.0004329794959)
(1.325344005 0.3339507715 -0.0005320197643)
(0.7069226227 0.7671271023 -6.356650945)
(0.703750115 1.098953805 -6.513264012)
(1.372516876 0.6917303044 -0.001098773232)
(0.2831163907 0.3046001777 -0.00048557108)
(0.1443476936 0.4378865904 -0.0006970528142)
(0.147392366 0.2928456335 -0.0004661977408)
(0.01044480426 0.01028884969 -1.639866414e-05)
(5.649804317e-11 -8.883120473e-11 1.415836505e-13)
(5.237208864e-11 -7.626293659e-11 1.215525472e-13)
(1.064009965e-10 -9.353233082e-11 1.487945745e-13)
(1.28257819e-10 -8.517186399e-11 1.356240703e-13)
(1.310032324e-10 -7.427145485e-11 1.18283407e-13)
(2.311914777e-10 -6.921015682e-11 1.102432319e-13)
(4.11926563e-06 -4.348219928e-08 6.48029227e-11)
(0.6111309197 0.143704852 -0.0002297851857)
(1.943801203 0.5914454755 -0.0009392695496)
(1.419158352 0.7372222394 -0.001172475983)
(0.297546996 0.3370177419 -0.0005369649965)
(0.1854680852 0.3628872868 -0.0005774462487)
(0.141524874 0.3126372398 -0.0004972853398)
(0.1254222394 0.1264371593 -0.0002017661354)
(0.0317293923 0.0303025157 -4.831867849e-05)
(3.625357768e-09 -1.790824106e-11 2.905345384e-14)
(8.310810301e-11 -2.608462149e-11 4.155372098e-14)
(1.182841442e-10 -1.294575177e-11 2.080076952e-14)
(1.57181363e-10 7.703023705e-12 -1.202265047e-14)
(2.073779552e-10 3.510545204e-11 -5.634207352e-14)
(2.822562244e-10 6.376623106e-11 -1.019935277e-13)
(2.807838454e-06 9.411153942e-07 -1.495043371e-09)
(1.014532962 0.3613133033 -0.0005754350349)
(1.466514889 0.6578776606 -0.001044800761)
(0.2440494663 0.3562646091 -0.0005668147727)
(0.0966749674 0.2908079474 -0.0004635330432)
(0.1377675703 0.2714884746 -0.0004320030433)
(0.1595627105 0.1694868522 -0.0002697494416)
(0.1029587987 0.1029479047 -0.0001640322877)
(0.005169536218 0.005060306161 -8.047617862e-06)
(1.130176921e-10 2.587256581e-11 -4.144634357e-14)
(1.649287806e-10 5.181740776e-11 -8.264399879e-14)
(2.295017772e-10 9.28251229e-11 -1.484139374e-13)
(2.960230919e-10 1.556385872e-10 -2.485310192e-13)
(3.874570428e-10 2.374096393e-10 -3.773430831e-13)
(4.652557802e-10 2.92991012e-10 -4.669163707e-13)
(0.5200863011 -0.229347909 0.0003644946592)
(1.434548025 0.9963358872 -0.001583379295)
(0.1430666222 0.3327602665 -0.0005294106015)
(0.07119244336 0.2675060177 -0.0004262436363)
(0.1504459537 0.2603841677 -0.0004148308357)
(0.1571892314 0.1869718134 -0.000298246919)
(0.1172322922 0.1247117314 -0.000198852391)
(0.02411225661 0.02527546898 -4.024217397e-05)
(1.501734148e-10 8.804824979e-11 -1.402126114e-13)
(2.186048275e-10 1.212002323e-10 -1.933988417e-13)
(2.806285375e-10 1.558829105e-10 -2.48340625e-13)
(-0.003584928348 0.003673288958 -5.853985763e-06)
(-0.3235901173 0.2988184166 -0.0004769680293)
(-0.7879576006 0.7402445707 -0.001177443366)
(-0.9039548496 1.386077953 -0.002206496551)
(-1.027522129 1.331881566 -0.002120534217)
(0.03590514104 0.2781291691 -0.0004425861356)
(0.08249018771 0.3207253885 -0.0005102746847)
(0.1281572358 0.2161511114 -0.0003437154444)
(0.05777283067 0.1581605714 -0.0002518143787)
(-0.4841619845 -0.1204638733 0.0001919292885)
(-0.3211863733 -0.09088138692 0.0001447140251)
(-0.01515858264 -0.004409990049 7.022968685e-06)
(9.300030534e-09 7.151197549e-09 -1.136690029e-11)
(6.290753224e-07 5.143769886e-07 -8.18859796e-10)
(-0.09657342957 0.1335226952 -0.0002127259179)
(-0.3556920258 0.6091475831 -0.0009693703679)
(-0.4656062992 0.7332093484 -0.001166858978)
(-0.4720804183 0.7151582017 -0.001139993856)
(-0.3425546158 0.442174702 -0.0007044241057)
(0.2525152694 0.1301592484 -0.0002076581662)
(-0.3403148339 0.02323917642 -3.727099273e-05)
(-0.4657904772 -0.1398258863 0.0002217846156)
(-0.4809289725 -0.2289091767 0.0003633500401)
(-0.5750358722 -0.2232488375 0.0003556556812)
(-0.8255097414 -0.1171288092 0.0001857093442)
(-0.7749110273 -0.1167124207 0.0001859088262)
(-0.6915856054 -0.1265266177 0.000201245626)
(0.04854651843 -0.01538709864 2.443276927e-05)
(0.07561126525 0.04554983156 -7.261910348e-05)
(-0.3334157942 0.5722252314 -0.0009128220207)
(-0.3642485214 0.5310115845 -0.0008447415033)
(-0.2221544032 0.2444798895 -0.0003866049263)
(-0.09532236575 0.07379193609 -0.0001174966824)
(-0.5231151231 -0.1406212256 0.0002239771658)
(-0.649967945 -0.1583255043 0.0002509611231)
(-0.7463961717 -0.1590349349 0.0002525990054)
(-0.8005898489 -0.1272846217 0.0002026946314)
(-0.8150314178 -0.102993045 0.0001641105256)
(-0.7942815319 -0.1411647022 0.0002251228318)