/*--------------------------------*- C++ -*----------------------------------*\
  =========                 |
  \\      /  F ield         | OpenFOAM: The Open Source CFD Toolbox
   \\    /   O peration     | Website:  https://openfoam.org
    \\  /    A nd           | Version:  8
     \\/     M anipulation  |
\*---------------------------------------------------------------------------*/
FoamFile
{
    version     2.0;
    format      ascii;
    class       volScalarField;
    location    "1.6";
    object      alphat;
}
// * * * * * * * * * * * * * * * * * * * * * * * * * * * * * * * * * * * * * //

dimensions      [1 -1 -1 0 0 0 0];

internalField   nonuniform List<scalar> 
67451
(
0.000177871145
0.000178683037
0.0001711315887
0.0001825599957
0.0002015719717
0.0002184253951
0.0002400790986
0.0002692636236
0.0002995248374
0.000325861718
0.0003397494664
0.0002165849451
0.0002096753956
0.0002040496834
0.000196857325
0.0001881406135
0.000179403661
0.0001767348063
0.0001958958089
0.0002163036188
0.0002337540144
0.0002551684771
0.0002850479213
0.0003211478319
0.0003476085514
0.0003624050211
0.0003589971315
0.0003442686856
0.0003914615456
0.0005022248653
0.0005973924819
0.0006696100753
0.0007533506198
0.0008287498464
0.0008805841304
0.0008560756937
0.0007012068059
0.000231426649
0.0002224260286
0.0002192468195
0.0002188456623
0.0002159859154
0.0002085550603
0.0001982047463
0.0001877915849
0.0001830171097
0.0002047985181
0.0002275041192
0.000244979147
0.0002638784449
0.000293100617
0.0003358711989
0.0003512940202
0.000370561962
0.0003723962231
0.0003514625856
0.0003186012716
0.0003430863213
0.0004792266526
0.0005942848624
0.0006940937794
0.0008012087656
0.0008208897567
0.000744114712
0.0005872127284
0.0002316042915
0.0002247193079
0.0002258887369
0.0002287125813
0.0002264165616
0.0002179741569
0.0002064571039
0.000195898809
0.0001885994488
0.0002088782011
0.0002348011555
0.0002527781882
0.0002670693384
0.0002825727895
0.0003042731877
0.0003301708315
0.0003542085747
0.000356794487
0.0003312366153
0.0002873448636
0.000273849177
0.000362902496
0.0004734412724
0.0005540714749
0.0006701329703
0.0006782805083
0.0006095289601
0.0004694190129
0.0002295328057
0.0002310772699
0.000234141527
0.0002312181695
0.0002223928172
0.0002120057588
0.0002071894926
0.0001961358698
0.000208465696
0.0002380294213
0.0002588625816
0.0002739685102
0.000283006465
0.0002897213414
0.0002980767056
0.000308929478
0.0003192774819
0.0002968781754
0.0002664021172
0.0002453177675
0.0002714330681
0.0003512206773
0.0004086866116
0.000515543246
0.0005357289193
0.0004601894993
0.0003420310503
0.0002302849634
0.0002301115523
0.0002312600022
0.0002281279927
0.0002213040393
0.0002167153571
0.0002320707344
0.0002135144651
0.0002066275418
0.0002365218412
0.0002616754816
0.0002812102356
0.0002913871671
0.000292808746
0.0002931815034
0.0002912895266
0.0002876564206
0.0002714118638
0.0002603377106
0.0002616617046
0.0002612326675
0.0002689354405
0.0002849223072
0.0003552898902
0.0003845699736
0.000320717603
0.0002416747358
0.0002258163891
0.0002251931935
0.0002245044642
0.000222139421
0.000218715754
0.0002175167203
0.0002686221296
0.0002546394708
0.0002107693674
0.000230856982
0.0002637601303
0.0002929710508
0.000309570066
0.0003006971208
0.000294828562
0.0002933429335
0.000288471423
0.0002827965451
0.0002863417181
0.0002935937236
0.0002931775288
0.0002802713121
0.0002629836999
0.0002625817256
0.0002713504955
0.000238699169
0.0001934234003
0.0002273961573
0.0002253653079
0.0002233010687
0.0002213146237
0.0002193316007
0.0002177371573
0.0002173160676
0.0002918846065
0.0002167820237
0.0002261608022
0.0002722166107
0.0003189787145
0.0003429277644
0.0003239557409
0.0003057882416
0.0002980686021
0.0002979058877
0.0003062546483
0.00031809487
0.0003249167385
0.000324280287
0.0003140381949
0.0002942718869
0.0002678128262
0.0002431132804
0.0002165526919
0.0001784939295
0.000240154277
0.0002327214738
0.0002280252455
0.0002252457453
0.0002238845185
0.0002248430368
0.0002207252209
0.0002167539477
0.0002065382386
0.0002338175267
0.0002938883052
0.0003502084204
0.0003798012051
0.0003609985874
0.0003311294988
0.000305254428
0.0002991756097
0.000315091326
0.0003304757289
0.0003379351895
0.000339075593
0.0003336343222
0.0003197281811
0.0002946674544
0.0002634844688
0.000229925701
0.0001824620643
0.0002677575616
0.0002457504669
0.0002356466206
0.0002309643813
0.0002303077189
0.0002392701875
0.0002339729809
0.0002231878545
0.0002132006052
0.0002107879765
0.000253835306
0.0003174517391
0.0003624395862
0.0003473255495
0.0003188556413
0.0002934336627
0.0002924292762
0.0003165587867
0.0003342726191
0.0003423771885
0.0003446804974
0.0003414960466
0.0003311547954
0.0003112263367
0.0002823938544
0.0002491387872
0.000195627463
0.0002610928805
0.0002495975739
0.0002407286158
0.0002357445854
0.0002368807806
0.0002614735708
0.0002565809514
0.0002373565251
0.0002233344655
0.0002129943967
0.0002220440346
0.0002682557214
0.0003271901654
0.0003163860708
0.0002929480808
0.0002740455667
0.0002797314948
0.0003110574224
0.0003319373096
0.0003414540513
0.0003448730663
0.000342885309
0.0003342046014
0.0003170278594
0.0002910087718
0.0002600526171
0.0002056026908
0.0002736324379
0.000257800556
0.0002464703646
0.0002400677382
0.0002383793907
0.0002553775495
0.0002515102327
0.0002390817886
0.0002294405078
0.0002202795317
0.0002166065508
0.0002355386375
0.0002827081472
0.0002802910898
0.0002662214699
0.0002556984959
0.0002640186569
0.0002981149169
0.0003233514178
0.0003353458822
0.0003401077162
0.0003388922656
0.0003309086637
0.0003149460884
0.0002908692186
0.0002618468981
0.000208501291
0.0002954996339
0.0002730365988
0.0002563924382
0.0002465069396
0.0002422220465
0.0002412560555
0.0002412089979
0.0002396249925
0.0002351053761
0.000228246199
0.0002211235731
0.0002236439668
0.0002469269437
0.0002506955166
0.0002463761552
0.0002426265916
0.0002497452811
0.0002788391723
0.0003077973343
0.0003232867015
0.0003298438028
0.0003293730116
0.0003217310402
0.0003063661254
0.000283911768
0.0002564840739
0.0002052380211
0.0003121364753
0.0002893456167
0.0002692386688
0.0002548907133
0.0002474184459
0.0002448157237
0.0002447175212
0.000244459677
0.0002419526436
0.0002354507657
0.0002276889753
0.0002232482531
0.000229613018
0.0002341956221
0.000234828226
0.0002337882483
0.0002379352362
0.0002577893231
0.0002860072655
0.0003048198177
0.0003136021379
0.0003141371672
0.0003069465111
0.0002922566606
0.0002717521299
0.0002456613804
0.0001974657509
0.0003302965485
0.0003080719924
0.0002853783386
0.0002657718302
0.000253138776
0.0002477425991
0.0002465321158
0.0002461933855
0.000244570305
0.0002401097557
0.0002325954064
0.0002261122375
0.0002245848299
0.0002263937686
0.0002279981545
0.0002279339005
0.0002293897191
0.0002404699209
0.0002616655742
0.000281117778
0.000291824048
0.0002936465581
0.0002873326605
0.0002740344923
0.0002554470963
0.0002308344654
0.0001869835301
0.0003271290675
0.0003029507611
0.0002794337357
0.0002612553417
0.0002510304064
0.0002479637457
0.000247811595
0.0002473319784
0.0002455731189
0.0002420151127
0.0002359395377
0.0002289436286
0.0002243158657
0.0002230590551
0.000223582377
0.0002236621653
0.0002236564613
0.0002281952147
0.0002409537804
0.0002562441068
0.0002668235881
0.0002696775057
0.0002648756801
0.000253414947
0.0002362071557
0.000213796077
0.0001758233347
0.0003168225262
0.0002923192978
0.0002730958098
0.0002606553134
0.0002536399506
0.0002542795311
0.0002555044919
0.0002530518636
0.0002484731196
0.0002434385617
0.0002376700533
0.0002307116189
0.0002250562684
0.0002217666105
0.0002206434379
0.0002201919504
0.0002195312592
0.000220368261
0.0002259505346
0.0002352891298
0.0002432930492
0.0002459435084
0.0002418887397
0.0002314155186
0.0002157566189
0.0001969333671
0.0001658455655
0.0003013665917
0.0002782976722
0.0002709885889
0.0002669917762
0.0002596261606
0.0002604700369
0.0002612378075
0.0002566405869
0.0002495648507
0.0002431038661
0.0002374222776
0.0002312814582
0.0002257257266
0.0002217740239
0.0002194547461
0.0002180024492
0.0002165892017
0.0002154817785
0.0002163588172
0.0002198964255
0.0002237805811
0.0002245654705
0.0002201218359
0.0002102453524
0.0001967058895
0.0001825457129
0.0001579798495
0.0002861312148
0.0002678294685
0.0002654783485
0.0002635313925
0.0002562566531
0.0002552778667
0.0002550725378
0.0002508094716
0.0002447358784
0.0002395025211
0.0002351709079
0.0002306318084
0.0002269234447
0.0002250143376
0.0002237444091
0.0002214813397
0.0002180009218
0.0002142173608
0.0002113758109
0.0002101931791
0.0002097427254
0.0002077286581
0.0002021593764
0.0001927259946
0.0001815482366
0.0001717576205
0.0001520660243
0.0002757107803
0.0002646136086
0.0002665400971
0.0002689687369
0.0002656309773
0.0002612151623
0.0002556328076
0.0002483350089
0.000241294843
0.0002361118891
0.0002324591866
0.0002299108099
0.0002316685058
0.000240590854
0.0002488173295
0.0002480139346
0.0002390957618
0.0002269293038
0.0002156841112
0.0002074346375
0.0002017305041
0.0001964353642
0.0001894899802
0.0001804547118
0.0001712770115
0.0001643719674
0.0001474522762
0.000271781045
0.0002697408916
0.0002827003183
0.0002960282075
0.0002999284959
0.000293937527
0.0002812331471
0.0002655550792
0.0002507012191
0.0002395810759
0.0002325631741
0.0002301809794
0.0002395039435
0.0002651443977
0.0002854673982
0.0002888329489
0.0002767623041
0.0002555611811
0.0002336297071
0.0002149017944
0.0002010508064
0.0001908922594
0.000181987037
0.0001731177261
0.0001653018939
0.0001596819708
0.0001436420142
0.0002745659588
0.0002796835485
0.0003054686899
0.0003267611792
0.000333210455
0.0003264513989
0.0003107288041
0.0002899779622
0.0002679209565
0.0002489918278
0.000235874001
0.0002307984203
0.0002435413103
0.0002804040753
0.0003072247051
0.0003129190959
0.0003010307328
0.0002776522299
0.0002504025757
0.0002251155819
0.0002047834669
0.0001901025421
0.0001791599434
0.0001700804619
0.00016279533
0.000157176781
0.000140500735
0.0002923742912
0.0002923566844
0.0003235885043
0.0003475315412
0.000353776684
0.000346322056
0.0003297603493
0.0003074655235
0.0002821901428
0.0002581945821
0.0002397054137
0.0002305990303
0.0002409194378
0.0002796220443
0.0003087617046
0.0003156950677
0.000304590297
0.0002816902358
0.0002546866434
0.0002294151145
0.0002089144755
0.0001939047362
0.0001824237234
0.0001725288918
0.0001640573141
0.0001567645959
0.0001381092751
0.0003311097257
0.0003118268991
0.0003332302385
0.0003557456369
0.0003616233455
0.0003539859531
0.000337381211
0.0003149056608
0.0002886952745
0.0002625978654
0.0002411082882
0.000228785173
0.0002337410738
0.0002654946527
0.0002933281522
0.000300870201
0.0002911253711
0.000271058995
0.000249499942
0.000230900864
0.0002167219608
0.0002053581945
0.0001942835162
0.0001823762129
0.0001703279358
0.0001589228448
0.0001366827871
0.0003634891345
0.0003304369239
0.0003346887814
0.0003526692202
0.0003585268985
0.0003513752642
0.0003352473757
0.0003130902198
0.0002870325389
0.0002606683541
0.0002385587288
0.0002249902293
0.0002248295687
0.0002457574687
0.0002678077012
0.0002752658296
0.000268928146
0.0002568996151
0.0002458121711
0.0002378468665
0.0002311723234
0.0002228556604
0.0002114272956
0.0001970507624
0.0001808234732
0.0001639592058
0.0001365050576
0.0003776337256
0.0003397246071
0.0003297136518
0.0003410825081
0.0003466312007
0.0003403351719
0.0003249974525
0.0003034352944
0.0002782353799
0.0002528435456
0.0002321661908
0.0002193786134
0.0002160761057
0.0002272731094
0.0002425019247
0.0002503315392
0.0002510564363
0.0002501590622
0.0002505056428
0.000250596401
0.0002474161389
0.0002393566011
0.000226735784
0.0002104391667
0.0001912431154
0.0001698448578
0.0001369523127
0.0003739722371
0.0003364825314
0.00031986257
0.0003241692095
0.0003283346742
0.0003226785902
0.0003083464622
0.0002878944425
0.0002639586989
0.0002409272771
0.0002233299639
0.0002126441437
0.0002081905062
0.0002126447693
0.0002230288892
0.0002334340312
0.0002427003305
0.0002515803738
0.0002588568829
0.0002619299984
0.0002588106415
0.0002498296669
0.0002356010314
0.0002180382588
0.0001970501782
0.0001726912986
0.0001358802742
0.0003554064008
0.00032120614
0.0003039817987
0.0003050197217
0.0003072061136
0.0003015608719
0.0002879918951
0.0002687146498
0.0002471693331
0.0002278847777
0.0002140487616
0.0002055912643
0.0002010092517
0.0002018362284
0.0002098178929
0.000223394521
0.0002387981741
0.0002523903065
0.0002615133317
0.0002643616662
0.0002601298436
0.0002500658952
0.0002378931246
0.0002181348869
0.0001958093219
0.0001695990439
0.0001312303506
0.0003249824114
0.0002967031155
0.000283844353
0.0002847626851
0.0002856252621
0.0002796876617
0.0002669940088
0.0002499305942
0.0002319873924
0.0002166931
0.0002057480554
0.000198552811
0.0001938614509
0.000192767277
0.0001989645907
0.000213379673
0.0002307518342
0.0002451971971
0.0002537701
0.0002556864383
0.0002512946462
0.0002415562539
0.0002276484744
0.0002093257996
0.0001864812086
0.0001595575765
0.0001224998458
0.0002851801965
0.0002674909618
0.0002630867913
0.000265653405
0.0002656041344
0.0002596072949
0.0002484246468
0.0002342555215
0.0002197616781
0.0002071941213
0.0001975506798
0.0001905218244
0.0001853751946
0.0001827074349
0.0001858305474
0.0001972993378
0.0002131697416
0.0002269094505
0.0002349967672
0.0002367860876
0.0002328111965
0.0002238304582
0.0002103611885
0.000192175914
0.0001691353371
0.0001426759594
0.0001096641311
0.0002330688725
0.0002309729341
0.0002351775077
0.000238714914
0.0002380506842
0.000232841598
0.0002240727323
0.0002132231992
0.0002019274142
0.0001915740359
0.0001829130275
0.0001759451988
0.0001702848612
0.0001659805685
0.0001646473084
0.0001693283789
0.0001800332149
0.0001915215354
0.000199053405
0.0002012471937
0.0001984014293
0.0001910425875
0.0001794507349
0.0001635227239
0.000143008477
0.0001181067176
9.200298518e-05
0.0004717336246
0.0005118934722
0.0003954419485
0.0003543757136
0.0004241265187
0.0005364701488
0.0006020781499
0.0007129221358
0.0008950077006
0.001039739581
0.001098390157
0.0008647427809
0.0007752947208
0.0006988251348
0.0006220656641
0.0005482595994
0.0004912169579
0.0004014635876
0.000392261797
0.0005168609306
0.0006757430729
0.0007670954819
0.0008969871983
0.001057383553
0.001161619766
0.001208848131
0.00118191934
0.001082576167
0.0009829227015
0.001255717545
0.001658739057
0.001992758285
0.002246415341
0.002376562042
0.002326637731
0.002001617485
0.0005646043827
0.001129668976
0.001007336137
0.0009447619455
0.0009089011697
0.000856564983
0.0007715364086
0.0006674618437
0.0005503523186
0.0004404310785
0.0004364780903
0.0006112297876
0.0008078981237
0.0009202376127
0.001053953762
0.001195984968
0.001245541657
0.001277844838
0.001252467807
0.001144480345
0.0009483436241
0.0009313109206
0.00136318111
0.001790409874
0.002141279187
0.002282820108
0.002197620613
0.0016647527
0.000383936281
0.001143567902
0.001056112457
0.001042765513
0.001045224137
0.001006795737
0.0009077592949
0.0007780790079
0.0006436041463
0.0004970038114
0.0004761466011
0.0006776867431
0.0009063552628
0.001021569571
0.001120739338
0.00121988499
0.001278590475
0.001303632843
0.001271200191
0.001144830496
0.0008326117108
0.0005572492798
0.0005660507057
0.0007805563018
0.001195389033
0.001458352012
0.001257481169
0.0006820885491
0.0002768021634
0.001146031024
0.001139008342
0.001138580884
0.001096164545
0.0009944047482
0.0008900012701
0.000814764936
0.0006020415054
0.0005181460968
0.0007045589403
0.000967117361
0.001094038273
0.001182529719
0.001253327869
0.001308496076
0.001329030233
0.001286263055
0.001162363257
0.0008560224792
0.0006259478923
0.0005242725895
0.0005072124483
0.0005844962833
0.000702229972
0.0006749241857
0.0004691884959
0.0002145960478
0.001193745668
0.001184198402
0.001172660721
0.001125791103
0.001052261194
0.001061845376
0.001109597541
0.0008477582985
0.0005994491394
0.000708777477
0.001001558465
0.001164161022
0.00124923343
0.001302664101
0.001340350842
0.001355286525
0.001327064707
0.001225546589
0.001023264749
0.0008876260164
0.0007782451256
0.0006646471273
0.0006235367013
0.0006054373459
0.0005916933041
0.0004676155229
0.0001848378684
0.001187256329
0.001182284193
0.001163343865
0.001119585006
0.001076431177
0.001139787081
0.001432389856
0.00127381646
0.0007723311576
0.0007132088003
0.001023370018
0.00125105674
0.001336064485
0.001371871102
0.001380844613
0.001379710758
0.001363727099
0.001313825412
0.001227569827
0.001142174051
0.001058594495
0.0009360005847
0.0008146036149
0.0007060936154
0.000629475854
0.0004936691417
0.0001725578258
0.001194359104
0.001175133569
0.001143442038
0.001098496005
0.001048310348
0.001009277466
0.001108841344
0.001346744082
0.0007483455432
0.0007079129383
0.001080086064
0.001328100252
0.001406174066
0.001431717697
0.001421285905
0.001400731031
0.001376967755
0.001338186595
0.001286404567
0.001235653678
0.001186410022
0.001123413712
0.00102764859
0.0008546122489
0.0006775220742
0.00050040306
0.0001680432594
0.001321654274
0.001218739621
0.00115587789
0.001110363069
0.001075799066
0.001041491668
0.0009790841151
0.0008715472861
0.0007096467841
0.0007194942929
0.001066073722
0.001321756419
0.001407453555
0.001427449476
0.001418362646
0.001399208456
0.001371041042
0.00133215071
0.00129496704
0.001265422453
0.001237947292
0.001199115607
0.001127509312
0.000989334171
0.0007550234857
0.0005058380539
0.0001717994427
0.001491048158
0.001305633812
0.001195723727
0.001147192201
0.001147968031
0.001176806711
0.001110119545
0.0009419430721
0.0007952812046
0.000756680358
0.0009617797997
0.001276472731
0.001380438209
0.001410679816
0.001401459919
0.001375454008
0.001341164142
0.001303230307
0.001276762499
0.001261940007
0.001249608957
0.001225493297
0.001167752104
0.001046795455
0.0008310184669
0.0005260909052
0.0001793330923
0.001352799428
0.001263420928
0.001208147154
0.001182006917
0.001225505513
0.001285269971
0.001248663123
0.001108016649
0.0009286715603
0.0008293290616
0.0008935967949
0.001170709798
0.00129235958
0.001340948895
0.001338523831
0.00131344606
0.001284233005
0.001256252959
0.001242150732
0.001239352832
0.001237495662
0.001222058849
0.001171512421
0.001058668061
0.0008604458198
0.000539830234
0.000184959644
0.00127662107
0.001235188482
0.001203900319
0.001187993022
0.001209305237
0.001242489528
0.001228961798
0.001155245126
0.00103256389
0.0009307559958
0.0009067780653
0.001029625963
0.00117660283
0.001239663325
0.00124549812
0.001222988527
0.00120450841
0.001193898164
0.001193706519
0.001201262025
0.00120613374
0.001193912604
0.001144133412
0.001032389827
0.0008418440856
0.0005298902315
0.0001860609641
0.001205050304
0.001187891099
0.00117727169
0.001173419094
0.001179101142
0.001192267519
0.001190637114
0.001165043792
0.001109389499
0.001026105698
0.0009609408642
0.0009830216046
0.001066239598
0.001142237089
0.001154571223
0.001127737915
0.001107668143
0.001119417383
0.001130693314
0.001145049084
0.001152639408
0.001138787752
0.00108449477
0.0009690425692
0.0007792498137
0.0004957027278
0.0001829138165
0.001113522756
0.001116016099
0.001130229856
0.001145607499
0.001158689862
0.001170189176
0.001173533124
0.001163918122
0.001138933106
0.001093120054
0.001023045737
0.0009907393815
0.001011123254
0.001059760682
0.001079282339
0.001059674841
0.001029126208
0.001037881038
0.001053846942
0.001068786052
0.001073866186
0.001054044428
0.000992203896
0.000874528266
0.0006837372288
0.0004494082387
0.000177069582
0.001085101557
0.001070794223
0.001092996589
0.001121566417
0.001143565062
0.001159146544
0.00116586384
0.001160733127
0.001143382352
0.001113600241
0.001067257073
0.001015863233
0.0009974860614
0.001014540865
0.001028521438
0.001015436708
0.0009793377266
0.0009599671612
0.0009715403476
0.0009779752828
0.0009737652843
0.0009440658161
0.0008748662744
0.0007556588278
0.0005812228645
0.0004054488801
0.0001703322685
0.001050010622
0.001052906718
0.001091320461
0.001126224524
0.001149906231
0.00116703623
0.001172441964
0.001162880946
0.001142208574
0.001114665592
0.001080889073
0.001035088399
0.0009976308107
0.0009885012666
0.0009907169647
0.0009811409015
0.0009486759344
0.0009112714474
0.0008921118122
0.0008840256252
0.0008671528214
0.000826057289
0.0007454684015
0.0006255896657
0.0004940179945
0.0003726264381
0.0001641046724
0.001025543087
0.001059104348
0.001106494413
0.00113832347
0.001158390868
0.001173259491
0.001175279768
0.001160777328
0.001135509064
0.0011067815
0.00107715818
0.001044100647
0.0009996732351
0.0009719268886
0.0009592178658
0.0009463382759
0.0009197240254
0.0008793814946
0.0008387176142
0.0008031422045
0.0007641242993
0.0007070807489
0.0006236322032
0.0005240337409
0.000434264877
0.0003519562476
0.0001590013355
0.001023899892
0.001061647213
0.001093617785
0.00111299365
0.001129758817
0.00114407924
0.001148863376
0.001138184694
0.001116260579
0.001091211399
0.001067162183
0.001043028386
0.001004876429
0.0009694805464
0.0009423387439
0.000918130359
0.0008888124503
0.0008492837717
0.0008015321841
0.0007492541364
0.0006914599063
0.0006229715766
0.0005426631907
0.0004623454281
0.0004001676915
0.0003398067582
0.000154875991
0.001028034181
0.001051884993
0.001063654829
0.00106625361
0.001071442381
0.001082266236
0.001092331791
0.001092421621
0.001082584475
0.001068621028
0.001055770221
0.001045368826
0.001024039821
0.0009958228725
0.0009623993224
0.0009215362638
0.000873455587
0.0008214021937
0.0007669149812
0.0007085894642
0.0006442998921
0.0005732121923
0.0004986938913
0.0004317969237
0.000383780254
0.0003319528257
0.0001512644062
0.001032875202
0.001037227651
0.001032328163
0.00102162939
0.001011426162
0.001007965052
0.001012223965
0.001020022153
0.00102760018
0.001033209228
0.001039264697
0.001047581986
0.00105455025
0.001055512951
0.001039496096
0.0009966916163
0.0009199170044
0.0008302247432
0.0007462516476
0.0006735382452
0.0006062449101
0.0005390670057
0.0004736195279
0.0004177717067
0.0003768764112
0.0003262149628
0.0001478673249
0.001039151956
0.001033134763
0.001026472023
0.001012434543
0.0009893194166
0.0009647932003
0.0009484384523
0.0009472085709
0.0009596636722
0.0009769847758
0.001000211518
0.001028537715
0.001072008337
0.001104131845
0.001110639032
0.001074916972
0.0009922074777
0.0008838220556
0.00075497916
0.0006489309225
0.0005705453412
0.0005075395872
0.0004532511268
0.0004090164417
0.0003741684542
0.0003226205497
0.0001447194709
0.00103032319
0.001039046816
0.001043255212
0.001032946034
0.001003678346
0.0009614948677
0.0009206083932
0.000898118105
0.0009011145284
0.000916104446
0.0009448645479
0.0009857020193
0.001063214931
0.00112607167
0.001154784947
0.001130033374
0.001045534141
0.000919523515
0.0007686750906
0.0006329027046
0.0005425630195
0.0004827364335
0.0004382535263
0.0004039166434
0.0003743082987
0.0003216355719
0.000142006386
0.001017577479
0.001042084386
0.001059753252
0.00105693016
0.001027363945
0.0009744611773
0.0009139975526
0.0008693697138
0.0008548369749
0.000858451523
0.0008816772074
0.0009241616986
0.001010598792
0.001099377468
0.001145451292
0.001131857571
0.001052265956
0.0009257381648
0.0007680080665
0.0006297627068
0.0005424774902
0.0004872520724
0.0004456316392
0.0004113402532
0.0003793922136
0.0003226179964
0.0001397400848
0.001017095658
0.001028624772
0.001055556207
0.001060915195
0.001033982282
0.0009762407606
0.0009039015089
0.000843492364
0.0008146019424
0.000802808396
0.000818252654
0.0008541190836
0.0009266958765
0.001020287746
0.001073936363
0.001071066077
0.001007088082
0.0009034448292
0.0007696548946
0.0006663923569
0.000599534587
0.0005471724162
0.0004942638872
0.0004412539749
0.0003912965808
0.0003234125289
0.0001377031906
0.0009997947256
0.0009797108277
0.001014191285
0.001028894071
0.001006723306
0.0009488556092
0.0008723238205
0.0008057588901
0.0007640335798
0.0007453388129
0.0007594518929
0.0007876979705
0.0008350960763
0.0009089075248
0.0009646140059
0.0009752709683
0.0009439882331
0.0008773829371
0.0008103172603
0.0007611154087
0.000717164693
0.0006597414574
0.0005799207703
0.000489782067
0.0004065166601
0.0003209266795
0.0001356785923
0.0009605943905
0.0008969612815
0.0009318362413
0.0009579537354
0.0009430795299
0.0008892315282
0.0008162905755
0.0007497076446
0.0006983609357
0.0006874333307
0.0007066415929
0.0007298064948
0.0007533463416
0.0007902830854
0.0008320433725
0.0008622401397
0.0008778825239
0.0008852478832
0.0008884002287
0.0008794729751
0.0008460542422
0.0007772657945
0.0006654646351
0.0005341450873
0.0004147601401
0.0003120667653
0.0001333117974
0.0008902712506
0.0007959838277
0.0008140616354
0.0008611940007
0.0008603528173
0.000815628563
0.0007421183099
0.00066972905
0.0006317517499
0.0006342067469
0.0006575876814
0.0006760648634
0.0006834568999
0.0006936627013
0.0007217538981
0.0007736040579
0.0008420716222
0.0009085405475
0.000950097382
0.000953098807
0.0009177621625
0.0008384878707
0.0007065885297
0.000546150566
0.0004044827381
0.0002948019144
0.0001297974138
0.0007713944183
0.0006880586609
0.0007049610924
0.0007494202637
0.0007587741262
0.0007203026164
0.0006560298958
0.0006017918035
0.0005794002636
0.0005868393884
0.0006059030149
0.000617271381
0.0006156176325
0.0006135344074
0.0006362932031
0.0007013940427
0.0007977250284
0.0008907615428
0.0009452101655
0.0009484825527
0.0009071218672
0.0008207628243
0.0006839379417
0.0005102554151
0.0003677300328
0.0002683283556
0.0001242173583
0.0006180254286
0.0005927941996
0.0006257597176
0.0006668089433
0.0006757822163
0.0006459004962
0.0005977075752
0.0005571004254
0.0005374012416
0.0005363450375
0.0005426963196
0.0005447102024
0.0005383223355
0.0005319722945
0.0005476827602
0.0006042066508
0.0006928866551
0.0007809286919
0.0008345237256
0.0008366041788
0.0007852370917
0.0006859277616
0.0005602415011
0.000417747923
0.0003109148989
0.0002359615202
0.0001163459616
0.0004731674578
0.0004988805288
0.0005436914601
0.0005783416946
0.0005836751144
0.000560676252
0.0005240289221
0.0004894063931
0.0004650566417
0.0004516518944
0.0004447389856
0.0004386274506
0.0004303276216
0.0004230395962
0.0004282336411
0.000457872006
0.0005092121923
0.000562508214
0.0005944090525
0.0005902571659
0.0005480555828
0.0004765230113
0.0003921891163
0.0003104289145
0.0002466449564
0.0001976580579
0.000105285883
0.0002294473065
0.0002390976944
0.0002489586401
0.0002536026588
0.0002517421343
0.0002445489825
0.0002341250136
0.0002226155595
0.0002117104025
0.0002023902085
0.0001947963829
0.0001885152292
0.0001831160269
0.0001788024939
0.0001770237392
0.0001799755412
0.0001877342418
0.0001967078295
0.0002026095896
0.0002031391237
0.0001979923953
0.0001879673129
0.0001741656981
0.0001571353858
0.0001371049916
0.000114228096
8.865128638e-05
0.0008260977319
0.0007580800745
0.0007859714391
0.0006332241348
0.0005609919566
0.0006545245985
0.0008122784502
0.0009202063753
0.001050819667
0.001229754796
0.001367125326
0.001427600668
0.001413940559
0.001349656841
0.001378950902
0.001436506572
0.001276957293
0.001133675327
0.0009983929382
0.0008737854088
0.0007811605164
0.0006551669822
0.0006300245033
0.0007711922829
0.0009554179211
0.001077307615
0.001213848897
0.001353361304
0.001452564131
0.001505089727
0.001502143921
0.001467824476
0.001515625834
0.001750665662
0.002028290156
0.002271358257
0.002454137841
0.002570514488
0.002545170147
0.002136982634
0.0004544154262
0.001847760622
0.001679890381
0.001550679208
0.001444316027
0.001331484002
0.001196877282
0.001042506561
0.0008788335053
0.0007303659265
0.000712170345
0.0008923991818
0.00110358107
0.001244926586
0.001378812162
0.001471286281
0.001524849334
0.001564801084
0.001566147047
0.001530682412
0.001507379801
0.001652466455
0.001935246722
0.002247160549
0.002476749351
0.002569990979
0.002457926211
0.001917530841
0.0003514295225
0.001878975369
0.001747891973
0.001665365036
0.00159790859
0.001506519057
0.00137347512
0.001217334452
0.001041773779
0.0008478070674
0.000798773276
0.0009923723712
0.001220879108
0.001367254054
0.001458574463
0.001529253395
0.001571080235
0.001596529303
0.001593742727
0.001541721336
0.001395734466
0.001173806175
0.001179844107
0.001468974408
0.001776609335
0.001877200282
0.001665940563
0.001131941854
0.0002530929672
0.001825032169
0.001760682659
0.001706069326
0.001625106235
0.001510313882
0.001415895135
0.001311349324
0.001054539092
0.0009067144476
0.001070135422
0.001312797726
0.001467874475
0.001547409376
0.001594752848
0.001621187608
0.001634715817
0.00162745304
0.001577748433
0.001424688258
0.001170675681
0.0009857529672
0.0009674002258
0.00104022618
0.001095885699
0.001024383045
0.0007547417096
0.0002092266678
0.001862740263
0.001807898677
0.001758625634
0.001690542301
0.001623451082
0.001642427028
0.00164662195
0.001415774178
0.001083341057
0.001145563794
0.001395546309
0.001563754143
0.001644573137
0.001673147302
0.001676154047
0.001674131535
0.001665179827
0.001629559344
0.001538971367
0.001384077766
0.001237265702
0.00113268561
0.001060899814
0.001009000714
0.000925676125
0.0006865689525
0.0001926578517
0.001858367617
0.001813404589
0.001768379672
0.001713788515
0.001678508572
0.001771343138
0.001907010367
0.001749148798
0.00129814545
0.001228724316
0.001479961499
0.001660974018
0.001730428321
0.001744322341
0.001727637219
0.001707707734
0.001690529638
0.001663433811
0.001612522057
0.001537215733
0.001455304325
0.001368184307
0.001271068494
0.001155706018
0.0009992313172
0.0007018582656
0.0001833779804
0.00187338392
0.001812763766
0.001757815438
0.001702405734
0.001658726663
0.00166671634
0.001740824631
0.001672743403
0.001306209306
0.001279880384
0.001553612612
0.001726875609
0.00178108122
0.001783109365
0.001759368995
0.001725802836
0.001693937044
0.001662369805
0.001626987212
0.001587296909
0.001545065861
0.00149636512
0.001423689577
0.001287924509
0.001070878106
0.0007356845206
0.0001777673211
0.001970532279
0.001851313449
0.00176108206
0.001701655229
0.001661398582
0.001628069074
0.00156996609
0.001445345238
0.001270099103
0.001315571899
0.001575565651
0.001738994572
0.001787784833
0.001782446928
0.001759643119
0.001721767287
0.001677231929
0.001635783769
0.001602719858
0.001579170642
0.001561297387
0.001538124448
0.001486587363
0.001369683113
0.001133736085
0.0007641024121
0.0001784440815
0.002004652104
0.001863089205