/*--------------------------------*- C++ -*----------------------------------*\
  =========                 |
  \\      /  F ield         | OpenFOAM: The Open Source CFD Toolbox
   \\    /   O peration     | Website:  https://openfoam.org
    \\  /    A nd           | Version:  8
     \\/     M anipulation  |
\*---------------------------------------------------------------------------*/
FoamFile
{
    version     2.0;
    format      ascii;
    class       volScalarField;
    location    "1.6";
    object      htcConv;
}
// * * * * * * * * * * * * * * * * * * * * * * * * * * * * * * * * * * * * * //

dimensions      [1 0 -1 1 0 0 0];

internalField   uniform 0;

boundaryField
{
    walls
    {
        type            calculated;
        value           uniform 0;
    }
    region0_to_wallFilmRegion_wallFilmFace
    {
        type            convectiveHeatTransfer;
        L               1;
        value           nonuniform List<scalar> 
822
(
2.904525208
2.953738521
2.907453619
2.914251567
2.885300038
2.851286683
2.812342117
2.827623123
2.953410605
3.181574481
2.790864937
2.849297077
2.952032305
3.015180663
3.157846566
3.224896154
3.250777284
3.226330928
3.194240698
3.15325851
3.104238026
3.101873212
3.09023665
3.223012363
3.459090962
3.666400446
3.777270741
3.752934143
3.562706472
3.129701577
2.708495228
2.915466778
2.8786794
2.853561493
2.806313726
2.766908886
2.747670866
2.775917835
2.846537159
2.963574864
2.804778056
2.833904202
2.895919441
2.963716652
3.143206643
3.176462683
3.153186184
3.071530946
3.060124661
3.054370069
3.020640479
3.013872043
3.027726248
3.153543508
3.370901503
3.574668056
3.6815701
3.647596619
3.457547605
3.046067779
2.648838533
2.867462049
2.842963193
2.806598949
2.750440564
2.702632586
2.684702257
2.711291381
2.759402028
2.815306705
2.739810122
2.752234809
2.800138794
2.867948414
3.038583671
3.051371643
3.00449817
2.912186067
2.958468238
2.994903574
2.973190384
2.970681273
3.021441237
3.144831588
3.318119321
3.486677988
3.573058647
3.530154089
3.344938628
2.961991781
2.632337122
2.81146302
2.80589946
2.77516568
2.71866492
2.654958755
2.615823898
2.629863786
2.665652898
2.696760121
2.636949269
2.635492165
2.680286573
2.750332262
2.897335552
2.917175943
2.884585356
2.883299669
2.964737379
3.00302513
2.986799044
3.008667406
3.093174527
3.216692262
3.350420948
3.46599513
3.521828544
3.460961016
3.278707826
2.932460212
2.683840364
2.739627471
2.755360698
2.738043691
2.681622034
2.586163369
2.513644313
2.45468569
2.533090773
2.550916567
2.427426567
2.41364873
2.538655054
2.628381487
2.751757593
2.790725509
2.784959712
2.835472144
2.950678179
3.011483061
3.024840197
3.080343634
3.183356705
3.304248217
3.415847137
3.495151714
3.519627793
3.442176306
3.259920636
2.948818501
2.768448419
2.49294866
2.650139396
2.686842106
2.700043209
2.647363301
2.496603182
2.386348518
2.391652213
2.368850165
2.448553988
2.357384886
2.376914637
2.443665888
2.540433718
2.639350073
2.690831605
2.707599383
2.79681406
2.937264107
3.029870672
3.077499315
3.156322367
3.266771209
3.380905657
3.475274309
3.530153237
3.529526595
3.43295163
3.249662844
2.971883054
2.846213189
2.247952268
2.366988291
2.604679558
2.681898951
2.637308696
2.578044527
2.126381488
1.746919557
2.15189134
2.294208368
2.404525636
2.464250757
2.454376285
2.497641505
2.573647131
2.639263951
2.692820976
2.825518205
2.969583309
3.067103303
3.126264839
3.211285419
3.321712455
3.427761638
3.50628818
3.54038004
3.513281475
3.398003084
3.217033656
2.973641794
2.893103188
2.583420061
2.474321256
2.527986737
2.570017083
2.659843507
2.705424411
2.898000026
4.420635899
2.003282419
2.166022795
2.306103212
2.387038566
2.403502435
2.442906659
2.525895307
2.610806237
2.698364316
2.845817701
2.983582349
3.076213963
3.138122187
3.222805999
3.329336565
3.426761451
3.490622234
3.504543546
3.449199606
3.322633983
3.150337964
2.944266063
2.901067203
2.203841665
2.118852453
2.138453592
2.156440703
2.201388159
2.282942401
2.376046847
2.708741169
2.012233055
2.085769462
2.127462325
2.207109655
2.278521976
2.360487743
2.47155523
2.578877507
2.68860618
2.829500998
2.953569245
3.039107261
3.102157859
3.184489744
3.284122881
3.37137394
3.418737519
3.409997198
3.339297407
3.210620892
3.054940991
2.887615813
2.872515076
1.908817767
1.939112737
1.935540446
1.9034738
1.869545055
1.858823076
1.871685808
1.783658094
1.413915972
1.598628134
1.733370944
1.905676441
2.088399635
2.24916419
2.403027153
2.536863028
2.66168074
2.790924483
2.898851255
2.975197168
3.033992125
3.107055665
3.193766998
3.266824583
3.299816311
3.278921563
3.202788704
3.080967856
2.946780526
2.813623182
2.816472538
1.987349892
2.017902248
1.978587091
1.873715453
1.781433153
1.682275117
1.525817528
1.301845077
1.497920317
1.149903697
1.359918508
1.585096748
1.861938158
2.112159862
2.321646553
2.486462026
2.6244162
2.745619518
2.839623664
2.903587037
2.949897744
3.006934639
3.077751625
3.138521262
3.163059107
3.137840046
3.064535494
2.955038646
2.84060192
2.73228257
2.744803455
2.123159523
2.15560335
2.080468382
1.891751562
1.774910688
1.681004068
1.591226117
1.562392398
1.970078756
1.734233924
1.568945593
1.521213438
1.728798333
2.000484665
2.24199489
2.433031133
2.583994588
2.701989051
2.784505648
2.830183932
2.854609663
2.895110851
2.958609661
3.017554811
3.041621435
3.017008844
2.947967634
2.847350449
2.744474362
2.649513566
2.666050296
2.311912179
2.327230769
2.330737388
1.906657019
1.738514677
1.603385694
1.553489417
1.780125848
2.31992221
2.272464638
2.245612271
2.157866396
2.075612468
2.111304889
2.249063229
2.409711749
2.553475412
2.665838219
2.737131251
2.761456254
2.754081364
2.769208537
2.828550545
2.896961757
2.931172039
2.912664074
2.847670277
2.751755325
2.654029649
2.564325741
2.581515008
2.375027421
2.448789991
2.708219014
1.649207043
1.50350841
1.289402186
1.092039776
1.395271888
2.126361492
2.227622205
2.304250217
2.314182732
2.280453277
2.273133203
2.331940147
2.436614356
2.551395301
2.648443063
2.70549968
2.714439569
2.710477634
2.740116513
2.806109636
2.872331063
2.89864741
2.864814461
2.78263166
2.673321189
2.567724225
2.474038614
2.48649906
2.259652031
2.184800524
1.682928859
1.489860949
1.178570624
0.986374971
0.8275983279
1.140874066
1.916707486
2.153113771
2.295577219
2.363914955
2.379754943
2.390269208
2.429182585
2.49884727
2.583370238
2.659571418
2.702352661
2.704489644
2.735523165
2.804231555
2.884121032
2.941231533
2.946694903
2.879494598
2.759339299
2.618417776
2.490882465
2.380886303
2.375237046
2.149866298
2.042728666
1.743922398
1.437318766
0.8066793833
0.6022218668
1.006086205
1.226161375
1.778065269
2.081856898
2.283552427
2.403373447
2.459328443
2.489643795
2.525184975
2.576336673
2.637794516
2.694502411
2.728997172
2.731560708
2.793209732
2.889264039
2.973767578
3.016252229
2.993774452
2.89080726
2.738190241
2.577312259
2.43749951
2.306004682
2.258040787
1.868200188
1.729023497
1.473867022
1.234610966
1.039875406
1.196477597
1.34323589
1.693957949
2.007745782
2.252579181
2.420876756
2.518933958
2.573838555
2.613444937
2.653947374
2.698346966
2.739643416
2.770426352
2.777718726
2.851279526
2.958023623
3.036510732
3.054825384
2.994961032
2.857478645
2.692788915
2.543709568
2.42115038
2.278723347
2.177102306
1.717719717
1.508757161
1.295942099
1.375805021
1.33888653
1.335423532
1.421952704
1.717599346
2.025242793
2.278762302
2.463735907
2.585349624
2.657302719
2.698735629
2.728673208
2.756944604
2.783363248
2.807853145
2.817259376
2.887283491
2.990435537
3.055085533
3.041789941
2.939560728
2.782842437
2.632327907
2.521757346
2.436694172
2.299079304
2.165695227
2.09389453
1.028525244
1.010508777
1.370969099
1.377193824
1.31955627
1.506851522
1.830080479
2.124054652
2.374823333
2.566669391
2.696791024
2.773560867
2.80976829
2.819925106
2.822174535
2.824980027
2.83311309
2.835529531
2.884813512
2.969673819
3.012050171
2.966359827
2.841602988
2.691644347
2.57764203
2.51273533
2.46518197
2.339965923
2.206667655
2.615208891
1.531454083
1.820899213
1.649225509
1.254347759
1.235797175
1.59651254
1.943631507
2.22273793
2.468580306
2.667031189
2.809507503
2.89583798
2.931974593
2.928198581
2.90110283
2.870699282
2.849586299
2.832704902
2.850464338
2.90147069
2.916098526
2.850019577
2.726006323
2.607425925
2.536787924
2.508319361
2.489203294
2.376641167
2.262768141
3.065805457
2.600510244
2.418876147
2.102226483
1.433827807
1.090148531
1.65127983
2.045978806
2.325288995
2.56479013
2.759825707
2.903938932
2.994514604
3.032710332
3.023629988
2.975817638
2.913838079
2.858220206
2.813311557
2.795549489
2.80703125
2.79270514
2.716667564
2.613075123
2.536370785
2.497193768
2.490228501
2.494894278
2.393129797
2.30523605
3.305312327
3.16595141
3.137507571
2.662503085
2.133559161
1.38734992
1.69994686
2.133960298
2.422698305
2.655700733
2.841096196
2.977876006
3.063912798
3.098521989
3.083380295
3.020634532
2.934423439
2.848412416
2.774417858
2.723095535
2.69684387
2.656750937
2.58081936
2.507643044
2.467893837
2.452065036
2.391578534
2.468977154
2.378678045
2.31532612
3.546042827
3.405221825
3.407605321
2.951946283
2.40464684
1.765017259
1.78864034
2.199374621
2.499133969
2.726690338
2.899821367
3.023800309
3.09866782
3.123978726
3.09637423
3.01959769
2.915667423
2.807127297
2.708580734
2.629053665
2.570976913
2.510904183
2.441528905
2.398139505
2.391746693
2.3583448
2.445702792
2.500325922
2.339426484
2.281757341
4.210494433
4.00181349
3.824956389
3.407360659
2.839971377
2.30921119
2.001225126
2.26061508
2.546352338
2.76157233
2.919695144
3.028903764
3.09128236
3.102343926
3.057733704
2.96956066
2.855136287
2.733040556
2.616946506
2.515330466
2.431020598
2.353511409
2.287047462
2.262391216
2.282642285
2.315729025
2.445488106
2.358647135
2.210276545
2.174067101
4.625113109
4.395206186
4.268922393
3.882166469
3.275955405
2.761392373
2.371438917
2.355766143
2.563241355
2.755997194
2.897641839
2.990476943
3.034144878
3.029212123
2.978336758
2.890541942
2.778785198
2.655863037
2.532568959
2.416109077
2.309546672
2.210508925
2.128543839
2.093287031
2.109930774
2.145029588
2.182411095
2.121508531
1.990201598
1.963039197
4.494828384
4.254016646
4.108713816
3.708434185
3.28266662
2.854958239
2.536272757
2.411542957
2.497928375
2.646156171
2.774579213
2.866516741
2.916851174
2.923524042
2.889178058
2.821575499
2.729788892
2.622212297
2.505688294
2.384425247
2.260346152
2.133038611
2.008392249
1.914180487
1.875160261
1.871570426
1.859997859
1.798760753
1.671886649
1.590536307
4.173395864
4.037747667
4.101383928
3.903680337
3.433255925
2.963847974
2.630406306
2.422531684
2.408443617
2.525162434
2.668641124
2.790364632
2.869211478
2.897455067
2.877804914
2.820230515
2.736899417
2.638075477
2.529106792
2.409776537
2.276678912
2.12610538
1.960558114
1.805108009
1.699361362
1.647383266
1.605337196
1.549932446
1.43003145
1.276262659
)
;
    }
    region0_to_wallFilmRegion_mirrorFace
    {
        type            convectiveHeatTransfer;
        L               1;
        value           nonuniform List<scalar> 
558
(
4.85776742
4.59739351
4.18115849
4.27857305
4.083140839
4.017875902
4.385379288
4.2839176
4.120579706
4.101374565
5.076249524
4.867476442
4.486564253
4.699066154
4.463680793
4.270476332
4.841844356
4.739813059
4.578413322
4.426363388
4.968375406
4.686836387
4.832940598
4.425142735
5.12047307
4.936892687
4.771645733
4.915502009
4.922227878
4.631372366
4.555042571
4.595395901
4.450943204
4.272019327
4.193652776
4.270210497
3.60054724
3.766902981
3.913835085
4.092695262
4.482704698
4.336509932
4.699389399
4.464740024
4.1822688
4.296198501
4.292405358
2.536564441
2.551201434
2.56496745
2.892720944
2.465625678
2.482913549
2.362381429
2.22528159
2.265910482
2.452604366
2.305733863
2.337001871
2.418722662
2.347346382
2.36029131
2.559321549
2.37217283
2.387438107
2.390046074
2.442530938
2.221072851
1.84329547
2.044792534
1.841931347
1.85889037
2.117142989
1.890030059
1.931307567
2.194069717
1.978954745
2.029809924
2.261286886
2.081762379
2.13330815
2.332799087
2.182535974
2.218703931
2.288443295
2.276053618
2.141712514
1.623691956
1.430804123
1.358113931
1.627875675
1.337702636
1.376406804
1.728186986
1.45632079
1.557834911
1.870524118
1.664633337
1.767406477
2.010937008
1.860958781
1.94154328
2.106570719
2.005608865
2.040387337
2.007405327
2.091747709
1.913549242
2.346183901
2.154675932
1.953438759
1.378471334
1.501196702
1.33615477
1.116841993
1.192561322
1.126962604
1.212971599
1.184495195
1.320799213
1.509862359
1.479296361
1.631910715
1.773252245
1.768661215
1.886507636
1.963254852
1.984042253
2.060338635
2.057433553
2.113877717
2.135731808
1.919407849
2.154005744
1.990197034
2.1424135
2.166903369
2.428628389
1.462205293
1.732956225
1.663529134
1.375053572
1.630208658
1.642683622
1.554865375
1.701126029
1.791137369
1.815605777
1.896716243
2.00389017
2.036277364
2.103681984
2.190106964
2.179779223
2.257176686
2.298317331
2.232720951
2.31044771
2.287566924
2.242828053
2.234712172
2.138656909
1.855394506
2.032903028
2.002818563
1.858032597
1.992413034
2.006362225
1.983343623
2.048571622
2.115228737
2.164811051
2.194663115
2.279690082
2.332212486
2.365637362
2.444615529
2.401786105
2.512055553
2.557524459
2.3069702
2.474986505
2.330183757
2.04719231
2.046209717
2.213221245
2.102067644
2.05780118
2.01718178
2.084523045
1.985536334
1.971056245
2.180283971
1.997868034
2.066540067
2.359119969
2.157118312
2.275776973
2.619883436
2.422875159
2.59815164
2.70051695
2.680862472
2.682826627
4.858452574
4.995461133
4.832278444
2.187481855
2.377597994
2.9631789
3.800815903
2.316077111
2.400817405
2.419484135
2.278000599
2.634988048
4.676506441
3.889694581
2.020247275
2.079315802
2.156437943
2.227750535
2.295646015
2.379843119
2.407217975
1.664267825
1.610771328
1.669117197
1.797376563
1.943096344
2.070004038
2.165137673
2.281054154
1.540289157
1.224358015
1.111950273
1.358794529
1.649785649
1.878217464
2.026334316
2.096444149
2.105958406
1.579959665
1.384304223
1.441968373
1.685925519
1.93400206
2.118926348
2.218917348
2.24120841
2.21026247
1.897202654
1.840714754
1.907855475
2.072401495
2.253571054
2.390918556
2.373319817
2.166887821
2.546646573
2.132554437
2.084210045
2.115845097
2.26193879
2.475318069
2.800590651
2.426438019
2.178407143
2.15700417
2.03398352
1.906695041
2.013579499
2.126487212
3.478558817
4.059885592
2.006728363
4.857684024
4.204567699
4.305641279
4.978708113
4.886570353
4.659698529
4.604860015
4.888840737
4.858656664
4.836989568
5.75749297
5.016673333
5.056179958
4.796373493
4.790933391
4.646986484
4.612556407
4.531432603
6.132958112
4.87180576
4.435846333
4.302860851
3.319226527
3.359886992
3.491484514
3.839573829
2.511393887
2.79367876
3.206232935
3.726635798
2.616624685
2.912983492
3.372543731
3.845049997
1.873506979
2.411039294
2.529450041
2.596759305
3.426495318
2.125214142
4.755817048
4.628665012
3.925512982
2.463618261
4.791296675
3.152162677
4.952249277
4.904828629
2.423920165
2.114918409
4.500729991
4.180249924
3.33460322
4.475555788
4.712779656
4.406639309
4.299325239
3.710248788
4.443927046
2.272519834
2.532564733
3.777260402
2.199032765
3.808840005
3.08398064
3.103271617
4.209623081
4.024832774
4.096559024
2.101845197
2.055527307
2.033760714
1.945201358
2.019246019
2.05748971
4.360400702
4.577215986
1.980196347
2.445267697
2.706211359
4.362945032
4.591999524
4.556568486
2.092514942
2.67272321
2.545004239
4.204541626
4.491367432
4.402525785
2.18750741
2.785686142
4.416645734
4.086336454
4.310851275
4.293162267
3.818616657
2.563331854
3.235952149
3.926887314
4.272286792
3.903971585
4.159729935
5.106099967
5.164471418
5.082554251
5.329907944
4.665187836
4.9695836
4.805396134
4.473836446
4.626106061
4.594195763
4.918334544
4.736248016
4.819264097
5.010907117
4.687809254
4.643098927
4.92557212
4.311499232
4.345950253
4.443236351
4.618025354
4.796106327
5.022696148
4.952610696
4.662799231
4.895261613
4.820501906
4.504759944
4.729467528
4.613395791
4.221560301
4.353954168
4.44019758
4.41955108
4.41289407
4.836920404
5.00313575
5.559707968
5.232152103
5.27755984
4.723742264
4.850699082
4.805056357
4.710394345
4.626393022
4.530981331
4.677865453
4.667303246
4.915847787
4.809306304
5.013780816
4.874504303
4.877562577
4.743619124
4.519147218
4.578668759
4.475008518
4.797145451
4.593399658
5.080809507
5.006112784
5.420261383
4.924042343
4.861622855
4.832003204
4.543425774
4.759446344
4.749556164
4.558281356
4.640196808
4.574212241
4.592941943
4.789226818
4.94016997
5.412661339
5.095142174
4.716332772
4.738108534
4.693376649
4.669030036
4.692210065
4.653846512
4.722179124
4.827860983
4.738043808
4.725261385
4.499002055
4.746281465
4.633624004
6.231867018
5.568585918
5.166496503
4.777235489
4.664728391
4.573179455
4.539944031
4.516810483
4.485265213
4.598177641
4.618081396
4.549838567
4.588838715
5.279041352
4.885996606
4.797137958
4.708335774
4.592072426
4.868897748
4.639510102
4.459113155
4.422945585
4.588443359
4.553115602
4.401610433
4.386657357
4.535854598
4.156474042
4.421714595
4.463961024
4.327905245
4.263162266
3.632622057
5.349894203
4.584390961
5.128338055
4.466217925
4.365035112
4.24775196
4.401324291
4.176590241
4.162748817
4.205717053
4.311026595
4.397869872
4.179974926
4.437282647
4.367222581
5.680134347
4.582514669
4.479565225
4.325214343
3.34137505
2.948783374
3.008317449
3.400607961
3.074024441
3.170035269
3.636538223
3.318404376
3.515288105
4.03714376
3.750456735
3.991038818
4.206041498
2.641936689
2.244597646
2.441545374
2.979396611
2.675914027
2.9353675
3.458911124
3.213794439
3.489133091
3.976323458
3.76586044
3.980868905
4.212653097
4.042829816
2.731656816
3.251132761
3.283298868
3.132240106
3.364713704
3.480351852
3.849339016
3.624929351
3.626624654
3.781725855
3.936319816
4.018083736
)
;
    }
    procBoundary1to0
    {
        type            processor;
        value           uniform 0;
    }
    procBoundary1to2
    {
        type            processor;
        value           uniform 0;
    }
    procBoundary1to3
    {
        type            processor;
        value           uniform 0;
    }
}


// ************************************************************************* //
