/*--------------------------------*- C++ -*----------------------------------*\
  =========                 |
  \\      /  F ield         | OpenFOAM: The Open Source CFD Toolbox
   \\    /   O peration     | Website:  https://openfoam.org
    \\  /    A nd           | Version:  8
     \\/     M anipulation  |
\*---------------------------------------------------------------------------*/
FoamFile
{
    version     2.0;
    format      ascii;
    class       volScalarField;
    location    "1.6";
    object      k;
}
// * * * * * * * * * * * * * * * * * * * * * * * * * * * * * * * * * * * * * //

dimensions      [0 2 -2 0 0 0 0];

internalField   nonuniform List<scalar> 
67451
(
0.01657379605
0.01673980232
0.01535401445
0.01750756931
0.02133405955
0.02503824809
0.03023738963
0.03805035271
0.04711785619
0.0558403205
0.06075413205
0.02458069353
0.02304410564
0.02182112966
0.02030291249
0.01854328373
0.0168690446
0.01638987524
0.02017059239
0.0245799115
0.0286940321
0.03418002144
0.04265658628
0.05415759358
0.0636039187
0.06918431645
0.06789062163
0.06231769959
0.08048902688
0.13293663
0.1885538692
0.2370199639
0.3008149221
0.3657064838
0.4150249299
0.390583507
0.3042547527
0.0280629635
0.02593575842
0.02522241497
0.02513792354
0.02447267323
0.02280028416
0.02058510333
0.01848073425
0.01757570575
0.02205898595
0.02720578427
0.03153437272
0.03656309824
0.04505761979
0.05914291362
0.06496570418
0.07234930644
0.07307355219
0.06507597208
0.05342638292
0.06147128702
0.1200430333
0.1852822702
0.2533345511
0.3404959207
0.3577142727
0.2917163569
0.2103482863
0.02807511844
0.026477009
0.02680411361
0.02749253006
0.02692272787
0.02492563663
0.02234366123
0.02009701781
0.01865183615
0.02295914436
0.02899449972
0.03359955477
0.03749933252
0.04195126531
0.04862708919
0.05731532223
0.06603498573
0.06702437409
0.05776803285
0.04347630842
0.03914994796
0.06838557687
0.1168435633
0.1598458809
0.235985516
0.241838318
0.1935679817
0.1322369222
0.02762737385
0.02807349474
0.02884482604
0.02810302679
0.0259655414
0.02356734471
0.02240176443
0.02011968095
0.02287089922
0.02980904535
0.0352502866
0.03947783069
0.04210919128
0.04412021786
0.04666717037
0.05011614196
0.05358424749
0.04633966367
0.03732295392
0.03161076736
0.03828061477
0.06378522888
0.08587699245
0.1377478347
0.1488979583
0.1084261146
0.06907673145
0.02781639083
0.02783734282
0.02813366857
0.02735623667
0.02571613933
0.02464345612
0.02805554858
0.02370488506
0.02242136533
0.02944180108
0.03601640961
0.04158315909
0.04463174836
0.0450622659
0.04515434342
0.04454561384
0.04343617632
0.03869127803
0.0356313407
0.03605232956
0.03591835063
0.03769716461
0.04176075506
0.06462317735
0.07557014727
0.05222718707
0.03463972536
0.02675468719
0.02663364354
0.02647760102
0.02591614712
0.02511282738
0.02480690006
0.03789066304
0.03348254221
0.02320578746
0.02804679958
0.03656872745
0.04510439779
0.05036553328
0.04749329525
0.04565234381
0.04518581867
0.04369253875
0.04201602623
0.04314796314
0.04541729264
0.04531792157
0.04139937449
0.03634526005
0.03577235564
0.03779190921
0.02937038075
0.02267034809
0.02710639006
0.02664496594
0.02616983384
0.02571288083
0.02525724913
0.02488582042
0.02474249779
0.04342199826
0.02437041013
0.02691826199
0.03894043209
0.05349410218
0.06187752033
0.05512482343
0.04908352188
0.04664073056
0.04661331585
0.04932520874
0.05327638567
0.05561750576
0.05541931853
0.05200064577
0.0456665085
0.0377487128
0.03095183009
0.02455444507
0.01953055838
0.03012787312
0.02837213718
0.02727271112
0.02663028918
0.02631746835
0.02653981061
0.02556657452
0.02458046817
0.02238383268
0.02876058907
0.0454370273
0.06459762506
0.07607509902
0.06862035914
0.05761335301
0.04888885757
0.04699581937
0.05223399936
0.05751290896
0.06015677725
0.06057254091
0.05865262147
0.05387340441
0.04576425269
0.03656246149
0.0278198199
0.02048231985
0.03726053176
0.03157067608
0.02911034855
0.02799731618
0.02785171397
0.03007122416
0.0287169079
0.02613852713
0.02385545565
0.02334115882
0.03383535337
0.05296684724
0.06917712652
0.06341050662
0.05332658901
0.04512086941
0.04489285375
0.05273354917
0.05884089539
0.06173882583
0.06257510914
0.06142182291
0.05775223209
0.05100758139
0.04198704959
0.03266984274
0.02355469834
0.03570150328
0.03265136471
0.03039633396
0.02917289453
0.02948207748
0.03598952446
0.03454626757
0.02954193063
0.02616855209
0.02381763613
0.02590241625
0.03775912257
0.0562505913
0.05249521657
0.0449406765
0.03933430779
0.04106895102
0.0509059052
0.0580096662
0.06139247628
0.06262769511
0.06189894544
0.05878876255
0.05288541267
0.04455135068
0.03556392537
0.02599458423
0.03918823626
0.03480196894
0.0318477111
0.0302482698
0.02984943034
0.03430683565
0.03318812024
0.02998489521
0.02763422808
0.02547824817
0.02464592651
0.02912169721
0.0419254127
0.04114801291
0.03711048074
0.03426438341
0.0365780922
0.0467242932
0.055020365
0.05919125605
0.06088305811
0.06043580333
0.05760004803
0.05215333848
0.04446840223
0.03601934874
0.02670154922
0.0456833996
0.03900251567
0.03443055044
0.03187593609
0.03081409557
0.03058325328
0.03057708594
0.03017846483
0.02904055937
0.02736269093
0.02568206861
0.0262714069
0.03198606835
0.03294243318
0.03182515638
0.03087668092
0.03272903975
0.04083523406
0.04981179131
0.05497277739
0.05722615112
0.05704868729
0.05440773692
0.04930856331
0.04232894557
0.03452134741
0.02584175446
0.05107760587
0.04384550212
0.03795905279
0.03405486952
0.03213154134
0.03148772137
0.03147465262
0.03140924472
0.03076449535
0.0291248388
0.02723120465
0.02618128229
0.02768172667
0.02878808774
0.02894611142
0.02868852713
0.02970882324
0.03487784975
0.04296197397
0.04882441265
0.05168246539
0.05184617066
0.04947647353
0.04482944409
0.03874150212
0.03163204113
0.02389587291
0.05724846521
0.04975448347
0.04265241786
0.03699465878
0.03360096033
0.03222403391
0.03193097544
0.03184920742
0.03142999887
0.03029102194
0.02841821727
0.02685576801
0.02649353764
0.02692138526
0.02730456796
0.02728418287
0.02762170369
0.03034028463
0.03592773678
0.04148203323
0.04470616614
0.04525631984
0.04331190499
0.03937836314
0.03419385465
0.02789608126
0.02141069387
0.05612449308
0.04806725682
0.04086051991
0.03574077045
0.0330467216
0.03228465851
0.03226005885
0.03213644053
0.03168057658
0.0307689563
0.02924201331
0.02753065159
0.02642985462
0.02613692659
0.02626115985
0.02627734646
0.02626695702
0.02732683352
0.03045485267
0.03444100622
0.03733951981
0.03813385739
0.03677412961
0.03363990523
0.02920304033
0.02390892105
0.01892949884
0.05259795858
0.04471527141
0.03904672181
0.03561008199
0.03375050668
0.03397092888
0.03430545559
0.03363227156
0.03241775994
0.03111994644
0.0296661208
0.02795474353
0.02660158017
0.02583176656
0.02557281796
0.02546817362
0.02531116099
0.02549274389
0.02678354753
0.02902915085
0.03102690644
0.03169418627
0.03064054417
0.02802424845
0.02434411631
0.02028258778
0.01685180474
0.04753255773
0.04051203724
0.03854163207
0.0374328348
0.03536068913
0.0356447584
0.03585746095
0.03457567118
0.03268233406
0.03101981636
0.02959716192
0.02808954892
0.02675789489
0.02583141829
0.02529565543
0.02496199477
0.02463720861
0.02437951204
0.02456574304
0.02535919523
0.02624620881
0.02641355242
0.02536039495
0.02311953825
0.02023270028
0.01743812664
0.01530487731
0.04284284103
0.03755929376
0.03699877357
0.0364477387
0.03442627543
0.03419803795
0.034145074
0.03299523362
0.03141733229
0.03010437088
0.02903861374
0.02793324727
0.02704799053
0.02660545278
0.02631126274
0.02577667847
0.02496360327
0.02409597926
0.02345175726
0.02317778193
0.02306315224
0.02260550512
0.02139383642
0.01943369519
0.01724760471
0.01545385683
0.01419160713
0.0398284094
0.03673877968
0.03734817346
0.03804385163
0.03709162633
0.03585191546
0.03430622852
0.03235314622
0.03054604427
0.02926231492
0.02837552348
0.02776473361
0.02822597802
0.03051593102
0.03267309155
0.03243821681
0.03009437102
0.02706629762
0.02442341966
0.02257603055
0.02134049211
0.02022356481
0.01880867256
0.01705355658
0.01536881174
0.01416697116
0.0133504188
0.03876547599
0.03827353973
0.04216503954
0.04629055683
0.04750424597
0.0455619533
0.04163358418
0.03706016222
0.03299809625
0.03012716419
0.02839285296
0.02783077211
0.030216428
0.03716847367
0.04310937502
0.04407770099
0.04039244168
0.03436930297
0.02867112423
0.02422983178
0.02119520111
0.01910254463
0.01735905359
0.01570939414
0.01432972411
0.01337960304
0.01267346094
0.03960824636
0.04122437537
0.04934911659
0.05649574716
0.05869254851
0.05625214099
0.05087830298
0.04423225617
0.03770072577
0.0325325654
0.02919191075
0.02796945699
0.03124483217
0.04157824519
0.04990392806
0.05169130211
0.04774584542
0.04053520557
0.03291098043
0.02656636227
0.02197603783
0.01894307921
0.01683120365
0.01517406519
0.01390879732
0.01296976421
0.01212825601
0.04493655699
0.0450510364
0.05539407991
0.06388765807
0.06612632372
0.06328072894
0.05728733953
0.04972235024
0.04181411795
0.03496400778
0.03012681767
0.0279017132
0.03053700409
0.04128623503
0.05031898867
0.05251675152
0.0487895128
0.04164565957
0.03399648574
0.02756755388
0.02287156967
0.01972193514
0.01746679588
0.01562760629
0.01413362582
0.01290646003
0.01172160486
0.05773018251
0.05120851411
0.05866775902
0.06687116225
0.0690245867
0.06605427385
0.05991913592
0.05212100924
0.04373252941
0.03613701959
0.03045555493
0.02744441236
0.02870174135
0.03713960704
0.04531657629
0.04759639891
0.04447676929
0.03850155859
0.03261244574
0.02795606222
0.02466334785
0.02216529634
0.01984193953
0.017479527
0.01524204152
0.01326691412
0.01148274088
0.06958603403
0.05743687984
0.05906085576
0.06562616361
0.06776841744
0.06501260183
0.05910086989
0.05146627491
0.04318457203
0.03557031964
0.029791192
0.02652708601
0.02652556375
0.03175244775
0.03769495956
0.03976558309
0.03791156503
0.03460056648
0.03172089986
0.02974914861
0.02812970662
0.0261425328
0.02351836956
0.02041573396
0.01718174901
0.01412066622
0.01145279934
0.0750122673
0.06060899182
0.05718771893
0.06128765086
0.0632667808
0.06091802002
0.05547273251
0.04827808522
0.04052301858
0.03343123535
0.02820129146
0.0252152591
0.02448809066
0.02711799239
0.03086981579
0.0328781021
0.03308075188
0.03289417419
0.03304062917
0.03309170185
0.03225208044
0.03016408366
0.02704603893
0.02328071166
0.01921406312
0.01514652284
0.01152363626
0.07340712171
0.05932749923
0.05369999572
0.05526893435
0.05669182699
0.05469223518
0.04986882262
0.04339590073
0.03642403146
0.03033540422
0.02609606504
0.02369505841
0.02273321625
0.02372919923
0.0261128194
0.0286281296
0.0309907525
0.03334778033
0.03532978982
0.03616920482
0.03528625631
0.03285191446
0.02918655429
0.024977913
0.02038517139
0.01564633434
0.01133578538
0.06612764687
0.05393861144
0.04841147957
0.04886178533
0.0495704579
0.0477110328
0.04344517909
0.03776290579
0.03192151629
0.0271478887
0.02398651846
0.02215800733
0.02119582012
0.02138095332
0.02312837829
0.0262588385
0.03004404814
0.03358029325
0.03604861814
0.03681709397
0.03561461817
0.03288282194
0.02966687463
0.02496656772
0.02010740026
0.01507537468
0.01056466032
0.05514134707
0.04595700347
0.0421898394
0.04256472025
0.04282285248
0.04101456391
0.0373247867
0.03267182819
0.02814334058
0.02457365855
0.02217949211
0.02067355009
0.01971735313
0.01950471125
0.02080410106
0.0239658756
0.02805141626
0.03167377584
0.03391052935
0.0343996609
0.03320280981
0.03065688033
0.0271995513
0.02297972128
0.01822105065
0.01333078139
0.009200498289
0.04240014031
0.03739094833
0.03630363026
0.03707369743
0.03704551805
0.0353540076
0.03233992507
0.02873678943
0.02528845783
0.02248817918
0.02045619112
0.0190363105
0.0180278737
0.01751951959
0.01814077227
0.02047640006
0.02392056574
0.02710139498
0.02905242416
0.02947629237
0.02847414064
0.02629938667
0.02320731052
0.01934948748
0.01497326795
0.01065071294
0.00737143136
0.0302875107
0.0298695824
0.03104254843
0.03199113128
0.03178942834
0.03038339067
0.02811260589
0.02543981184
0.02280975605
0.020533012
0.01872484726
0.01733179706
0.01623910142
0.01543248638
0.01519321675
0.01608456372
0.01819684336
0.02059438691
0.02223572517
0.02271337298
0.02205887395
0.02043582275
0.01801419169
0.01494490979
0.01142159232
0.007787286037
0.005454448299
0.02727892901
0.02764442341
0.0238892782
0.02337447562
0.02825742182
0.03506864137
0.04177123295
0.05266340662
0.06766854504
0.08000761699
0.08486831721
0.04211537612
0.03869149025
0.03580219528
0.03271001543
0.02962681071
0.02853287838
0.02444641363
0.02636642849
0.03420811805
0.0431317856
0.05130081484
0.06406372574
0.08059418228
0.09212390926
0.0973016314
0.09687921841
0.09364344548
0.102518651
0.1659568308
0.2333110686
0.295514738
0.3628371865
0.4162429414
0.4561704085
0.4309358237
0.225581418
0.05276448953
0.04780139417
0.04520428413
0.04384418916
0.0419560563
0.03867774483
0.03460554556
0.0303954116
0.02666513457
0.02953638819
0.04014930522
0.05075459018
0.05945877631
0.0726772458
0.08828106619
0.09798414324
0.1026652176
0.1020381873
0.09510764178
0.08335729402
0.1040535615
0.1845515603
0.2641159651
0.359273777
0.4182089015
0.4210269183
0.29746854
0.101970477
0.05364739087
0.04991649703
0.04898824419
0.04886238793
0.04741215688
0.0438246714
0.03906683185
0.03488971941
0.02989023445
0.0320708215
0.04433624673
0.05628877987
0.06425375808
0.07428124636
0.08703450943
0.09645730651
0.1019293374
0.1008468042
0.0908492113
0.0672998702
0.05059225327
0.06120418389
0.09133052055
0.1657684671
0.2309208457
0.1917058505
0.09331766417
0.05293355899
0.05290930918
0.05218291584
0.05198284418
0.05045175887
0.04708343485
0.04373713067
0.0438210874
0.03596351154
0.03434065567
0.04613233874
0.05966083566
0.06721804908
0.07417765747
0.08202372
0.09037714426
0.09559604208
0.09364935924
0.08363741695
0.06414320558
0.04987912923
0.04469499551
0.04938736713
0.06347813122
0.08712925174
0.0746134326
0.05431013114
0.03203191146
0.05413596715
0.05318373704
0.05258099023
0.05106683223
0.04940041466
0.05190721505
0.06467352864
0.051902948
0.03881202601
0.04641198889
0.06163654299
0.07062484011
0.07596436383
0.08005522625
0.08501079746
0.08888211551
0.08847964241
0.08221854181
0.07126917338
0.06450560224
0.0588293844
0.05251338731
0.04890191429
0.05242163995
0.05072646704
0.04090484687
0.02413146292
0.05309417171
0.05230943403
0.05152049484
0.05034559687
0.05068307463
0.06001021226
0.094715852
0.08108827431
0.04970187316
0.04638172245
0.063242058
0.07673020788
0.08216190692
0.08290433666
0.08425881065
0.08626457819
0.0872907037
0.08560889283
0.08165189732
0.07774950151
0.07367869217
0.06726893739
0.05821343037
0.05053204346
0.04465990165
0.03610641551
0.02114864596
0.05290430048
0.05174988652
0.05059541109
0.04935263898
0.04862989802
0.05005523085
0.06178485306
0.09347886148
0.04608169163
0.04543358682
0.06717390637
0.08514783954
0.09064681257
0.08893958288
0.08663694443
0.08636377018
0.08730682304
0.08715264468
0.08573082428
0.08398493546
0.08178571315
0.07789750934
0.07042784796
0.05876294636
0.04641511705
0.03485231268
0.02008385197
0.05870051021
0.05405960352
0.05158036286
0.05013636913
0.04954937235
0.04950378522
0.04919115021
0.04823971656
0.04187245646
0.04541499657
0.06647576514
0.08823569551
0.09561728723
0.09262899726
0.08822160116
0.08666333454
0.08717655178
0.08721985945
0.08681434652
0.08637329286
0.08556051374
0.08328494361
0.07770509091
0.06711878296
0.05192247404
0.0364812267
0.02099881868
0.07106476693
0.05968331459
0.05436085501
0.05246201414
0.05307265254
0.0549231713
0.05335566867
0.04934264246
0.04442930525
0.04447797157
0.05817750892
0.07999655511
0.09074006794
0.08993778181
0.0858969628
0.08396987429
0.08461547742
0.0853179263
0.08589918318
0.08649315704
0.08671287433
0.08553643877
0.0811930773
0.07186513888
0.05704049538
0.03941269808
0.02286906496
0.06604588083
0.05958159579
0.05611838738
0.0549192339
0.05761731699
0.06061140264
0.05926423528
0.05459432746
0.04938630744
0.0467368756
0.05172984803
0.06734221862
0.07866605406
0.08056742739
0.07842005062
0.07761374895
0.07942244818
0.08156791888
0.08346730328
0.08509394291
0.08610419818
0.08556730563
0.08185144498
0.07331094398
0.05940350364
0.04135797917
0.02430323325
0.06682381119
0.0616002409
0.05794149608
0.05604575429
0.0565939902
0.05943290852
0.05872325232
0.05580687393
0.05262223965
0.05001629348
0.05026332063
0.05725100393
0.06627206511
0.0694985318
0.0691142421
0.06944247144
0.07232947846
0.07606726608
0.07942652481
0.08210388767
0.08372921611
0.08345969055
0.07987975685
0.07166362387
0.05852199172
0.04107748983
0.02456881383
0.06846318709
0.06301873133
0.0591352833
0.05678398743
0.05579812419
0.05599944519
0.05617550127
0.05570474268
0.05461075979
0.05269305714
0.05120384308
0.05305343521
0.05768085096
0.06070250614
0.06114733798
0.06166593386
0.06439958661
0.06911885534
0.07356152537
0.07710467408
0.07916156814
0.07890279237
0.07517089654
0.06704776817
0.05459189199
0.03860132028
0.02372675318
0.0681719667
0.06284065348
0.05941480844
0.05725985642
0.05601111332
0.05557486782
0.05543399096
0.05528057371
0.05493402335
0.05400774765
0.05236102471
0.05182342241
0.05315758034
0.05480788773
0.0554078896
0.05577620697
0.05742128735
0.06149714472
0.06609921473
0.06997619555
0.07217662164
0.0717681626
0.06784044382
0.05996019066
0.04840226566
0.03477082022
0.02222796624
0.07236698072
0.06396039648
0.06014307126
0.05791156082
0.0564059568
0.05556489399
0.05515662309
0.05487930252
0.05455312588
0.05395292236
0.05281888506
0.05150918725
0.05108929003
0.05145600061
0.0516781912
0.05168476097
0.05216803778
0.05435701754
0.05805141455
0.06141144892
0.06329032035
0.06260876897
0.05865504346
0.05134032033
0.04131882236
0.03063482481
0.02057333714
0.07061311126
0.06378310694
0.06071760223
0.05873921684
0.05733977159
0.05657429889
0.05585952256
0.05496959114
0.05411328965
0.05332894524
0.05239941594
0.05112023538
0.04997838728
0.04946029157
0.04918809498
0.04883343111
0.04851708053
0.04900465765
0.05073902899
0.05284795146
0.05394195649
0.05289195137
0.048997572
0.04245363961
0.03467300912
0.02697112568
0.01910874345
0.06780394051
0.06391847849
0.06200766225
0.06019579541
0.0588918135
0.05797702209
0.0566561945
0.05501408748
0.05354328137
0.05244323604
0.05151621117
0.05049172199
0.04920911794
0.04824695882
0.04755105384
0.04683149891
0.04600330539
0.04537457747
0.04537184483
0.04576951965
0.04566189716
0.0440196827
0.04029142326
0.03492103299
0.02933443723
0.02411415983
0.01795217914
0.06578919094
0.06355803878
0.06151009688
0.05968846689
0.05882397696
0.05788395617
0.05631393947
0.05440222767
0.05270294172
0.05146607999
0.05058403705
0.04986541899
0.04901389216
0.04821214457
0.04731639708
0.04612442847
0.04466063787
0.04315600931
0.0419017488
0.04087656356
0.03958867305
0.03735157196
0.03382178155
0.02949295347
0.02554668661
0.02205770928
0.01704244056
0.0645191283
0.06360365543
0.06276305318
0.06176674346
0.06079355378
0.05921380815
0.05704274034
0.05458494907
0.05239900816
0.0508512064
0.05002902055
0.04999082406
0.05051066732
0.05104184305
0.05059269321
0.04869820505
0.04579628766
0.04272867702
0.04006759576
0.03784053744
0.03564919611
0.03298674827
0.02964832931
0.02607323984
0.02314525942
0.02063247001
0.01626194259
0.06498371588
0.06611207619
0.06758386655
0.06775409643
0.06620290636
0.06320940505
0.05955040859
0.05585354666
0.05272966391
0.0506373699
0.04993445056
0.05114538197
0.05438498665
0.05796088388
0.05928243982
0.05711930168
0.05198804444
0.04589388457
0.04052913982
0.03645750546
0.03325439459
0.03024992343
0.02712341241
0.02412066024
0.02178589433
0.01967638633
0.01554199939
0.06786400891
0.07146684454
0.07516627134
0.07608893949
0.07376785896
0.06909079576
0.06341532665
0.05793669419
0.05346400202
0.05049385074
0.04970227569
0.05218610586
0.05855615729
0.06547546831
0.06905093671
0.06737479356
0.06090751685
0.0521397598
0.04343468451
0.03670891021
0.03202402453
0.02853533267
0.02558541209
0.02306712
0.02113335057
0.01911020031
0.01488898826
0.07252635587
0.07793453174
0.08302543407
0.08439780328
0.08164160887
0.0756129338
0.06794805239
0.06047163006
0.05441998828
0.05029223896
0.04894047012
0.05184473707
0.06027945691
0.06979608207
0.07541878641
0.0746794676
0.06782731997
0.05739684123
0.04652240072
0.03767915902
0.03172618413
0.0278039653
0.0249505643
0.02273821545
0.02101728649
0.0188969067
0.01433802182
0.07792130769
0.0831075698
0.08876052125
0.09056001207
0.08776085556
0.08092596675
0.07177048415
0.06258500454
0.05504561535
0.04977005582
0.04753355809
0.04975726833
0.05797596451
0.06854573318
0.07539906952
0.07559270294
0.06921665569
0.05887750701
0.04782817683
0.03887392068
0.0329240158
0.02899012827
0.02601534328
0.0235607752
0.02151088544
0.01897602889
0.01388600506
0.08304443034
0.08546094551
0.09094119212
0.0930297805
0.09034549179
0.08318019479
0.0732440709
0.06306916533
0.05461923019
0.04860095328
0.04563307988
0.04656687949
0.05272421407
0.06208212345
0.06886908674
0.06983128334
0.06495993925
0.05691554503
0.04837954537
0.04178104026
0.03715327415
0.03339041884
0.02969702651
0.02604724069
0.02275184359
0.01924957661
0.01348494692
0.08646360309
0.08418320155
0.08869982094
0.0908781865
0.0884124883
0.08136924026
0.07142601241
0.06116902437
0.0525992411
0.04660272933
0.04345197475
0.04324898641
0.04673683649
0.0533943553
0.05906064137
0.0608646705
0.05890027611
0.05489391316
0.05093523364
0.04770271321
0.044521685
0.04054480392
0.03544607299
0.02980111384
0.02451775363
0.01956389655
0.01308980963
0.08658200789
0.07966697412
0.08238904526
0.08448611174
0.08238143423
0.0758855162
0.06661299755
0.05703944658
0.04913586549
0.04392266132
0.04115854183
0.04036825906
0.0417009356
0.04539324443
0.0496682239
0.05277547647
0.05450604192
0.05543730846
0.0557463068
0.05493640129
0.05241715952
0.04774782355
0.04105289571
0.03336474342
0.02603378085
0.01962690975
0.01263236652
0.08180378087
0.07280869825
0.0734991534
0.07570694553
0.07418028224
0.06850493408
0.06015327266
0.05167480238
0.04512078094
0.04104111799
0.03890829106
0.03796461249
0.03802226254
0.03965323508
0.04297714016
0.04758166274
0.05271278398
0.05724595886
0.05995353097
0.06009450946
0.05754604695
0.05163304741
0.04403756538
0.03500646448
0.02636858019
0.01906151881
0.01196785222
0.07208623608
0.0644644705
0.06467364172
0.0666440108
0.06568499505
0.06086418584
0.05378432243
0.04685262194
0.04164947439
0.03847574267
0.03675822153
0.03574188929
0.03514663648
0.03564333092
0.03842788652
0.04390879354
0.05083338148
0.05700799865
0.06057815427
0.06083234184
0.05797066876
0.05248652168
0.04325948288
0.0340177368
0.02476640714
0.01754960916
0.0109542434
0.05995534575
0.05644715945
0.05790135183
0.0600036011
0.05931971293
0.05530773407
0.04947273515
0.04373567714
0.03929297775
0.03637709847
0.03457604043
0.03331219125
0.03231690647
0.03211933296
0.0341030896
0.03905676919
0.0457782639
0.05191546299
0.055502666
0.05566905284
0.05242489284
0.04617933578
0.03844687333
0.02909417236
0.02129285335
0.01519235276
0.009606501159
0.04736764261
0.04848658384
0.05169985009
0.05394034822
0.05331192818
0.04993612692
0.04510170354
0.04019839718
0.03609904575
0.03307843554
0.03096173227
0.02939772317
0.02814869927
0.02743613458
0.02816812536
0.03114403436
0.03576146826
0.04025416418
0.04291595626
0.04283266027
0.03995924565
0.03490169408
0.02871501652
0.02227838712
0.0166677778
0.01212152522
0.007865484964
0.03138666207
0.03419024119
0.03710854525
0.03849087039
0.03789078708
0.03571840301
0.0327104389
0.0295590829
0.02673183818
0.02443508271
0.02264246856
0.02121060102
0.02001596366
0.01908727681
0.01871543192
0.01935373447
0.02106376904
0.02312020169
0.02451322591
0.02462228525
0.02337224573
0.02105099203
0.01806185594
0.01469892003
0.0111883294
0.007766324126
0.005575878048
0.03443833555
0.03447585569
0.03674383766
0.03097269379
0.02888300928
0.03440831376
0.0426357944
0.05101329674
0.06334603126
0.07865574226
0.08897576837
0.09310670996
0.09510227275
0.1019388893
0.1352123741
0.05167742006
0.04741622371
0.04372514439
0.04009126989
0.0367500621
0.03597630703
0.03145301852
0.03259893172
0.040584693
0.050104744
0.05986398684
0.07443444729
0.08972259563
0.09870572067
0.1034727175
0.1078877772
0.1195838826
0.1592993785
0.2153529177
0.2609297847
0.3057955869
0.3522752515
0.3968104358
0.4230863633
0.3749933247
0.1459818905
0.06457570631
0.05923632241
0.05550584379
0.05284703067
0.0500832551
0.0464787267
0.04220356653
0.03812702178
0.03437123515
0.03672995522
0.04698782128
0.05821675014
0.06881863764
0.08356946405
0.0951797045
0.1031729101
0.1075480633
0.1114822197
0.118369997
0.1394639194
0.1987828069
0.2646238912
0.3310230125
0.3947308483
0.4315787786
0.4160816045
0.2999567449
0.08663374314
0.06614978043
0.0618397485
0.05940553348
0.05779239769
0.05558302988
0.05204654842
0.04812351271
0.04496785009
0.03963263412
0.04075301851
0.05200156075
0.0640243611
0.0738390321
0.0843051768
0.09593826659
0.1035063907
0.1082852426
0.1116000524
0.1120978534
0.105482511
0.1013293246
0.1211834017
0.1676169749
0.2343450658
0.2637368076
0.2234052613
0.1356126904
0.04489500177
0.06442234582
0.06232874623
0.0609895077
0.05908248032
0.05644206694
0.05621937033
0.05969208961
0.05047209176
0.04553329322
0.05544443516
0.06806931615
0.07694931508
0.08398332093
0.09213519328
0.09949806049
0.1050785989
0.1078645291
0.1058575013
0.09350126223
0.07640892706
0.06786955819
0.07327659248
0.09598866928
0.1108324474
0.09903201807
0.06634742289
0.03094576574
0.06541570038
0.06333693738
0.06203699468
0.06063587605
0.06092512425
0.07056494734
0.08385958756
0.07385753428
0.0543818771
0.05845346125
0.07162675625
0.08071806324
0.08584118294
0.0900092568
0.09505124424
0.099912052
0.1027377212
0.1012765401
0.09349983665
0.08223534989
0.0731589102
0.06720319445
0.06611040804
0.06650209936
0.06094968061
0.04709107823
0.02636942412
0.0646280959
0.06272883545
0.0615264677
0.06083548327
0.06417519388
0.08531931822
0.1030816804
0.1005768085
0.06716740667
0.06194455927
0.07629425915
0.08722481933
0.09105921344
0.09150005352
0.09301903926
0.0957504466
0.09789257978
0.09740686742
0.09353771216
0.08791306341
0.08232164081
0.07666682482
0.07002982318
0.06299141245
0.05481997267
0.04332779955
0.02391082226
0.06512379068
0.06231467734
0.06055784761
0.05948583426
0.06017508892
0.06719557386
0.08566527945
0.08646302479
0.06297853086
0.06363791916
0.08197465098
0.09462079792
0.09673306865
0.09460128254
0.09306887801
0.09332758189
0.09411815157
0.09376021841
0.09198562976
0.08961130802
0.08711479122
0.08386497181
0.07814256658
0.06901433558
0.05713541047
0.04337585626
0.02247329394
0.07219316977
0.06496710465
0.06103246494
0.05938298274
0.05938050432
0.06076154788
0.06317111889
0.06243524855
0.05765565974
0.06442035146
0.08402974167
0.09680085716
0.09841533514
0.09597235185
0.09355215746
0.09218547199
0.09148869358
0.09052455042
0.08938882247
0.08861756724
0.0882219881
0.08720175551
0.08339350086
0.07483706651
0.06121272482
0.04469833178
0.02265007482
0.07915347869
0.06873197425
0.06251664595
0.06063603233
0.06182746698
0.06406994639
0.06402897142
0.06228715167
0.05952466852
0.0636426943
0.0784977629
0.09210836488
0.09573932959
0.09452207981
0.09199717532
0.08985481274
0.08854979718
0.08743639197
0.08663086904
0.08665888081
0.08750860012
0.08806566633
0.08590398569
0.07833656561
0.06445611603
0.04620196159
0.02369418727
0.07284764878
0.06588332093
0.06226225941
0.06174455241
0.06453669381
0.06717621623
0.06726355558
0.0652606156
0.06271087501
0.06355562901
0.07127974829
0.08251003278
0.08773356096
0.08812450886
0.08638199188
0.08486643847
0.08437631552
0.08416298379
0.08412491161
0.08481652475
0.08636553483
0.08770271612
0.08634365093
0.07939089059
0.06568359443
0.04682078391
0.02445381351
0.0708402504
0.065357025
0.06222512841
0.06148969616
0.0632337721
0.06565886624
0.06598741378
0.06498391621
0.06368292463
0.06350471704
0.06643977858
0.07278505018
0.07748131451
0.07866441477
0.07807789286
0.07787830143
0.07884485442
0.0801715123
0.0814054159
0.08292212892
0.08488166458
0.08629838335
0.08483746654
0.0778305844
0.06429033532
0.04572879586
0.02444805418
0.06897020264
0.06426907884
0.06130799059
0.06023551985
0.0607341729
0.06228714597
0.06283012976
0.06272517697
0.06263896133
0.06267142314
0.06360911242
0.06622037982
0.06896630666
0.06993132103
0.06999976916
0.07064369253
0.07252643682
0.07509536594
0.07760244475
0.07997855407
0.08215217278
0.08315608912
0.08096164469
0.07346528257
0.06019489641
0.04288193787
0.02373075058
0.0696605939
0.06328544286
0.06014057604
0.05900761721
0.05892805643
0.0594956229
0.05996841725
0.06037797797
0.06082485143
0.06119464618
0.06151308783
0.06225532651
0.0632141908
0.06360965137
0.06371990918
0.06443754462
0.06628572391
0.06912618107
0.07225812191
0.07512907103
0.07723541164
0.07753598334
0.07439383908
0.0665180126
0.05399166769
0.03894783695
0.02263152389
0.09750808731
0.06978303217
0.06069158565
0.05859217615
0.05814382883
0.05826627654
0.05846695613
0.05869629345
0.05901042931
0.05932137735
0.05951113617
0.05957837596
0.05960478916
0.0594733307
0.05934265479
0.0596710184
0.06083252017
0.06302059721
0.06581365458
0.06845121005
0.07005844791
0.06951509592
0.06563455964
0.05774499137
0.04687696872
0.03486816273
0.0214928798
0.08491238241
0.06585572585
0.06015695852
0.05876274667
0.05825213982
0.05803322561
0.05773102637
0.05742629381
0.05733027701
0.05743080843
0.05754433591
0.05751863374
0.05728974497
0.05692083114
0.05651041047
0.05630842767
0.05658571087
0.05760293643
0.05928424816
0.06097810313
0.06166804323
0.06025130885
0.05591241389
0.04876132851
0.04021467522
0.0313600958
0.02050496522
0.06747552861
0.06213366053
0.06010780021
0.05909538793
0.05850208291
0.05785154166
0.05694845867
0.05616608417
0.05575637935
0.05571319626
0.05586508614
0.05602900796
0.05604033486
0.05579859746
0.05527627054
0.05444048488
0.05380737403
0.05360592829
0.05386949906
0.05417307341
0.05367850503
0.05148488291
0.04713458433
0.04115293534
0.03492349634
0.02868636068
0.01967950476
0.06341933046
0.06216632146
0.06093358354
0.05969257957
0.05902222296
0.05806624087
0.05668011864
0.05544458316
0.05468355057
0.05448604585
0.05479986016
0.0555072693
0.05631936107
0.05668484989
0.0561469288
0.05471125695
0.0529652162
0.05139701421
0.05020383238
0.04911468494
0.04749869155
0.04471408933
0.04057179837
0.0357124285