/*--------------------------------*- C++ -*----------------------------------*\
  =========                 |
  \\      /  F ield         | OpenFOAM: The Open Source CFD Toolbox
   \\    /   O peration     | Website:  https://openfoam.org
    \\  /    A nd           | Version:  8
     \\/     M anipulation  |
\*---------------------------------------------------------------------------*/
FoamFile
{
    version     2.0;
    format      ascii;
    class       volScalarField;
    location    "1.6";
    object      N2;
}
// * * * * * * * * * * * * * * * * * * * * * * * * * * * * * * * * * * * * * //

dimensions      [0 0 0 0 0 0 0];

internalField   nonuniform List<scalar> 
67451
(
0.7899995002
0.7900001706
0.7900002928
0.7900004188
0.7900003715
0.7900003592
0.7900003938
0.7900004555
0.7900004573
0.7900004137
0.7900003614
0.7899983836
0.7899987186
0.789999096
0.7899994929
0.7899998818
0.7900002402
0.7900004918
0.7900004618
0.7900003563
0.7900003296
0.7900003622
0.7900004135
0.7900003775
0.7900003821
0.7900003537
0.7900004096
0.7900006435
0.790001008
0.7900012072
0.7900011379
0.7900017642
0.79000144
0.7900016366
0.7900032537
0.7900037806
0.7900032664
0.7899985068
0.7899987582
0.7899990079
0.7899992551
0.7899995196
0.7899998038
0.7900000849
0.7900003442
0.7900005507
0.7900004552
0.79000032
0.7900002722
0.79000028
0.7900003003
0.7900003508
0.7900003677
0.7900003292
0.7900003633
0.7900005057
0.7900007305
0.7900009777
0.7900010529
0.7900014136
0.7900008406
0.790001236
0.7900022398
0.7900018357
0.7899999959
0.7899991141
0.7899993187
0.7899994683
0.7899996018
0.7899997669
0.789999968
0.7900001772
0.7900003707
0.7900005671
0.7900004657
0.7900003038
0.7900002388
0.7900002255
0.7900002696
0.790000351
0.7900004393
0.7900004837
0.7900005639
0.7900007227
0.7900009359
0.7900008295
0.7900007454
0.7900009699
0.7900002632
0.7900004722
0.7900007516
0.7900000588
0.78999862
0.7899997036
0.7899997813
0.7899998418
0.7899999437
0.7900000824
0.7900002237
0.7900002914
0.7900005346
0.7900005014
0.7900003146
0.7900002408
0.7900002033
0.7900002179
0.7900002617
0.7900003702
0.7900004697
0.7900006355
0.7900008035
0.7900008818
0.7900007131
0.7900005318
0.7900005237
0.7900000346
0.7899999925
0.7899997073
0.7899992377
0.7899985959
0.7899999628
0.790000025
0.790000063
0.7900001259
0.7900002198
0.7900003427
0.7900004124
0.7900005172
0.7900005666
0.790000359
0.7900002803
0.7900002268
0.7900002362
0.790000256
0.7900003266
0.7900004123
0.7900005892
0.7900007051
0.7900007082
0.7900006287
0.7900005274
0.7900004143
0.7900001952
0.7899999762
0.7899995856
0.7899994768
0.7899992846
0.7900001722
0.7900002348
0.790000266
0.7900002961
0.7900003518
0.7900004052
0.7900006649
0.7900005212
0.7900006307
0.7900004574
0.7900003604
0.7900003011
0.7900003233
0.7900003121
0.7900003661
0.7900004139
0.790000505
0.7900005745
0.7900005783
0.7900005459
0.7900005166
0.7900004678
0.7900004024
0.7900002453
0.7899999959
0.7899999941
0.7899999308
0.7900003024
0.7900003632
0.7900003933
0.7900004056
0.7900004355
0.7900004129
0.7900005388
0.7900011732
0.7900004536
0.7900005015
0.7900004008
0.7900003547
0.7900003717
0.7900003489
0.790000375
0.7900004251
0.79000049
0.7900005109
0.7900004725
0.7900004439
0.7900004401
0.7900004463
0.7900004487
0.7900004099
0.7900003171
0.7900003348
0.7900003594
0.7900003382
0.7900004062
0.7900004476
0.790000468
0.790000482
0.7900004988
0.7900005665
0.7900005885
0.7900007298
0.7900006303
0.7900005448
0.790000518
0.7900005883
0.7900005688
0.7900004879
0.7900004809
0.7900005252
0.7900004883
0.7900004049
0.790000369
0.7900003719
0.7900003957
0.7900004267
0.7900004559
0.7900004671
0.7900005149
0.790000625
0.7900001212
0.7900003213
0.7900004375
0.7900004963
0.7900005117
0.7900005201
0.7900005512
0.790000589
0.7900007168
0.7900007135
0.7900005148
0.7900004978
0.7900006037
0.7900005088
0.7900004376
0.7900004641
0.7900005315
0.7900004752
0.7900003798
0.7900003486
0.7900003571
0.7900003887
0.7900004326
0.7900004847
0.7900005482
0.7900006188
0.7900007498
0.7900003056
0.7900003961
0.790000482
0.7900005415
0.79000056
0.7900006324
0.7900005784
0.7900006091
0.7900007022
0.7900007791
0.7900006086
0.7900004647
0.7900005281
0.7900004267
0.7900004045
0.7900004573
0.7900005315
0.7900004792
0.7900003791
0.7900003495
0.7900003598
0.7900003952
0.7900004463
0.7900005097
0.7900005939
0.790000675
0.790000783
0.7900002689
0.790000369
0.7900004722
0.7900005479
0.7900005778
0.7900006515
0.7900005743
0.7900005934
0.7900006759
0.7900007742
0.7900007368
0.7900005352
0.7900004723
0.7900003909
0.790000393
0.7900004393
0.7900005062
0.7900004891
0.7900003989
0.7900003689
0.7900003791
0.7900004164
0.7900004715
0.7900005409
0.7900006301
0.7900007033
0.790000767
0.7900001876
0.7900002984
0.7900004264
0.7900005273
0.790000581
0.7900006142
0.7900005985
0.7900006097
0.7900006612
0.7900007425
0.7900007857
0.7900006663
0.7900005039
0.7900004099
0.7900003919
0.7900004096
0.7900004554
0.7900004837
0.7900004306
0.7900004061
0.7900004173
0.7900004559
0.7900005133
0.7900005859
0.7900006688
0.7900007152
0.7900007231
0.7900001674
0.7900002426
0.7900003709
0.7900004883
0.7900005627
0.7900005981
0.7900005998
0.7900006069
0.7900006354
0.7900006931
0.7900007567
0.7900007363
0.7900006001
0.7900004797
0.7900004173
0.7900003969
0.7900004112
0.7900004556
0.7900004566
0.7900004527
0.7900004708
0.7900005127
0.790000573
0.7900006467
0.7900007116
0.7900007136
0.7900006652
0.7900001102
0.790000175
0.7900003026
0.7900004303
0.7900005274
0.7900005813
0.7900005957
0.7900005983
0.7900006123
0.7900006492
0.7900007078
0.7900007378
0.7900006783
0.7900005717
0.7900004792
0.7900004234
0.7900004047
0.7900004317
0.7900004686
0.790000496
0.7900005303
0.7900005802
0.7900006451
0.7900007146
0.7900007508
0.7900006982
0.7900006086
0.7900000099
0.7900000879
0.7900002278
0.7900003748
0.7900004964
0.7900005698
0.7900005902
0.7900005891
0.7900005941
0.7900006169
0.7900006612
0.7900007069
0.7900007057
0.7900006452
0.7900005597
0.7900004893
0.7900004482
0.7900004478
0.7900004829
0.7900005309
0.7900005843
0.7900006457
0.7900007151
0.7900007764
0.7900007799
0.7900006782
0.7900005739
0.7900000428
0.7900000941
0.7900002167
0.7900003627
0.7900004932
0.7900005651
0.790000575
0.7900005689
0.7900005714
0.7900005876
0.7900006212
0.790000668
0.7900006975
0.7900006849
0.7900006336
0.7900005763
0.7900005318
0.7900005136
0.7900005299
0.7900005735
0.7900006325
0.790000701
0.7900007742
0.7900008281
0.7900008049
0.7900006743
0.7900005772
0.7900000702
0.7900001399
0.7900003085
0.7900004184
0.7900005148
0.7900005958
0.7900005853
0.7900005567
0.7900005499
0.7900005615
0.7900005894
0.7900006345
0.7900006801
0.7900007053
0.7900006982
0.7900006703
0.7900006373
0.7900006153
0.7900006168
0.7900006452
0.7900006955
0.7900007609
0.7900008321
0.7900008785
0.7900008409
0.7900007046
0.7900006197
0.7900000768
0.790000167
0.7900003371
0.7900004502
0.7900005499
0.7900006248
0.7900006066
0.7900005673
0.7900005486
0.7900005498
0.7900005705
0.790000614
0.7900006676
0.7900007208
0.7900007546
0.7900007601
0.7900007464
0.7900007306
0.7900007282
0.7900007466
0.7900007858
0.7900008413
0.7900009024
0.7900009372
0.7900008931
0.790000765
0.7900006862
0.7900000931
0.7900002079
0.7900003649
0.7900004877
0.7900005928
0.7900006568
0.790000644
0.7900006025
0.7900005688
0.7900005542
0.7900005655
0.7900006088
0.7900006709
0.7900007405
0.7900008001
0.7900008363
0.7900008448
0.7900008394
0.7900008409
0.7900008595
0.7900008948
0.7900009412
0.7900009857
0.7900009998
0.7900009474
0.7900008325
0.7900007572
0.7900001316
0.7900002688
0.7900003883
0.7900004716
0.7900005496
0.790000616
0.7900006401
0.7900006278
0.7900005971
0.790000571
0.7900005717
0.7900006212
0.7900006939
0.7900007608
0.7900008302
0.7900008911
0.7900009303
0.7900009486
0.7900009547
0.790000971
0.7900010031
0.790001041
0.7900010651
0.7900010506
0.7900009847
0.7900008862
0.7900008212
0.7900001998
0.7900003481
0.7900004074
0.7900004376
0.7900004904
0.790000557
0.7900006087
0.7900006303
0.7900006187
0.7900005896
0.7900005778
0.7900006266
0.7900007066
0.7900007881
0.7900008789
0.7900009533
0.7900009991
0.790001022
0.7900010315
0.7900010486
0.7900010819
0.7900011148
0.7900011205
0.7900010798
0.790001003
0.7900009243
0.7900008786
0.7900002276
0.7900004063
0.7900004295
0.7900004324
0.7900004721
0.7900005316
0.7900005889
0.7900006257
0.7900006272
0.7900005968
0.7900005737
0.7900006127
0.7900006907
0.7900008042
0.7900009164
0.7900009902
0.7900010265
0.7900010418
0.7900010502
0.7900010719
0.7900011097
0.7900011416
0.7900011405
0.7900010932
0.7900010211
0.790000964
0.7900009392
0.7900003406
0.7900004663
0.7900004707
0.7900004666
0.7900004969
0.7900005436
0.790000592
0.7900006268
0.7900006272
0.7900005905
0.7900005612
0.790000591
0.7900006627
0.7900008027
0.7900009278
0.7900009941
0.7900010165
0.7900010204
0.7900010251
0.7900010523
0.7900010982
0.7900011401
0.7900011527
0.7900011237
0.7900010702
0.7900010273
0.7900010113
0.7900004129
0.7900004545
0.7900004815
0.7900005115
0.7900005489
0.790000586
0.7900006206
0.7900006422
0.7900006252
0.7900005795
0.7900005525
0.7900005829
0.7900006538
0.7900007986
0.790000927
0.7900009849
0.7900009961
0.7900009934
0.7900010078
0.7900010522
0.7900011152
0.7900011733
0.7900012037
0.7900011955
0.7900011585
0.7900011159
0.7900010899
0.7900003625
0.7900003454
0.7900004265
0.790000539
0.7900006135
0.7900006531
0.7900006746
0.7900006721
0.7900006295
0.7900005789
0.7900005643
0.7900006053
0.7900006842
0.7900008203
0.7900009394
0.7900009913
0.790001001
0.7900010108
0.7900010473
0.7900011104
0.7900011839
0.7900012511
0.7900012902
0.7900012877
0.7900012562
0.7900012041
0.7900011521
0.7900002123
0.7900001867
0.7900003401
0.7900005539
0.7900006847
0.7900007366
0.7900007408
0.7900007083
0.7900006514
0.7900006081
0.7900006117
0.7900006657
0.7900007542
0.7900008834
0.790000995
0.7900010463
0.790001064
0.7900010899
0.7900011388
0.7900012028
0.7900012723
0.7900013494
0.7900014392
0.7900013722
0.7900013273
0.7900012571
0.7900011673
0.7900000421
0.790000083
0.790000323
0.7900006005
0.7900007657
0.7900008229
0.7900008149
0.7900007698
0.7900007153
0.7900006867
0.790000704
0.790000763
0.7900008535
0.7900009761
0.7900010868
0.7900011454
0.7900011749
0.7900012093
0.7900012546
0.7900013023
0.7900013485
0.7900014042
0.7900011483
0.7900012984
0.7900013196
0.7900012388
0.7900011002
0.7900000076
0.7900001693
0.7900004646
0.7900007364
0.7900008877
0.790000937
0.790000926
0.7900008849
0.7900008415
0.7900008226
0.7900008417
0.7900008955
0.7900009776
0.7900010856
0.7900011901
0.7900012579
0.7900013007
0.7900013404
0.7900013792
0.7900014111
0.7900014296
0.790001424
0.7900012819
0.7900013429
0.7900012793
0.7900011153
0.7900008873
0.7900002751
0.7900005115
0.7900007749
0.7900009746
0.790001079
0.7900011104
0.7900010971
0.7900010615
0.7900010255
0.7900010105
0.7900010274
0.7900010736
0.790001141
0.7900012224
0.7900013014
0.7900013613
0.7900014066
0.7900014452
0.790001474
0.7900014863
0.7900014778
0.7900014426
0.7900013581
0.7900012662
0.7900010631
0.7900007028
0.7900003448
0.7900007886
0.7900009853
0.7900011656
0.7900012808
0.7900013266
0.7900013248
0.7900012987
0.7900012691
0.7900012538
0.7900012623
0.7900012922
0.790001334
0.7900013783
0.7900014182
0.7900014465
0.7900014617
0.7900014744
0.790001487
0.7900014875
0.7900014638
0.7900014108
0.7900013232
0.7900011838
0.7900009588
0.7900005111
0.7899997665
0.7899993675
0.7899993004
0.789999937
0.7900001801
0.7900003381
0.7900003067
0.7900002547
0.7900002335
0.7900002919
0.7900002795
0.7900002022
0.7900001388
0.7899982767
0.7899985088
0.7899988333
0.7899992286
0.7899996479
0.7900000659
0.790000347
0.7900004113
0.7900003163
0.7900002323
0.7900002257
0.7900002561
0.7900002565
0.7900001841
0.7900001465
0.7900001445
0.7900002014
0.7900003044
0.7900001929
0.7899999145
0.7899997762
0.7899996117
0.7899992397
0.7899990559
0.7899990815
0.789998586
0.7899984747
0.7899985794
0.7899987132
0.7899989014
0.7899991676
0.7899994969
0.7899998439
0.7900001868
0.7900004312
0.7900004366
0.7900003029
0.7900001991
0.7900001873
0.7900002175
0.7900003021
0.7900002024
0.7900001735
0.7900001716
0.7900002309
0.7900003537
0.7900004322
0.7900003572
0.7900001026
0.7899999716
0.7899997826
0.7899996249
0.7899994572
0.7899989977
0.7899989025
0.7899989834
0.7899990586
0.7899991811
0.7899993858
0.7899996602
0.7899999621
0.7900002703
0.79000048
0.790000459
0.7900003003
0.7900001704
0.7900001331
0.7900001505
0.7900002021
0.7900002384
0.7900002656
0.790000294
0.7900003648
0.790000502
0.7900005634
0.7900004964
0.7900001854
0.7899999017
0.7899997672
0.7899995117
0.7899996141
0.7899992224
0.7899992977
0.7899993286
0.7899994072
0.7899995648
0.7899997933
0.7900000702
0.790000421
0.790000526
0.7900004977
0.7900003255
0.7900001725
0.7900001113
0.7900001192
0.7900001752
0.7900002374
0.790000293
0.7900003396
0.7900003982
0.7900005011
0.7900004791
0.7900004058
0.7900003271
0.7900001885
0.7900001279
0.7899999805
0.7899999201
0.7899996056
0.7899995509
0.7899995688
0.7899996251
0.7899997432
0.7899999231
0.7900001346
0.790000397
0.7900005442
0.790000557
0.7900003789
0.7900002118
0.7900001242
0.7900001058
0.7900001403
0.7900001969
0.7900002583
0.7900003132
0.7900003587
0.7900003976
0.7900003719
0.7900003285
0.7900002785
0.7900002151
0.7900001514
0.7900000889
0.7900000144
0.7899998557
0.7899997781
0.7899997952
0.7899998381
0.789999921
0.7900000618
0.7900002548
0.790000675
0.7900006704
0.7900006483
0.7900004558
0.7900002831
0.7900001781
0.7900001411
0.7900001579
0.7900001923
0.7900002358
0.7900002707
0.7900002876
0.7900002839
0.7900002644
0.7900002499
0.7900002333
0.7900002194
0.7900001951
0.7900001538
0.7900000958
0.7900000208
0.7899999771
0.7899999844
0.7900000106
0.79000006
0.7900001404
0.79000024
0.7900004096
0.7900003134
0.7900007449
0.7900005475
0.7900003629
0.7900002528
0.7900001719
0.7900001976
0.7900002096
0.7900002338
0.7900002477
0.7900002367
0.7900002063
0.790000178
0.7900001684
0.7900001769
0.7900001948
0.7900002149
0.7900002169
0.7900002127
0.7900002103
0.7900001164
0.7900001224
0.7900001366
0.790000164
0.7900002136
0.7900002859
0.7900004066
0.7900005601
0.7900006187
0.7900005482
0.7900003962
0.7900002541
0.7900001491
0.7900001989
0.7900002245
0.7900002464
0.790000244
0.7900002041
0.7900001488
0.7900001076
0.7900000967
0.790000119
0.7900001648
0.790000217
0.790000262
0.7900003181
0.7900004056
0.7900003328
0.7900002322
0.7900002251
0.7900002408
0.7900002717
0.7900003093
0.7900004019
0.7900005089
0.7900006092
0.7900005919
0.7900004566
0.7900003348
0.7900002319
0.7900002443
0.7900002441
0.7900002515
0.7900002406
0.7900001867
0.7900001177
0.7900000689
0.7900000575
0.7900000882
0.7900001515
0.7900002276
0.7900002988
0.7900003938
0.790000531
0.7900001558
0.7900002047
0.790000254
0.7900002924
0.7900003308
0.7900003458
0.7900004157
0.7900004955
0.7900005737
0.7900005992
0.790000493
0.7900003684
0.7900002757
0.7900002538
0.7900002399
0.7900002442
0.7900002375
0.790000186
0.7900001145
0.7900000639
0.7900000546
0.7900000928
0.7900001688
0.790000261
0.7900003464
0.7900004493
0.7900005845
0.790000283
0.7900002789
0.790000302
0.7900003276
0.7900003494
0.7900003339
0.7900004043
0.7900004736
0.7900005387
0.7900005816
0.7900005338
0.7900004101
0.7900003073
0.7900002514
0.7900002263
0.7900002301
0.7900002334
0.7900001984
0.7900001374
0.7900000933
0.7900000907
0.7900001373
0.7900002226
0.7900003227
0.790000408
0.790000494
0.7900005909
0.7900002443
0.7900002619
0.7900003031
0.7900003433
0.7900003728
0.7900003943
0.7900004154
0.7900004479
0.7900004975
0.7900005443
0.7900005407
0.7900004525
0.7900003423
0.7900002576
0.7900002165
0.7900002144
0.7900002264
0.7900002144
0.7900001787
0.7900001529
0.7900001637
0.7900002204
0.7900003121
0.7900004114
0.7900004827
0.7900005305
0.7900005695
0.7900001707
0.7900002127
0.7900002792
0.7900003326
0.790000367
0.7900003859
0.7900004029
0.7900004278
0.7900004637
0.7900005025
0.7900005191
0.7900004743
0.7900003795
0.7900002834
0.7900002221
0.7900002048
0.7900002172
0.7900002285
0.7900002264
0.7900002301
0.790000262
0.7900003312
0.7900004266
0.7900005166
0.790000562
0.7900005556
0.7900005358
0.7899998207
0.7900000241
0.7900001655
0.7900002655
0.7900003284
0.7900003616
0.7900003799
0.7900003984
0.7900004259
0.7900004598
0.7900004841
0.7900004722
0.7900004089
0.7900003203
0.7900002472
0.7900002143
0.7900002191
0.7900002451
0.7900002729
0.7900003094
0.7900003665
0.7900004498
0.7900005456
0.7900006204
0.7900006341
0.7900005701
0.7900005076
0.7899995043
0.7899998679
0.7900000644
0.7900001933
0.7900002756
0.7900003178
0.7900003385
0.7900003572
0.7900003831
0.7900004157
0.7900004456
0.7900004547
0.7900004244
0.7900003585
0.7900002877
0.7900002488
0.7900002465
0.7900002749
0.7900003221
0.7900003835
0.7900004616
0.790000556
0.7900006518
0.7900007128
0.7900006925
0.7900005841
0.790000503
0.7899997194
0.7899998953
0.7900000366
0.7900001514
0.790000237
0.7900002724
0.7900002893
0.7900003113
0.7900003402
0.7900003737
0.7900004077
0.7900004308
0.7900004288
0.790000392
0.7900003341
0.7900003066
0.7900003063
0.790000333
0.7900003846
0.7900004566
0.7900005454
0.7900006449
0.7900007377
0.7900007859
0.7900007413
0.7900006139
0.7900005316
0.7899998087
0.7899999145
0.7899999877
0.7900000862
0.790000188
0.7900002158
0.7900002321
0.7900002648
0.7900003016
0.7900003376
0.7900003755
0.7900004111
0.7900004344
0.790000433
0.7900004112
0.7900004002
0.7900004031
0.7900004261
0.790000473
0.7900005424
0.7900006291
0.7900007238
0.7900008077
0.7900008446
0.7900007914
0.7900006665
0.7900005887
0.7899998299
0.789999921
0.7899999939
0.7900000869
0.7900001799
0.7900002133
0.7900002307
0.7900002546
0.7900002808
0.790000311
0.7900003506
0.7900003964
0.7900004365
0.7900004604
0.7900004726
0.7900004876
0.7900005075
0.7900005373
0.7900005827
0.7900006461
0.7900007235
0.7900008054
0.7900008739
0.7900008979
0.7900008447
0.7900007336
0.7900006597
0.7899998226
0.7899999059
0.789999971
0.7900000446
0.7900001263
0.7900001818
0.7900002179
0.7900002435
0.7900002648
0.7900002926
0.7900003349
0.7900003874
0.7900004273
0.7900004443
0.7900004638
0.790000506
0.7900005652
0.790000628
0.7900006918
0.7900007585
0.790000828
0.7900008939
0.7900009409
0.7900009457
0.7900008915
0.7900007975
0.7900007296
0.7899998089
0.7899998742
0.7899998949
0.7899999257
0.7899999945
0.7900000794
0.790000156
0.7900002113
0.7900002494
0.7900002856
0.7900003323
0.7900003899
0.7900004191
0.7900004128
0.7900004256
0.7900004876
0.7900005848
0.790000687
0.790000783
0.7900008638
0.7900009299
0.7900009794
0.7900010011
0.7900009813
0.7900009216
0.7900008452
0.7900007903
0.7899998104
0.7899998486
0.7899998129
0.7899998014
0.7899998605
0.789999969
0.7900000854
0.7900001786
0.7900002419
0.7900002903
0.7900003401
0.7900004009
0.7900004258
0.7900004111
0.790000427
0.7900005043
0.7900006233
0.790000749
0.7900008607
0.7900009484
0.7900010081
0.790001041
0.79000104
0.7900009997
0.7900009366
0.790000879
0.7900008442
0.7899998066
0.7899998414
0.7899997754
0.7899997432
0.7899997984
0.7899999182
0.7900000572
0.7900001755
0.790000256
0.79000031
0.7900003574
0.7900004165
0.7900004514
0.7900004513
0.7900004832
0.7900005688
0.7900006876
0.7900008073
0.7900009097
0.7900009848
0.7900010312
0.7900010529
0.7900010447
0.790001004
0.7900009511
0.7900009146
0.7900009011
0.789999776
0.7899998562
0.789999806
0.7899997808
0.7899998374
0.7899999569
0.7900000979
0.7900002195
0.7900002987
0.7900003479
0.7900003865
0.7900004395
0.790000488
0.7900005177
0.7900005702
0.790000654
0.7900007501
0.7900008358
0.7900009058
0.7900009562
0.7900009945
0.7900010228
0.7900010321
0.7900010154
0.790000987
0.79000097
0.7900009697
0.7899997746
0.7899999101
0.7899999067
0.7899999093
0.7899999725
0.7900000839
0.7900002092
0.7900003115
0.790000373
0.7900004057
0.7900004316
0.7900004784
0.7900005386
0.7900005974
0.7900006636
0.7900007327
0.7900007896
0.7900008328
0.7900008679
0.7900009059
0.7900009527
0.7900010026
0.7900010402
0.7900010552
0.7900010535
0.7900010475
0.7900010456
0.7899998291
0.7900000049
0.790000062
0.790000104
0.7900001777
0.7900002755
0.7900003708
0.7900004368
0.7900004715
0.7900004806
0.7900004957
0.7900005404
0.7900006102
0.7900006902
0.7900007605
0.7900008039
0.7900008204
0.7900008282
0.7900008486
0.7900008929
0.790000957
0.7900010287
0.7900010893
0.7900011246
0.7900011374
0.7900011286
0.7900011067
0.7899999591
0.7900001444
0.7900002545
0.7900003307
0.7900004106
0.7900004892
0.7900005527
0.7900005843
0.7900005819
0.7900005703
0.7900005814
0.7900006284
0.7900007045
0.7900007937
0.7900008602
0.7900008797
0.7900008688
0.7900008627
0.7900008858
0.7900009415
0.7900010188
0.7900011253
0.7900012114
0.790001218
0.7900012129
0.7900011808
0.7900011203
0.7900001747
0.7900003321
0.7900004585
0.790000556
0.7900006346
0.7900006951
0.790000728
0.7900007245
0.7900006978
0.79000068
0.7900006943
0.7900007438
0.7900008205
0.790000909
0.7900009703
0.7900009798
0.7900009622
0.790000956
0.7900009813
0.7900010362
0.7900011062
0.7900012032
0.7900014005
0.7900012794
0.7900012334
0.7900011597
0.7900010442
0.790000446
0.790000558
0.7900006658
0.7900007559
0.7900008241
0.7900008677
0.7900008799
0.7900008619
0.7900008341
0.7900008227
0.790000842
0.7900008911
0.790000962
0.7900010416
0.7900010993
0.7900011142
0.790001105
0.7900011019
0.7900011198
0.7900011561
0.7900012005
0.7900012511
0.7900012755
0.79000124
0.7900011581
0.7900009978
0.7900008046
0.7900007489
0.7900008174
0.7900008874
0.7900009522
0.7900010038
0.7900010354
0.7900010415
0.7900010276
0.7900010112
0.7900010106
0.7900010345
0.7900010804
0.7900011397
0.7900012013
0.7900012477
0.7900012667
0.7900012676
0.7900012663
0.7900012714
0.7900012814
0.7900012885
0.7900012824
0.7900012342
0.7900011204
0.7900008838
0.7900005211
0.7900002346
0.7900010427
0.7900010903
0.7900011464
0.7900011958
0.7900012297
0.790001246
0.7900012481
0.7900012459
0.7900012515
0.7900012717
0.790001305
0.7900013447
0.7900013826
0.7900014113
0.7900014234
0.7900014171
0.7900014013
0.7900013837
0.7900013619
0.7900013291
0.7900012773
0.790001194
0.7900010497
0.7900007897
0.790000285
0.7899995384
0.7899992702
0.7899986321
0.7899991236
0.7899995481
0.7900000269
0.7900002147
0.79000022
0.7900002032
0.7900001781
0.79000017
0.7900001249
0.7900000754
0.7900000482
0.79000004
0.7900000517
0.7900000643
0.7899982047
0.7899983793
0.7899986583
0.7899990255
0.7899994438
0.7899998668
0.7900001741
0.7900002934
0.7900002441
0.790000171
0.7900001074
0.7900001429
0.7900001091
0.790000074
0.790000056
0.7900000661
0.790000096
0.7900001127
0.7899999715
0.7899997747
0.7899996515
0.7899994857
0.7899993092
0.7899993329
0.7899995515
0.7899994866
0.7899984667
0.7899984862
0.7899985646
0.7899987196
0.7899989635
0.7899992827
0.7899996438
0.7900000037
0.7900002697
0.7900003356
0.7900002471
0.7900001515
0.790000101
0.7900001471
0.7900000319
0.7900000964
0.7900000773
0.7900000979
0.7900001378
0.7900001881
0.7900001967
0.7900001044
0.7899999999
0.7899998655
0.7899997478
0.789999742
0.7899996737
0.7899993661
0.7899987929
0.7899988095
0.7899988631
0.7899989814
0.7899991828
0.7899994576
0.7899997726
0.7900000944
0.7900003233
0.7900003621
0.7900002511
0.7900001329
0.7900000744
0.7900000855
0.790000111
0.7900001411
0.7900001675
0.7900001921
0.7900002224
0.790000266
0.7900002752
0.7900002075
0.7900000053
0.789999852
0.7899996844
0.789999659
0.7899995488
0.789999439
0.7899990879
0.7899991161
0.7899992018
0.7899993647
0.7899996005
0.7899998769
0.7900001406
0.790000351
0.7900003885
0.7900002672
0.7900001349
0.7900000617
0.7900000666
0.7900001065
0.7900001677
0.7900002152
0.7900002428
0.7900002587
0.7900002781
0.7900002675
0.7900002112
0.790000107
0.7899999714
0.7899998212
0.789999737
0.7899996716
0.789999582
0.7899993269
0.7899993456
0.7899994084
0.7899995336
0.789999716
0.7899999065
0.7900001329
0.7900003171
0.7900004136
0.7900002941
0.7900001579
0.7900000711
0.7900000535
0.7900000895
0.7900001462
0.7900001961
0.7900002212
0.790000224
0.7900002142
0.790000194
0.7900001554
0.7900000974
0.7900000261
0.7899999114
0.7899998579
0.7899998097
0.7899997504
0.7899995557
0.7899995647
0.7899996098
0.7899997029
0.7899998531
0.7900000592
0.790000194
0.7900002753
0.7900004463
0.7900003289
0.7900002005
0.7900001104
0.7900000774
0.7900000964
0.7900001316
0.7900001638
0.7900001753
0.7900001647
0.79000014
0.7900001113
0.7900000845
0.7900000681
0.790000047
0.7900000059
0.7899999731
0.7899999405
0.7899999134
0.7899997507
0.7899997554
0.7899997852
0.7899998448
0.7899999355
0.790000047
0.7900002458
0.7900000751
0.7900004171
0.7900003403
0.7900002423
0.7900001525
0.7900001004
0.7900001145
0.7900001311
0.7900001414
0.7900001342
0.7900001083
0.7900000708
0.7900000364
0.7900000179
0.7900000214
0.7900000395
0.7900000541
0.7900000597
0.7900000588
0.7900000658
0.7899998992
0.7899998993
0.789999924
0.7899999668
0.7900000288
0.7900001068
0.7900002293
0.7900003144
0.7900004142
0.7900003809
0.7900002772
0.7900001696
0.7900000965
0.7900001144
0.7900001305
0.7900001296
0.7900001068
0.7900000638
0.7900000117
0.7899999684
0.7899999509
0.7899999702
0.7900000178
0.7900000727
0.7900001199
0.7900001578
0.7900002146
0.7900000382
0.7900000361
0.7900000474
0.790000073
0.7900001116
0.7900001528
0.7900002444
0.7900003259
0.7900004169
0.7900004076
0.7900003208
0.7900002212
0.7900001462
0.79000014
0.7900001347
0.7900001197
0.7900000871
0.7900000331
0.7899999704
0.7899999207
0.7899999049
0.7899999363
0.7900000075
0.7900000937
0.7900001692
0.7900002338
0.7900003237
0.7900000346
0.790000061
0.7900001045
0.7900001443
0.7900001792
0.7900001793
0.7900002515
0.7900003324
0.7900003985
0.790000405
0.7900003356
0.7900002421
0.790000172
0.7900001433
0.7900001229
0.790000104
0.7900000727
0.7900000187
0.7899999537
0.7899999033
0.7899998923
0.7899999354
0.7900000248
0.7900001317
0.7900002209
0.7900002922
0.7900003826
0.7900002048
0.7900001993
0.7900002104
0.7900002256
0.7900002498
0.7900002752
0.7900003067
0.7900003386
0.790000377
0.7900003879
0.7900003402
0.790000253
0.7900001776
0.7900001308
0.7900001021
0.7900000857
0.7900000641
0.7900000214
0.7899999658
0.789999924
0.7899999238
0.7899999797
0.7900000821
0.7900001978
0.7900002837
0.7900003407
0.7900004045
0.7900001726
0.7900001854
0.7900002174
0.7900002485
0.7900002704
0.7900002868
0.7900003004
0.7900003211
0.790000348
0.7900003605
0.7900003311
0.790000258
0.7900001779
0.7900001174
0.7900000815
0.7900000672
0.7900000584
0.7900000367
0.7900000039
0.7899999832
0.7900000014
0.7900000715
0.790000181
0.7900002919
0.7900003581
0.790000383
0.7900004057
0.7900000879
0.7900001656
0.7900002176
0.7900002496
0.7900002689
0.7900002795
0.7900002868
0.7900002993
0.7900003162
0.7900003251
0.7900003083
0.7900002546
0.79000018
0.7900001104
0.7900000658
0.7900000511
0.7900000545
0.7900000585
0.7900000586
0.7900000699
0.7900001136
0.7900001985
0.7900003081
0.7900003988
0.7900004374
0.7900004204
0.7900004023
0.789999504
0.7899998689
0.7900000534
0.7900001546
0.7900002116
0.7900002367
0.7900002477
0.7900002586
0.790000273
0.7900002836
0.7900002769
0.7900002413
0.7900001796
0.7900001096
0.7900000556
0.7900000413
0.7900000563
0.7900000847
0.7900001194
0.7900001663
0.7900002378
0.7900003357
0.7900004383
0.7900005086
0.7900005142
0.7900004567
0.7900004095
0.7899981147
0.7899995599
0.7899998877
0.7900000498
0.7900001343
0.7900001684
0.7900001835
0.7900001988
0.7900002178
0.7900002349
0.7900002393
0.7900002199
0.7900001738
0.7900001096
0.7900000477
0.7900000421
0.7900000702
0.7900001188
0.7900001808
0.7900002564
0.7900003494
0.7900004554
0.7900005531
0.7900006068
0.7900005843
0.7900004991
0.7900004378
0.7899992283
0.7899997013
0.7899998649
0.7899999798
0.7900000563
0.7900000851
0.7900001019
0.7900001264
0.790000156
0.7900001833
0.7900002001
0.7900001963
0.7900001649
0.7900001064
0.7900000129
0.7900000468
0.7900001011
0.7900001688
0.7900002489
0.7900003419
0.790000447
0.7900005561
0.7900006478
0.7900006886
0.7900006498
0.7900005544
0.7900004895
0.7899995468
0.7899997146
0.7899998048
0.7899998929
0.7899999716
0.7900000048
0.7900000293
0.7900000638
0.7900001022
0.7900001383
0.7900001676
0.7900001825
0.7900001758
0.7900001491
0.7900001093
0.7900001373
0.7900001889
0.7900002564
0.7900003385
0.7900004342
0.7900005393
0.790000643
0.7900007254
0.7900007567
0.7900007139
0.7900006225
0.7900005576
0.7899995985
0.7899996802
0.7899997396
0.7899998141
0.7899998946
0.7899999437
0.7899999816
0.7900000216
0.7900000626
0.7900001038
0.7900001435
0.7900001735
0.7900001846
0.7900001812
0.7900001828
0.7900002259
0.7900002883
0.7900003622
0.7900004456
0.7900005378
0.7900006347
0.7900007258
0.7900007936
0.7900008149
0.7900007744
0.7900006942
0.7900006305
0.7899995697
0.7899996102
0.789999639
0.7899996978
0.7899997843
0.7899998635
0.7899999293
0.7899999844
0.790000033
0.7900000809
0.7900001289
0.7900001662
0.790000178
0.790000176
0.7900001959
0.7900002626
0.7900003567
0.7900004569
0.790000554
0.7900006466
0.7900007335
0.7900008078
0.7900008559
0.7900008627
0.7900008233
0.7900007564
0.7900006976
0.7899995255
0.7899995282
0.7899995136
0.7899995478
0.7899996403
0.7899997557
0.7899998631
0.7899999485
0.7900000146
0.7900000726
0.790000128
0.7900001683
0.7900001729
0.7900001611
0.7900001867
0.790000275
0.790000404
0.7900005355
0.7900006521
0.7900007486
0.7900008261
0.7900008819
0.7900009076
0.7900008964
0.7900008551
0.7900008022
0.7900007549
0.7899995015
0.7899994763
0.7899994214
0.7899994302
0.7899995239
0.7899996674
0.7899998137
0.7899999314
0.7900000165
0.7900000832
0.7900001441
0.790000191
0.790000196
0.7900001839
0.7900002159
0.7900003173
0.7900004644
0.7900006104
0.790000734
0.7900008276
0.7900008935
0.7900009324
0.7900009397
0.7900009149
0.790000874
0.7900008362
0.7900008062
0.7899995117
0.7899994859
0.7899994139
0.7899994076
0.789999498
0.7899996533
0.7899998203
0.7899999558
0.7900000477
0.7900001154
0.7900001769
0.7900002308
0.790000253
0.7900002586
0.7900003023
0.7900004051
0.7900005436
0.7900006741
0.7900007813
0.7900008596
0.7900009128
0.7900009432
0.7900009468
0.7900009244
0.7900008936
0.790000873
0.7900008613
0.7899995632
0.7899995693
0.7899995121
0.7899995072
0.7899995923
0.7899997425
0.7899999051
0.7900000334
0.7900001141
0.7900001731
0.7900002286
0.7900002865
0.7900003307
0.7900003649
0.7900004211
0.7900005105
0.7900006125
0.7900007045