/*--------------------------------*- C++ -*----------------------------------*\
  =========                 |
  \\      /  F ield         | OpenFOAM: The Open Source CFD Toolbox
   \\    /   O peration     | Website:  https://openfoam.org
    \\  /    A nd           | Version:  8
     \\/     M anipulation  |
\*---------------------------------------------------------------------------*/
FoamFile
{
    version     2.0;
    format      ascii;
    class       volScalarField;
    location    "1.6";
    object      O2;
}
// * * * * * * * * * * * * * * * * * * * * * * * * * * * * * * * * * * * * * //

dimensions      [0 0 0 0 0 0 0];

internalField   nonuniform List<scalar> 
67451
(
0.2100004998
0.2099998294
0.2099997072
0.2099995812
0.2099996285
0.2099996408
0.2099996062
0.2099995445
0.2099995427
0.2099995863
0.2099996386
0.2100016164
0.2100012814
0.210000904
0.2100005071
0.2100001182
0.2099997598
0.2099995082
0.2099995382
0.2099996437
0.2099996704
0.2099996378
0.2099995865
0.2099996225
0.2099996179
0.2099996463
0.2099995904
0.2099993565
0.209998992
0.2099987928
0.2099988621
0.2099982358
0.20999856
0.2099983634
0.2099967463
0.2099962194
0.2099967336
0.2100014932
0.2100012418
0.2100009921
0.2100007449
0.2100004804
0.2100001962
0.2099999151
0.2099996558
0.2099994493
0.2099995448
0.20999968
0.2099997278
0.20999972
0.2099996997
0.2099996492
0.2099996323
0.2099996708
0.2099996367
0.2099994943
0.2099992695
0.2099990223
0.2099989471
0.2099985864
0.2099991594
0.209998764
0.2099977602
0.2099981643
0.2100000041
0.2100008859
0.2100006813
0.2100005317
0.2100003982
0.2100002331
0.210000032
0.2099998228
0.2099996293
0.2099994329
0.2099995343
0.2099996962
0.2099997612
0.2099997745
0.2099997304
0.209999649
0.2099995607
0.2099995163
0.2099994361
0.2099992773
0.2099990641
0.2099991705
0.2099992546
0.2099990301
0.2099997368
0.2099995278
0.2099992484
0.2099999412
0.21000138
0.2100002964
0.2100002187
0.2100001582
0.2100000563
0.2099999176
0.2099997763
0.2099997086
0.2099994654
0.2099994986
0.2099996854
0.2099997592
0.2099997967
0.2099997821
0.2099997383
0.2099996298
0.2099995303
0.2099993645
0.2099991965
0.2099991182
0.2099992869
0.2099994682
0.2099994763
0.2099999654
0.2100000075
0.2100002927
0.2100007623
0.2100014041
0.2100000372
0.209999975
0.209999937
0.2099998741
0.2099997802
0.2099996573
0.2099995876
0.2099994828
0.2099994334
0.209999641
0.2099997197
0.2099997732
0.2099997638
0.209999744
0.2099996734
0.2099995877
0.2099994108
0.2099992949
0.2099992918
0.2099993713
0.2099994726
0.2099995857
0.2099998048
0.2100000238
0.2100004144
0.2100005232
0.2100007154
0.2099998278
0.2099997652
0.209999734
0.2099997039
0.2099996482
0.2099995948
0.2099993351
0.2099994788
0.2099993693
0.2099995426
0.2099996396
0.2099996989
0.2099996767
0.2099996879
0.2099996339
0.2099995861
0.209999495
0.2099994255
0.2099994217
0.2099994541
0.2099994834
0.2099995322
0.2099995976
0.2099997547
0.2100000041
0.2100000059
0.2100000692
0.2099996976
0.2099996368
0.2099996067
0.2099995944
0.2099995645
0.2099995871
0.2099994612
0.2099988268
0.2099995464
0.2099994985
0.2099995992
0.2099996453
0.2099996283
0.2099996511
0.209999625
0.2099995749
0.20999951
0.2099994891
0.2099995275
0.2099995561
0.2099995599
0.2099995537
0.2099995513
0.2099995901
0.2099996829
0.2099996652
0.2099996406
0.2099996618
0.2099995938
0.2099995524
0.209999532
0.209999518
0.2099995012
0.2099994335
0.2099994115
0.2099992702
0.2099993697
0.2099994552
0.209999482
0.2099994117
0.2099994312
0.2099995121
0.2099995191
0.2099994748
0.2099995117
0.2099995951
0.209999631
0.2099996281
0.2099996043
0.2099995733
0.2099995441
0.2099995329
0.2099994851
0.209999375
0.2099998788
0.2099996787
0.2099995625
0.2099995037
0.2099994883
0.2099994799
0.2099994488
0.209999411
0.2099992832
0.2099992865
0.2099994852
0.2099995022
0.2099993963
0.2099994912
0.2099995624
0.2099995359
0.2099994685
0.2099995248
0.2099996202
0.2099996514
0.2099996429
0.2099996113
0.2099995674
0.2099995153
0.2099994518
0.2099993812
0.2099992502
0.2099996944
0.2099996039
0.209999518
0.2099994585
0.20999944
0.2099993676
0.2099994216
0.2099993909
0.2099992978
0.2099992209
0.2099993914
0.2099995353
0.2099994719
0.2099995733
0.2099995955
0.2099995427
0.2099994685
0.2099995208
0.2099996209
0.2099996505
0.2099996402
0.2099996048
0.2099995537
0.2099994903
0.2099994061
0.209999325
0.209999217
0.2099997311
0.209999631
0.2099995278
0.2099994521
0.2099994222
0.2099993485
0.2099994257
0.2099994066
0.2099993241
0.2099992258
0.2099992632
0.2099994648
0.2099995277
0.2099996091
0.209999607
0.2099995607
0.2099994938
0.2099995109
0.2099996011
0.2099996311
0.2099996209
0.2099995836
0.2099995285
0.2099994591
0.2099993699
0.2099992967
0.209999233
0.2099998124
0.2099997016
0.2099995736
0.2099994727
0.209999419
0.2099993858
0.2099994015
0.2099993903
0.2099993388
0.2099992575
0.2099992143
0.2099993337
0.2099994961
0.2099995901
0.2099996081
0.2099995904
0.2099995446
0.2099995163
0.2099995694
0.2099995939
0.2099995827
0.2099995441
0.2099994867
0.2099994141
0.2099993312
0.2099992848
0.2099992769
0.2099998326
0.2099997574
0.2099996291
0.2099995117
0.2099994373
0.2099994019
0.2099994002
0.2099993931
0.2099993646
0.2099993069
0.2099992433
0.2099992637
0.2099993999
0.2099995203
0.2099995827
0.2099996031
0.2099995888
0.2099995444
0.2099995434
0.2099995473
0.2099995292
0.2099994873
0.209999427
0.2099993533
0.2099992884
0.2099992864
0.2099993348
0.2099998898
0.209999825
0.2099996974
0.2099995697
0.2099994726
0.2099994187
0.2099994043
0.2099994017
0.2099993877
0.2099993508
0.2099992922
0.2099992622
0.2099993217
0.2099994283
0.2099995208
0.2099995766
0.2099995953
0.2099995683
0.2099995314
0.209999504
0.2099994697
0.2099994198
0.2099993549
0.2099992854
0.2099992492
0.2099993018
0.2099993914
0.2099999901
0.2099999121
0.2099997722
0.2099996252
0.2099995036
0.2099994302
0.2099994098
0.2099994109
0.2099994059
0.2099993831
0.2099993388
0.2099992931
0.2099992943
0.2099993548
0.2099994403
0.2099995107
0.2099995518
0.2099995522
0.2099995171
0.2099994691
0.2099994157
0.2099993543
0.2099992849
0.2099992236
0.2099992201
0.2099993218
0.2099994261
0.2099999572
0.2099999059
0.2099997833
0.2099996373
0.2099995068
0.2099994349
0.209999425
0.2099994311
0.2099994286
0.2099994124
0.2099993788
0.209999332
0.2099993025
0.2099993151
0.2099993664
0.2099994237
0.2099994682
0.2099994864
0.2099994701
0.2099994265
0.2099993675
0.209999299
0.2099992258
0.2099991719
0.2099991951
0.2099993257
0.2099994228
0.2099999298
0.2099998601
0.2099996915
0.2099995816
0.2099994852
0.2099994042
0.2099994147
0.2099994433
0.2099994501
0.2099994385
0.2099994106
0.2099993655
0.2099993199
0.2099992947
0.2099993018
0.2099993297
0.2099993627
0.2099993847
0.2099993832
0.2099993548
0.2099993045
0.2099992391
0.2099991679
0.2099991215
0.2099991591
0.2099992954
0.2099993803
0.2099999232
0.209999833
0.2099996629
0.2099995498
0.2099994501
0.2099993752
0.2099993934
0.2099994327
0.2099994514
0.2099994502
0.2099994295
0.209999386
0.2099993324
0.2099992792
0.2099992454
0.2099992399
0.2099992536
0.2099992694
0.2099992718
0.2099992534
0.2099992142
0.2099991587
0.2099990976
0.2099990628
0.2099991069
0.209999235
0.2099993138
0.2099999069
0.2099997921
0.2099996351
0.2099995123
0.2099994072
0.2099993432
0.209999356
0.2099993975
0.2099994312
0.2099994458
0.2099994345
0.2099993912
0.2099993291
0.2099992595
0.2099991999
0.2099991637
0.2099991552
0.2099991606
0.2099991591
0.2099991405
0.2099991052
0.2099990588
0.2099990143
0.2099990002
0.2099990526
0.2099991675
0.2099992428
0.2099998684
0.2099997312
0.2099996117
0.2099995284
0.2099994504
0.209999384
0.2099993599
0.2099993722
0.2099994029
0.209999429
0.2099994283
0.2099993788
0.2099993061
0.2099992392
0.2099991698
0.2099991089
0.2099990697
0.2099990514
0.2099990453
0.209999029
0.2099989969
0.209998959
0.2099989349
0.2099989494
0.2099990153
0.2099991138
0.2099991788
0.2099998002
0.2099996519
0.2099995926
0.2099995624
0.2099995096
0.209999443
0.2099993913
0.2099993697
0.2099993813
0.2099994104
0.2099994222
0.2099993734
0.2099992934
0.2099992119
0.2099991211
0.2099990467
0.2099990009
0.209998978
0.2099989685
0.2099989514
0.2099989181
0.2099988852
0.2099988795
0.2099989202
0.209998997
0.2099990757
0.2099991214
0.2099997724
0.2099995937
0.2099995705
0.2099995676
0.2099995279
0.2099994684
0.2099994111
0.2099993743
0.2099993728
0.2099994032
0.2099994263
0.2099993873
0.2099993093
0.2099991958
0.2099990836
0.2099990098
0.2099989735
0.2099989582
0.2099989498
0.2099989281
0.2099988903
0.2099988584
0.2099988595
0.2099989068
0.2099989789
0.209999036
0.2099990608
0.2099996594
0.2099995337
0.2099995293
0.2099995334
0.2099995031
0.2099994564
0.209999408
0.2099993732
0.2099993728
0.2099994095
0.2099994388
0.209999409
0.2099993373
0.2099991973
0.2099990722
0.2099990059
0.2099989835
0.2099989796
0.2099989749
0.2099989477
0.2099989018
0.2099988599
0.2099988473
0.2099988763
0.2099989298
0.2099989727
0.2099989887
0.2099995871
0.2099995455
0.2099995185
0.2099994885
0.2099994511
0.209999414
0.2099993794
0.2099993578
0.2099993748
0.2099994205
0.2099994475
0.2099994171
0.2099993462
0.2099992014
0.209999073
0.2099990151
0.2099990039
0.2099990066
0.2099989922
0.2099989478
0.2099988848
0.2099988267
0.2099987963
0.2099988045
0.2099988415
0.2099988841
0.2099989101
0.2099996375
0.2099996546
0.2099995735
0.209999461
0.2099993865
0.2099993469
0.2099993254
0.2099993279
0.2099993705
0.2099994211
0.2099994357
0.2099993947
0.2099993158
0.2099991797
0.2099990606
0.2099990087
0.209998999
0.2099989892
0.2099989527
0.2099988896
0.2099988161
0.2099987489
0.2099987098
0.2099987123
0.2099987438
0.2099987959
0.2099988479
0.2099997877
0.2099998133
0.2099996599
0.2099994461
0.2099993153
0.2099992634
0.2099992592
0.2099992917
0.2099993486
0.2099993919
0.2099993883
0.2099993343
0.2099992458
0.2099991166
0.209999005
0.2099989537
0.209998936
0.2099989101
0.2099988612
0.2099987972
0.2099987277
0.2099986506
0.2099985608
0.2099986278
0.2099986727
0.2099987429
0.2099988327
0.2099999579
0.209999917
0.209999677
0.2099993995
0.2099992343
0.2099991771
0.2099991851
0.2099992302
0.2099992847
0.2099993133
0.209999296
0.209999237
0.2099991465
0.2099990239
0.2099989132
0.2099988546
0.2099988251
0.2099987907
0.2099987454
0.2099986977
0.2099986515
0.2099985958
0.2099988517
0.2099987016
0.2099986804
0.2099987612
0.2099988998
0.2099999924
0.2099998307
0.2099995354
0.2099992636
0.2099991123
0.209999063
0.209999074
0.2099991151
0.2099991585
0.2099991774
0.2099991583
0.2099991045
0.2099990224
0.2099989144
0.2099988099
0.2099987421
0.2099986993
0.2099986596
0.2099986208
0.2099985889
0.2099985704
0.209998576
0.2099987181
0.2099986571
0.2099987207
0.2099988847
0.2099991127
0.2099997249
0.2099994885
0.2099992251
0.2099990254
0.209998921
0.2099988896
0.2099989029
0.2099989385
0.2099989745
0.2099989895
0.2099989726
0.2099989264
0.209998859
0.2099987776
0.2099986986
0.2099986387
0.2099985934
0.2099985548
0.209998526
0.2099985137
0.2099985222
0.2099985574
0.2099986419
0.2099987338
0.2099989369
0.2099992972
0.2099996552
0.2099992114
0.2099990147
0.2099988344
0.2099987192
0.2099986734
0.2099986752
0.2099987013
0.2099987309
0.2099987462
0.2099987377
0.2099987078
0.209998666
0.2099986217
0.2099985818
0.2099985535
0.2099985383
0.2099985256
0.209998513
0.2099985125
0.2099985362
0.2099985892
0.2099986768
0.2099988162
0.2099990412
0.2099994889
0.2100002335
0.2100006325
0.2100006996
0.210000063
0.2099998199
0.2099996619
0.2099996933
0.2099997453
0.2099997665
0.2099997081
0.2099997205
0.2099997978
0.2099998612
0.2100017233
0.2100014912
0.2100011667
0.2100007714
0.2100003521
0.2099999341
0.209999653
0.2099995887
0.2099996837
0.2099997677
0.2099997743
0.2099997439
0.2099997435
0.2099998159
0.2099998535
0.2099998555
0.2099997986
0.2099996956
0.2099998071
0.2100000855
0.2100002238
0.2100003883
0.2100007603
0.2100009441
0.2100009185
0.210001414
0.2100015253
0.2100014206
0.2100012868
0.2100010986
0.2100008324
0.2100005031
0.2100001561
0.2099998132
0.2099995688
0.2099995634
0.2099996971
0.2099998009
0.2099998127
0.2099997825
0.2099996979
0.2099997976
0.2099998265
0.2099998284
0.2099997691
0.2099996463
0.2099995678
0.2099996428
0.2099998974
0.2100000284
0.2100002174
0.2100003751
0.2100005428
0.2100010023
0.2100010975
0.2100010166
0.2100009414
0.2100008189
0.2100006142
0.2100003398
0.2100000379
0.2099997297
0.20999952
0.209999541
0.2099996997
0.2099998296
0.2099998669
0.2099998495
0.2099997979
0.2099997616
0.2099997344
0.209999706
0.2099996352
0.209999498
0.2099994366
0.2099995036
0.2099998146
0.2100000983
0.2100002328
0.2100004883
0.2100003859
0.2100007776
0.2100007023
0.2100006714
0.2100005928
0.2100004352
0.2100002067
0.2099999298
0.209999579
0.209999474
0.2099995023
0.2099996745
0.2099998275
0.2099998887
0.2099998808
0.2099998248
0.2099997626
0.209999707
0.2099996604
0.2099996018
0.2099994989
0.2099995209
0.2099995942
0.2099996729
0.2099998115
0.2099998721
0.2100000195
0.2100000799
0.2100003944
0.2100004491
0.2100004312
0.2100003749
0.2100002568
0.2100000769
0.2099998654
0.209999603
0.2099994558
0.209999443
0.2099996211
0.2099997882
0.2099998758
0.2099998942
0.2099998597
0.2099998031
0.2099997417
0.2099996868
0.2099996413
0.2099996024
0.2099996281
0.2099996715
0.2099997215
0.2099997849
0.2099998486
0.2099999111
0.2099999856
0.2100001443
0.2100002219
0.2100002048
0.2100001619
0.210000079
0.2099999382
0.2099997452
0.209999325
0.2099993296
0.2099993517
0.2099995442
0.2099997169
0.2099998219
0.2099998589
0.2099998421
0.2099998077
0.2099997642
0.2099997293
0.2099997124
0.2099997161
0.2099997356
0.2099997501
0.2099997667
0.2099997806
0.2099998049
0.2099998462
0.2099999042
0.2099999792
0.2100000229
0.2100000156
0.2099999894
0.20999994
0.2099998596
0.20999976
0.2099995904
0.2099996866
0.2099992551
0.2099994525
0.2099996371
0.2099997472
0.2099998281
0.2099998024
0.2099997904
0.2099997662
0.2099997523
0.2099997633
0.2099997937
0.209999822
0.2099998316
0.2099998231
0.2099998052
0.2099997851
0.2099997831
0.2099997873
0.2099997897
0.2099998836
0.2099998776
0.2099998634
0.209999836
0.2099997864
0.2099997141
0.2099995934
0.2099994399
0.2099993813
0.2099994518
0.2099996038
0.2099997459
0.2099998509
0.2099998011
0.2099997755
0.2099997536
0.209999756
0.2099997959
0.2099998512
0.2099998924
0.2099999033
0.209999881
0.2099998352
0.209999783
0.209999738
0.2099996819
0.2099995944
0.2099996672
0.2099997678
0.2099997749
0.2099997592
0.2099997283
0.2099996907
0.2099995981
0.2099994911
0.2099993908
0.2099994081
0.2099995434
0.2099996652
0.2099997681
0.2099997557
0.2099997559
0.2099997485
0.2099997594
0.2099998133
0.2099998823
0.2099999311
0.2099999425
0.2099999118
0.2099998485
0.2099997724
0.2099997012
0.2099996062
0.209999469
0.2099998442
0.2099997953
0.209999746
0.2099997076
0.2099996692
0.2099996542
0.2099995843
0.2099995045
0.2099994263
0.2099994008
0.209999507
0.2099996316
0.2099997243
0.2099997462
0.2099997601
0.2099997558
0.2099997625
0.209999814
0.2099998855
0.2099999361
0.2099999454
0.2099999072
0.2099998312
0.209999739
0.2099996536
0.2099995507
0.2099994155
0.209999717
0.2099997211
0.209999698
0.2099996724
0.2099996506
0.2099996661
0.2099995957
0.2099995264
0.2099994613
0.2099994184
0.2099994662
0.2099995899
0.2099996927
0.2099997486
0.2099997737
0.2099997699
0.2099997666
0.2099998016
0.2099998626
0.2099999067
0.2099999093
0.2099998627
0.2099997774
0.2099996773
0.209999592
0.209999506
0.2099994091
0.2099997557
0.2099997381
0.2099996969
0.2099996567
0.2099996272
0.2099996057
0.2099995846
0.2099995521
0.2099995025
0.2099994557
0.2099994593
0.2099995475
0.2099996577
0.2099997424
0.2099997835
0.2099997856
0.2099997736
0.2099997856
0.2099998213
0.2099998471
0.2099998363
0.2099997796
0.2099996879
0.2099995886
0.2099995173
0.2099994695
0.2099994305
0.2099998293
0.2099997873
0.2099997208
0.2099996674
0.209999633
0.2099996141
0.2099995971
0.2099995722
0.2099995363
0.2099994975
0.2099994809
0.2099995257
0.2099996205
0.2099997166
0.2099997779
0.2099997952
0.2099997828
0.2099997715
0.2099997736
0.2099997699
0.209999738
0.2099996688
0.2099995734
0.2099994834
0.209999438
0.2099994444
0.2099994642
0.2100001793
0.2099999759
0.2099998345
0.2099997345
0.2099996716
0.2099996384
0.2099996201
0.2099996016
0.2099995741
0.2099995402
0.2099995159
0.2099995278
0.2099995911
0.2099996797
0.2099997528
0.2099997857
0.2099997809
0.2099997549
0.2099997271
0.2099996906
0.2099996335
0.2099995502
0.2099994544
0.2099993796
0.2099993659
0.2099994299
0.2099994924
0.2100004957
0.2100001321
0.2099999356
0.2099998067
0.2099997244
0.2099996822
0.2099996615
0.2099996428
0.2099996169
0.2099995843
0.2099995544
0.2099995453
0.2099995756
0.2099996415
0.2099997123
0.2099997512
0.2099997535
0.2099997251
0.2099996779
0.2099996165
0.2099995384
0.209999444
0.2099993482
0.2099992872
0.2099993075
0.2099994159
0.209999497
0.2100002806
0.2100001047
0.2099999634
0.2099998486
0.209999763
0.2099997276
0.2099997107
0.2099996887
0.2099996598
0.2099996263
0.2099995923
0.2099995692
0.2099995712
0.209999608
0.2099996659
0.2099996934
0.2099996937
0.209999667
0.2099996154
0.2099995434
0.2099994546
0.2099993551
0.2099992623
0.2099992141
0.2099992587
0.2099993861
0.2099994684
0.2100001913
0.2100000855
0.2100000123
0.2099999138
0.209999812
0.2099997842
0.2099997679
0.2099997352
0.2099996984
0.2099996624
0.2099996245
0.2099995889
0.2099995656
0.209999567
0.2099995888
0.2099995998
0.2099995969
0.2099995739
0.209999527
0.2099994576
0.2099993709
0.2099992762
0.2099991923
0.2099991554
0.2099992086
0.2099993335
0.2099994113
0.2100001701
0.210000079
0.2100000061
0.2099999131
0.2099998201
0.2099997867
0.2099997693
0.2099997454
0.2099997192
0.209999689
0.2099996494
0.2099996036
0.2099995635
0.2099995396
0.2099995274
0.2099995124
0.2099994925
0.2099994627
0.2099994173
0.2099993539
0.2099992765
0.2099991946
0.2099991261
0.2099991021
0.2099991553
0.2099992664
0.2099993403
0.2100001774
0.2100000941
0.210000029
0.2099999554
0.2099998737
0.2099998182
0.2099997821
0.2099997565
0.2099997352
0.2099997074
0.2099996651
0.2099996126
0.2099995727
0.2099995557
0.2099995362
0.209999494
0.2099994348
0.209999372
0.2099993082
0.2099992415
0.209999172
0.2099991061
0.2099990591
0.2099990543
0.2099991085
0.2099992025
0.2099992704
0.2100001911
0.2100001258
0.2100001051
0.2100000743
0.2100000055
0.2099999206
0.209999844
0.2099997887
0.2099997506
0.2099997144
0.2099996677
0.2099996101
0.2099995809
0.2099995872
0.2099995744
0.2099995124
0.2099994152
0.209999313
0.209999217
0.2099991362
0.2099990701
0.2099990206
0.2099989989
0.2099990187
0.2099990784
0.2099991548
0.2099992097
0.2100001896
0.2100001514
0.2100001871
0.2100001986
0.2100001395
0.210000031
0.2099999146
0.2099998214
0.2099997581
0.2099997097
0.2099996599
0.2099995991
0.2099995742
0.2099995889
0.209999573
0.2099994957
0.2099993767
0.209999251
0.2099991393
0.2099990516
0.2099989919
0.209998959
0.20999896
0.2099990003
0.2099990634
0.209999121
0.2099991558
0.2100001934
0.2100001586
0.2100002246
0.2100002568
0.2100002016
0.2100000818
0.2099999428
0.2099998245
0.209999744
0.20999969
0.2099996426
0.2099995835
0.2099995486
0.2099995487
0.2099995168
0.2099994312
0.2099993124
0.2099991927
0.2099990903
0.2099990152
0.2099989688
0.2099989471
0.2099989553
0.209998996
0.2099990489
0.2099990854
0.2099990989
0.210000224
0.2100001438
0.210000194
0.2100002192
0.2100001626
0.2100000431
0.2099999021
0.2099997805
0.2099997013
0.2099996521
0.2099996135
0.2099995605
0.209999512
0.2099994823
0.2099994298
0.209999346
0.2099992499
0.2099991642
0.2099990942
0.2099990438
0.2099990055
0.2099989772
0.2099989679
0.2099989846
0.209999013
0.20999903
0.2099990303
0.2100002254
0.2100000899
0.2100000933
0.2100000907
0.2100000275
0.2099999161
0.2099997908
0.2099996885
0.209999627
0.2099995943
0.2099995684
0.2099995216
0.2099994614
0.2099994026
0.2099993364
0.2099992673
0.2099992104
0.2099991672
0.2099991321
0.2099990941
0.2099990473
0.2099989974
0.2099989598
0.2099989448
0.2099989465
0.2099989525
0.2099989544
0.2100001709
0.2099999951
0.209999938
0.209999896
0.2099998223
0.2099997245
0.2099996292
0.2099995632
0.2099995285
0.2099995194
0.2099995043
0.2099994596
0.2099993898
0.2099993098
0.2099992395
0.2099991961
0.2099991796
0.2099991718
0.2099991514
0.2099991071
0.209999043
0.2099989713
0.2099989107
0.2099988754
0.2099988626
0.2099988714
0.2099988933
0.2100000409
0.2099998556
0.2099997455
0.2099996693
0.2099995894
0.2099995108
0.2099994473
0.2099994157
0.2099994181
0.2099994297
0.2099994186
0.2099993716
0.2099992955
0.2099992063
0.2099991398
0.2099991203
0.2099991312
0.2099991373
0.2099991142
0.2099990585
0.2099989812
0.2099988747
0.2099987886
0.209998782
0.2099987871
0.2099988192
0.2099988797
0.2099998253
0.2099996679
0.2099995415
0.209999444
0.2099993654
0.2099993049
0.209999272
0.2099992755
0.2099993022
0.20999932
0.2099993057
0.2099992562
0.2099991795
0.209999091
0.2099990297
0.2099990202
0.2099990378
0.209999044
0.2099990187
0.2099989638
0.2099988938
0.2099987968
0.2099985995
0.2099987206
0.2099987666
0.2099988403
0.2099989558
0.209999554
0.209999442
0.2099993342
0.2099992441
0.2099991759
0.2099991323
0.2099991201
0.2099991381
0.2099991659
0.2099991773
0.209999158
0.2099991089
0.209999038
0.2099989584
0.2099989007
0.2099988858
0.209998895
0.2099988981
0.2099988802
0.2099988439
0.2099987995
0.2099987489
0.2099987245
0.20999876
0.2099988419
0.2099990022
0.2099991954
0.2099992511
0.2099991826
0.2099991126
0.2099990478
0.2099989962
0.2099989646
0.2099989585
0.2099989724
0.2099989888
0.2099989894
0.2099989655
0.2099989196
0.2099988603
0.2099987987
0.2099987523
0.2099987333
0.2099987324
0.2099987337
0.2099987286
0.2099987186
0.2099987115
0.2099987176
0.2099987658
0.2099988796
0.2099991162
0.2099994789
0.2099997654
0.2099989573
0.2099989097
0.2099988536
0.2099988042
0.2099987703
0.209998754
0.2099987519
0.2099987541
0.2099987485
0.2099987283
0.209998695
0.2099986553
0.2099986174
0.2099985887
0.2099985766
0.2099985829
0.2099985987
0.2099986163
0.2099986381
0.2099986709
0.2099987227
0.209998806
0.2099989503
0.2099992103
0.209999715
0.2100004616
0.2100007298
0.2100013679
0.2100008764
0.2100004519
0.2099999731
0.2099997853
0.20999978
0.2099997968
0.2099998219
0.20999983
0.2099998751
0.2099999246
0.2099999518
0.20999996
0.2099999483
0.2099999357
0.2100017953
0.2100016207
0.2100013417
0.2100009745
0.2100005562
0.2100001332
0.2099998259
0.2099997066
0.2099997559
0.209999829
0.2099998926
0.2099998571
0.2099998909
0.209999926
0.209999944
0.2099999339
0.209999904
0.2099998873
0.2100000285
0.2100002253
0.2100003485
0.2100005143
0.2100006908
0.2100006671
0.2100004485
0.2100005134
0.2100015333
0.2100015138
0.2100014354
0.2100012804
0.2100010365
0.2100007173
0.2100003562
0.2099999963
0.2099997303
0.2099996644
0.2099997529
0.2099998485
0.209999899
0.2099998529
0.2099999681
0.2099999036
0.2099999227
0.2099999021
0.2099998622
0.2099998119
0.2099998033
0.2099998956
0.2100000001
0.2100001345
0.2100002522
0.210000258
0.2100003263
0.2100006339
0.2100012071
0.2100011905
0.2100011369
0.2100010186
0.2100008172
0.2100005424
0.2100002274
0.2099999056
0.2099996767
0.2099996379
0.2099997489
0.2099998671
0.2099999256
0.2099999145
0.209999889
0.2099998589
0.2099998325
0.2099998079
0.2099997776
0.209999734
0.2099997248
0.2099997925
0.2099999947
0.210000148
0.2100003156
0.210000341
0.2100004512
0.210000561
0.2100009121
0.2100008839
0.2100007982
0.2100006353
0.2100003995
0.2100001231
0.2099998594
0.209999649
0.2099996115
0.2099997328
0.2099998651
0.2099999383
0.2099999334
0.2099998935
0.2099998323
0.2099997848
0.2099997572
0.2099997413
0.2099997219
0.2099997325
0.2099997888
0.209999893
0.2100000286
0.2100001788
0.210000263
0.2100003284
0.210000418
0.2100006731
0.2100006544
0.2100005916
0.2100004664
0.210000284
0.2100000935
0.2099998671
0.2099996829
0.2099995864
0.2099997059
0.2099998421
0.2099999289
0.2099999465
0.2099999105
0.2099998538
0.2099998039
0.2099997788
0.209999776
0.2099997858
0.209999806
0.2099998446
0.2099999026
0.2099999739
0.2100000886
0.2100001421
0.2100001903
0.2100002496
0.2100004443
0.2100004353
0.2100003902
0.2100002971
0.2100001469
0.2099999408
0.209999806
0.2099997247
0.2099995537
0.2099996711
0.2099997995
0.2099998896
0.2099999226
0.2099999036
0.2099998684
0.2099998362
0.2099998247
0.2099998353
0.20999986
0.2099998887
0.2099999155
0.2099999319
0.209999953
0.2099999941
0.2100000269
0.2100000595
0.2100000866
0.2100002493
0.2100002446
0.2100002148
0.2100001552
0.2100000645
0.209999953
0.2099997542
0.2099999249
0.2099995829
0.2099996597
0.2099997577
0.2099998475
0.2099998996
0.2099998855
0.2099998689
0.2099998586
0.2099998658
0.2099998917
0.2099999292
0.2099999636
0.2099999821
0.2099999786
0.2099999605
0.2099999459
0.2099999403
0.2099999412
0.2099999342
0.2100001008
0.2100001007
0.210000076
0.2100000332
0.2099999712
0.2099998932
0.2099997707
0.2099996856
0.2099995858
0.2099996191
0.2099997228
0.2099998304
0.2099999035
0.2099998856
0.2099998695
0.2099998704
0.2099998932
0.2099999362
0.2099999883
0.2100000316
0.2100000491
0.2100000298
0.2099999822
0.2099999273
0.2099998801
0.2099998422
0.2099997854
0.2099999618
0.2099999639
0.2099999526
0.209999927
0.2099998884
0.2099998472
0.2099997556
0.2099996741
0.2099995831
0.2099995924
0.2099996792
0.2099997788
0.2099998538
0.20999986
0.2099998653
0.2099998803
0.2099999129
0.2099999669
0.2100000296
0.2100000793
0.2100000951
0.2100000637
0.2099999925
0.2099999063
0.2099998308
0.2099997662
0.2099996763
0.2099999654
0.209999939
0.2099998955
0.2099998557
0.2099998208
0.2099998207
0.2099997485
0.2099996676
0.2099996015
0.209999595
0.2099996644
0.2099997579
0.209999828
0.2099998567
0.2099998771
0.209999896
0.2099999273
0.2099999813
0.2100000463
0.2100000967
0.2100001077
0.2100000646
0.2099999752
0.2099998683
0.2099997791
0.2099997078
0.2099996174
0.2099997952
0.2099998007
0.2099997896
0.2099997744
0.2099997502
0.2099997248
0.2099996933
0.2099996614
0.209999623
0.2099996121
0.2099996598
0.209999747
0.2099998224
0.2099998692
0.2099998979
0.2099999143
0.2099999359
0.2099999786
0.2100000342
0.210000076
0.2100000762
0.2100000203
0.2099999179
0.2099998022
0.2099997163
0.2099996593
0.2099995955
0.2099998274
0.2099998146
0.2099997826
0.2099997515
0.2099997296
0.2099997132
0.2099996996
0.2099996789
0.209999652
0.2099996395
0.2099996689
0.209999742
0.2099998221
0.2099998826
0.2099999185
0.2099999328
0.2099999416
0.2099999633
0.2099999961
0.2100000168
0.2099999986
0.2099999285
0.209999819
0.2099997081
0.2099996419
0.209999617
0.2099995943
0.2099999121
0.2099998344
0.2099997824
0.2099997504
0.2099997311
0.2099997205
0.2099997132
0.2099997007
0.2099996838
0.2099996749
0.2099996917
0.2099997454
0.20999982
0.2099998896
0.2099999342
0.2099999489
0.2099999455
0.2099999415
0.2099999414
0.2099999301
0.2099998864
0.2099998015
0.2099996919
0.2099996012
0.2099995626
0.2099995796
0.2099995977
0.210000496
0.2100001311
0.2099999466
0.2099998454
0.2099997884
0.2099997633
0.2099997523
0.2099997414
0.209999727
0.2099997164
0.2099997231
0.2099997587
0.2099998204
0.2099998904
0.2099999444
0.2099999587
0.2099999437
0.2099999153
0.2099998806
0.2099998337
0.2099997622
0.2099996643
0.2099995617
0.2099994914
0.2099994858
0.2099995433
0.2099995905
0.2100018853
0.2100004401
0.2100001123
0.2099999502
0.2099998657
0.2099998316
0.2099998165
0.2099998012
0.2099997822
0.2099997651
0.2099997607
0.2099997801
0.2099998262
0.2099998904
0.2099999523
0.2099999579
0.2099999298
0.2099998812
0.2099998192
0.2099997436
0.2099996506
0.2099995446
0.2099994469
0.2099993932
0.2099994157
0.2099995009
0.2099995622
0.2100007717
0.2100002987
0.2100001351
0.2100000202
0.2099999437
0.2099999149
0.2099998981
0.2099998736
0.209999844
0.2099998167
0.2099997999
0.2099998037
0.2099998351
0.2099998936
0.2099999871
0.2099999532
0.2099998989
0.2099998312
0.2099997511
0.2099996581
0.209999553
0.2099994439
0.2099993522
0.2099993114
0.2099993502
0.2099994456
0.2099995105
0.2100004532
0.2100002854
0.2100001952
0.2100001071
0.2100000284
0.2099999952
0.2099999707
0.2099999362
0.2099998978
0.2099998617
0.2099998324
0.2099998175
0.2099998242
0.2099998509
0.2099998907
0.2099998627
0.2099998111
0.2099997436
0.2099996615
0.2099995658
0.2099994607
0.209999357
0.2099992746
0.2099992433
0.2099992861
0.2099993775
0.2099994424
0.2100004015
0.2100003198
0.2100002604
0.2100001859
0.2100001054
0.2100000563
0.2100000184
0.2099999784
0.2099999374
0.2099998962
0.2099998565
0.2099998265
0.2099998154
0.2099998188
0.2099998172
0.2099997741
0.2099997117
0.2099996378
0.2099995544
0.2099994622
0.2099993653
0.2099992742
0.2099992064
0.2099991851
0.2099992256
0.2099993058
0.2099993695
0.2100004303
0.2100003898
0.210000361
0.2100003022
0.2100002157
0.2100001365
0.2100000707
0.2100000156
0.209999967
0.2099999191
0.2099998711
0.2099998338
0.209999822
0.209999824
0.2099998041
0.2099997374
0.2099996433
0.2099995431
0.209999446
0.2099993534
0.2099992665
0.2099991922
0.2099991441
0.2099991373
0.2099991767
0.2099992436
0.2099993024
0.2100004745
0.2100004718
0.2100004864
0.2100004522
0.2100003597
0.2100002443
0.2100001369
0.2100000515
0.2099999854
0.2099999274
0.209999872
0.2099998317
0.2099998271
0.2099998389
0.2099998133
0.209999725
0.209999596
0.2099994645
0.2099993479
0.2099992514
0.2099991739
0.2099991181
0.2099990924
0.2099991036
0.2099991449
0.2099991978
0.2099992451
0.2100004985
0.2100005237
0.2100005786
0.2100005698
0.2100004761
0.2100003326
0.2100001863
0.2100000686
0.2099999835
0.2099999168
0.2099998559
0.209999809
0.209999804
0.2099998161
0.2099997841
0.2099996827
0.2099995356
0.2099993896
0.209999266
0.2099991724
0.2099991065
0.2099990676
0.2099990603
0.2099990851
0.209999126
0.2099991638
0.2099991938
0.2100004883
0.2100005141
0.2100005861
0.2100005924
0.210000502
0.2100003467
0.2100001797
0.2100000442
0.2099999523
0.2099998846
0.2099998231
0.2099997692
0.209999747
0.2099997414
0.2099996977
0.2099995949
0.2099994564
0.2099993259
0.2099992187
0.2099991404
0.2099990872
0.2099990568
0.2099990532
0.2099990756
0.2099991064
0.209999127
0.2099991387
0.2100004368
0.2100004307
0.2100004879
0.2100004928
0.2100004077
0.2100002575
0.2100000949
0.2099999666
0.2099998859
0.2099998269
0.2099997714
0.2099997135
0.2099996693
0.2099996351
0.2099995789
0.2099994895
0.2099993875
0.2099992955