/*--------------------------------*- C++ -*----------------------------------*\
  =========                 |
  \\      /  F ield         | OpenFOAM: The Open Source CFD Toolbox
   \\    /   O peration     | Website:  https://openfoam.org
    \\  /    A nd           | Version:  8
     \\/     M anipulation  |
\*---------------------------------------------------------------------------*/
FoamFile
{
    version     2.0;
    format      ascii;
    class       volScalarField;
    location    "1.6";
    object      p;
}
// * * * * * * * * * * * * * * * * * * * * * * * * * * * * * * * * * * * * * //

dimensions      [1 -1 -2 0 0 0 0];

internalField   nonuniform List<scalar> 
67451
(
100003.8241
100003.8442
100003.8429
100003.8594
100003.8578
100003.8508
100003.8553
100003.8358
100003.8349
100003.8382
100003.8544
100003.7988
100003.8014
100003.8077
100003.8176
100003.824
100003.8436
100003.8479
100003.8533
100003.8455
100003.8381
100003.8336
100003.8124
100003.8211
100003.8443
100003.8684
100003.8834
100003.8952
100003.897
100003.9113
100004.0513
100004.2995
100004.5403
100004.7849
100004.8689
100004.5595
100004.8603
100003.8291
100003.8146
100003.8072
100003.8052
100003.8083
100003.8157
100003.8244
100003.843
100003.8503
100003.8546
100003.8413
100003.8339
100003.8329
100003.8084
100003.9181
100003.8735
100003.8946
100003.8896
100003.8874
100003.9009
100003.8971
100003.9164
100004.0087
100004.1464
100004.3391
100004.4233
100004.2041
100004.5451
100003.8473
100003.8288
100003.8172
100003.8117
100003.8125
100003.8184
100003.8255
100003.8343
100003.8474
100003.8562
100003.8407
100003.8289
100003.8248
100003.8245
100003.8407
100003.8528
100003.8695
100003.8778
100003.8802
100003.8879
100003.8951
100003.8712
100003.8648
100003.8781
100003.9146
100003.954
100003.919
100004.2596
100003.8443
100003.8295
100003.8215
100003.8213
100003.829
100003.8473
100003.9207
100003.8578
100003.8625
100003.8473
100003.8293
100003.826
100003.835
100003.8629
100003.8666
100003.8738
100003.8771
100003.8807
100003.8919
100003.9078
100003.9088
100003.895
100003.8692
100003.8207
100003.8553
100003.9172
100004.0818
100003.8644
100003.8452
100003.8345
100003.8319
100003.8358
100003.8459
100003.875
100003.8531
100003.8589
100003.8554
100003.8288
100003.8259
100003.8346
100003.8484
100003.8593
100003.8681
100003.8742
100003.8776
100003.8825
100003.8962
100003.9242
100003.9309
100003.9226
100003.8962
100003.9202
100003.9429
100004.0121
100003.8851
100003.8616
100003.8482
100003.843
100003.8414
100003.8475
100003.8394
100003.7972
100003.827
100003.8574
100003.8326
100003.8304
100003.8415
100003.8549
100003.8629
100003.8696
100003.8731
100003.8731
100003.8736
100003.8796
100003.8973
100003.923
100003.9375
100003.9398
100003.9521
100003.9479
100003.9784
100003.9068
100003.879
100003.8628
100003.8554
100003.8472
100003.9107
100003.8364
100003.9193
100003.8607
100003.8887
100003.8504
100003.8369
100003.8498
100003.8605
100003.8671
100003.8714
100003.873
100003.8727
100003.8731
100003.8763
100003.8833
100003.894
100003.9059
100003.9224
100003.9391
100003.9318
100003.9482
100003.8827
100003.8886
100003.8774
100003.8641
100003.8538
100003.8562
100003.8394
100003.8761
100003.8461
100003.8587
100003.8298
100003.8294
100003.8639
100003.8751
100003.8734
100003.8735
100003.8745
100003.8757
100003.8788
100003.8829
100003.8846
100003.8838
100003.8833
100003.8912
100003.904
100003.9097
100003.9246
100003.9826
100003.9482
100003.9135
100003.8849
100003.8647
100003.8532
100003.8358
100003.8828
100003.8447
100003.864
100003.8496
100003.8329
100003.8584
100003.8691
100003.8651
100003.865
100003.8666
100003.8698
100003.8767
100003.8847
100003.8864
100003.8811
100003.8715
100003.8661
100003.8727
100003.8854
100003.9114
100004.0085
100003.9652
100003.9309
100003.9031
100003.8798
100003.8579
100003.8375
100003.837
100003.8376
100003.8471
100003.8502
100003.8339
100003.8342
100003.8439
100003.8461
100003.8494
100003.8515
100003.8549
100003.8639
100003.8748
100003.8781
100003.872
100003.8594
100003.8483
100003.8511
100003.8661
100003.9035
100004.0435
100003.9933
100003.9532
100003.921
100003.8953
100003.8772
100003.8536
100003.8406
100003.8343
100003.837
100003.8421
100003.8373
100003.8308
100003.8291
100003.8315
100003.8344
100003.8354
100003.8366
100003.8438
100003.8546
100003.8591
100003.8545
100003.843
100003.8322
100003.8353
100003.8521
100003.8954
100004.0802
100004.0288
100003.9799
100003.9391
100003.9054
100003.878
100003.853
100003.8357
100003.8273
100003.8276
100003.8328
100003.8343
100003.832
100003.8252
100003.8248
100003.825
100003.8241
100003.822
100003.824
100003.8307
100003.8345
100003.8316
100003.8233
100003.8167
100003.8235
100003.8415
100003.8843
100004.1194
100004.058
100004.0029
100003.9563
100003.9165
100003.883
100003.8555
100003.835
100003.8232
100003.8199
100003.8231
100003.8271
100003.8293
100003.8248
100003.823
100003.8212
100003.8184
100003.8138
100003.8101
100003.8104
100003.8113
100003.8092
100003.805
100003.8042
100003.8149
100003.8334
100003.871
100004.2334
100004.1278
100004.0436
100003.9804
100003.9302
100003.8901
100003.8588
100003.8357
100003.821
100003.8144
100003.8149
100003.8193
100003.824
100003.8245
100003.824
100003.8213
100003.8166
100003.81
100003.8031
100003.7981
100003.7953
100003.7934
100003.7931
100003.7982
100003.8113
100003.8285
100003.8585
100004.2841
100004.1613
100004.0655
100003.9938
100003.9371
100003.893
100003.8592
100003.834
100003.8173
100003.8087
100003.8074
100003.8116
100003.8182
100003.8234
100003.8256
100003.8225
100003.816
100003.8081
100003.8001
100003.7933
100003.7886
100003.7872
100003.7901
100003.7981
100003.8121
100003.827
100003.8493
100004.2014
100004.1268
100004.054
100003.9884
100003.933
100003.8893
100003.8546
100003.8281
100003.8105
100003.8012
100003.7992
100003.8034
100003.8113
100003.8195
100003.8249
100003.8215
100003.8138
100003.8053
100003.7976
100003.7916
100003.7881
100003.7883
100003.7932
100003.8027
100003.8164
100003.8287
100003.8447
100004.1214
100004.0779
100004.0257
100003.9693
100003.919
100003.8799
100003.8477
100003.821
100003.8026
100003.7928
100003.7902
100003.7934
100003.8005
100003.8084
100003.8136
100003.8119
100003.806
100003.7993
100003.7938
100003.7904
100003.7897
100003.7925
100003.7995
100003.8101
100003.8228
100003.8326
100003.8444
100004.0561
100004.0255
100003.9868
100003.9416
100003.8992
100003.8651
100003.8356
100003.8104
100003.7929
100003.7837
100003.7809
100003.783
100003.7881
100003.7938
100003.7975
100003.7973
100003.7944
100003.7911
100003.7889
100003.789
100003.7918
100003.7978
100003.8069
100003.8182
100003.8302
100003.8386
100003.8479
100004.005
100003.9802
100003.9493
100003.9118
100003.8746
100003.8432
100003.8167
100003.7953
100003.7812
100003.774
100003.7721
100003.7737
100003.7772
100003.7803
100003.7817
100003.7815
100003.7808
100003.7811
100003.7831
100003.7874
100003.7941
100003.8031
100003.8142
100003.8265
100003.8384
100003.8464
100003.8544
100003.9651
100003.9447
100003.9201
100003.8891
100003.8555
100003.8246
100003.7989
100003.7801
100003.7695
100003.7649
100003.7646
100003.767
100003.7703
100003.7719
100003.7724
100003.7718
100003.7709
100003.7725
100003.7776
100003.786
100003.7966
100003.8087
100003.8218
100003.835
100003.8473
100003.8554
100003.8631
100003.9337
100003.9181
100003.8995
100003.8755
100003.8468
100003.816
100003.7883
100003.769
100003.7598
100003.7579
100003.7597
100003.7635
100003.7666
100003.7688
100003.7712
100003.7719
100003.7696
100003.7693
100003.7753
100003.7865
100003.8003
100003.8149
100003.8297
100003.8439
100003.8567
100003.8653
100003.8733
100003.9064
100003.8965
100003.8838
100003.8667
100003.8441
100003.8148
100003.785
100003.7638
100003.7547
100003.7547
100003.7583
100003.7631
100003.7663
100003.7686
100003.7719
100003.7741
100003.7724
100003.7722
100003.7789
100003.7912
100003.806
100003.8215
100003.8372
100003.8523
100003.866
100003.8756
100003.8846
100003.8857
100003.8802
100003.8711
100003.8571
100003.8384
100003.812
100003.7835
100003.7628
100003.7552
100003.7569
100003.7614
100003.7665
100003.7695
100003.771
100003.7731
100003.7756
100003.7769
100003.7803
100003.7887
100003.8003
100003.8135
100003.8279
100003.8435
100003.8595
100003.8748
100003.8861
100003.8969
100003.8764
100003.8702
100003.8615
100003.8464
100003.8283
100003.806
100003.7824
100003.7665
100003.7633
100003.7664
100003.7711
100003.7755
100003.7781
100003.7791
100003.7802
100003.7828
100003.7873
100003.7941
100003.8023
100003.8114
100003.8215
100003.8337
100003.8491
100003.8662
100003.8835
100003.8973
100003.9108
100003.8737
100003.8643
100003.8578
100003.8414
100003.8231
100003.8048
100003.7885
100003.7801
100003.7807
100003.7846
100003.7885
100003.7918
100003.7939
100003.7948
100003.7958
100003.7986
100003.8038
100003.8102
100003.8166
100003.8231
100003.8306
100003.84
100003.8557
100003.8743
100003.894
100003.9105
100003.9272
100003.8806
100003.8744
100003.8688
100003.8542
100003.8367
100003.822
100003.8126
100003.8085
100003.8094
100003.8118
100003.8139
100003.8153
100003.8164
100003.8172
100003.818
100003.8197
100003.823
100003.8271
100003.8318
100003.8377
100003.8442
100003.8464
100003.8359
100003.8832
100003.9091
100003.9275
100003.9466
100003.9155
100003.9136
100003.9073
100003.8925
100003.8758
100003.8625
100003.8539
100003.8493
100003.8474
100003.8465
100003.8453
100003.8442
100003.8438
100003.8437
100003.8436
100003.8435
100003.8439
100003.8458
100003.8502
100003.859
100003.8729
100003.8858
100004.1017
100003.9565
100003.9442
100003.9515
100003.9677
100003.9901
100003.9873
100003.9765
100003.9583
100003.939
100003.9227
100003.91
100003.9004
100003.893
100003.8868
100003.8814
100003.8775
100003.8749
100003.8733
100003.8718
100003.8701
100003.8687
100003.8691
100003.8729
100003.8811
100003.8952
100003.9181
100003.9989
100003.9567
100003.9591
100003.969
100003.9844
100004.0907
100004.078
100004.0569
100004.0312
100004.0059
100003.9833
100003.9639
100003.9475
100003.9337
100003.9223
100003.9133
100003.9066
100003.902
100003.8991
100003.897
100003.8951
100003.8934
100003.8932
100003.8961
100003.9027
100003.9137
100003.93
100003.9577
100003.9619
100003.9709
100003.981
100003.9942
100004.2585
100004.2214
100004.1819
100004.1432
100004.1066
100004.0722
100004.0402
100004.0118
100003.9875
100003.9678
100003.9528
100003.9417
100003.9339
100003.9288
100003.926
100003.9252
100003.9267
100003.9305
100003.9363
100003.9439
100003.9531
100003.9644
100003.9781
100003.9822
100003.9875
100003.994
100004.0033
100003.7012
100003.6894
100003.7087
100003.7192
100003.7201
100003.7126
100003.7288
100003.6908
100003.6678
100003.6705
100003.6773
100003.666
100003.6709
100003.6783
100003.6883
100003.6959
100003.7024
100003.7159
100003.7186
100003.7088
100003.6993
100003.6921
100003.6686
100003.6502
100003.6724
100003.6781
100003.6886
100003.6976
100003.6831
100003.6553
100003.6465
100003.6883
100003.7382
100003.7315
100003.7012
100003.5639
100003.5833
100003.6898
100003.681
100003.6756
100003.674
100003.6772
100003.6843
100003.6915
100003.7009
100003.7153
100003.7172
100003.7021
100003.6906
100003.674
100003.6522
100003.5917
100003.6889
100003.6838
100003.6939
100003.7026
100003.7058
100003.6978
100003.6409
100003.6307
100003.6475
100003.6226
100003.6286
100003.5345
100003.5266
100003.7062
100003.6944
100003.6843
100003.6785
100003.6785
100003.6821
100003.6828
100003.6765
100003.7041
100003.7144
100003.6984
100003.6887
100003.6803
100003.6809
100003.6901
100003.6966
100003.699
100003.7041
100003.7109
100003.7153
100003.7166
100003.6354
100003.5265
100003.5636
100003.5227
100003.5933
100003.4043
100003.5357
100003.7053
100003.694
100003.6865
100003.6844
100003.6848
100003.6755
100003.6249
100003.6852
100003.7116
100003.6954
100003.6853
100003.6788
100003.6807
100003.6894
100003.7073
100003.7173
100003.7207
100003.7278
100003.7389
100003.7565
100003.7273
100003.6486
100003.6114
100003.5298
100003.5223
100003.5307
100003.6982
100003.7198
100003.7076
100003.699
100003.6947
100003.6919
100003.6754
100003.6336
100003.6349
100003.6986
100003.6897
100003.6799
100003.6755
100003.6796
100003.6913
100003.7062
100003.7194
100003.7291
100003.7354
100003.7407
100003.7442
100003.7442
100003.7338
100003.7157
100003.6644
100003.626
100003.6822
100003.7819
100003.7324
100003.7206
100003.7119
100003.707
100003.7055
100003.697
100003.6716
100003.6282
100003.6879
100003.6934
100003.6764
100003.6702
100003.675
100003.6925
100003.7078
100003.7195
100003.729
100003.7327
100003.7304
100003.728
100003.729
100003.7413
100003.7508
100003.7472
100003.737
100003.7608
100003.7954
100003.736
100003.7291
100003.7209
100003.7123
100003.702
100003.6828
100003.7012
100003.4385
100003.6142
100003.64
100003.6597
100003.6557
100003.6614
100003.6865
100003.7042
100003.7174
100003.7251
100003.7248
100003.7195
100003.7162
100003.7164
100003.7212
100003.7304
100003.7445
100003.7593
100003.7682
100003.7805
100003.7325
100003.7341
100003.7289
100003.7204
100003.7108
100003.7002
100003.6966
100003.6712
100003.6959
100003.6904
100003.6531
100003.642
100003.6419
100003.6672
100003.691
100003.7121
100003.7223
100003.7194
100003.7131
100003.71
100003.7096
100003.7107
100003.7141
100003.7211
100003.7386
100003.7533
100003.7654
100003.68
100003.7364
100003.7403
100003.731
100003.7149
100003.6898
100003.6771
100003.6656
100003.6877
100003.6991
100003.6768
100003.6541
100003.6477
100003.671
100003.6912
100003.7092
100003.7168
100003.7112
100003.7053
100003.7039
100003.7035
100003.7026
100003.7021
100003.7049
100003.7152
100003.7315
100003.7531
100003.8556
100003.8131
100003.7808
100003.7556
100003.7321
100003.6972
100003.6822
100003.6804
100003.6899
100003.6996
100003.6949
100003.6711
100003.6557
100003.6737
100003.6899
100003.7034
100003.7077
100003.7
100003.6943
100003.694
100003.6941
100003.6923
100003.6898
100003.6902
100003.6964
100003.7127
100003.7425
100003.8503
100003.8286
100003.7993
100003.7713
100003.7443
100003.707
100003.6879
100003.6815
100003.6856
100003.693
100003.6973
100003.688
100003.6704
100003.6791
100003.6888
100003.6965
100003.6978
100003.6891
100003.6821
100003.6812
100003.6812
100003.6795
100003.6769
100003.6772
100003.6835
100003.6997
100003.7335
100003.9038
100003.8667
100003.8266
100003.7895
100003.7581
100003.7319
100003.7102
100003.6943
100003.6869
100003.6878
100003.6926
100003.6927
100003.6846
100003.6856
100003.6893
100003.6923
100003.691
100003.682
100003.6727
100003.6691
100003.6678
100003.6662
100003.6648
100003.6668
100003.6748
100003.6919
100003.7259
100003.9479
100003.8932
100003.8442
100003.8026
100003.7662
100003.7357
100003.7108
100003.6929
100003.6828
100003.6805
100003.6844
100003.6894
100003.691
100003.6918
100003.693
100003.6925
100003.6888
100003.6794
100003.6682
100003.6612
100003.6577
100003.6559
100003.656
100003.6597
100003.6711
100003.6892
100003.72
100004.1273
100003.97
100003.8915
100003.8307
100003.7823
100003.7444
100003.7149
100003.6935
100003.6805
100003.6754
100003.6776
100003.6843
100003.6916
100003.6967
100003.6994
100003.6969
100003.6906
100003.6804
100003.6681
100003.6585
100003.653
100003.651
100003.6529
100003.6586
100003.6724
100003.6908
100003.7162
100004.2928
100004.0402
100003.9264
100003.8483
100003.7906
100003.7473
100003.7144
100003.6909
100003.6763
100003.6702
100003.6714
100003.6791
100003.6904
100003.7012
100003.7084
100003.704
100003.6943
100003.6827
100003.6701
100003.6592
100003.653
100003.6516
100003.6548
100003.6634
100003.6786
100003.6954
100003.7147
100004.1034
100003.9889
100003.907
100003.8385
100003.7837
100003.7402
100003.706
100003.6821
100003.6681
100003.6626
100003.6645
100003.6728
100003.6869
100003.7033
100003.7188
100003.7106
100003.6966
100003.6832
100003.6716
100003.6625
100003.6574
100003.6572
100003.6623
100003.6727
100003.6877
100003.7016
100003.7155
100003.9819
100003.9296
100003.8685
100003.8083
100003.7615
100003.7227
100003.6905
100003.6688
100003.6572
100003.6532
100003.6555
100003.6632
100003.6757
100003.6903
100003.7023
100003.6981
100003.688
100003.6776
100003.6693
100003.6639
100003.6622
100003.6649
100003.6723
100003.6837
100003.6977
100003.7088
100003.7188
100003.9067
100003.8776
100003.8333
100003.7859
100003.7468
100003.7126
100003.6831
100003.6623
100003.6505
100003.6459
100003.6469
100003.6526
100003.6617
100003.6718
100003.6795
100003.6786
100003.6737
100003.6682
100003.6645
100003.6637
100003.6662
100003.6723
100003.6822
100003.6946
100003.7077
100003.7167
100003.7244
100003.8563
100003.8356
100003.8027
100003.7642
100003.7292
100003.6986
100003.673
100003.6545
100003.6436
100003.6389
100003.6392
100003.6433
100003.6493
100003.6544
100003.657
100003.6563
100003.6553
100003.6552
100003.6574
100003.6621
100003.6693
100003.6791
100003.6914
100003.7047
100003.7173
100003.7254
100003.7321
100003.8186
100003.802
100003.7749
100003.74
100003.7058
100003.6768
100003.6548
100003.6402
100003.6324
100003.6304
100003.6322
100003.6363
100003.6403
100003.6406
100003.6383
100003.6362
100003.6365
100003.6398
100003.6478
100003.6589
100003.6717
100003.6855
100003.7001
100003.7144
100003.727
100003.735
100003.7416
100003.7885
100003.7749
100003.7497
100003.7164
100003.6836
100003.6561
100003.636
100003.6243
100003.6201
100003.6218
100003.6264
100003.6321
100003.6357
100003.6327
100003.6279
100003.6257
100003.6269
100003.6319
100003.6422
100003.6575
100003.6749
100003.6922
100003.7088
100003.7239
100003.7368
100003.7452
100003.7523
100003.7559
100003.7484
100003.7263
100003.6963
100003.6675
100003.6425
100003.6239
100003.6138
100003.6118
100003.6163
100003.6236
100003.6311
100003.6351
100003.6313
100003.6264
100003.6249
100003.6272
100003.6333
100003.6448
100003.6617
100003.6808
100003.6993
100003.7166
100003.7325
100003.7462
100003.7556
100003.7637
100003.7151
100003.7162
100003.7037
100003.6801
100003.6563
100003.635
100003.6189
100003.6107
100003.6105
100003.617
100003.6263
100003.6349
100003.6394
100003.636
100003.6322
100003.6319
100003.6357
100003.6433
100003.6555
100003.6716
100003.6885
100003.7051
100003.7218
100003.7387
100003.7544
100003.7659
100003.7756
100003.6849
100003.6879
100003.6858
100003.6699
100003.6508
100003.6336
100003.6211
100003.6151
100003.6175
100003.6264
100003.637
100003.6456
100003.6502
100003.6484
100003.6452
100003.646
100003.6512
100003.6597
100003.6711
100003.6834
100003.6958
100003.7092
100003.7246
100003.743
100003.7615
100003.776
100003.7883
100003.6736
100003.6765
100003.6803
100003.6712
100003.6561
100003.6426
100003.6333
100003.6313
100003.6358
100003.6464
100003.6567
100003.6639
100003.668
100003.6679
100003.6662
100003.6674
100003.6723
100003.6794
100003.6872
100003.6949
100003.7028
100003.7117
100003.724
100003.7468
100003.7691
100003.7871
100003.8025
100003.6818
100003.6889
100003.6981
100003.6909
100003.6773
100003.666
100003.6588
100003.6594
100003.6669
100003.6769
100003.6845
100003.6893
100003.6923
100003.693
100003.6924
100003.6929
100003.6952
100003.6988
100003.7031
100003.7083
100003.7126
100003.7108
100003.696
100003.7459
100003.7788
100003.8011
100003.8192
100003.7125
100003.7285
100003.7417
100003.7346
100003.7196
100003.7074
100003.7016
100003.7033
100003.7093
100003.7149
100003.7183
100003.7201
100003.7214
100003.7218
100003.721
100003.7194
100003.7183
100003.7185
100003.7209
100003.7248
100003.7289
100003.7151
100003.6576
100003.7629
100003.7991
100003.8206
100003.8384
100003.7803
100003.8047
100003.8139
100003.8016
100003.783
100003.7685
100003.7607
100003.7585
100003.7582
100003.7578
100003.7564
100003.7548
100003.7538
100003.7531
100003.7514
100003.748
100003.7443
100003.7424
100003.7438
100003.7488
100003.7575
100003.7653
100003.7936
100003.8035
100003.8243
100003.8416
100003.8569
100003.8792
100003.8973
100003.8926
100003.8715
100003.8479
100003.8289
100003.816
100003.8073
100003.801
100003.7953
100003.79
100003.7856
100003.7826
100003.7806
100003.7785
100003.775
100003.7705
100003.7674
100003.7674
100003.7714
100003.7792
100003.7897
100003.8071
100003.824
100003.8422
100003.8567
100003.8691
100004.034
100004.0265
100004.0013
100003.9678
100003.9351
100003.9072
100003.8848
100003.8665
100003.8514
100003.8388
100003.8281
100003.8197
100003.8136
100003.8096
100003.8069
100003.8046
100003.8027
100003.8023
100003.8044
100003.8092
100003.8165
100003.8266
100003.8405
100003.8505
100003.8614
100003.8705
100003.8789
100003.5541
100003.5677
100003.5552
100003.5767
100003.5825
100003.5838
100003.5564
100003.5609
100003.5566
100003.5512
100003.5466
100003.5513
100003.5644
100003.5766
100003.5863
100003.5283
100003.5343
100003.5432
100003.5541
100003.5655
100003.5749
100003.5844
100003.587
100003.5823
100003.5713
100003.5891
100003.5573
100003.548
100003.5514
100003.5571
100003.5721
100003.5879
100003.6054
100003.6009
100003.5983
100003.6194
100003.6532
100003.6928
100003.7373
100003.7505
100003.8889
100003.5488
100003.5402
100003.5372
100003.5389
100003.5445
100003.5525
100003.5609
100003.5684
100003.581
100003.5858
100003.5793
100003.5701
100003.5609
100003.5497
100003.5491
100003.5646
100003.5664
100003.5821
100003.6004
100003.6234
100003.6336
100003.6078
100003.5978
100003.6017
100003.6358
100003.6936
100003.7399
100003.8361
100003.5681
100003.5542
100003.5467
100003.5447
100003.5471
100003.5515
100003.555
100003.5522
100003.5741
100003.582
100003.5751
100003.5675
100003.5606
100003.557
100003.5608
100003.5664
100003.5749
100003.5908
100003.6119
100003.6411
100003.6638
100003.6564
100003.6565
100003.625
100003.6401
100003.7059
100003.7576
100003.7829
100003.5678
100003.5572
100003.5527
100003.5529
100003.5543
100003.5515
100003.5192
100003.5659
100003.5788
100003.5714
100003.5632
100003.5573
100003.555
100003.5586
100003.5709
100003.5832
100003.5988
100003.6161
100003.6361
100003.6489
100003.6486
100003.6439
100003.6427
100003.6649
100003.7016
100003.7088
100003.733
100003.5879
100003.5715
100003.564
100003.5623
100003.5629
100003.5601
100003.5553
100003.5692
100003.5766
100003.5703
100003.5604
100003.5536
100003.5536
100003.5604
100003.5723
100003.5858
100003.6005
100003.6134
100003.6245
100003.6313
100003.6365
100003.6419
100003.6452
100003.6727
100003.6787
100003.6822
100003.6985
100003.6029
100003.5854
100003.5757
100003.5724
100003.5741
100003.5746
100003.5529
100003.5522
100003.573
100003.5733
100003.5608
100003.5499
100003.5502
100003.5592
100003.5717
100003.5847
100003.5967
100003.6046
100003.6095
100003.6142
100003.6222
100003.6295
100003.6382
100003.6537
100003.6605
100003.6638
100003.6719
100003.619
100003.6
100003.5868
100003.5798
100003.5795
100003.5871
100003.596
100003.6075
100003.6009
100003.5818
100003.5621
100003.5441
100003.5439
100003.5551
100003.5689
100003.5815
100003.5908
100003.5947
100003.5961
100003.5987
100003.6045
100003.6124
100003.6223
100003.6337
100003.6424
100003.6449
100003.6496
100003.6506
100003.6249
100003.6036
100003.589
100003.5818
100003.5798
100003.5826
100003.5913
100003.5872
100003.5772
100003.5614
100003.5414
100003.5396
100003.5507
100003.5648
100003.5769
100003.5842
100003.5856
100003.5854
100003.587
100003.5911
100003.5962
100003.6037
100003.6143
100003.6209
100003.6253
100003.6306
100003.6627
100003.6394
100003.617
100003.5988
100003.5852
100003.5744
100003.5691
100003.5704
100003.5695
100003.5675
100003.5581
100003.5435
100003.5406
100003.5501
100003.5619
100003.5715
100003.576
100003.5754
100003.5746
100003.5757
100003.5784
100003.5813
100003.5857
100003.5927
100003.6002
100003.6066
100003.6152
100003.7726
100003.708
100003.6583
100003.6231
100003.5977
100003.5759
100003.5636
100003.5632
100003.5621
100003.5625
100003.5597
100003.5509
100003.5446
100003.5498
100003.558
100003.5644
100003.5662
100003.5641
100003.5627
100003.5636
100003.5656
100003.5674
100003.5701
100003.5751
100003.5828
100003.5907
100003.6029
100003.746
100003.6994
100003.6609
100003.6308
100003.6063
100003.5856
100003.5706
100003.5617
100003.5571
100003.5569
100003.5575
100003.5546
100003.55
100003.5511
100003.5553
100003.5582
100003.5576
100003.5539
100003.5513
100003.5514
100003.5527
100003.5541
100003.5563
100003.561
100003.5691
100003.5782
100003.5925
100003.824
100003.7514
100003.6949
100003.6489
100003.6151
100003.5906
100003.5718
100003.5589
100003.5523
100003.5508
100003.5528
100003.5546
100003.5536
100003.5542
100003.5561
100003.5563
100003.5534
100003.5477
100003.543
100003.5411
100003.5412
100003.5424
100003.545
100003.5504
100003.5589
100003.569
100003.5837
100003.8707
100003.7644
100003.7019
100003.656
100003.62
100003.592
100003.5704
100003.5553
100003.547
100003.5448
100003.5474
100003.5517
100003.5557
100003.5596
100003.563
100003.5612
100003.5553
100003.547
100003.5394
100003.5349
100003.5333
100003.534
100003.5373
100003.5438
100003.5525
100003.563
100003.5769
100004.1615
100003.8429
100003.7649
100003.69
100003.635
100003.5973
100003.5704
100003.5523
100003.5422
100003.5393
100003.5422
100003.5495
100003.5592
100003.5697
100003.5785
100003.5743
100003.5637
100003.5515
100003.5406
100003.5334
100003.53
100003.5301
100003.5333
100003.54
100003.5499
100003.5602
100003.5725
100004.9057
100003.9858
100003.8248
100003.7119
100003.6421
100003.5978
100003.5675
100003.5474
100003.5364
100003.5336
100003.538
100003.5488
100003.5649
100003.5846
100003.6045
100003.5947
100003.5766
100003.5586
100003.5443
100003.5351
100003.5305
100003.53
100003.5336
100003.5409
100003.5511
100003.5605
100003.571
100004.1777
100003.8792
100003.7762
100003.6927
100003.6325
100003.5901
100003.5596
100003.5393
100003.5285
100003.5265
100003.5325
100003.5469
100003.5702
100003.6028
100003.6565
100003.6234
100003.5904
100003.5646
100003.547
100003.5365
100003.5319
100003.5324
100003.5372
100003.5452
100003.5552
100003.5636
100003.5722
100003.9098
100003.8006
100003.728
100003.6646
100003.6152
100003.5778
100003.5495
100003.5301
100003.5199
100003.518
100003.5236
100003.5366
100003.5566
100003.5817
100003.6112
100003.597
100003.5757
100003.5569
100003.5436
100003.5361
100003.534
100003.5365
100003.5429
100003.5516
100003.5613
100003.5687
100003.5761
100003.7869
100003.7378
100003.6877
100003.6388
100003.5978
100003.5652
100003.5398
100003.5219
100003.512
100003.5096
100003.5135
100003.5232
100003.5372
100003.5534
100003.5682
100003.5638
100003.5535
100003.5434
100003.5366
100003.5341
100003.5357
100003.5411
100003.5493
100003.559
100003.5687
100003.5756
100003.5824
100003.7197
100003.6909
100003.6543
100003.6145
100003.5788
100003.5498
100003.5275
100003.5121
100003.5036
100003.5013
100003.5041
100003.511
100003.5199
100003.5292
100003.5364
100003.5359
100003.5325
100003.5295
100003.529
100003.5317
100003.5375
100003.5459
100003.5561
100003.5669
100003.5769
100003.584
100003.5906
100003.6759
100003.655
100003.6257
100003.5915
100003.5591
100003.5326
100003.5131
100003.5008
100003.4948
100003.4938
100003.4966
100003.5022
100003.5079
100003.5126
100003.5158
100003.5165
100003.5173
100003.5191
100003.5232
100003.5303
100003.5398
100003.5511
100003.5632
100003.5752
100003.5859
100003.5935
100003.6003
100003.6425
100003.6261
100003.6013
100003.5714
100003.5423
100003.5183
100003.5012
100003.4915
100003.4879
100003.4882
100003.4915
100003.497
100003.5019
100003.5043
100003.5058
100003.5072
100003.51
100003.5149
100003.5218
100003.5317
100003.5439
100003.5573
100003.571
100003.584
100003.5955
100003.6038
100003.6109
100003.6139
100003.6012
100003.5805
100003.5549
100003.53
100003.5091
100003.4945
100003.487
100003.4851
100003.4864
100003.4907
100003.4965
100003.5015
100003.5034
100003.5046
100003.5067
100003.5109
100003.5172
100003.5256
100003.537
100003.5503
100003.5646
100003.5791
100003.5931
100003.6055
100003.6146
100003.6222
100003.59
100003.5805
100003.5639
100003.543
100003.5226
100003.5055
100003.494
100003.4889
100003.488
100003.4903
100003.4952
100003.5011
100003.506
100003.5088
100003.5107
100003.5137
100003.5185
100003.5253
100003.5344
100003.5457
100003.5586
100003.5725
100003.587
100003.602
100003.6157
100003.6258
100003.634
100003.5764
100003.5685
100003.5551
100003.5382
100003.5219
100003.5089
100003.501
100003.4982
100003.4975
100003.5007
100003.506
100003.5117
100003.5165
100003.5197
100003.5226
100003.5263
100003.5314
100003.5382
100003.5467
100003.5567
100003.568
100003.5808
100003.5943
100003.611
100003.6261
100003.6374
100003.6465
100003.5762
100003.5696
100003.5585
100003.5449
100003.5319
100003.5217
100003.5165
100003.5135
100003.5146
100003.5185
100003.5236
100003.5288
100003.5333
100003.5365
100003.5394
100003.5431
100003.548
100003.5539
100003.5609
100003.5691
100003.578
100003.5884
100003.5978
100003.6196
100003.6365
100003.6495
100003.6598
100003.5913
100003.5831
100003.5749
100003.5649
100003.5541
100003.5452
100003.5398
100003.5382
100003.5398
100003.5435
100003.5477
100003.5518
100003.5554
100003.5583
100003.5607
100003.5634
100003.5669
100003.5713
100003.5768
100003.5837
100003.5903
100003.5993
100003.6002
100003.6316
100003.6476
100003.6627
100003.6744
100003.6211
100003.6147
100003.6079
100003.5984
100003.5879
100003.5792
100003.5736
100003.5715
100003.5721
100003.5742
100003.5767
100003.579
100003.5813
100003.5832
100003.5848
100003.586
100003.5878
100003.5907
100003.5948
100003.6
100003.6025
100003.6101
100003.51
100003.6413
100003.6559
100003.6766
100003.6896
100003.6699
100003.6654
100003.6585
100003.6473
100003.6347
100003.624
100003.6163
100003.612
100003.61
100003.6091
100003.6089
100003.6091
100003.6096
100003.6103
100003.6107
100003.6109
100003.6114
100003.6131
100003.6167
100003.6224
100003.63
100003.6419
100003.6509
100003.6681
100003.6821
100003.6951
100003.7063
100003.7243
100003.7216
100003.7124
100003.6973
100003.6812
100003.6671
100003.6565
100003.649
100003.6437
100003.6399
100003.6371
100003.6353
100003.6343
100003.6339
100003.6339
100003.6338
100003.6339
100003.6348
100003.6373
100003.6418
100003.6479
100003.6551
100003.6603
100003.6792
100003.6951
100003.7071
100003.717
100003.8111
100003.8046
100003.7883
100003.7663
100003.7434
100003.7229
100003.706
100003.6927
100003.6823
100003.6741
100003.6679
100003.6632
100003.66
100003.6581
100003.6571
100003.6569
100003.6575
100003.6592
100003.6621
100003.6663
100003.6716
100003.6783