/*--------------------------------*- C++ -*----------------------------------*\
  =========                 |
  \\      /  F ield         | OpenFOAM: The Open Source CFD Toolbox
   \\    /   O peration     | Website:  https://openfoam.org
    \\  /    A nd           | Version:  8
     \\/     M anipulation  |
\*---------------------------------------------------------------------------*/
FoamFile
{
    version     2.0;
    format      ascii;
    class       volScalarField;
    location    "1.6";
    object      p_rgh;
}
// * * * * * * * * * * * * * * * * * * * * * * * * * * * * * * * * * * * * * //

dimensions      [1 -1 -2 0 0 0 0];

internalField   nonuniform List<scalar> 
67451
(
100003.8844
100003.9046
100003.9033
100003.9198
100003.9181
100003.9112
100003.9156
100003.8962
100003.8952
100003.8985
100003.9147
100003.8591
100003.8617
100003.868
100003.878
100003.8844
100003.9039
100003.9083
100003.9136
100003.9059
100003.8984
100003.8939
100003.8727
100003.8814
100003.9046
100003.9287
100003.9438
100003.9555
100003.9573
100003.9716
100004.1117
100004.3599
100004.6006
100004.8453
100004.9293
100004.6199
100004.9206
100003.8894
100003.875
100003.8675
100003.8656
100003.8687
100003.876
100003.8848
100003.9033
100003.9107
100003.915
100003.9017
100003.8942
100003.8932
100003.8687
100003.9784
100003.9338
100003.9549
100003.95
100003.9478
100003.9613
100003.9575
100003.9767
100004.069
100004.2068
100004.3994
100004.4836
100004.2644
100004.6054
100003.9077
100003.8892
100003.8775
100003.872
100003.8728
100003.8787
100003.8858
100003.8946
100003.9078
100003.9165
100003.9011
100003.8893
100003.8851
100003.8849
100003.9011
100003.9131
100003.9299
100003.9381
100003.9405
100003.9483
100003.9555
100003.9315
100003.9252
100003.9384
100003.9749
100004.0143
100003.9794
100004.3199
100003.9046
100003.8898
100003.8818
100003.8816
100003.8893
100003.9076
100003.9811
100003.9181
100003.9228
100003.9076
100003.8896
100003.8863
100003.8953
100003.9233
100003.9269
100003.9342
100003.9374
100003.9411
100003.9522
100003.9682
100003.9692
100003.9554
100003.9295
100003.881
100003.9157
100003.9776
100004.1422
100003.9247
100003.9056
100003.8949
100003.8923
100003.8961
100003.9063
100003.9354
100003.9135
100003.9192
100003.9158
100003.8892
100003.8862
100003.895
100003.9088
100003.9196
100003.9284
100003.9346
100003.938
100003.9429
100003.9565
100003.9846
100003.9912
100003.983
100003.9566
100003.9806
100004.0033
100004.0724
100003.9454
100003.9219
100003.9086
100003.9033
100003.9017
100003.9079
100003.8998
100003.8576
100003.8873
100003.9177
100003.8929
100003.8908
100003.9019
100003.9152
100003.9233
100003.9299
100003.9334
100003.9334
100003.9339
100003.9399
100003.9576
100003.9834
100003.9979
100004.0002
100004.0125
100004.0083
100004.0387
100003.9671
100003.9394
100003.9231
100003.9157
100003.9075
100003.9711
100003.8967
100003.9796
100003.921
100003.949
100003.9107
100003.8973
100003.9102
100003.9209
100003.9275
100003.9318
100003.9333
100003.933
100003.9335
100003.9367
100003.9436
100003.9543
100003.9663
100003.9827
100003.9995
100003.9922
100004.0086
100003.9431
100003.949
100003.9377
100003.9244
100003.9141
100003.9166
100003.8998
100003.9365
100003.9065
100003.919
100003.8902
100003.8898
100003.9243
100003.9355
100003.9337
100003.9338
100003.9348
100003.936
100003.9392
100003.9433
100003.9449
100003.9441
100003.9436
100003.9515
100003.9644
100003.97
100003.985
100004.0429
100004.0086
100003.9739
100003.9452
100003.9251
100003.9136
100003.8962
100003.9432
100003.9051
100003.9243
100003.91
100003.8933
100003.9188
100003.9295
100003.9254
100003.9254
100003.9269
100003.9301
100003.9371
100003.945
100003.9468
100003.9414
100003.9318
100003.9265
100003.933
100003.9458
100003.9717
100004.0688
100004.0256
100003.9913
100003.9634
100003.9402
100003.9183
100003.8978
100003.8974
100003.8979
100003.9074
100003.9105
100003.8943
100003.8945
100003.9042
100003.9065
100003.9098
100003.9118
100003.9152
100003.9243
100003.9351
100003.9384
100003.9324
100003.9197
100003.9086
100003.9114
100003.9265
100003.9638
100004.1038
100004.0537
100004.0136
100003.9813
100003.9556
100003.9375
100003.914
100003.901
100003.8947
100003.8974
100003.9025
100003.8976
100003.8912
100003.8894
100003.8919
100003.8948
100003.8958
100003.8969
100003.9041
100003.9149
100003.9195
100003.9149
100003.9033
100003.8925
100003.8956
100003.9124
100003.9557
100004.1405
100004.0891
100004.0403
100003.9994
100003.9657
100003.9383
100003.9134
100003.896
100003.8876
100003.8879
100003.8932
100003.8946
100003.8924
100003.8855
100003.8852
100003.8854
100003.8844
100003.8823
100003.8843
100003.891
100003.8948
100003.8919
100003.8837
100003.877
100003.8838
100003.9018
100003.9447
100004.1797
100004.1184
100004.0633
100004.0167
100003.9769
100003.9434
100003.9158
100003.8953
100003.8835
100003.8803
100003.8834
100003.8874
100003.8896
100003.8851
100003.8833
100003.8816
100003.8788
100003.8741
100003.8704
100003.8708
100003.8716
100003.8695
100003.8653
100003.8646
100003.8752
100003.8937
100003.9314
100004.2937
100004.1882
100004.1039
100004.0407
100003.9905
100003.9504
100003.9191
100003.896
100003.8814
100003.8748
100003.8753
100003.8796
100003.8843
100003.8849
100003.8844
100003.8816
100003.8769
100003.8704
100003.8634
100003.8584
100003.8556
100003.8537
100003.8534
100003.8586
100003.8716
100003.8888
100003.9189
100004.3445
100004.2216
100004.1259
100004.0541
100003.9974
100003.9534
100003.9195
100003.8943
100003.8777
100003.869
100003.8677
100003.8719
100003.8786
100003.8837
100003.886
100003.8828
100003.8764
100003.8685
100003.8604
100003.8536
100003.8489
100003.8475
100003.8504
100003.8584
100003.8724
100003.8873
100003.9097
100004.2617
100004.1871
100004.1143
100004.0487
100003.9933
100003.9496
100003.9149
100003.8884
100003.8708
100003.8615
100003.8595
100003.8637
100003.8716
100003.8798
100003.8852
100003.8818
100003.8741
100003.8656
100003.858
100003.8519
100003.8484
100003.8486
100003.8535
100003.8631
100003.8768
100003.889
100003.905
100004.1817
100004.1382
100004.0861
100004.0297
100003.9793
100003.9402
100003.908
100003.8813
100003.8629
100003.8531
100003.8506
100003.8538
100003.8608
100003.8687
100003.874
100003.8722
100003.8664
100003.8597
100003.8541
100003.8507
100003.85
100003.8529
100003.8598
100003.8704
100003.8831
100003.893
100003.9047
100004.1164
100004.0859
100004.0471
100004.002
100003.9595
100003.9254
100003.8959
100003.8707
100003.8533
100003.844
100003.8412
100003.8433
100003.8484
100003.8541
100003.8579
100003.8576
100003.8547
100003.8514
100003.8493
100003.8494
100003.8522
100003.8581
100003.8672
100003.8785
100003.8905
100003.899
100003.9082
100004.0653
100004.0405
100004.0096
100003.9722
100003.9349
100003.9035
100003.8771
100003.8556
100003.8415
100003.8344
100003.8324
100003.834
100003.8376
100003.8407
100003.842
100003.8418
100003.8411
100003.8414
100003.8434
100003.8477
100003.8544
100003.8634
100003.8746
100003.8868
100003.8987
100003.9067
100003.9148
100004.0254
100004.0051
100003.9804
100003.9495
100003.9158
100003.8849
100003.8592
100003.8404
100003.8298
100003.8252
100003.8249
100003.8274
100003.8307
100003.8323
100003.8327
100003.8321
100003.8312
100003.8329
100003.8379
100003.8463
100003.8569
100003.869
100003.8821
100003.8954
100003.9077
100003.9158
100003.9235
100003.994
100003.9785
100003.9599
100003.9358
100003.9071
100003.8763
100003.8487
100003.8293
100003.8201
100003.8182
100003.8201
100003.8238
100003.827
100003.8292
100003.8315
100003.8323
100003.8299
100003.8296
100003.8357
100003.8469
100003.8606
100003.8752
100003.89
100003.9042
100003.917
100003.9257
100003.9337
100003.9668
100003.9568
100003.9441
100003.927
100003.9045
100003.8751
100003.8454
100003.8241
100003.8151
100003.815
100003.8186
100003.8234
100003.8266
100003.8289
100003.8323
100003.8344
100003.8327
100003.8325
100003.8393
100003.8516
100003.8664
100003.8819
100003.8975
100003.9126
100003.9263
100003.936
100003.9449
100003.946
100003.9405
100003.9314
100003.9174
100003.8987
100003.8724
100003.8438
100003.8232
100003.8155
100003.8172
100003.8218
100003.8268
100003.8298
100003.8314
100003.8335
100003.836
100003.8372
100003.8407
100003.8491
100003.8606
100003.8738
100003.8883
100003.9038
100003.9198
100003.9351
100003.9465
100003.9572
100003.9367
100003.9306
100003.9218
100003.9068
100003.8887
100003.8663
100003.8428
100003.8268
100003.8237
100003.8268
100003.8314
100003.8358
100003.8385
100003.8394
100003.8406
100003.8432
100003.8476
100003.8544
100003.8626
100003.8717
100003.8818
100003.8941
100003.9094
100003.9265
100003.9439
100003.9577
100003.9712
100003.9341
100003.9247
100003.9182
100003.9018
100003.8834
100003.8652
100003.8488
100003.8404
100003.8411
100003.8449
100003.8489
100003.8521
100003.8542
100003.8551
100003.8562
100003.859
100003.8642
100003.8706
100003.877
100003.8835
100003.8909
100003.9003
100003.916
100003.9346
100003.9544
100003.9708
100003.9876
100003.9409
100003.9347
100003.9292
100003.9145
100003.8971
100003.8823
100003.8729
100003.8689
100003.8697
100003.8722
100003.8742
100003.8756
100003.8767
100003.8775
100003.8783
100003.8801
100003.8833
100003.8874
100003.8922
100003.898
100003.9046
100003.9067
100003.8962
100003.9436
100003.9694
100003.9879
100004.0069
100003.9759
100003.9739
100003.9676
100003.9529
100003.9361
100003.9228
100003.9143
100003.9097
100003.9078
100003.9068
100003.9056
100003.9046
100003.9041
100003.904
100003.9039
100003.9038
100003.9042
100003.9061
100003.9106
100003.9193
100003.9333
100003.9461
100004.1621
100004.0168
100004.0046
100004.0118
100004.028
100004.0504
100004.0477
100004.0369
100004.0187
100003.9994
100003.9831
100003.9704
100003.9608
100003.9534
100003.9471
100003.9418
100003.9378
100003.9352
100003.9336
100003.9322
100003.9304
100003.929
100003.9295
100003.9333
100003.9414
100003.9555
100003.9785
100004.0592
100004.0171
100004.0195
100004.0293
100004.0447
100004.1511
100004.1384
100004.1173
100004.0915
100004.0662
100004.0437
100004.0242
100004.0078
100003.994
100003.9826
100003.9736
100003.967
100003.9624
100003.9594
100003.9574
100003.9554
100003.9537
100003.9535
100003.9564
100003.963
100003.974
100003.9904
100004.0181
100004.0222
100004.0312
100004.0414
100004.0545
100004.3189
100004.2817
100004.2422
100004.2035
100004.1669
100004.1325
100004.1006
100004.0721
100004.0478
100004.0282
100004.0131
100004.0021
100003.9942
100003.9891
100003.9863
100003.9856
100003.987
100003.9908
100003.9966
100004.0042
100004.0135
100004.0248
100004.0384
100004.0426
100004.0478
100004.0543
100004.0637
100003.8822
100003.8704
100003.8897
100003.9003
100003.9011
100003.8936
100003.9098
100003.8718
100003.8488
100003.8516
100003.8583
100003.847
100003.8519
100003.8594
100003.8693
100003.8769
100003.8835
100003.8969
100003.8996
100003.8898
100003.8804
100003.8731
100003.8496
100003.8312
100003.8534
100003.8591
100003.8696
100003.8786
100003.8642
100003.8363
100003.8275
100003.8693
100003.9193
100003.9125
100003.8822
100003.7449
100003.7643
100003.8708
100003.862
100003.8566
100003.855
100003.8582
100003.8654
100003.8726
100003.8819
100003.8963
100003.8982
100003.8831
100003.8716
100003.855
100003.8332
100003.7728
100003.8699
100003.8648
100003.8749
100003.8836
100003.8869
100003.8788
100003.822
100003.8118
100003.8285
100003.8036
100003.8096
100003.7155
100003.7076
100003.8873
100003.8754
100003.8653
100003.8595
100003.8595
100003.8631
100003.8638
100003.8575
100003.8851
100003.8954
100003.8794
100003.8697
100003.8614
100003.8619
100003.8711
100003.8776
100003.8801
100003.8851
100003.8919
100003.8963
100003.8976
100003.8164
100003.7075
100003.7447
100003.7037
100003.7743
100003.5853
100003.7168
100003.8863
100003.875
100003.8675
100003.8655
100003.8658
100003.8565
100003.8059
100003.8662
100003.8926
100003.8764
100003.8663
100003.8598
100003.8617
100003.8704
100003.8883
100003.8983
100003.9017
100003.9088
100003.92
100003.9375
100003.9083
100003.8296
100003.7924
100003.7108
100003.7033
100003.7117
100003.8792
100003.9008
100003.8886
100003.88
100003.8758
100003.8729
100003.8564
100003.8147
100003.8159
100003.8796
100003.8707
100003.861
100003.8565
100003.8606
100003.8723
100003.8872
100003.9004
100003.9101
100003.9165
100003.9217
100003.9252
100003.9253
100003.9148
100003.8968
100003.8454
100003.8071
100003.8632
100003.9629
100003.9134
100003.9016
100003.8929
100003.888
100003.8865
100003.878
100003.8526
100003.8092
100003.8689
100003.8744
100003.8574
100003.8512
100003.856
100003.8735
100003.8888
100003.9005
100003.91
100003.9137
100003.9114
100003.909
100003.9101
100003.9224
100003.9318
100003.9282
100003.9181
100003.9418
100003.9764
100003.917
100003.9101
100003.9019
100003.8933
100003.883
100003.8638
100003.8823
100003.6195
100003.7952
100003.821
100003.8407
100003.8367
100003.8424
100003.8675
100003.8852
100003.8984
100003.9061
100003.9058
100003.9006
100003.8972
100003.8975
100003.9022
100003.9114
100003.9256
100003.9403
100003.9493
100003.9615
100003.9135
100003.9151
100003.91
100003.9015
100003.8918
100003.8812
100003.8776
100003.8522
100003.8769
100003.8714
100003.8341
100003.823
100003.8229
100003.8482
100003.872
100003.8931
100003.9033
100003.9004
100003.8941
100003.891
100003.8906
100003.8917
100003.8951
100003.9021
100003.9196
100003.9343
100003.9464
100003.861
100003.9174
100003.9213
100003.912
100003.8959
100003.8709
100003.8581
100003.8466
100003.8687
100003.8801
100003.8578
100003.8351
100003.8287
100003.852
100003.8722
100003.8902
100003.8978
100003.8922
100003.8864
100003.8849
100003.8845
100003.8836
100003.8831
100003.8859
100003.8962
100003.9125
100003.9342
100004.0366
100003.9941
100003.9618
100003.9366
100003.9131
100003.8782
100003.8632
100003.8614
100003.8709
100003.8806
100003.8759
100003.8521
100003.8367
100003.8547
100003.871
100003.8844
100003.8887
100003.881
100003.8753
100003.875
100003.8751
100003.8733
100003.8708
100003.8712
100003.8774
100003.8937
100003.9235
100004.0313
100004.0096
100003.9803
100003.9523
100003.9253
100003.888
100003.8689
100003.8626
100003.8666
100003.874
100003.8783
100003.8691
100003.8515
100003.8601
100003.8698
100003.8775
100003.8788
100003.8702
100003.8632
100003.8622
100003.8622
100003.8605
100003.8579
100003.8583
100003.8645
100003.8807
100003.9145
100004.0849
100004.0477
100004.0076
100003.9706
100003.9391
100003.9129
100003.8912
100003.8753
100003.8679
100003.8688
100003.8736
100003.8737
100003.8656
100003.8666
100003.8704
100003.8733
100003.8721
100003.863
100003.8537
100003.8501
100003.8488
100003.8473
100003.8459
100003.8478
100003.8558
100003.8729
100003.9069
100004.1289
100004.0742
100004.0252
100003.9836
100003.9472
100003.9167
100003.8918
100003.8739
100003.8638
100003.8615
100003.8654
100003.8704
100003.872
100003.8729
100003.874
100003.8735
100003.8698
100003.8604
100003.8493
100003.8422
100003.8387
100003.8369
100003.837
100003.8407
100003.8522
100003.8703
100003.901
100004.3083
100004.1511
100004.0725
100004.0117
100003.9633
100003.9254
100003.8959
100003.8745
100003.8615
100003.8564
100003.8586
100003.8653
100003.8726
100003.8777
100003.8804
100003.8779
100003.8716
100003.8614
100003.8491
100003.8395
100003.834
100003.832
100003.8339
100003.8397
100003.8534
100003.8718
100003.8972
100004.4738
100004.2212
100004.1074
100004.0293
100003.9716
100003.9283
100003.8954
100003.8719
100003.8574
100003.8512
100003.8524
100003.8601
100003.8714
100003.8822
100003.8894
100003.885
100003.8754
100003.8637
100003.8511
100003.8403
100003.834
100003.8326
100003.8358
100003.8444
100003.8596
100003.8764
100003.8957
100004.2844
100004.1699
100004.088
100004.0195
100003.9647
100003.9212
100003.887
100003.8631
100003.8491
100003.8437
100003.8455
100003.8539
100003.8679
100003.8844
100003.8998
100003.8916
100003.8776
100003.8642
100003.8526
100003.8435
100003.8384
100003.8382
100003.8433
100003.8537
100003.8687
100003.8826
100003.8965
100004.1629
100004.1106
100004.0495
100003.9894
100003.9425
100003.9037
100003.8715
100003.8498
100003.8382
100003.8343
100003.8365
100003.8443
100003.8568
100003.8713
100003.8833
100003.8791
100003.869
100003.8586
100003.8503
100003.8449
100003.8432
100003.8459
100003.8533
100003.8648
100003.8787
100003.8898
100003.8998
100004.0877
100004.0586
100004.0143
100003.9669
100003.9278
100003.8936
100003.8642
100003.8433
100003.8315
100003.8269
100003.8279
100003.8336
100003.8427
100003.8528
100003.8605
100003.8596
100003.8547
100003.8493
100003.8455
100003.8447
100003.8472
100003.8534
100003.8632
100003.8756
100003.8887
100003.8977
100003.9054
100004.0373
100004.0166
100003.9837
100003.9453
100003.9102
100003.8796
100003.854
100003.8356
100003.8246
100003.8199
100003.8202
100003.8243
100003.8304
100003.8354
100003.838
100003.8373
100003.8363
100003.8362
100003.8384
100003.8431
100003.8503
100003.8602
100003.8724
100003.8857
100003.8983
100003.9064
100003.9132
100003.9996
100003.9831
100003.9559
100003.9211
100003.8868
100003.8578
100003.8358
100003.8213
100003.8135
100003.8115
100003.8132
100003.8173
100003.8213
100003.8217
100003.8193
100003.8173
100003.8175
100003.8208
100003.8288
100003.8399
100003.8527
100003.8665
100003.8811
100003.8954
100003.908
100003.916
100003.9226
100003.9695
100003.956
100003.9307
100003.8974
100003.8647
100003.8371
100003.817
100003.8054
100003.8012
100003.8028
100003.8074
100003.8132
100003.8167
100003.8138
100003.809
100003.8067
100003.8079
100003.8129
100003.8233
100003.8385
100003.8559
100003.8732
100003.8898
100003.9049
100003.9178
100003.9262
100003.9333
100003.9369
100003.9294
100003.9073
100003.8774
100003.8485
100003.8235
100003.8049
100003.7948
100003.7928
100003.7973
100003.8046
100003.8121
100003.8162
100003.8123
100003.8074
100003.8059
100003.8082
100003.8143
100003.8258
100003.8427
100003.8618
100003.8803
100003.8976
100003.9135
100003.9273
100003.9367
100003.9447
100003.8961
100003.8972
100003.8847
100003.8612
100003.8373
100003.816
100003.7999
100003.7917
100003.7915
100003.798
100003.8074
100003.816
100003.8204
100003.817
100003.8132
100003.8129
100003.8167
100003.8243
100003.8365
100003.8526
100003.8695
100003.8861
100003.9029
100003.9197
100003.9354
100003.9469
100003.9566
100003.866
100003.8689
100003.8669
100003.8509
100003.8318
100003.8146
100003.8021
100003.7961
100003.7985
100003.8074
100003.818
100003.8266
100003.8312
100003.8294
100003.8262
100003.827
100003.8322
100003.8407
100003.8521
100003.8644
100003.8768
100003.8903
100003.9057
100003.9241
100003.9425
100003.9571
100003.9694
100003.8546
100003.8575
100003.8613
100003.8522
100003.8371
100003.8236
100003.8143
100003.8123
100003.8169
100003.8274
100003.8377
100003.8449
100003.849
100003.8489
100003.8472
100003.8484
100003.8533
100003.8605
100003.8682
100003.8759
100003.8839
100003.8927
100003.905
100003.9278
100003.9501
100003.9681
100003.9835
100003.8628
100003.8699
100003.8791
100003.8719
100003.8583
100003.847
100003.8398
100003.8404
100003.8479
100003.8579
100003.8655
100003.8704
100003.8734
100003.874
100003.8734
100003.8739
100003.8762
100003.8798
100003.8841
100003.8893
100003.8937
100003.8918
100003.877
100003.9269
100003.9599
100003.9822
100004.0002
100003.8935
100003.9095
100003.9227
100003.9157
100003.9006
100003.8884
100003.8826
100003.8843
100003.8903
100003.8959
100003.8993
100003.9011
100003.9024
100003.9028
100003.902
100003.9005
100003.8993
100003.8995
100003.9019
100003.9058
100003.9099
100003.8961
100003.8386
100003.944
100003.9802
100004.0017
100004.0194
100003.9613
100003.9857
100003.9949
100003.9826
100003.964
100003.9495
100003.9417
100003.9395
100003.9392
100003.9388
100003.9374
100003.9359
100003.9349
100003.9341
100003.9324
100003.9291
100003.9253
100003.9234
100003.9248
100003.9298
100003.9385
100003.9463
100003.9747
100003.9845
100004.0054
100004.0226
100004.0379
100004.0602
100004.0783
100004.0736
100004.0525
100004.0289
100004.0099
100003.997
100003.9884
100003.982
100003.9763
100003.971
100003.9666
100003.9636
100003.9616
100003.9595
100003.956
100003.9515
100003.9484
100003.9485
100003.9524
100003.9602
100003.9707
100003.9881
100004.005
100004.0232
100004.0377
100004.0501
100004.215
100004.2075
100004.1823
100004.1488
100004.1161
100004.0883
100004.0658
100004.0475
100004.0325
100004.0198
100004.0092
100004.0008
100003.9946
100003.9906
100003.9879
100003.9857
100003.9838
100003.9833
100003.9854
100003.9902
100003.9975
100004.0076
100004.0215
100004.0315
100004.0424
100004.0515
100004.0599
100003.8558
100003.8694
100003.8569
100003.8784
100003.8842
100003.8855
100003.8581
100003.8626
100003.8583
100003.8529
100003.8483
100003.853
100003.8661
100003.8783
100003.888
100003.83
100003.836
100003.8449
100003.8558
100003.8672
100003.8766
100003.8861
100003.8887
100003.884
100003.873
100003.8908
100003.859
100003.8497
100003.8531
100003.8588
100003.8738
100003.8896
100003.9071
100003.9026
100003.9
100003.9211
100003.9549
100003.9945
100004.0389
100004.0522
100004.1905
100003.8505
100003.8419
100003.8389
100003.8406
100003.8462
100003.8542
100003.8625
100003.8701
100003.8827
100003.8875
100003.881
100003.8717
100003.8626
100003.8514
100003.8508
100003.8663
100003.8681
100003.8838
100003.9021
100003.9251
100003.9353
100003.9095
100003.8995
100003.9034
100003.9375
100003.9953
100004.0416
100004.1378
100003.8698
100003.8559
100003.8484
100003.8464
100003.8488
100003.8532
100003.8567
100003.8539
100003.8758
100003.8837
100003.8768
100003.8692
100003.8623
100003.8587
100003.8625
100003.8681
100003.8766
100003.8925
100003.9136
100003.9428
100003.9655
100003.9581
100003.9582
100003.9267
100003.9418
100004.0076
100004.0593
100004.0846
100003.8695
100003.8589
100003.8544
100003.8546
100003.856
100003.8532
100003.8209
100003.8676
100003.8805
100003.8731
100003.8649
100003.859
100003.8567
100003.8603
100003.8726
100003.8849
100003.9005
100003.9178
100003.9378
100003.9506
100003.9503
100003.9456
100003.9444
100003.9666
100004.0033
100004.0105
100004.0347
100003.8896
100003.8732
100003.8657
100003.864
100003.8646
100003.8618
100003.857
100003.8709
100003.8783
100003.872
100003.8621
100003.8553
100003.8553
100003.8621
100003.874
100003.8875
100003.9022
100003.9151
100003.9261
100003.933
100003.9382
100003.9436
100003.9469
100003.9744
100003.9804
100003.9839
100004.0002
100003.9046
100003.8871
100003.8774
100003.8741
100003.8758
100003.8763
100003.8546
100003.8539
100003.8747
100003.8749
100003.8625
100003.8516
100003.8519
100003.8609
100003.8734
100003.8864
100003.8984
100003.9063
100003.9112
100003.9159
100003.9239
100003.9312
100003.9399
100003.9554
100003.9622
100003.9655
100003.9736
100003.9207
100003.9017
100003.8885
100003.8815
100003.8811
100003.8888
100003.8977
100003.9092
100003.9026
100003.8835
100003.8638
100003.8458
100003.8456
100003.8568
100003.8706
100003.8832
100003.8925
100003.8964
100003.8978
100003.9004
100003.9062
100003.9141
100003.924
100003.9354
100003.9441
100003.9466
100003.9513
100003.9523
100003.9266
100003.9053
100003.8907
100003.8834
100003.8815
100003.8843
100003.893
100003.8889
100003.8789
100003.8631
100003.8431
100003.8413
100003.8524
100003.8665
100003.8786
100003.8859
100003.8873
100003.8871
100003.8887
100003.8928
100003.8979
100003.9054
100003.916
100003.9226
100003.927
100003.9323
100003.9644
100003.9411
100003.9187
100003.9005
100003.8869
100003.8761
100003.8708
100003.8721
100003.8712
100003.8692
100003.8598
100003.8452
100003.8423
100003.8518
100003.8636
100003.8732
100003.8777
100003.8771
100003.8763
100003.8774
100003.8801
100003.883
100003.8874
100003.8944
100003.9019
100003.9083
100003.9169
100004.0743
100004.0097
100003.96
100003.9248
100003.8994
100003.8776
100003.8653
100003.8649
100003.8638
100003.8642
100003.8614
100003.8526
100003.8463
100003.8515
100003.8597
100003.8661
100003.8679
100003.8658
100003.8644
100003.8653
100003.8673
100003.8691
100003.8718
100003.8767
100003.8845
100003.8923
100003.9045
100004.0477
100004.0011
100003.9626
100003.9325
100003.908
100003.8873
100003.8723
100003.8634
100003.8588
100003.8586
100003.8592
100003.8563
100003.8517
100003.8528
100003.857
100003.8599
100003.8593
100003.8556
100003.853
100003.8531
100003.8544
100003.8558
100003.858
100003.8627
100003.8707
100003.8799
100003.8942
100004.1257
100004.0531
100003.9966
100003.9506
100003.9168
100003.8923
100003.8735
100003.8606
100003.854
100003.8525
100003.8545
100003.8563
100003.8553
100003.8559
100003.8578
100003.858
100003.8551
100003.8494
100003.8446
100003.8428
100003.8429
100003.8441
100003.8467
100003.852
100003.8606
100003.8707
100003.8854
100004.1724
100004.0661
100004.0036
100003.9577
100003.9217
100003.8937
100003.8721
100003.857
100003.8487
100003.8465
100003.8491
100003.8534
100003.8574
100003.8613
100003.8647
100003.8629
100003.857
100003.8487
100003.8411
100003.8366
100003.835
100003.8357
100003.839
100003.8455
100003.8542
100003.8647
100003.8786
100004.4632
100004.1446
100004.0666
100003.9917
100003.9367
100003.8989
100003.8721
100003.854
100003.8439
100003.841
100003.8439
100003.8512
100003.8609
100003.8714
100003.8802
100003.876
100003.8654
100003.8532
100003.8423
100003.8351
100003.8317
100003.8318
100003.835
100003.8417
100003.8516
100003.8618
100003.8742
100005.2074
100004.2875
100004.1265
100004.0136
100003.9438
100003.8995
100003.8692
100003.8491
100003.8381
100003.8352
100003.8396
100003.8505
100003.8666
100003.8863
100003.9062
100003.8964
100003.8783
100003.8603
100003.846
100003.8367
100003.8322
100003.8317
100003.8353
100003.8426
100003.8527
100003.8622
100003.8727
100004.4794
100004.1809
100004.0779
100003.9944
100003.9342
100003.8918
100003.8613
100003.841
100003.8302
100003.8281
100003.8342
100003.8486
100003.8719
100003.9045
100003.9582
100003.9251
100003.8921
100003.8663
100003.8487
100003.8382
100003.8336
100003.8341
100003.8389
100003.8469
100003.8569
100003.8653
100003.8739
100004.2115
100004.1023
100004.0297
100003.9663
100003.9168
100003.8795
100003.8512
100003.8318
100003.8216
100003.8197
100003.8253
100003.8383
100003.8583
100003.8834
100003.9129
100003.8987
100003.8774
100003.8586
100003.8453
100003.8378
100003.8357
100003.8382
100003.8446
100003.8533
100003.863
100003.8704
100003.8778
100004.0886
100004.0395
100003.9894
100003.9405
100003.8995
100003.8669
100003.8415
100003.8236
100003.8137
100003.8112
100003.8152
100003.8249
100003.8389
100003.8551
100003.8699
100003.8655
100003.8552
100003.8451
100003.8383
100003.8357
100003.8374
100003.8428
100003.851
100003.8607
100003.8704
100003.8773
100003.8841
100004.0214
100003.9926
100003.956
100003.9162
100003.8805
100003.8515
100003.8292
100003.8138
100003.8053
100003.803
100003.8058
100003.8127
100003.8216
100003.8309
100003.8381
100003.8376
100003.8342
100003.8312
100003.8307
100003.8334
100003.8392
100003.8476
100003.8578
100003.8686
100003.8786
100003.8857
100003.8923
100003.9776
100003.9567
100003.9274
100003.8932
100003.8608
100003.8343
100003.8148
100003.8025
100003.7965
100003.7955
100003.7983
100003.8039
100003.8096
100003.8143
100003.8175
100003.8182
100003.819
100003.8208
100003.8249
100003.832
100003.8415
100003.8528
100003.8649
100003.8769
100003.8876
100003.8952
100003.902
100003.9442
100003.9278
100003.903
100003.8731
100003.844
100003.8199
100003.8029
100003.7931
100003.7896
100003.7899
100003.7932
100003.7987
100003.8035
100003.806
100003.8075
100003.8089
100003.8117
100003.8166
100003.8235
100003.8334
100003.8456
100003.859
100003.8727
100003.8857
100003.8972
100003.9055
100003.9126
100003.9156
100003.9029
100003.8822
100003.8566
100003.8317
100003.8108
100003.7962
100003.7887
100003.7868
100003.7881
100003.7924
100003.7982
100003.8032
100003.8051
100003.8063
100003.8084
100003.8126
100003.8189
100003.8273
100003.8387
100003.852
100003.8663
100003.8808
100003.8948
100003.9072
100003.9163
100003.9239
100003.8917
100003.8822
100003.8655
100003.8447
100003.8243
100003.8072
100003.7957
100003.7905
100003.7897
100003.792
100003.7969
100003.8028
100003.8077
100003.8105
100003.8124
100003.8154
100003.8202
100003.827
100003.8361
100003.8474
100003.8603
100003.8742
100003.8887
100003.9037
100003.9174
100003.9274
100003.9357
100003.8781
100003.8702
100003.8568
100003.8399
100003.8236
100003.8106
100003.8027
100003.7999
100003.7992
100003.8024
100003.8077
100003.8134
100003.8182
100003.8214
100003.8243
100003.828
100003.8331
100003.8399
100003.8484
100003.8584
100003.8697
100003.8825
100003.896
100003.9127
100003.9278
100003.9391
100003.9482
100003.8779
100003.8713
100003.8602
100003.8466
100003.8336
100003.8234
100003.8182
100003.8152
100003.8163
100003.8202
100003.8253
100003.8305
100003.835
100003.8382
100003.8411
100003.8448
100003.8497
100003.8556
100003.8626
100003.8708
100003.8797
100003.8901
100003.8995
100003.9213
100003.9382
100003.9511
100003.9615
100003.893
100003.8848
100003.8766
100003.8666
100003.8558
100003.8469
100003.8415
100003.8399
100003.8415
100003.8451
100003.8494
100003.8535
100003.8571
100003.8599
100003.8624
100003.8651
100003.8686
100003.873
100003.8785
100003.8854
100003.892
100003.901
100003.9019
100003.9333
100003.9493
100003.9644
100003.9761
100003.9228
100003.9164
100003.9096
100003.9001
100003.8896
100003.8809
100003.8753
100003.8732
100003.8738
100003.8759
100003.8783
100003.8807
100003.883
100003.8849
100003.8864
100003.8877
100003.8895
100003.8924
100003.8965
100003.9017
100003.9042
100003.9118
100003.8117
100003.9429
100003.9576
100003.9782
100003.9913
100003.9716
100003.9671
100003.9602
100003.949
100003.9364
100003.9257
100003.918
100003.9137
100003.9117
100003.9108
100003.9106
100003.9108
100003.9113
100003.912
100003.9124
100003.9126
100003.9131
100003.9148
100003.9184
100003.9241
100003.9317
100003.9436
100003.9526
100003.9698
100003.9838
100003.9968
100004.008
100004.026
100004.0233
100004.0141
100003.999
100003.9829
100003.9688
100003.9582
100003.9507
100003.9454
100003.9416
100003.9388
100003.937
100003.936
100003.9356
100003.9355
100003.9355
100003.9356
100003.9365
100003.939
100003.9435
100003.9496
100003.9568
100003.962
100003.9809
100003.9968
100004.0088
100004.0187
100004.1128
100004.1063
100004.09
100004.068
100004.0451
100004.0246
100004.0077
100003.9944
100003.984
100003.9758
100003.9696
100003.9649
100003.9617
100003.9598
100003.9588
100003.9586
100003.9592