/*--------------------------------*- C++ -*----------------------------------*\
  =========                 |
  \\      /  F ield         | OpenFOAM: The Open Source CFD Toolbox
   \\    /   O peration     | Website:  https://openfoam.org
    \\  /    A nd           | Version:  8
     \\/     M anipulation  |
\*---------------------------------------------------------------------------*/
FoamFile
{
    version     2.0;
    format      ascii;
    class       surfaceScalarField;
    location    "1.6";
    object      phi;
}
// * * * * * * * * * * * * * * * * * * * * * * * * * * * * * * * * * * * * * //

dimensions      [1 0 -1 0 0 0 0];

internalField   nonuniform List<scalar> 
197859
(
2.159725422e-05
-3.904454746e-05
1.250059489e-05
2.711738408e-05
-3.041949419e-05
-9.828247323e-06
1.770239284e-05
-3.833951733e-05
9.1743902e-06
-5.469949974e-08
-3.096658816e-05
1.50376332e-05
-1.119222411e-05
-2.432058948e-05
1.098366415e-05
-1.814350079e-05
-2.412445873e-05
7.88264765e-06
-2.322847227e-05
-2.583688242e-05
6.737695969e-06
-2.799314004e-05
-2.830502125e-05
4.637217257e-06
-2.614574024e-05
-3.057699208e-05
-7.025453554e-07
-2.077006274e-05
-2.581836172e-05
-6.957027789e-06
-2.370745179e-05
-1.107604484e-05
5.533003894e-05
-3.104878508e-05
7.757380805e-06
5.012096268e-05
-3.408333996e-05
8.447602526e-06
4.403732296e-05
-3.673694421e-05
9.018391307e-06
3.705617139e-05
-3.896134191e-05
9.970195802e-06
2.816463733e-05
-4.106211837e-05
1.0909167e-05
2.227965742e-05
-3.719609785e-05
1.266161558e-05
8.699277123e-06
-4.01947967e-05
1.543564403e-05
-5.254581741e-06
-3.122203288e-05
1.420924834e-05
-1.396487208e-05
-2.460580973e-05
8.995414874e-06
-2.000600925e-05
-2.350850259e-05
5.425056145e-06
-2.51930185e-05
-2.450299579e-05
3.852963378e-06
-2.8653034e-05
-2.459717492e-05
-2.480282431e-07
-2.483899922e-05
-2.566947615e-05
-8.72178163e-06
-1.896479739e-05
-2.007322436e-05
-1.161957785e-05
-1.116047584e-05
-1.589162764e-05
-1.562039727e-05
-7.771906864e-06
-1.304751939e-05
-1.406285847e-05
-1.608887119e-05
-1.186281229e-05
-5.818195697e-06
-2.807546203e-05
-1.135123149e-05
-4.984693266e-06
-2.753310337e-05
-2.627831155e-06
-2.720201117e-05
-1.252852831e-05
1.244406405e-05
-5.466515154e-05
3.901971174e-06
2.707351074e-05
-7.078505382e-05
2.297774891e-05
3.569880997e-05
-8.436394744e-05
5.708451832e-05
3.999284922e-05
-0.0001039555182
8.882866596e-05
4.210600383e-05
-0.0001061262087
9.191956581e-05
4.096364012e-05
-8.113335982e-05
4.667713706e-05
-5.54970272e-06
5.833960443e-05
-2.813632625e-05
5.724020434e-06
5.542747808e-05
-3.144239252e-05
6.95299354e-06
5.16470497e-05
-3.389125714e-05
6.623075349e-06
4.754912271e-05
-3.576159047e-05
5.77632157e-06
4.273695743e-05
-3.766977602e-05
5.745109932e-06
3.659206307e-05
-3.970127417e-05
6.8849059e-06
2.873759257e-05
-4.181221167e-05
8.604605609e-06
2.170946159e-05
-4.237983451e-05
1.221188214e-05
7.196191058e-06
-4.154643817e-05
1.586488143e-05
-6.668963245e-06
-3.141194981e-05
1.405499514e-05
-1.516704267e-05
-2.392709731e-05
7.819256096e-06
-2.136338481e-05
-2.090043414e-05
3.588137689e-06
-2.761437556e-05
-1.977879213e-05
1.526632113e-06
-2.700759052e-05
-1.871698788e-05
-6.487205059e-06
-1.108370163e-05
-7.693136701e-06
-3.390015894e-05
-9.268803787e-06
-8.396344728e-06
-1.349198828e-05
-2.947375216e-06
-4.524744499e-06
-1.768854476e-05
4.703373852e-06
-1.725262151e-06
-1.897327732e-05
5.804238176e-06
-7.562111004e-07
-1.220777205e-05
-3.473491504e-06
1.311548042e-07
-2.205000306e-06
-1.844957183e-05
1.05226593e-05
1.825226101e-06
-1.889883281e-05
3.353172068e-05
-2.063874671e-05
-1.059925949e-05
5.805580089e-05
-3.928219384e-05
5.351166462e-06
7.093449629e-05
-5.118638046e-05
4.023096016e-05
7.992886084e-05
-7.481594189e-05
6.994019919e-05
8.79788817e-05
-7.558206238e-05
6.833836999e-05
8.857982797e-05
-4.601441668e-05
0.0001003446069
1.467074937e-05
5.680202015e-05
5.637842062e-06
5.28333248e-05
-3.377821641e-05
6.304705512e-06
4.892935583e-05
-3.476114692e-05
4.774013295e-06
4.549062591e-05
-3.539157499e-05
3.068837849e-06
4.157550432e-05
-3.672846752e-05
2.973905161e-06
3.613135674e-05
-3.897384622e-05
4.716776671e-06
2.947161202e-05
-4.217110657e-05
7.018658283e-06
2.243258375e-05
-4.538987626e-05
1.004905228e-05
8.156394908e-06
-4.360260388e-05
1.633231285e-05
-5.918885582e-06
-3.217304569e-05
1.483628265e-05
-1.39886683e-05
-2.339048326e-05
7.533043237e-06
-1.81610857e-05
-1.876140968e-05
2.033241015e-06
-2.069803426e-05
-1.691367944e-05
-3.283447007e-07
-2.209255613e-05
-1.5164534e-05
-2.158148986e-06
-1.755067933e-05
-6.672320474e-06
-5.562929905e-06
-1.172521438e-05
-4.802742971e-06
-9.419317755e-06
-2.195007935e-06
5.358875055e-07
-1.459109744e-05
6.121370775e-06
5.216849919e-06
-1.525876637e-05
7.010518084e-06
6.185533529e-06
-7.831194253e-06
-3.472416323e-06
4.98886319e-06
5.624894184e-06
-1.892570617e-05
5.738506188e-06
2.023708687e-05
-2.200330297e-05
2.321213413e-05
1.339679725e-05
-1.8440736e-05
5.407868127e-05
4.141062535e-07
-7.338263509e-06
6.682804912e-05
-6.996432199e-06
2.087193157e-05
8.327942667e-05
-3.156113384e-05
4.335706821e-05
9.908563129e-05
-3.359221297e-05
4.058160987e-05
9.832852776e-05
-6.973501082e-06
0.0001074134949
3.351233096e-05
5.078279522e-05
-3.35220646e-05
4.271001402e-06
4.693267909e-05
-3.378575177e-05
2.874859098e-06
4.387039472e-05
-3.373366247e-05
1.404478906e-06
4.006849515e-05
-3.470704769e-05
1.780555498e-06
3.406176639e-05
-3.692908547e-05
3.962007448e-06
2.684674221e-05
-3.954911402e-05
4.593035599e-06
2.612038046e-05
-3.921514597e-05
-5.448448131e-06
1.272404554e-05
-4.526395837e-05
1.505764118e-05
-3.170130927e-06
-3.261824645e-05
1.633927074e-05
-1.255668504e-05
-2.275346039e-05
8.749393756e-06
-1.657879472e-05
-1.629966129e-05
1.560200545e-06
-1.752326959e-05
-1.411965947e-05
-1.849730784e-06
-1.639020047e-05
-1.326320892e-05
-3.034598942e-06
-1.13599586e-05
-8.122224336e-06
-3.580540404e-06
-6.383705997e-06
-4.353591998e-06
-5.425636814e-06
1.233891322e-06
3.03290561e-07
-7.385254747e-06
8.619563172e-06
5.922026806e-06
-8.091124328e-06
9.908322028e-06
7.071127156e-06
-2.174649407e-06
2.023329247e-06
4.621155731e-06
8.25238165e-06
-1.247251273e-05
1.624057873e-06
1.860995044e-05
-2.076922588e-05
8.421234613e-06
2.308724736e-05
-2.077514207e-05
3.366252076e-05
2.042171858e-05
-1.653697707e-05
4.436514506e-05
1.822438273e-05
-1.505621799e-07
6.5350025e-05
1.542666718e-06
1.613373339e-05
8.790672931e-05
-5.105791672e-06
1.59009322e-05
8.599361346e-05
1.256735773e-05
9.077071863e-05
3.254327795e-05
5.016356557e-05
-3.226342834e-05
3.660116413e-06
4.621547355e-05
-3.244661837e-05
2.609082779e-06
4.291400945e-05
-3.217720182e-05
1.74509751e-06
3.833471333e-05
-3.2604998e-05
2.477310233e-06
3.096763725e-05
-3.378969217e-05
4.227712633e-06
2.581881263e-05
-3.422760446e-05
-1.726903697e-07
2.720005352e-05
-3.129897233e-05
-9.297430097e-06
1.923700525e-05
-4.532085157e-05
8.019910725e-06
1.720557275e-06
-3.166043533e-05
1.655853745e-05
-1.048849867e-05
-2.195137541e-05
1.140682705e-05
-1.549481457e-05
-1.370840933e-05
2.414896226e-06
-1.500618855e-05
-1.174576793e-05
-2.862707273e-06
-1.093490898e-05
-1.222893529e-05
-5.105759031e-06
-6.199470286e-06
-6.675927383e-06
-6.181956806e-06
-1.82686069e-06
-2.239083598e-06
-6.487357586e-06
3.711617791e-06
8.913276924e-07
-6.126775043e-06
9.418865742e-06
4.37141268e-06
-4.156909493e-06
1.138415862e-05
4.540708581e-06
5.648332621e-07
7.931779836e-06
1.717073762e-06
6.356153148e-06
-4.521947746e-09
-6.903247376e-08
9.62907955e-06
-8.719806681e-06
2.613875202e-06
1.452224357e-05
-1.377785144e-05
1.650686986e-05
2.22133299e-05
-1.738138364e-05
2.465831935e-05
2.33100085e-05
-1.260787726e-05
4.309304416e-05
1.748313552e-05
-1.502473898e-06
6.45546283e-05
1.224634212e-05
8.339933655e-07
6.574890733e-05
1.790789145e-05
7.056830428e-05
2.103603728e-05
4.897308272e-05
-3.324393684e-05
4.607904046e-06
4.581391223e-05
-3.272917614e-05
3.44183454e-06
4.256698547e-05
-3.196302571e-05
3.032828758e-06
3.762871693e-05
-3.141447038e-05
3.747790018e-06
2.929753286e-05
-3.075778585e-05
5.299301331e-06
2.137681131e-05
-3.177554665e-05
5.468661578e-06
2.501521812e-05
-2.306019443e-05
-1.187720921e-05
2.520187276e-05
-2.406580986e-05
-2.144185652e-05
9.525393577e-06
-2.506502409e-05
9.080920808e-06
-7.29575581e-06
-1.977910697e-05
1.464874104e-05
-1.422530536e-05
-1.098606046e-05
4.20702685e-06
-1.320146277e-05
-8.689356972e-06
-4.080442702e-06
-6.69509151e-06
-1.01427439e-05
-8.592767867e-06
-2.809562705e-07
-4.814013743e-06
-8.276276441e-06
4.089645985e-06
9.200536627e-07
-7.529985147e-06
8.06812016e-06
4.019934885e-06
-7.107344306e-06
1.177193422e-05
6.026567983e-06
-5.359246791e-06
1.348039849e-05
5.834162441e-06
-3.002210461e-06
1.275554759e-05
4.132754765e-06
-1.69114103e-06
1.044162216e-05
3.334498398e-06
-1.089939421e-06
6.965862735e-06
4.867742471e-06
1.2215117e-06
4.279590352e-06
1.113604125e-05
8.05672981e-06
-2.118028423e-06
1.717665345e-05
1.387893102e-05
-6.342482623e-06
2.952675973e-05
1.779040676e-05
-3.760396197e-06
4.495514222e-05
1.701707213e-05
-3.093050023e-06
5.014546275e-05
1.493577511e-05
5.497678138e-05
1.249814136e-05
4.884425392e-05
-3.600173825e-05
4.585911801e-06
4.645581474e-05
-3.407447426e-05
3.733809354e-06
4.345926329e-05
-3.259109827e-05
3.624673676e-06
3.877231668e-05
-3.106602761e-05
4.338529183e-06
3.102543877e-05
-2.903009686e-05
6.019194727e-06
1.215064589e-05
-2.426403249e-05
1.136337163e-05
4.88103046e-06
-2.052775264e-05
4.737098626e-06
3.924782623e-05
1.137517691e-05
-6.980676104e-05
2.765109708e-05
-1.207504151e-05
-1.393426822e-06
-8.225721865e-07
-1.033681941e-05
1.903132233e-05
-1.054063226e-05
-4.876448588e-06
3.608270388e-06
-9.11858079e-06
-4.812885406e-07
-9.630306667e-06
-2.448050997e-06
8.799318394e-07
-1.769341378e-05
3.515130781e-06
3.738304977e-06
-1.451572966e-05
7.228613151e-06
7.573120669e-06
-1.036679973e-05
9.642282463e-06
9.986754574e-06
-8.380755666e-06
1.146052824e-05
1.171100469e-05
-7.502962137e-06
1.293133842e-05
1.229752712e-05
-7.934468294e-06
1.454197332e-05
1.169364179e-05
-9.171831596e-06
1.627194504e-05
1.115538158e-05
-9.551180408e-06
1.739964023e-05
1.186008829e-05
-8.120383986e-06
1.811008414e-05
1.465388682e-05
-4.228633878e-06
1.52498056e-05
1.881628219e-05
1.220305185e-06
9.923157053e-06
2.608627631e-05
8.766789022e-06
5.344816743e-06
3.568629749e-05
1.384685125e-05
6.074673049e-07
4.120241757e-05
1.368007755e-05
4.454594774e-05
1.103797607e-05
5.015293917e-05
-3.622770434e-05
-7.660603668e-07
4.837665969e-05
-3.453441066e-05
2.236238294e-06
4.530978112e-05
-3.25523242e-05
3.028113442e-06
4.131774062e-05
-3.067965169e-05
3.60565332e-06
3.629613871e-05
-2.841092779e-05
4.402403838e-06
3.202888482e-05
-2.545415541e-05
5.457339545e-06
2.554727015e-05
-2.15036958e-05
7.457463059e-06
2.738516368e-05
6.168513299e-07
8.920369876e-06
1.051805021e-05
-1.187509095e-05
1.66670083e-05
-8.730551787e-06
-6.974655284e-06
1.588628823e-05
-1.44360671e-05
1.146713667e-06
-3.178319086e-07
-6.922325688e-06
9.101655585e-06
-1.709688562e-05
5.568712212e-06
1.657498535e-05
-2.818630708e-05
1.440327371e-05
1.883071011e-05
-2.392719317e-05
1.741325966e-05
1.986894361e-05
-1.530605995e-05
1.556325317e-05
2.070001813e-05
-8.863526431e-06
1.283854731e-05
2.155152136e-05
-7.116093356e-06
1.286663044e-05
2.204860649e-05
-9.779460258e-06
1.576618851e-05
2.177798297e-05
-1.298420991e-05
1.991625097e-05
2.141429793e-05
-1.440929734e-05
2.395272101e-05
2.1714199e-05
-1.389090597e-05
2.692253362e-05
2.304380484e-05
-1.136005899e-05
2.728261541e-05
2.542946588e-05
-6.9735985e-06
2.435831595e-05
2.953170729e-05
-5.214703627e-07
1.804004626e-05
3.480684334e-05
7.197387281e-06
8.371213697e-06
3.862607854e-05
1.224484842e-05
3.943272485e-05
1.34841191e-05
6.254964886e-05
-2.277954516e-05
-1.352980354e-05
5.560764924e-05
-2.696998712e-05
-6.224274839e-07
4.898633609e-05
-2.80253254e-05
2.094274091e-06
4.338949942e-05
-2.777701421e-05
2.69413666e-06
3.872860671e-05
-2.607022047e-05
2.320105374e-06
3.617698075e-05
-2.158594533e-05
-1.316678137e-06
3.132047288e-05
-1.818741087e-05
1.540105502e-06
3.189161992e-05
-1.115073349e-05
1.119638063e-05
1.826731477e-05
-1.153734673e-05
1.328640517e-05
1.358674124e-06
-5.938378008e-06
1.587219315e-05
-9.133038197e-06
3.958352338e-06
7.679868322e-06
-5.516819312e-06
1.48187996e-05
-9.333579179e-06
7.099584465e-06
2.671602792e-05
-2.27576729e-05
1.6034627e-05
2.970977274e-05
-1.981434993e-05
1.802626826e-05
3.018135029e-05
-1.230431769e-05
1.461566366e-05
3.055497989e-05
-6.444642563e-06
1.071571613e-05
3.107923073e-05
-5.628056903e-06
1.116416638e-05
3.164297102e-05
-1.00431223e-05
1.539801524e-05
3.196893627e-05
-1.44251164e-05
2.129117745e-05
3.202601414e-05
-1.650519307e-05
2.729941539e-05
3.225424084e-05
-1.654859468e-05
3.217737755e-05
3.286574031e-05
-1.470021338e-05
3.470679252e-05
3.397984513e-05
-1.108011279e-05
3.378818711e-05
3.593312783e-05
-5.483138081e-06
2.811253259e-05
3.851501627e-05
1.967157734e-06
1.633366956e-05
4.047958812e-05
9.925036517e-06
3.999999623e-05
1.57660898e-05
5.590365469e-05
-2.065335826e-05
-2.797126195e-06
5.328561892e-05
-2.352563496e-05
-8.264556634e-07
4.874195044e-05
-2.403313902e-05
5.513509843e-07
4.245415086e-05
-2.294687522e-05
1.457529623e-06
3.699557866e-05
-2.044773141e-05
-1.640536526e-07
3.868759953e-05
-1.216995378e-05
-1.11081433e-05
3.951354622e-05
-1.05043389e-05
-8.509165891e-06
3.67679765e-05
-9.11071249e-06
7.053992391e-07
2.590526391e-05
-8.219196123e-06
7.544387971e-06
1.201896587e-05
-3.969976695e-06
1.191770257e-05
-3.705905445e-07
4.560268614e-06
1.17874116e-05
-1.331698644e-06
1.572540864e-05
5.425044962e-08
7.569951189e-06
3.099455412e-05
-1.318043282e-05
1.457907986e-05
3.468610995e-05
-1.198574312e-05
1.59316704e-05
3.575157497e-05
-6.923111523e-06
1.269490334e-05
3.681939441e-05
-3.027955815e-06
8.938723561e-06
3.804559958e-05
-3.210503143e-06
9.788722568e-06
3.943624367e-05
-8.643593295e-06
1.482160106e-05
4.079804315e-05
-1.38623086e-05
2.170841138e-05
4.16612276e-05
-1.652234177e-05
2.885485248e-05
4.216380498e-05
-1.705631835e-05
3.4889072e-05
4.249214465e-05
-1.566093399e-05
3.859349338e-05
4.278560929e-05
-1.251049512e-05
3.879465041e-05
4.328018461e-05
-7.548524237e-06
3.376173252e-05
4.410295711e-05
-5.553323759e-07
2.120276872e-05
4.469779659e-05
8.340451958e-06
4.422279423e-05
1.697967346e-05
5.809025128e-05
-1.936658728e-05
-2.62912482e-06
5.572398124e-05
-2.025389468e-05
-9.057321129e-07
5.148525896e-05
-1.978841231e-05
-6.249812291e-09
4.577070479e-05
-1.789200602e-05
6.594656008e-07
4.007926168e-05
-1.475071882e-05
-5.777846487e-09
4.284894257e-05
-5.773810982e-06
-9.166000717e-06
4.398717935e-05
-4.623784941e-06
-7.018977248e-06
4.059312915e-05
-4.876566946e-06
-8.402843921e-07
3.224715217e-05
-3.870734068e-06
3.997311274e-06
2.126733332e-05
-5.131824909e-07
7.522802789e-06
1.021801035e-05
6.042779869e-06
9.566563295e-06
5.415842562e-06
1.498416531e-05
5.543135262e-06
9.76145144e-06
3.019573533e-05
-3.547080117e-06
1.421642101e-05
3.487093408e-05
-4.640107343e-06
1.511791576e-05
3.727367574e-05
-2.423926524e-06
1.261005209e-05
3.964592763e-05
-3.190104167e-07
9.190806113e-06
4.211968104e-05
-6.55177299e-07
9.733112421e-06
4.478330773e-05
-5.889711176e-06
1.470753686e-05
4.742060805e-05
-1.159732663e-05
2.178303814e-05
4.937795475e-05
-1.479255568e-05
2.931317047e-05
5.042401457e-05
-1.57906593e-05
3.581365819e-05
5.077652977e-05
-1.478518254e-05
3.998627866e-05
5.060587262e-05
-1.199318851e-05
4.056488064e-05
5.015343506e-05
-7.4521536e-06
3.568649427e-05
4.979834043e-05
-8.172932304e-07
2.285525913e-05
4.948715865e-05
8.041584106e-06
4.951303365e-05
1.756473315e-05
6.398381138e-05
-1.16496325e-05
-8.827550148e-06
6.054647472e-05
-1.332385602e-05
-3.493116045e-06
5.582857178e-05
-1.371030253e-05
-1.360578934e-06
5.114392869e-05
-1.258933955e-05
-6.183472717e-07
4.705288289e-05
-1.005685377e-05
-6.031036402e-07
4.683443118e-05
-4.812257962e-06
-7.433520699e-07
4.577254218e-05
-2.767895913e-06
-7.942367799e-07
4.263643909e-05
-1.495119758e-06
-2.455750116e-07
3.706383428e-05
4.489444773e-07
1.252690659e-06
2.927769927e-05
3.613644249e-06
3.659058754e-06
2.035405782e-05
8.677706745e-06
6.288441836e-06
1.361292204e-05
1.559559983e-05
6.129397007e-06
1.419452826e-05
2.73418514e-05
2.271947465e-06
1.628698297e-05
3.292971401e-05
-1.515927388e-07
1.673589874e-05
3.678537953e-05
3.90046887e-08
1.495460179e-05
4.02579479e-05
1.168894207e-06
1.19427104e-05
4.380834021e-05
1.322853724e-06
1.164694029e-05
4.763096565e-05
-2.55225466e-06
1.565647852e-05
5.145835681e-05
-8.047642159e-06
2.213398478e-05
5.455183665e-05
-1.165172803e-05
2.931785992e-05
5.632233452e-05
-1.308251968e-05
3.56270823e-05
5.692752345e-05
-1.246052766e-05
3.966279408e-05
5.657830016e-05
-1.000844079e-05
4.00381803e-05
5.558112104e-05
-5.803365088e-06
3.497431152e-05
5.443047787e-05
4.314474489e-07
2.218458617e-05
5.353197258e-05
8.744635829e-06
5.404915291e-05
1.764818938e-05
6.821940037e-05
-8.121074702e-07
-1.128534181e-05
6.523718347e-05
-3.815692091e-06
-6.526569693e-06
6.064200205e-05
-5.654294173e-06
-3.461357109e-06
5.583410024e-05
-5.777868074e-06
-2.004008575e-06
5.16140183e-05
-4.123027212e-06
-1.71410953e-06
4.964619395e-05
-1.081493512e-06
-1.763250423e-06
4.766453845e-05
1.327619126e-06
-2.11413805e-06
4.492790409e-05
3.406460743e-06
-2.165209917e-06
4.1053514e-05
5.699538221e-06
-1.376467391e-06
3.571944558e-05
8.473516056e-06
4.739205697e-07
2.898952788e-05
1.23210382e-05
3.086286719e-06
2.244110852e-05
1.756784684e-05
4.575838333e-06
2.039438942e-05
2.557997882e-05
3.808219528e-06
2.02785961e-05
3.12454382e-05
1.79965935e-06
2.020236596e-05
3.582681441e-05
1.034368957e-06
1.901218339e-05
3.99164415e-05
1.53125852e-06
1.660020912e-05
4.399709535e-05
2.22279793e-06
1.555926857e-05
4.838420013e-05
2.873059289e-07
1.803920882e-05
5.2981445e-05
-4.003404762e-06
2.322469846e-05
5.696083924e-05
-7.59484549e-06
2.938447802e-05
5.949239488e-05
-9.330171515e-06
3.487787132e-05
6.049712873e-05
-9.063311278e-06
3.8223305e-05
6.017527632e-05
-6.94270677e-06
3.794431228e-05
5.890661209e-05
-3.046781348e-06
3.237343927e-05
5.71888964e-05
2.812184027e-06
1.996035973e-05
5.600786882e-05
9.936920217e-06
5.686244645e-05
1.714679682e-05
7.639476304e-05
1.48090121e-05
-1.96715488e-05
7.395397856e-05
9.877080653e-06
-1.125281231e-05
6.8643459e-05
5.865347221e-06
-6.209805113e-06
6.235479084e-05
3.940717222e-06
-3.43046258e-06
5.669435369e-05
4.062193037e-06
-2.525219019e-06
5.300378732e-05
5.310975564e-06
-2.702261607e-06
5.041157612e-05
7.079481056e-06
-3.159962487e-06
4.793416916e-05
9.164373952e-06
-3.280795171e-06
4.497715916e-05
1.137195389e-05
-2.715691159e-06
4.106086614e-05
1.373360168e-05
-1.344090493e-06
3.603772107e-05
1.6620831e-05
7.230293088e-07
3.052887099e-05
2.043804639e-05
2.638288263e-06
2.709500433e-05
2.580055563e-05
3.212882356e-06
2.540528995e-05
3.075717532e-05
2.177527399e-06
2.468593174e-05
3.526107565e-05
1.284621418e-06
2.37934168e-05
3.940541792e-05
1.403058928e-06
2.207183231e-05
4.347234547e-05
2.245869972e-06
2.070425992e-05
4.77532274e-05
1.998110446e-06
2.172867585e-05
5.246207003e-05
-5.054397013e-07
2.518172371e-05
5.68546209e-05
-3.347194749e-06
2.976193735e-05
5.996196279e-05
-5.050117312e-06
3.388297914e-05
6.138126928e-05
-5.005492743e-06
3.602138531e-05
6.119915749e-05
-3.162575743e-06
3.473631214e-05
5.980188052e-05
3.895339172e-07
2.854174329e-05
5.77982462e-05
5.584962496e-06
1.680964708e-05
5.66203242e-05
1.111938896e-05
5.764338389e-05
1.602844868e-05
7.679411912e-05
2.827071412e-05
-1.720702724e-05
7.383190486e-05
2.16172754e-05
-8.779038137e-06
6.866172665e-05
1.561563575e-05
-4.580921493e-06
6.290898317e-05
1.237128985e-05
-2.678448236e-06
5.780765457e-05
1.155118625e-05
-2.388142801e-06
5.45117541e-05
1.175548445e-05
-3.148991597e-06
5.237849647e-05
1.312017694e-05
-3.907765306e-06
5.043898976e-05
1.513022137e-05
-4.026641601e-06
4.814343256e-05
1.714223155e-05
-3.47501791e-06
4.518357832e-05
1.905513799e-05
-2.361994431e-06
4.140938802e-05
2.11498962e-05
-7.552174008e-07
3.704315674e-05
2.377636111e-05
1.027530744e-06
3.332908787e-05
2.735892745e-05
2.15525984e-06
3.084974036e-05
3.124143762e-05
1.994598264e-06
2.9575737e-05
3.515544637e-05
1.379111171e-06
2.8681271e-05
3.897977857e-05
1.319582232e-06
2.742697127e-05
4.272346777e-05
2.002677746e-06
2.607426269e-05
4.653442898e-05
2.571045665e-06
2.5959808e-05
5.069930723e-05
1.876801098e-06
2.766250067e-05
5.49065973e-05
2.449576143e-07
3.037091577e-05
5.817132637e-05
-9.18114058e-07
3.273873761e-05
5.983107735e-05
-8.179336518e-07
3.330810055e-05
5.973763162e-05
8.918855578e-07
3.074439402e-05
5.82479244e-05
4.117406406e-06
2.406432584e-05
5.631010571e-05
8.167965623e-06
1.334744939e-05
5.548904667e-05
1.184791234e-05
5.660180104e-05
1.438878157e-05
7.303408501e-05
3.689198009e-05
-9.972250111e-06
6.989622306e-05
2.987471303e-05
-5.120485917e-06
6.538617663e-05
2.409771938e-05
-3.972777498e-06
6.077075342e-05
2.094452227e-05
-3.958391297e-06
5.673763019e-05
1.960162129e-05
-4.017767755e-06
5.437429507e-05
1.979898571e-05
-5.680535574e-06
5.33568108e-05
2.104412483e-05
-6.90678241e-06
5.242900456e-05
2.240286684e-05
-6.345135263e-06
5.08499158e-05
2.352962643e-05
-4.808601812e-06
4.853041452e-05
2.456780898e-05
-3.193483913e-06
4.554895089e-05
2.575550266e-05
-1.62449129e-06
4.209051784e-05
2.729225991e-05
-5.786123907e-08
3.869025835e-05
2.946458763e-05
1.294147962e-06
3.604798357e-05
3.213832101e-05
1.744884063e-06
3.449336038e-05
3.519115034e-05
1.518368068e-06
3.344359384e-05
3.843044079e-05
1.598557546e-06
3.232728758e-05
4.17453153e-05
2.093944316e-06
3.099557971e-05
4.505989101e-05
2.80577653e-06
3.009377421e-05
4.848885179e-05
3.111841251e-06
3.02124083e-05
5.197213718e-05
2.815454371e-06
3.1022998e-05
5.485828674e-05
2.502120841e-06
3.150716311e-05
5.639844204e-05
2.948176891e-06
3.041983906e-05
5.627770881e-05
4.546982808e-06
2.666325733e-05
5.484440009e-05
7.159864095e-06
1.971864721e-05
5.321379687e-05
1.00406888e-05
1.022862129e-05
5.297743798e-05
1.200140389e-05
5.418383756e-05
1.264634786e-05
6.592471207e-05
4.297792522e-05
-4.71576012e-06
6.065140912e-05
3.714380312e-05
-1.996437552e-06
5.76818738e-05
3.371192759e-05
-6.645238275e-06
5.657481057e-05
3.115528699e-05
-9.104169798e-06
5.460866954e-05
2.903779864e-05
-7.470418247e-06
5.389669724e-05
2.946110007e-05
-8.950460984e-06
5.457819316e-05
3.045933898e-05
-1.009699504e-05
5.479282249e-05
3.06741848e-05
-8.486220545e-06
5.362198239e-05
3.041107333e-05
-5.710885921e-06
5.140471919e-05
3.021875311e-05
-3.433982002e-06
4.868009071e-05
3.030430523e-05
-1.824510893e-06
4.57540859e-05
3.065033765e-05
-4.32456023e-07
4.290264322e-05
3.143864149e-05
8.769530147e-07
4.058724981e-05
3.27026879e-05
1.75054015e-06
3.908189893e-05
3.454590219e-05
2.150076466e-06
3.800964439e-05
3.703145247e-05
2.470722486e-06
3.688535395e-05
4.001717174e-05
2.851942465e-06
3.544025971e-05
4.31118196e-05
3.392716369e-06
3.391947749e-05
4.606357808e-05
3.945653618e-06
3.274705346e-05
4.87994797e-05
4.34472542e-06
3.186091691e-05
5.099618945e-05
4.747919799e-06
3.059294539e-05
5.210325885e-05
5.562876749e-06
2.799112419e-05
5.180574545e-05
7.073536059e-06
2.326476745e-05
5.042440813e-05
9.146121735e-06
1.624465456e-05
4.912395137e-05
1.110974207e-05
7.910703755e-06
4.950652082e-05
1.180465184e-05
5.088430649e-05
1.121001633e-05
6.057661693e-05
4.630926318e-05
-1.81632395e-06
5.650700936e-05
4.163716542e-05
-4.241565664e-07
5.588353991e-05
3.92727296e-05
-4.937707228e-06
5.715670406e-05
3.658861412e-05
-6.70682257e-06
5.678249053e-05
3.408222283e-05
-4.670498806e-06
5.693715202e-05
3.467406865e-05
-5.367884762e-06
5.779184993e-05
3.596723174e-05
-6.362831271e-06
5.767076271e-05
3.621309642e-05
-5.418065439e-06
5.597863585e-05
3.5703216e-05
-3.60026895e-06
5.336162597e-05
3.501167776e-05
-2.176191645e-06
5.053595063e-05
3.434026501e-05
-1.210595067e-06
4.786753183e-05
3.360396597e-05
-2.855610291e-07
4.556432471e-05
3.305306656e-05
6.883860292e-07
4.388923189e-05
3.287541012e-05
1.50193414e-06
4.29526241e-05
3.326192183e-05
2.220125087e-06
4.232049006e-05
3.466398278e-05
2.999140594e-06
4.137313163e-05
3.722102117e-05
3.743067653e-06
3.978579613e-05
4.030471667e-05
4.394031604e-06
3.76966395e-05
4.318186927e-05
4.970498484e-06
3.545994551e-05
4.550387532e-05
5.531971722e-06
3.316423039e-05
4.709664169e-05
6.194973892e-06
3.042409369e-05
4.769263053e-05
7.150509056e-06
2.65665104e-05
4.711099649e-05
8.552103435e-06
2.106260921e-05
4.569477216e-05
1.023332803e-05
1.400897946e-05
4.463162412e-05
1.154575807e-05
6.506298108e-06
4.549508238e-05
1.151392305e-05
4.709386454e-05
1.029654394e-05
5.659575357e-05
4.760962021e-05
-6.65514819e-07
5.46927854e-05
4.38058405e-05
-2.659127025e-07
5.588417889e-05
4.140633367e-05
-3.325212193e-06
5.861972789e-05
3.837927337e-05
-4.526418068e-06
5.99303097e-05
3.582473519e-05
-3.053294493e-06
6.083084167e-05
3.628605905e-05
-2.512715129e-06
6.121265577e-05
3.795285253e-05
-2.367629238e-06
6.011195365e-05
3.897750704e-05
-1.663912681e-06
5.753830765e-05
3.913700973e-05
-8.603690002e-07
5.428512803e-05
3.868413417e-05
-4.195221668e-07
5.100610004e-05
3.777367554e-05
-1.546577883e-07
4.805659079e-05
3.633544335e-05
2.177232759e-07
4.58414574e-05
3.49778536e-05
2.900026775e-07
4.493265037e-05
3.411725814e-05
-3.334160892e-07
4.532586386e-05
3.365147711e-05
-7.83164013e-07
4.603023944e-05
3.405406077e-05
-9.484981209e-08
4.583187649e-05
3.571779282e-05
1.70121134e-06
4.431013725e-05
3.809285598e-05
3.733246823e-06
4.169200033e-05
4.044827112e-05
5.351414133e-06
3.852037609e-05
4.221778804e-05
6.457424021e-06
3.5067902e-05
4.323266337e-05
7.316196834e-06
3.112622794e-05
4.336565599e-05
8.268421512e-06
2.623803889e-05
4.253671546e-05
9.462266459e-06
2.00850216e-05
4.108981673e-05
1.075778593e-05
1.291966685e-05
4.015385703e-05
1.164294429e-05
5.832802403e-06
4.124684968e-05
1.133492342e-05
4.298897041e-05
9.937525394e-06
5.294741146e-05
4.827708964e-05
-1.035670263e-07
5.164067655e-05
4.592428904e-05
-8.117826986e-07
5.332055642e-05
4.41221176e-05
-4.395763038e-06
5.711900192e-05
4.156577701e-05
-6.985069224e-06
6.045846601e-05
3.940881495e-05
-6.923677461e-06
6.27813865e-05
3.940521952e-05
-5.442223395e-06
6.345812302e-05
4.067197221e-05
-3.396008874e-06
6.195441039e-05
4.184982693e-05
-1.368774133e-06
5.873947748e-05
4.231014679e-05
4.160977733e-08
5.468987004e-05
4.197075261e-05
7.62779689e-07
5.043928396e-05
4.099443385e-05
1.029592559e-06
4.622422109e-05
3.939919478e-05
1.151050424e-06
4.313270809e-05
3.809524945e-05
-2.617217677e-08
4.286041401e-05
3.757341063e-05
-3.184173016e-06
4.518582523e-05
3.721354057e-05
-5.887804137e-06
4.813619835e-05
3.71476369e-05
-6.044278613e-06
4.988029324e-05
3.76871623e-05
-3.7137817e-06
4.948322759e-05
3.858401878e-05
-9.439351557e-08
4.684805096e-05
3.936282287e-05
3.720354978e-06
4.281233967e-05
3.975950238e-05
6.493754479e-06
3.810846861e-05
3.975807404e-05
8.178244105e-06
3.288199012e-05
3.929088995e-05
9.30105165e-06
2.691119142e-05
3.823856919e-05
1.026877123e-05
2.004061604e-05
3.680607816e-05
1.115415344e-05
1.260196334e-05
3.591426175e-05
1.167809483e-05
5.597939057e-06
3.695029225e-05
1.13004329e-05
3.858348059e-05
1.000328403e-05
5.014817823e-05
4.877710089e-05
1.606554846e-06
4.733644852e-05
4.939304381e-05
-6.570087596e-07
4.856689769e-05
4.951619278e-05
-6.624549811e-06
5.354502874e-05
4.80257967e-05
-1.14382066e-05
5.913106244e-05
4.632775377e-05
-1.250505029e-05
6.334251243e-05
4.577937279e-05
-1.058570003e-05
6.506710966e-05
4.613730262e-05
-7.190042125e-06
6.394175376e-05
4.657745744e-05
-3.602406108e-06
6.050334573e-05
4.646536675e-05
-7.16962066e-07
5.56665416e-05
4.564056176e-05
1.166822927e-06
5.018755122e-05
4.436313365e-05
2.110095345e-06
4.428368682e-05
4.287044536e-05
2.432398355e-06
3.993228047e-05
4.201917757e-05
4.272425811e-07
4.01572658e-05
4.219330226e-05
-4.845133041e-06
4.418817484e-05
4.235998594e-05
-9.177617409e-06
4.920514321e-05
4.216211246e-05
-1.003170434e-05
5.287054152e-05
4.166769838e-05
-7.646186935e-06
5.385863392e-05
4.078050094e-05
-3.184812226e-06
5.181468208e-05
3.946349368e-05
1.943063971e-06
4.735659717e-05
3.793756855e-05
6.279823672e-06
4.162673358e-05
3.654213912e-05
8.945623983e-06
3.520595457e-05
3.536546297e-05
1.034604951e-05
2.815394477e-05
3.418130364e-05
1.110913334e-05
2.04930975e-05
3.288370296e-05
1.158309011e-05
1.265975002e-05
3.199452492e-05
1.175295721e-05
5.571460848e-06
3.268813695e-05
1.135032156e-05
3.383125082e-05
1.032357269e-05
4.806724377e-05
5.122703763e-05
2.170664893e-06
4.302940046e-05
5.431064807e-05
1.202991116e-07
4.392075748e-05
5.643222886e-05
-7.807377268e-06
5.004681949e-05
5.617475035e-05
-1.427502812e-05
5.748031807e-05
5.48894159e-05
-1.599519538e-05
6.337722507e-05
5.386862427e-05
-1.398621721e-05
6.629432859e-05
5.324632354e-05
-1.002620572e-05
6.586592006e-05
5.254225246e-05
-5.536486414e-06
6.254426709e-05
5.129767878e-05
-1.510776265e-06
5.720897108e-05
4.949420162e-05
1.481518839e-06
5.084920114e-05
4.754859396e-05
3.174150947e-06
4.38736942e-05
4.597897285e-05
3.86680371e-06
3.866409004e-05
4.535765059e-05
1.87094021e-06
3.892579176e-05
4.607488136e-05
-4.143485581e-06
4.360556324e-05
4.679140047e-05
-9.111392262e-06
4.951191966e-05
4.656049108e-05
-1.030493733e-05
5.408738414e-05
4.510425405e-05
-8.012216336e-06
5.578799548e-05
4.24643268e-05
-3.384621392e-06
5.409283705e-05
3.905336963e-05
2.105114823e-06
4.960359157e-05
3.567341312e-05
6.75324982e-06
4.356541668e-05
3.308782003e-05
9.492357481e-06
3.669424231e-05
3.147310016e-05
1.076341332e-05
2.914175237e-05
3.041767288e-05
1.131600744e-05
2.102338905e-05
2.939481722e-05
1.160714383e-05
1.289559761e-05
2.842972614e-05
1.16924899e-05
5.691988462e-06
2.847212276e-05
1.141952725e-05
2.872080413e-05
1.080234454e-05
5.029055835e-05
5.846888429e-05
-1.960297274e-06
4.299556384e-05
6.154220154e-05
6.35191156e-08
4.229315184e-05
6.398026382e-05
-6.845586652e-06
4.824996936e-05
6.415764007e-05
-1.393969764e-05
5.63393407e-05
6.303758508e-05
-1.623755195e-05