/*--------------------------------*- C++ -*----------------------------------*\
  =========                 |
  \\      /  F ield         | OpenFOAM: The Open Source CFD Toolbox
   \\    /   O peration     | Website:  https://openfoam.org
    \\  /    A nd           | Version:  8
     \\/     M anipulation  |
\*---------------------------------------------------------------------------*/
FoamFile
{
    version     2.0;
    format      ascii;
    class       volVectorField;
    location    "1.6";
    object      U;
}
// * * * * * * * * * * * * * * * * * * * * * * * * * * * * * * * * * * * * * //

dimensions      [0 1 -1 0 0 0 0];

internalField   nonuniform List<vector> 
67451
(
(0.180981191 -0.3407129414 0.08225505763)
(0.1834985427 -0.2628411069 0.00668762387)
(0.2416399313 -0.3346204416 0.0896047893)
(0.05667873312 -0.2851877685 0.1015462535)
(-0.05786102055 -0.2164844875 0.05600737776)
(-0.1238773454 -0.2143787774 0.0372402038)
(-0.166693682 -0.2290610238 0.03570355723)
(-0.2176105028 -0.2587680904 0.01845864558)
(-0.2323334092 -0.2705372612 -0.0235653348)
(-0.1957834937 -0.2465349329 -0.07409230019)
(-0.1369193943 -0.2340002499 -0.1103037242)
(0.4697066765 -0.2604265114 0.04614449977)
(0.4300542773 -0.291060126 0.04713878252)
(0.3850179981 -0.3173985229 0.04748929966)
(0.3337999111 -0.3349871169 0.05388236893)
(0.2614372956 -0.3558020117 0.05874356273)
(0.2065868451 -0.2791997363 0.07774696366)
(0.1477243353 -0.3432476923 0.1051359385)
(-0.002302823681 -0.2713620378 0.08634468278)
(-0.08605100319 -0.2194235751 0.03545476231)
(-0.14008032 -0.2162621869 0.01487054161)
(-0.1824376419 -0.2308788871 0.01050598198)
(-0.2364741981 -0.2483621331 -0.01366400377)
(-0.2219343485 -0.2944550083 -0.09042441188)
(-0.1809083483 -0.2176151223 -0.1061167105)
(-0.1244106757 -0.1832850016 -0.1440409509)
(-0.05959616172 -0.1684713004 -0.1299952681)
(-0.06396017634 -0.168761567 -0.04888294188)
(-0.2037016079 -0.1730991842 -0.07514025293)
(-0.2704977654 -0.1599908222 -0.2972307203)
(-0.1792957974 -0.09436233499 -0.5580258582)
(-0.01223543462 -0.01018602766 -0.6898053769)
(0.07280047597 0.03501556463 -0.7905072071)
(0.3196213805 0.06957204696 -1.067432873)
(0.6417383475 0.07081279391 -1.17932975)
(0.7140147362 0.03566878722 -1.04975963)
(0.8683265544 -0.01704696576 -0.6703717287)
(0.4841376706 -0.2231301637 0.04714427891)
(0.4655986702 -0.2607916312 0.05251550735)
(0.4357430957 -0.2910562376 0.04114730623)
(0.4039562556 -0.3145630368 0.02434307383)
(0.3695553542 -0.3351423432 0.01806810238)
(0.3257535436 -0.3534378359 0.02658349324)
(0.2658770483 -0.370768343 0.03761388241)
(0.2100780577 -0.3695747647 0.06672258309)
(0.1368661681 -0.3661472211 0.1072433015)
(-0.01687770211 -0.2775949322 0.08249987831)
(-0.09555829497 -0.2159976247 0.02461729811)
(-0.1498068723 -0.197771276 0.002042424402)
(-0.1916067346 -0.1962889249 -0.003316193178)
(-0.2820190268 -0.1865721138 -0.06285491006)
(-0.1237654639 -0.128386753 -0.4258495013)
(-0.0743638672 -0.1231887287 -0.107260111)
(-0.06562531786 -0.08780950719 -0.1581702556)
(0.01528454378 -0.06280941744 -0.1777396145)
(0.05890998169 -0.04750768804 -0.1223675139)
(0.03990465681 -0.02944953466 -0.04441155165)
(-0.1000229151 0.1098670291 0.01349933954)
(-0.2091902317 0.2960231827 -0.2276678732)
(-0.09238059607 0.4504742066 -0.4359391518)
(-0.08366934891 0.5453660315 -0.4836717938)
(0.1796910165 0.58206535 -0.8067701081)
(0.4979037559 0.6176958879 -0.9225241994)
(0.5672699877 0.6373159631 -0.7572390784)
(0.6190249582 0.7890945423 -0.2358702053)
(0.4775076934 -0.2753535308 0.0504445585)
(0.4467649506 -0.2968356922 0.05162057785)
(0.411977963 -0.3104250672 0.02795477106)
(0.3834424782 -0.3202394862 0.002586070448)
(0.3565997596 -0.3336059474 -0.004395681437)
(0.3196110529 -0.351723127 0.00916766828)
(0.2679745462 -0.3755008998 0.02985121173)
(0.2173271433 -0.396592719 0.06110984042)
(0.1453020946 -0.3761884259 0.1140228216)
(-0.009916661965 -0.2808211672 0.090030001)
(-0.09033020816 -0.210067905 0.02148822317)
(-0.136184555 -0.175629188 -0.009409151724)
(-0.1597767131 -0.160260024 -0.01451033835)
(-0.1814119852 -0.1412328446 -0.01360372143)
(-0.1686249481 -0.02446938209 -0.02622974872)
(-0.1227252766 -0.03570505065 -0.05887488541)
(-0.06476093084 0.0009365885652 -0.1137785222)
(0.02854305203 0.0297935978 -0.1311250074)
(0.06838111656 0.0334188597 -0.07402890475)
(0.04639478032 0.03107354147 0.03281980723)
(-0.09947767301 0.07434027588 0.1695548192)
(-0.2170799851 0.2992148889 0.03223803285)
(-0.1421909022 0.5817961299 -0.1739204559)
(-0.1529004909 0.7004835445 -0.165621729)
(0.03228233644 0.7964209481 -0.470878137)
(0.311120696 0.8984308371 -0.6481369173)
(0.3564967226 0.9228389196 -0.4029485623)
(0.3542661879 0.9956899278 0.1359428626)
(0.4308385372 -0.3038669762 0.03422929956)
(0.3942857489 -0.3067389863 0.01413290141)
(0.3684414065 -0.3073902914 -0.007079007718)
(0.3448581554 -0.3172392113 -0.009499655687)
(0.3052710157 -0.3384318206 0.00789759293)
(0.2425103236 -0.37056768 0.03065210206)
(0.2154629444 -0.3824991886 -0.01862900558)
(0.1886414584 -0.3896417558 0.1183957151)
(0.02581319098 -0.2861675217 0.1098805265)
(-0.07950199135 -0.2043092437 0.03230536081)
(-0.127049655 -0.1553110037 -0.0123669983)
(-0.1429285379 -0.1366477835 -0.02750144428)
(-0.141939346 -0.1261558197 -0.02554094346)
(-0.115757939 -0.08267000373 -0.01759444175)
(-0.07472707548 -0.04352076359 -0.01666154176)
(-0.02833825741 0.01014555432 -0.02834843406)
(0.04769005755 0.06491815522 -0.05306861408)
(0.09003985584 0.07837886123 -0.009433839535)
(0.06956527952 0.06133839227 0.07464730976)
(-0.03439585206 0.03223136294 0.1661526985)
(-0.1699288562 0.1279566948 0.1826141201)
(-0.1659680381 0.4068087965 0.09667741308)
(-0.1675282736 0.5193013903 0.09241194019)
(-0.1149619157 0.7171359695 -0.1243647932)
(0.114368269 0.9034603986 -0.2890354195)
(0.1408435893 0.861154671 -0.0110123028)
(0.1367179219 0.9119221866 0.2953544102)
(0.4264371324 -0.2890457247 0.02999246209)
(0.3888758886 -0.2908913382 0.01656379272)
(0.3621844602 -0.2891472854 0.003492503406)
(0.3349152735 -0.2961405129 0.004481716935)
(0.2844370621 -0.3139856831 0.0187711155)
(0.2212997089 -0.3265636962 0.02039938453)
(0.2101473221 -0.3262668824 -0.1598447709)
(0.2212764865 -0.4007237745 0.07266040357)
(0.09039560672 -0.2902951235 0.1300842449)
(-0.06099986379 -0.2015547373 0.06046207807)
(-0.1165030683 -0.1361429878 -0.003729697964)
(-0.1321543227 -0.1159361689 -0.03384507969)
(-0.108490453 -0.1133686192 -0.04362173284)
(-0.06671964907 -0.06846357836 -0.0441965642)
(-0.03447817365 -0.03757607039 -0.03463206384)
(0.004548726979 -0.005508728213 -0.02182320457)
(0.05554301382 0.03999994542 -0.002669153347)
(0.09566773086 0.04700218042 0.03914777595)
(0.08667739831 0.01820552567 0.08123758203)
(0.04208499997 -0.005178907906 0.09035977944)
(-0.04190543922 0.02074765796 0.122419764)
(-0.09797437334 0.1923611679 0.1925824583)
(-0.1275854521 0.2794241364 0.2017855479)
(-0.165624084 0.4701002457 0.1183327811)
(-0.03103661451 0.6802393841 0.0364923283)
(0.003436431463 0.666900497 0.1559467055)
(0.0129178975 0.7138122823 0.2318660189)
(0.4125742573 -0.2836446262 0.03830517672)
(0.3844836026 -0.2847981282 0.0273150864)
(0.360332463 -0.280967052 0.0214022652)
(0.3304434588 -0.2807374745 0.02241048741)
(0.2823693346 -0.2828854845 0.02912900231)
(0.201252125 -0.2957136463 0.05184147357)
(0.1524886781 -0.2383329977 -0.04330344944)
(0.2364168304 -0.4445944882 -0.1656728061)
(0.1879713479 -0.2896968526 0.09350289905)
(-0.02577654854 -0.1958079667 0.101940184)
(-0.1011787918 -0.1065270866 0.01344876219)
(-0.1255340187 -0.09044654649 -0.04221933565)
(-0.08511722912 -0.1013322719 -0.07640961003)
(-0.02177191681 -0.04612618178 -0.05581012327)
(0.01693968602 -0.0006229518018 -0.03989970559)
(0.05004398657 0.02204594366 -0.03341765561)
(0.08176174988 0.03769788512 -0.0111460003)
(0.1076727233 0.03203043585 0.01267658939)
(0.1091169361 0.01109430599 0.01254423315)
(0.09661614734 0.003463547601 -0.00254320044)
(0.07188281105 0.0218724438 0.002269369907)
(0.04532515011 0.09392987876 0.06418513553)
(0.02312891745 0.1547476603 0.1218026822)
(-0.05940066314 0.292628027 0.1608020477)
(-0.03975396696 0.4608651321 0.1456580356)
(-0.02577814172 0.4983469787 0.140575172)
(-0.01996727565 0.545157875 0.1229252399)
(0.4085008161 -0.2990503278 0.03751029394)
(0.3890638698 -0.2950003269 0.03020621573)
(0.3669812671 -0.2867711208 0.0281043463)
(0.3391879015 -0.2769443301 0.0302846034)
(0.2755692238 -0.2619868261 0.0395836701)
(0.2571504484 -0.2411436267 0.08590702152)
(-0.08086513294 -0.1660036623 0.05465761053)
(0.1732116975 0.05358557743 -1.210296184)
(0.423107502 -0.1342058942 -0.1363173856)
(0.05301182635 -0.1383230028 0.1368716428)
(-0.06973820485 -0.08131878322 0.003919353141)
(-0.09604618713 -0.06127298191 -0.1041529944)
(-0.04711335887 -0.08124846825 -0.1769596755)
(0.00749361783 -0.0414613264 -0.1158363671)
(0.04870172763 0.01677834274 -0.06444817058)
(0.0695328607 0.04914925437 -0.04288319859)
(0.08634498471 0.06846263752 -0.03095831794)
(0.09853149354 0.071878477 -0.0398216784)
(0.111230447 0.06311490008 -0.06616860113)
(0.1258954305 0.05673432623 -0.08375515381)
(0.1382281771 0.06476653342 -0.08069974277)
(0.1463843003 0.09770537489 -0.05001739836)
(0.1456230072 0.1410099737 -0.0006846927029)
(0.1043762032 0.2205707325 0.07110161163)
(0.06177282829 0.3305700639 0.1212459468)
(0.02006232579 0.391020837 0.1177681608)
(-0.008458770965 0.4327683625 0.07874457203)
(0.4190748036 -0.3620810264 0.009291730741)
(0.4022332428 -0.3198894388 0.02427043054)
(0.3813721416 -0.2959805951 0.02535344665)
(0.3542448653 -0.2779391092 0.02649247186)
(0.3148406625 -0.2566210767 0.02958946812)
(0.2844453758 -0.2119110214 0.03074171066)
(0.2178454914 -0.192112044 0.04425687949)
(0.21876085 0.1273405839 0.01464542991)
(0.2047221637 -0.09144180553 0.1244179314)
(-0.0232480248 -0.05697346071 0.1107785269)
(-0.1274227275 -0.01166769573 -0.06106416205)
(-0.1070613727 0.05152953755 -0.2146208938)
(0.001170975383 0.09837377983 -0.3254414176)
(0.08671587605 0.1111877387 -0.248709681)
(0.1428736049 0.1210371579 -0.1378768737)
(0.1423013044 0.1311244036 -0.05180247245)
(0.1107076344 0.1427249988 -0.02207278062)
(0.09665207089 0.1498948594 -0.05654140004)
(0.1136206433 0.1480024919 -0.101280464)
(0.1447559717 0.1448329636 -0.1239710765)
(0.1792253096 0.149261636 -0.1261519266)
(0.2089585964 0.1656959047 -0.1098069427)
(0.2250540962 0.1930465309 -0.07698884299)
(0.2183610359 0.2380150496 -0.02171087591)
(0.1817104806 0.2980871013 0.04477174513)
(0.1083841658 0.34103718 0.09058340199)
(0.03192181105 0.3604788943 0.08936221344)
(0.5789948783 -0.2524741048 -0.1141852013)
(0.4847613114 -0.2758478253 0.009612544227)
(0.4223265812 -0.2731013206 0.02157989104)
(0.3775496632 -0.2647737442 0.02343930098)
(0.328107206 -0.2499458858 0.02150810341)
(0.3012551788 -0.2309778934 -0.02264380673)
(0.2712485182 -0.1945636916 0.002747194998)
(0.2625491288 -0.1133423452 0.08229547172)
(0.2313850157 -0.1148161281 0.09743000389)
(0.07944825047 -0.05967458943 0.1284124199)
(-0.05941807726 0.03476933925 0.04749562344)
(-0.09545211262 0.1125494536 -0.1200780395)
(0.0115873989 0.1927442789 -0.2633408815)
(0.1025829207 0.2203256653 -0.1989775818)
(0.1529814139 0.2287887843 -0.1023821209)
(0.1422586123 0.2335726234 -0.02546764586)
(0.0946996146 0.237259309 -0.007187933789)
(0.07828432581 0.2400521957 -0.06212601423)
(0.1047251149 0.2398162492 -0.1152468815)
(0.1484023248 0.2379232072 -0.1392227981)
(0.1983683312 0.2396773797 -0.1433822414)
(0.2439214004 0.2474809317 -0.1323096103)
(0.275690985 0.2622630066 -0.1083121719)
(0.28494317 0.2877142137 -0.06885660716)
(0.2665307979 0.3196032747 -0.01270077432)
(0.1887588178 0.3433643736 0.05477578718)
(0.08433760239 0.3426179326 0.1044617117)
(0.4649288176 -0.1665930633 0.003864157124)
(0.4511520099 -0.2138709264 0.009804836175)
(0.4178221724 -0.2288491998 0.01526549098)
(0.3786223279 -0.2262496086 0.0201293638)
(0.3104681879 -0.2088203182 0.01189639305)
(0.292294386 -0.1536333429 -0.1232299502)
(0.3296350401 -0.131603708 -0.09130570202)
(0.3231890535 -0.09614100066 -0.005167966746)
(0.2672973115 -0.09220976646 0.05000514719)
(0.1583941844 -0.04922713764 0.09423112392)
(0.04030539379 0.03393721733 0.1049165767)
(-0.0476448776 0.1480589691 -0.01107261459)
(0.02693655691 0.2714356618 -0.1657519276)
(0.099469452 0.2983249634 -0.1192605809)
(0.1348220786 0.3016541477 -0.0485255692)
(0.1253792164 0.3057895383 0.004664889131)
(0.07955620994 0.3114554586 0.01152569348)
(0.06414909733 0.3183047303 -0.05398232779)
(0.09661571116 0.3250402719 -0.1129686736)
(0.1474275726 0.3287008239 -0.1390349605)
(0.2063752066 0.3316456152 -0.1453712003)
(0.261294822 0.3354671061 -0.1372502242)
(0.3026275892 0.3412524951 -0.1175554649)
(0.3202885794 0.3513627419 -0.08609783633)
(0.3110619111 0.3652191896 -0.03882356598)
(0.234711405 0.3753871826 0.03148394812)
(0.1204771124 0.369516949 0.111174797)
(0.4750330461 -0.1997048852 -0.00115375193)
(0.4681298192 -0.2019917991 0.01159064812)
(0.4384556144 -0.1973881922 0.01622207511)
(0.4018071768 -0.1812499773 0.01811487836)
(0.3373095085 -0.1523074188 0.0113480277)
(0.3224439829 -0.05596012473 -0.1453947678)
(0.3653416836 -0.04914509488 -0.1105998762)
(0.3556246041 -0.05752577747 -0.02922786345)
(0.3039872042 -0.05197190272 0.02146308027)
(0.222410044 -0.02061926532 0.05712095142)
(0.1277501876 0.04499566672 0.08424701506)
(0.03570231078 0.1338297785 0.04838380076)
(0.0509026448 0.2847284292 -0.05770505277)
(0.1070362483 0.3187535355 -0.04633990861)
(0.1259113432 0.3309882561 -0.009255385855)
(0.1206597817 0.3450149976 0.0222858451)
(0.08343552036 0.3609635217 0.02785233307)
(0.06407126125 0.3779718167 -0.03281690134)
(0.09530091255 0.3949156779 -0.09628847744)
(0.1469131707 0.4069852585 -0.1262706104)
(0.2084621824 0.4135895746 -0.1356429993)
(0.2669506628 0.416340825 -0.1302222947)
(0.3122531693 0.4165243534 -0.1134594185)
(0.3333759834 0.416155629 -0.08627065129)
(0.3265687857 0.4177808969 -0.04405200968)
(0.249823699 0.4184073614 0.0251054786)
(0.1333297518 0.4155119053 0.1155088543)
(0.5303984409 -0.1411353686 -0.0662081074)
(0.5096245953 -0.1540452138 -0.0131167441)
(0.4741506227 -0.1524847251 0.005440383588)
(0.435108953 -0.137423626 0.00947960976)
(0.3939161993 -0.111483299 0.006563759644)
(0.3758861235 -0.04997231693 0.001166109821)
(0.3805337602 -0.03581177815 -0.002027599743)
(0.3652431233 -0.03079811967 -0.001460686116)
(0.3289017144 -0.01764138708 0.006299740041)
(0.2754172498 0.01155896819 0.02463931499)
(0.2045333252 0.06169004026 0.05240684014)
(0.1250701872 0.1309538823 0.05596306242)
(0.09763183456 0.2546172014 0.01355929103)
(0.1295439688 0.3031720312 -0.0008485294728)
(0.1376367294 0.3315164895 0.008519544807)
(0.1349485749 0.3580125221 0.02555681997)
(0.1087526321 0.3856341394 0.03547208538)
(0.08353070918 0.4153474306 -0.005536160186)
(0.1054275787 0.4436486528 -0.06732844155)
(0.1517195515 0.4654938702 -0.1025491799)
(0.2096574611 0.4776147285 -0.1161176029)
(0.2661840143 0.4815711904 -0.1139680878)
(0.3103110495 0.478955536 -0.1000690817)
(0.3306963213 0.4721677683 -0.07567531263)
(0.321504166 0.4654754665 -0.03567155001)
(0.243267069 0.4595233978 0.03139570098)
(0.1284286286 0.4614532057 0.11897859)
(0.5634940173 -0.07361348987 -0.09808024754)
(0.5482708445 -0.08861585035 -0.05155153819)
(0.5137963112 -0.09334102844 -0.01809699835)
(0.4728556647 -0.08584968615 -0.00213718147)
(0.4338335856 -0.06634079294 -0.0003195285354)
(0.4084035039 -0.03406710624 -0.003049431063)
(0.3956200539 -0.01244168763 -0.01020114977)
(0.3783206298 0.004973294443 -0.01621352008)
(0.3522742446 0.02579370963 -0.01471949373)
(0.3166189463 0.05228456094 -0.00160252748)
(0.2669405349 0.09114434933 0.02230279663)
(0.2050451703 0.1438767837 0.04051222781)
(0.1622746645 0.2286927893 0.03452745709)
(0.1655354695 0.2821010343 0.01744093488)
(0.1655978104 0.3218738682 0.01255637095)
(0.1631951386 0.35684987 0.0207012169)
(0.1468361565 0.3920201026 0.03361664025)
(0.1220668933 0.4303597688 0.01631359702)
(0.1297272498 0.46890784 -0.03261201719)
(0.1649995048 0.5002884161 -0.07054179735)
(0.213897676 0.5189800538 -0.08873648272)
(0.2632865357 0.5257776509 -0.09052393623)
(0.3014815894 0.5225726576 -0.07969631705)
(0.3175239138 0.5126207768 -0.05718049846)
(0.3011960651 0.4995996389 -0.01742685519)
(0.2218016386 0.4896407 0.04514548465)
(0.1121024317 0.4954941421 0.1196367156)
(0.6105149774 0.06253396176 -0.1512133688)
(0.6194922121 0.02652952737 -0.09502074936)
(0.5847216254 -0.00288764634 -0.04660742494)
(0.5329845085 -0.01451947411 -0.01577929352)
(0.4810592723 -0.005634485315 -0.005834644402)
(0.4420859013 0.01549318951 -0.009119076052)
(0.4185465133 0.03657651601 -0.01676369784)
(0.4002606687 0.05647157104 -0.02265559862)
(0.3792065953 0.0765321178 -0.02279789196)
(0.352312407 0.09900209161 -0.01469275682)
(0.3169985197 0.127782949 0.002584583796)
(0.270602032 0.1668643943 0.02193509272)
(0.2277691634 0.2236242784 0.03002081213)
(0.2104942034 0.2720868826 0.02131613523)
(0.2025992454 0.3141367205 0.01286096986)
(0.1986251257 0.351733761 0.014599434)
(0.1888026814 0.38879338 0.02584659833)
(0.1699962969 0.4285335116 0.02549408191)
(0.1660214951 0.4721432441 -0.002416158583)
(0.1869770336 0.5106117572 -0.03554777622)
(0.2227438489 0.5358164807 -0.05623900783)
(0.2605909315 0.5464862024 -0.06164060331)
(0.2888593167 0.5444458638 -0.05345630191)
(0.2960928736 0.5326064817 -0.03158120006)
(0.2705994686 0.5150557146 0.007669664642)
(0.1906909489 0.5036441549 0.06113543547)
(0.08993812474 0.5118876022 0.1152107314)
(0.6168084257 0.1968903297 -0.1252128233)
(0.620355648 0.1476049563 -0.06577577556)
(0.5815829366 0.1072849172 -0.02164329517)
(0.5340718491 0.08522689228 0.0006763302686)
(0.4885705473 0.07845542802 0.003286616961)
(0.4528815426 0.07964453038 -0.005325367782)
(0.4326236935 0.09000843957 -0.01547861834)
(0.4184426111 0.1070627633 -0.02222366717)
(0.4019279793 0.1258980005 -0.02397507917)
(0.3809298019 0.1451997091 -0.01976870395)
(0.3544402017 0.1672467842 -0.008473781384)
(0.3203248586 0.195353484 0.007566982794)
(0.2835450512 0.233811548 0.01987145974)
(0.2578260426 0.2733557177 0.01990161553)
(0.2435295306 0.3116673726 0.01378136882)
(0.2367230049 0.347635406 0.01182012683)
(0.229527124 0.3825771487 0.01833725127)
(0.2164478431 0.4187854218 0.02462684895)
(0.2073511995 0.4593017177 0.01545421621)
(0.2142795272 0.4995864723 -0.005232390982)
(0.2348441489 0.529412926 -0.02306778777)
(0.2583978964 0.5437680828 -0.02961549681)
(0.2734966442 0.5424566852 -0.02247298921)
(0.2680855338 0.5288567133 -0.0006660203012)
(0.233900755 0.5105137991 0.0344757706)
(0.1551118117 0.5007689176 0.07386344719)
(0.06724620821 0.5102477759 0.1049102501)
(0.5976270678 0.2946279985 -0.07601628341)
(0.5874215082 0.2307546239 -0.02737484279)
(0.5487715203 0.1674420937 -0.007327772532)
(0.5117744896 0.1329645944 -0.004674523508)
(0.4764226662 0.1256016093 -0.006306897836)
(0.4469540682 0.127668115 -0.02615705323)
(0.4359964516 0.1409992389 -0.04241779659)
(0.4313741957 0.1595804343 -0.04228280365)
(0.4215972552 0.176864033 -0.0340212695)
(0.4053550395 0.1920768873 -0.02495111171)
(0.3839061199 0.2076141935 -0.01475468609)
(0.3577676449 0.2262211572 -0.001540158223)
(0.3278149453 0.251458088 0.0114048534)
(0.3017399197 0.2808974371 0.01747324318)
(0.2846278415 0.3125831327 0.01610292338)
(0.2752917045 0.3443967703 0.01420702785)
(0.2678863801 0.3756177961 0.01635006763)
(0.257508029 0.4067874984 0.02179013774)
(0.2464142654 0.4402642219 0.02239030774)
(0.2426003624 0.4751347482 0.01460398716)
(0.2479993472 0.5037887747 0.004684069004)
(0.2559299429 0.5189341066 0.001072404711)
(0.2564327095 0.5182362538 0.008770369451)
(0.2386350032 0.5050577036 0.02885938142)
(0.1970308889 0.4887525852 0.05667741382)
(0.1215805719 0.4836197453 0.07967133086)
(0.04850774334 0.4939093831 0.0906558776)
(0.5538220842 0.3596157125 -0.02753668481)
(0.5191396049 0.3000167456 0.008383047568)
(0.46889851 0.2612347181 -0.05001726441)
(0.4637775485 0.2387984837 -0.08070761153)
(0.4559689668 0.2222912362 -0.05688182955)
(0.435570602 0.2251785127 -0.07769217145)
(0.4388059818 0.2344450961 -0.0940939729)
(0.4476222203 0.2393823316 -0.0777496363)
(0.4438992275 0.241278956 -0.04978838743)
(0.4285111142 0.2439385231 -0.02907452142)
(0.4075850636 0.2491743336 -0.01638450019)
(0.3846775585 0.257416928 -0.005032404115)
(0.3602307844 0.2705362099 0.00714933188)
(0.3379641706 0.2885513536 0.01686512148)
(0.3222294856 0.3112167736 0.02142575553)
(0.31261452 0.3372392589 0.02224713848)
(0.3047232577 0.3649203559 0.02232931521)
(0.2945282468 0.3924253233 0.0241724022)
(0.2815393292 0.4196995568 0.02616836888)
(0.2698467148 0.4468082802 0.02546005964)
(0.2622584569 0.4696894625 0.02319057492)
(0.2555196048 0.4820562758 0.02425169542)
(0.2422592424 0.4806030481 0.03320505144)
(0.213584762 0.4682370442 0.05064044754)
(0.1666135464 0.4553043596 0.07006062878)
(0.09562039117 0.4561445516 0.07895596969)
(0.03578218321 0.4675893271 0.07643157171)
(0.5091460365 0.4006303117 0.003901026616)
(0.4768068946 0.3548643091 0.02598148315)
(0.4443500284 0.3328596039 -0.02747101085)
(0.4599345021 0.3120641414 -0.047114177)
(0.4682968783 0.2924033094 -0.02097929483)
(0.4583270299 0.2971287994 -0.03527735875)
(0.4653691225 0.3056479509 -0.05210256798)
(0.4730940904 0.3046283783 -0.04451567886)
(0.4652290531 0.2980837454 -0.02748042878)
(0.4455731166 0.291946029 -0.01592803256)
(0.4223571415 0.2881146539 -0.009794816951)
(0.4000543663 0.2858301436 -0.002718785987)
(0.3790652632 0.2862985065 0.007254174439)
(0.3618102173 0.2902642776 0.01777345228)
(0.351602438 0.300284898 0.02641828519)
(0.3465978457 0.31922157 0.03210289165)
(0.3411802035 0.3453893228 0.03448188429)
(0.3310754892 0.3729691377 0.03481293775)
(0.3155431438 0.3978516969 0.03457437698)
(0.2973048532 0.4190209257 0.03438248332)
(0.2791834688 0.4350231456 0.0350845183)
(0.2600747682 0.4423326224 0.03889837199)
(0.235125971 0.4384540827 0.04821865756)
(0.1975481742 0.4261773689 0.06244437952)
(0.1466457141 0.4160683416 0.07506055468)
(0.07934553046 0.4222124698 0.07544206419)
(0.02864608881 0.4355386903 0.06598098111)
(0.470598344 0.420421655 0.01829591456)
(0.451399662 0.3825965842 0.02949467247)
(0.4401962633 0.3612338086 0.0004605994428)
(0.4650845327 0.3333733881 -0.009914508703)
(0.485860918 0.3083412239 0.005215853999)
(0.490398939 0.3140758009 0.003372403601)
(0.4973393779 0.3294795981 -0.002581074491)
(0.4971055642 0.3362039824 -0.0004638769898)
(0.4809200414 0.3344660236 0.003151218095)
(0.4551625504 0.3286966753 0.002703176899)
(0.4277764002 0.3208523003 0.001185461275)
(0.4024279385 0.3100750678 0.003823567707)
(0.3796490605 0.2996121805 0.00788330045)
(0.3654248896 0.2913567272 0.004943293855)
(0.3644489945 0.287087018 4.350694612e-05)
(0.3718070974 0.2927018158 0.003514783803)
(0.3761492257 0.3125196449 0.01503967961)
(0.3692860943 0.3407662458 0.02794848256)
(0.3512664023 0.3676482772 0.0369205898)
(0.3266730967 0.3879076672 0.0414832091)
(0.2997056976 0.4001728462 0.04433696867)
(0.270590107 0.4034069623 0.04872897063)
(0.2360737325 0.3969912563 0.05675646202)
(0.1911970188 0.3842351228 0.06746115563)
(0.1369404206 0.3756517419 0.07545093715)
(0.0714271004 0.3850533787 0.07238542344)
(0.02532175052 0.4003285412 0.06072566501)
(0.4402434846 0.423939309 0.02670342307)
(0.4230661259 0.3948181525 0.02829777415)
(0.4187233672 0.3736548153 -0.002203200647)
(0.4465969478 0.3466610797 -0.03043937056)
(0.4795013533 0.3250464418 -0.03769548475)
(0.5028061672 0.3271467752 -0.03206067859)
(0.5169406323 0.3414508873 -0.01829028308)
(0.5147662661 0.3536147363 -0.002105061176)
(0.4936852978 0.3588017741 0.008926864309)
(0.4619796874 0.3568440435 0.01181981366)
(0.4275241654 0.3489404991 0.01132139592)
(0.3936776138 0.334697656 0.01418851324)
(0.357954656 0.321517055 0.008977899388)
(0.3429908685 0.3146165158 -0.02335774511)
(0.3545217968 0.3103240664 -0.05608284782)
(0.379234486 0.3107877152 -0.0646971567)
(0.4014744368 0.3192423294 -0.04917654771)
(0.4096211982 0.3331695556 -0.02029951027)
(0.3958563225 0.3485812465 0.01095540559)
(0.3665072499 0.3603229561 0.03509199058)
(0.3298733221 0.3664993937 0.04947663339)
(0.2898365637 0.3658223771 0.05760820678)
(0.2452970117 0.3576101464 0.06431777687)
(0.1927971918 0.3447405373 0.07105999953)
(0.1344792347 0.3367604467 0.07502240173)
(0.06877993573 0.3468382478 0.07083570563)
(0.02405052536 0.3625936573 0.05991359988)
(0.426335909 0.434402424 0.04820310036)
(0.3917896981 0.4215988266 0.03544794851)
(0.3796249075 0.4111511008 -0.02356398265)
(0.4109731029 0.3931112452 -0.0794789259)
(0.4581545881 0.3765763556 -0.1016228093)
(0.5004390186 0.3736893271 -0.09401633545)
(0.5271917106 0.3804096725 -0.06894069823)
(0.5307392566 0.3880088014 -0.03762685158)
(0.5106232843 0.3907827928 -0.009534814189)
(0.4743672828 0.3869952653 0.008602335302)
(0.4309918134 0.3779205398 0.01769025671)
(0.3863343469 0.3643656052 0.02552762786)
(0.3327231895 0.3546775674 0.01413976316)
(0.315927449 0.3535716736 -0.04324839003)
(0.3389713748 0.3529116227 -0.09456002485)
(0.3792665502 0.351605039 -0.110895089)
(0.4176989232 0.3514501392 -0.09667031039)
(0.4405132654 0.3509366111 -0.0623941696)
(0.4366761347 0.3484844879 -0.01748074289)
(0.4071586488 0.3441444799 0.02519630725)
(0.363420569 0.3386010496 0.05387702893)
(0.3135178513 0.3314313798 0.06779484039)
(0.2592938548 0.3211239964 0.07347708407)
(0.1988736716 0.3085525818 0.07590846994)
(0.135666505 0.3005876518 0.07555502771)
(0.06855181174 0.3087657226 0.07048390551)
(0.02389141492 0.3219425165 0.06196898749)
(0.4241441047 0.4294276212 0.05236417901)
(0.3609272874 0.4540817681 0.04437021107)
(0.3391826913 0.4676205793 -0.04027308671)
(0.3768176945 0.4613012373 -0.1147273466)
(0.4369705152 0.4486038834 -0.1426699791)
(0.4942301615 0.4414493203 -0.135102502)
(0.5328524417 0.4398751915 -0.1074702929)
(0.5444430646 0.4385598449 -0.06987116474)
(0.5285082792 0.4328460234 -0.03012967276)
(0.4903198401 0.421873253 0.002153736847)
(0.4401405057 0.4083304475 0.02173870458)
(0.3880420919 0.3954810438 0.03501954669)
(0.3239909476 0.3898279132 0.02423872054)
(0.303768596 0.3938933217 -0.04197729156)
(0.331091218 0.3976430137 -0.1002476322)
(0.3780729291 0.3957933067 -0.11946065)
(0.4240038023 0.3875804534 -0.1059889715)
(0.4539148097 0.3726680879 -0.069857299)
(0.4545355797 0.3517763051 -0.01963577927)
(0.4262051915 0.3290282013 0.02878930472)
(0.3808521555 0.309788661 0.06036735623)
(0.327650147 0.2960117257 0.07379013916)
(0.2693977687 0.2852732943 0.07719049934)
(0.2048455819 0.2747989944 0.07718876567)
(0.1383600997 0.2669278418 0.07521050808)
(0.06968254153 0.2709355556 0.07072134853)
(0.02489376432 0.2778827272 0.06586819102)
(0.4529316242 0.4775198986 -0.02072159349)
(0.3713918427 0.5090282176 0.02635908042)
(0.3277629589 0.5329613072 -0.04104453292)
(0.3607461064 0.5342378187 -0.1202448738)
(0.4246160081 0.5243790525 -0.152698521)
(0.4884884313 0.5137973574 -0.1480006513)
(0.5339076939 0.5042800394 -0.1221904958)
(0.5514202526 0.492741056 -0.08371873773)
(0.5393366027 0.4762800056 -0.03859754284)
(0.5007133578 0.4552766392 0.001699086175)
(0.4483763877 0.4341935411 0.02676332355)
(0.3952288001 0.4189472444 0.0417772397)
(0.3332112289 0.4134734738 0.03552887742)
(0.3087900913 0.4214399394 -0.0232019604)
(0.3315112081 0.4293569465 -0.07878561492)
(0.3746254828 0.427137835 -0.09724390333)
(0.4171486755 0.41093536 -0.08246637592)
(0.4433837095 0.3812315201 -0.04530905807)
(0.4407340784 0.3422069624 0.0007628191703)
(0.4139865746 0.30448465 0.03685834075)
(0.3734562559 0.2770008987 0.05477039547)
(0.326351316 0.2615446892 0.06005624224)
(0.2737051412 0.2533068039 0.06226286721)
(0.2128907876 0.2457509919 0.06581893022)
(0.1471947119 0.236742163 0.06960857914)
(0.07615435641 0.2336732682 0.07090317113)
(0.02879695438 0.2311474342 0.07175736435)
(0.5003192357 0.5606273389 -0.09888092888)
(0.4241929851 0.5819366053 -0.005482965806)
(0.3553600461 0.5998821459 -0.0283978351)
(0.3680048119 0.6003890675 -0.100249585)
(0.4234960469 0.5899528809 -0.1381657808)
(0.4845832491 0.575673319 -0.1388730545)
(0.530223976 0.5587120556 -0.1163726265)
(0.549400433 0.5370588739 -0.07800995946)
(0.5373889432 0.5093289278 -0.03032932708)
(0.49902822 0.4771921089 0.01136550141)
(0.4489234058 0.4471487832 0.03491675449)
(0.4002056037 0.426515241 0.04673752983)
(0.3480022028 0.4168524869 0.04461193169)
(0.3210590007 0.4249963259 0.003379992061)
(0.3328218974 0.4363609302 -0.04042288976)
(0.3638031307 0.4328578229 -0.05415371344)
(0.3937642936 0.4083946524 -0.03880681111)
(0.4077402723 0.3660214595 -0.00885947424)
(0.4011865171 0.3180388427 0.01688793311)
(0.3799536742 0.2777227611 0.02781576053)
(0.3511336362 0.2521000508 0.02779030932)
(0.3180139208 0.2391925799 0.02665364825)
(0.2790156161 0.2326774996 0.03154087181)
(0.2289391014 0.2259556988 0.0429048214)
(0.1680850492 0.2135441766 0.05766296537)
(0.09347945832 0.2007391447 0.07022440623)
(0.03802496039 0.1866878283 0.07981684888)
(0.5351257423 0.646709067 -0.1414150558)
(0.477441358 0.6533434609 -0.02722051728)
(0.4006997839 0.6579754528 -0.009730949665)
(0.3914575759 0.6494915119 -0.06649067534)
(0.4314148093 0.6335377265 -0.1077630613)
(0.48286049 0.6143358228 -0.1136517913)
(0.5229344451 0.5906002615 -0.09308441215)
(0.5385080315 0.5597474945 -0.05345086836)
(0.522554077 0.5202338069 -0.005903859953)
(0.4854137253 0.478060247 0.029934706)
(0.4404795623 0.4404316338 0.04582190493)
(0.3988934694 0.4142262297 0.05121923232)
(0.3575567447 0.3987946458 0.05097505564)
(0.3296275141 0.4015795714 0.02972454725)
(0.3277082773 0.4109774652 0.003789791912)
(0.3413811574 0.4051877189 -0.004798186564)
(0.3546168593 0.3773697376 0.002443908845)
(0.3584690847 0.3357503018 0.01090171963)
(0.3529154163 0.2942773116 0.01020844612)
(0.3419341567 0.2627615297 0.002074375876)
(0.3276191747 0.2430345516 -0.005309074154)
(0.3103244273 0.2297253625 -0.006145116982)
(0.287575028 0.2209865759 0.003875089171)
(0.2506277597 0.2139716635 0.02125456579)