/*--------------------------------*- C++ -*----------------------------------*\
  =========                 |
  \\      /  F ield         | OpenFOAM: The Open Source CFD Toolbox
   \\    /   O peration     | Website:  https://openfoam.org
    \\  /    A nd           | Version:  8
     \\/     M anipulation  |
\*---------------------------------------------------------------------------*/
FoamFile
{
    version     2.0;
    format      ascii;
    class       volScalarField;
    location    "1.1";
    object      N2;
}
// * * * * * * * * * * * * * * * * * * * * * * * * * * * * * * * * * * * * * //

dimensions      [0 0 0 0 0 0 0];

internalField   nonuniform List<scalar> 
67451
(
0.7899970064
0.7899971505
0.7899972494
0.7899971704
0.7899971992
0.789997459
0.7899977569
0.7899980129
0.789998231
0.7899983721
0.7899984543
0.7899975937
0.7899976838
0.7899976408
0.7899975404
0.7899974865
0.7899974944
0.789997536
0.7899973869
0.7899974402
0.7899978029
0.7899981827
0.7899984874
0.789998718
0.7899988739
0.7899989894
0.7899992353
0.7899991809
0.7899988453
0.7899985268
0.7899983511
0.7899978301
0.7899974267
0.7899972475
0.7899971683
0.7899971856
0.7899973723
0.7899970984
0.7899977589
0.7899979347
0.7899980747
0.7899981255
0.789998069
0.7899979527
0.7899978436
0.7899977966
0.789997507
0.7899976489
0.7899980926
0.7899985179
0.7899988503
0.7899990905
0.78999928
0.789999526
0.7899999641
0.7900001592
0.7899997855
0.7899991375
0.7899986319
0.7899981417
0.789997671
0.7899974733
0.789997376
0.789997335
0.7899973582
0.7899976628
0.789997997
0.7899981722
0.789998386
0.7899985468
0.7899985681
0.7899984432
0.7899982333
0.7899980925
0.7899977547
0.7899979362
0.7899984093
0.7899988327
0.7899991649
0.7899994353
0.7899997644
0.7900002559
0.7900008047
0.7900013291
0.7900010922
0.7900003122
0.789999333
0.7899986207
0.7899980596
0.7899977504
0.7899975825
0.7899974408
0.7899973083
0.7899981594
0.7899983229
0.789998625
0.7899988679
0.7899989661
0.7899988943
0.7899986328
0.7899983741
0.7899980196
0.7899982494
0.7899987417
0.7899991728
0.7899995241
0.7899998839
0.7900003954
0.7900010408
0.7900015388
0.7900023524
0.790002447
0.790001905
0.7900008707
0.7899995765
0.7899987197
0.7899981786
0.7899979041
0.7899976403
0.7899973894
0.7899982976
0.789998518
0.7899988489
0.7899991293
0.7899992698
0.7899992628
0.7899990304
0.7899986797
0.7899983401
0.7899985315
0.7899990568
0.7899994888
0.7899997985
0.7899999877
0.7900000392
0.7900003041
0.7900010812
0.7900016147
0.7900012378
0.7900003217
0.7899995314
0.7899992337
0.789999012
0.7899985716
0.7899981742
0.7899978484
0.7899975861
0.789998532
0.7899987905
0.7899990963
0.7899993723
0.7899995189
0.7899995321
0.7899993608
0.7899989412
0.7899986478
0.7899986294
0.7899991731
0.7899996271
0.7899999979
0.7900002475
0.7900002577
0.7900001896
0.7900004274
0.7900006506
0.7900002213
0.7899997002
0.7899995145
0.7899994559
0.7899992419
0.7899988887
0.7899984444
0.7899980437
0.7899977092
0.7899987856
0.7899990667
0.7899993234
0.7899995843
0.7899997282
0.7899997431
0.7899996083
0.7899992606
0.7899989369
0.7899984019
0.7899986053
0.7899989325
0.7899994643
0.7899998909
0.7900001462
0.7900002051
0.7900001792
0.7900001236
0.7899998992
0.7899997979
0.7899998012
0.789999735
0.7899995042
0.7899991521
0.7899987392
0.7899982855
0.7899978872
0.7899988884
0.7899992176
0.7899994738
0.7899997427
0.7899998916
0.7899999048
0.7899997832
0.7899993918
0.7899991138
0.7899978934
0.7899985051
0.7899987412
0.7899992272
0.7899997053
0.7900000619
0.7900002459
0.7900002762
0.7900002008
0.7900001351
0.7900001182
0.7900000807
0.7899999731
0.7899997571
0.7899994017
0.7899990139
0.7899985782
0.7899981577
0.7899989135
0.7899992324
0.7899995461
0.7899998474
0.7900000121
0.7900000356
0.7899999249
0.7899997388
0.7899995422
0.7899990686
0.7899990041
0.789999079
0.7899993753
0.7899997626
0.7900000992
0.7900003222
0.7900004264
0.7900004336
0.7900004123
0.7900003693
0.7900002865
0.7900001538
0.7899999528
0.7899996341
0.7899992254
0.7899988258
0.7899984441
0.789999079
0.7899991992
0.7899995379
0.7899998926
0.7900000851
0.7900001193
0.7900000464
0.789999994
0.7899998884
0.7899995171
0.7899993202
0.7899992585
0.7899994638
0.7899997755
0.7900000836
0.7900003243
0.7900004749
0.7900005405
0.7900005458
0.7900005013
0.7900004097
0.7900002729
0.7900000834
0.7899998078
0.7899994091
0.7899989816
0.7899986264
0.7899996775
0.7899994178
0.7899995384
0.7899998938
0.790000118
0.7900001712
0.7900001768
0.7900002463
0.7900002229
0.7900000065
0.7899996966
0.7899994197
0.7899994036
0.7899996314
0.7899999417
0.7900002164
0.7900004105
0.7900005194
0.7900005547
0.790000527
0.7900004453
0.790000317
0.7900001427
0.7899999025
0.7899995462
0.7899990864
0.7899986862
0.7899999667
0.7899994135
0.7899994851
0.7899998763
0.7900000954
0.7900001775
0.7900003101
0.7900004425
0.7900004645
0.7900003112
0.7900000206
0.7899996644
0.789999421
0.7899994585
0.7899997079
0.7900000037
0.7900002436
0.7900003975
0.790000468
0.7900004661
0.7900004032
0.7900002906
0.790000134
0.7899999232
0.7899996154
0.7899991652
0.7899986905
0.7899992748
0.7899992004
0.7899995904
0.7899999179
0.7900001012
0.790000289
0.7900004457
0.7900005353
0.7900005661
0.7900004575
0.7900002118
0.7899998697
0.7899995386
0.7899993716
0.7899994519
0.7899997063
0.7899999833
0.7900001892
0.7900003031
0.7900003333
0.7900002949
0.7900002026
0.7900000662
0.7899998808
0.7899996164
0.7899992068
0.7899986941
0.7899988031
0.7899992279
0.7899996004
0.7899997901
0.7899999098
0.7900000978
0.7900002984
0.7900003816
0.7900004102
0.7900003104
0.7900000883
0.7899997782
0.7899994524
0.7899992136
0.7899991722
0.7899993609
0.7899996592
0.7899999188
0.7900000806
0.7900001465
0.7900001349
0.7900000653
0.7899999506
0.7899997895
0.7899995597
0.7899991974
0.789998696
0.789998692
0.7899991745
0.7899994738
0.7899995994
0.7899996599
0.7899998108
0.7900001199
0.7900001989
0.7900001533
0.7900000078
0.7899997843
0.7899995032
0.7899992098
0.7899989676
0.7899988715
0.7899990099
0.7899993157
0.7899996213
0.7899998279
0.789999927
0.7899999406
0.789999893
0.7899998
0.7899996611
0.789999458
0.789999136
0.7899986707
0.7899986609
0.789998889
0.7899991816
0.7899993307
0.789999381
0.7899995997
0.7900001741
0.7900001169
0.789999844
0.789999561
0.7899993138
0.7899990847
0.7899988627
0.7899986575
0.7899985557
0.7899986778
0.7899989953
0.7899993347
0.7899995741
0.789999697
0.7899997289
0.7899996998
0.7899996265
0.7899995068
0.7899993233
0.7899990311
0.7899986055
0.7899986424
0.7899986698
0.7899989714
0.7899992548
0.7899996273
0.7900000049
0.7900004567
0.7900004598
0.7900000669
0.7899995349
0.7899990771
0.7899987564
0.7899985254
0.7899983265
0.7899982366
0.7899983739
0.7899987163
0.7899990824
0.7899993396
0.7899994715
0.7899995123
0.7899994976
0.7899994418
0.7899993375
0.7899991678
0.7899988967
0.7899985073
0.7899985241
0.7899985777
0.7899988891
0.7899990227
0.7899993525
0.7899998661
0.7900003911
0.790000351
0.7899998843
0.7899992629
0.7899987276
0.7899983695
0.7899981232
0.7899979527
0.7899979162
0.7899981089
0.7899984898
0.7899988701
0.7899991252
0.789999252
0.7899992967
0.789999296
0.7899992563
0.789999164
0.789999004
0.7899987497
0.7899983949
0.7899984019
0.7899986533
0.789998975
0.7899989715
0.7899989278
0.7899992702
0.7899998794
0.7899997638
0.7899992801
0.7899987035
0.789998228
0.789997894
0.7899976801
0.7899975736
0.7899976219
0.7899978935
0.7899983094
0.7899986818
0.7899989161
0.7899990333
0.7899990866
0.7899991039
0.7899990795
0.7899989967
0.7899988458
0.7899986088
0.789998291
0.7899984171
0.7899988519
0.7899991073
0.7899990342
0.7899987705
0.7899987065
0.7899991733
0.7899990171
0.7899985764
0.7899980941
0.7899976898
0.7899974143
0.7899972605
0.7899972231
0.7899973609
0.7899977082
0.7899981393
0.7899984842
0.7899986953
0.789998815
0.7899988896
0.7899989287
0.7899989185
0.7899988442
0.7899987048
0.7899984892
0.7899982136
0.7899985582
0.7899990092
0.7899991604
0.7899990415
0.7899987115
0.789998427
0.7899985306
0.7899983175
0.7899979282
0.7899975205
0.7899971967
0.7899969798
0.7899968638
0.7899968836
0.7899971062
0.7899975134
0.7899979414
0.7899982591
0.7899984638
0.7899986047
0.7899987091
0.7899987703
0.7899987742
0.78999871
0.7899985888
0.7899984003
0.7899981712
0.789998656
0.7899990212
0.7899990825
0.7899989152
0.7899985148
0.7899982207
0.7899980488
0.7899977547
0.7899973849
0.7899970232
0.7899967212
0.789996508
0.7899964255
0.7899965297
0.7899968466
0.7899972968
0.7899977161
0.7899980234
0.7899982409
0.7899984094
0.7899985403
0.7899986202
0.7899986402
0.7899985882
0.7899985031
0.789998349
0.7899981636
0.7899986286
0.7899989001
0.7899989168
0.7899987325
0.7899983704
0.7899980294
0.7899976983
0.7899973244
0.7899969193
0.7899965337
0.7899962553
0.7899961334
0.7899961611
0.7899963253
0.7899966261
0.7899970227
0.7899974209
0.7899977546
0.7899980152
0.7899982183
0.789998371
0.7899984664
0.7899985044
0.789998471
0.7899984305
0.7899983047
0.7899981589
0.7899985343
0.7899987009
0.7899986806
0.7899984786
0.7899981326
0.7899977505
0.7899973344
0.7899969
0.7899965121
0.7899962566
0.7899961635
0.7899961779
0.7899962481
0.7899963642
0.7899965399
0.7899967894
0.789997106
0.7899974487
0.7899977604
0.7899980075
0.7899981857
0.7899982992
0.7899983568
0.7899983494
0.7899983436
0.7899982415
0.7899981798
0.7899984198
0.7899984863
0.7899984136
0.7899981849
0.7899978337
0.7899974268
0.7899969727
0.7899965694
0.78999634
0.7899962677
0.7899962733
0.7899963023
0.7899963441
0.7899964081
0.7899965084
0.7899966667
0.7899969015
0.7899972005
0.789997509
0.7899977741
0.789997975
0.7899981126
0.789998194
0.7899982161
0.7899982282
0.7899981471
0.7899981453
0.7899982792
0.7899982779
0.7899981527
0.7899979012
0.7899975484
0.7899971502
0.7899967126
0.7899964093
0.7899963156
0.7899963067
0.7899963091
0.7899963142
0.7899963335
0.7899963765
0.7899964526
0.7899965815
0.7899967798
0.7899970328
0.7899972979
0.7899975397
0.789997746
0.7899979085
0.7899980183
0.7899980708
0.7899980959
0.7899980442
0.7899980522
0.7899980729
0.789998045
0.78999789
0.7899976375
0.7899973066
0.789996947
0.7899965621
0.7899963325
0.7899962771
0.7899962614
0.7899962432
0.7899962353
0.7899962526
0.789996297
0.789996373
0.7899964991
0.789996685
0.7899969057
0.7899971207
0.7899973207
0.789997518
0.7899976996
0.7899978353
0.7899979153
0.7899979604
0.7899979494
0.7899979562
0.789997773
0.7899977418
0.7899975848
0.7899973591
0.78999708
0.7899967823
0.7899964715
0.7899962841
0.7899962242
0.7899961911
0.7899961605
0.7899961472
0.7899961559
0.7899961854
0.7899962538
0.7899963844
0.7899965708
0.789996767
0.7899969393
0.7899971085
0.7899973026
0.789997494
0.7899976408
0.7899977399
0.7899978128
0.7899978487
0.7899978802
0.789997394
0.7899973605
0.7899972246
0.7899970529
0.7899968508
0.7899966378
0.7899964178
0.7899962664
0.7899961899
0.789996136
0.789996085
0.7899960424
0.7899960133
0.7899960123
0.7899960697
0.7899962026
0.7899963794
0.7899965459
0.7899966961
0.7899968755
0.7899970849
0.7899972641
0.7899973937
0.7899975024
0.7899976097
0.7899976996
0.7899977792
0.7899971121
0.7899970782
0.7899969971
0.7899969047
0.7899967973
0.7899966803
0.7899965515
0.7899964304
0.7899963203
0.7899962113
0.7899961018
0.7899959967
0.7899959054
0.7899958518
0.7899958655
0.7899959472
0.7899960563
0.7899961652
0.7899963206
0.7899965664
0.7899968059
0.7899969288
0.7899970171
0.7899971802
0.7899973138
0.7899974399
0.7899975594
0.7899968331
0.7899969689
0.7899970586
0.7899970765
0.7899972256
0.7899974143
0.7899976725
0.7899978848
0.789998046
0.7899981456
0.7899981903
0.7899971527
0.7899972856
0.7899972799
0.789997268
0.7899972991
0.7899973733
0.789997429
0.7899973667
0.78999757
0.7899978419
0.7899982119
0.789998507
0.7899987077
0.7899988241
0.7899988615
0.7899988719
0.7899987705
0.7899987363
0.7899986744
0.7899984833
0.7899981309
0.7899977946
0.7899973675
0.7899970102
0.7899968063
0.7899966866
0.7899970242
0.7899971982
0.7899974632
0.7899976612
0.7899977492
0.7899977807
0.7899977828
0.789997773
0.7899977535
0.7899974446
0.7899978156
0.7899981815
0.7899986334
0.7899989919
0.7899992234
0.7899993708
0.7899994312
0.7899993722
0.789999157
0.789999026
0.789998955
0.7899988108
0.7899984184
0.789998077
0.7899976875
0.7899973228
0.7899970838
0.7899969066
0.7899973445
0.7899975207
0.7899977125
0.7899979795
0.7899981671
0.7899982623
0.7899982707
0.78999822
0.7899981678
0.7899980162
0.7899981914
0.789998572
0.7899990292
0.7899994016
0.7899996522
0.7899998724
0.7900000204
0.7899999307
0.7899997293
0.7899994848
0.7899992282
0.7899991096
0.7899987764
0.7899983941
0.7899980288
0.7899976419
0.7899973398
0.7899970842
0.789997625
0.789997889
0.7899982422
0.7899985134
0.7899986705
0.789998704
0.7899986206
0.7899985068
0.7899983578
0.7899985353
0.7899989515
0.7899994035
0.7899997637
0.7900000324
0.7900003017
0.7900004343
0.7900002636
0.7900000692
0.7899998649
0.7899995187
0.7899993164
0.789999167
0.7899987659
0.789998363
0.7899979507
0.7899975653
0.7899971857
0.789997727
0.7899980495
0.7899984701
0.7899988074
0.7899990122
0.7899990725
0.7899989863
0.789998819
0.7899986887
0.7899988623
0.7899992555
0.7899996948
0.7900000522
0.7900002857
0.7900004791
0.7900006604
0.7900006661
0.7900004347
0.7900001298
0.7899998671
0.7899996934
0.7899994297
0.7899990945
0.7899987002
0.7899982565
0.7899978294
0.789997443
0.7899979264
0.7899982804
0.7899986988
0.7899990612
0.7899993009
0.7899993875
0.7899993219
0.7899991444
0.7899989992
0.7899991632
0.7899994073
0.7899998171
0.7900001884
0.7900004287
0.7900005554
0.7900005881
0.7900005697
0.7900003553
0.790000193
0.7900000609
0.7899999004
0.7899996674
0.7899993552
0.7899989864
0.7899985521
0.7899980732
0.78999755
0.7899981907
0.7899985499
0.7899989321
0.7899992893
0.7899995447
0.7899996556
0.7899996198
0.7899994705
0.7899993243
0.7899996014
0.7899994642
0.7899997932
0.79000016
0.7900004467
0.7900006206
0.7900006744
0.7900006627
0.7900005593
0.7900004473
0.7900003157
0.7900001552
0.7899999428
0.7899996572
0.7899993008
0.7899988779
0.7899983676
0.789997742
0.7899983767
0.7899987494
0.7899991273
0.7899994856
0.7899997494
0.789999878
0.7899998716
0.7899997463
0.7899996255
0.7900001822
0.7899995429
0.789999726
0.7900000662
0.7900003742
0.7900005958
0.7900007145
0.7900007463
0.7900007103
0.7900006382
0.7900005287
0.7900003754
0.7900001659
0.7899998923
0.7899995484
0.7899991516
0.7899986784
0.7899981009
0.7899985303
0.7899988927
0.7899992843
0.7899996467
0.7899999172
0.7900000615
0.790000082
0.7899999946
0.7899998736
0.7899996183
0.7899997093
0.7899998866
0.7900001303
0.7900003816
0.7900005964
0.790000743
0.7900008139
0.7900008177
0.7900007699
0.7900006743
0.7900005292
0.7900003298
0.7900000694
0.789999742
0.7899993531
0.7899989169
0.7899983838
0.7899987609
0.7899990058
0.7899994029
0.7899997689
0.7900000466
0.7900002106
0.7900002732
0.7900002596
0.7900001916
0.7900000613
0.7900000038
0.7900000353
0.7900001695
0.7900003636
0.7900005619
0.7900007221
0.7900008222
0.7900008578
0.7900008345
0.7900007556
0.7900006222
0.7900004335
0.7900001863
0.7899998735
0.7899994924
0.7899990612
0.7899985547
0.7899990944
0.789999248
0.7899995572
0.7899998774
0.7900001416
0.7900003225
0.7900004317
0.7900004888
0.7900004692
0.7900003526
0.7900002169
0.7900001253
0.7900001447
0.7900002703
0.7900004475
0.7900006186
0.7900007461
0.7900008134
0.7900008179
0.790000761
0.790000645
0.790000471
0.7900002379
0.7899999402
0.7899995723
0.7899991352
0.7899986288
0.7899989565
0.7899991912
0.7899996507
0.7899999482
0.7900001836
0.7900003682
0.790000511
0.7900005981
0.7900006047
0.7900005061
0.7900003282
0.7900001435
0.7900000511
0.7900000945
0.7900002384
0.790000416
0.7900005719
0.7900006748
0.790000713
0.7900006848
0.7900005925
0.7900004387
0.7900002238
0.7899999436
0.7899995936
0.789999162
0.7899986437
0.7899989948
0.7899993757
0.7899997054
0.7899999371
0.7900001222
0.7900002834
0.7900003689
0.7900005178
0.7900005462
0.7900004549
0.7900002596
0.7900000222
0.7899998508
0.7899998233
0.7899999322
0.7900001137
0.7900002997
0.7900004434
0.790000522
0.7900005292
0.7900004669
0.7900003389
0.7900001472
0.7899998893
0.7899995609
0.7899991484
0.7899986326
0.7899989642
0.7899993458
0.7899996461
0.7899998409
0.7899999915
0.7900001574
0.7900003054
0.7900003968
0.7900003694
0.7900002261
0.7899999895
0.7899997125
0.7899994967
0.7899994332
0.7899995299
0.7899997259
0.7899999468
0.7900001355
0.7900002593
0.7900003066
0.7900002786
0.7900001807
0.7900000163
0.7899997841
0.7899994809
0.7899990952
0.7899986022
0.7899989196
0.7899992771
0.7899995448
0.7899997042
0.7899998306
0.790000025
0.790000202
0.790000258
0.7900001354
0.7899998763
0.7899995521
0.7899992306
0.7899990017
0.7899989454
0.7899990607
0.7899992858
0.7899995488
0.7899997829
0.7899999513
0.7900000386
0.7900000456
0.7899999793
0.7899998441
0.7899996395
0.7899993631
0.7899990062
0.7899985472
0.7899988569
0.7899991647
0.789999415
0.7899995574
0.7899996912
0.7899999078
0.7900000489
0.7900000589
0.7899998471
0.7899994629
0.7899990347
0.7899986699
0.7899984558
0.7899984505
0.7899986067
0.789998861
0.7899991561
0.789999427
0.789999632
0.7899997523
0.7899997896
0.7899997528
0.7899996468
0.7899994697
0.7899992191
0.7899988895
0.7899984668
0.7899988423
0.789999088
0.7899993114
0.7899994315
0.7899995446
0.7899997342
0.7899998118
0.789999758
0.7899994585
0.7899989554
0.7899984497
0.7899980954
0.7899979591
0.7899980279
0.7899982153
0.7899984899
0.7899988096
0.7899991065
0.7899993332
0.7899994734
0.7899995323
0.7899995205
0.7899994407
0.7899992886
0.7899990616
0.7899987571
0.7899983692
0.7899988519
0.7899990944
0.7899992993
0.7899993532
0.7899993934
0.789999507
0.7899995126
0.7899993673
0.7899989642
0.7899983887
0.789997897
0.7899976363
0.7899976045
0.7899977053
0.7899978961
0.789998182
0.7899985193
0.78999883
0.7899990646
0.7899992128
0.7899992861
0.789999295
0.7899992383
0.7899991086
0.7899989034
0.7899986229
0.7899982697
0.789998904
0.7899991838
0.7899993587
0.789999337
0.7899992245
0.7899991735
0.7899990628
0.7899987965
0.7899983227
0.7899977951
0.7899974526
0.7899973368
0.7899973469
0.7899974287
0.7899976153
0.7899979172
0.789998269
0.7899985834
0.7899988166
0.7899989682
0.7899990548
0.7899990835
0.7899990477
0.7899989386
0.789998755
0.7899985001
0.7899981843
0.7899990098
0.7899992958
0.7899994189
0.78999933
0.7899990787
0.7899988504
0.7899985956
0.78999822
0.7899977601
0.7899973818
0.7899971843
0.7899970963
0.7899970639
0.7899971276
0.789997333
0.7899976624
0.7899980262
0.7899983402
0.7899985735
0.7899987348
0.7899988393
0.7899988879
0.7899988716
0.7899987823
0.7899986216
0.7899983971
0.7899981235
0.7899991264
0.789999373
0.7899994288
0.7899992804
0.7899989204
0.7899985862
0.7899982197
0.7899977904
0.7899973898
0.7899971022
0.7899969028
0.7899967592
0.7899967037
0.7899967917
0.7899970415
0.7899974022
0.7899977752
0.789998091
0.7899983332
0.7899985125
0.7899986374
0.7899987045
0.7899987064
0.789998637
0.7899985013
0.7899983155
0.7899980913
0.789999193
0.7899993699
0.7899993359
0.7899991072
0.7899984289
0.7899982428
0.7899978723
0.7899974591
0.7899970756
0.7899967524
0.7899964947
0.7899963281
0.7899963052
0.7899964595
0.7899967696
0.7899971586
0.7899975351
0.7899978532
0.7899981071
0.7899983035
0.7899984443
0.7899985257
0.7899985446
0.7899984954
0.7899983845
0.7899982448
0.7899980713
0.7899991836
0.7899992993
0.7899992243
0.7899989716
0.7899984413
0.7899980751
0.7899976174
0.7899971634
0.7899967461
0.7899963945
0.7899961477
0.7899960294
0.789996057
0.78999624
0.7899965524
0.7899969298
0.789997301
0.7899976266
0.7899978947
0.7899981035
0.7899982529
0.7899983434
0.7899983785
0.7899983536
0.7899982759
0.7899981841
0.7899980518
0.7899990934
0.7899991541
0.7899990474
0.7899987745
0.7899983168
0.7899978663
0.7899973712
0.7899969081
0.7899965256
0.7899962546
0.7899960914
0.789996018
0.789996038
0.7899961697
0.7899964116
0.7899967278
0.7899970711
0.7899973997
0.789997682
0.7899979012
0.7899980556
0.7899981526
0.7899982029
0.7899982053
0.7899981686
0.7899981091
0.7899980076
0.7899989253
0.7899989416
0.7899988054
0.7899985184
0.7899980943
0.7899976277
0.7899971514
0.7899967478
0.7899964648
0.7899962916
0.7899961821
0.789996114
0.7899960974
0.7899961578
0.7899963162
0.7899965617
0.7899968645
0.7899971795
0.7899974633
0.7899976874
0.7899978467
0.7899979517
0.7899980173
0.789998047
0.789998052
0.7899980239
0.789997983
0.7899986803
0.7899986696
0.7899985143
0.7899982255
0.78999783
0.7899973887
0.7899969661
0.7899966388
0.7899964291
0.7899962936
0.7899961899
0.789996108
0.789996067
0.7899960948
0.7899962088
0.7899964081
0.7899966722
0.7899969662
0.7899972406
0.7899974626
0.7899976276
0.7899977448
0.7899978272
0.7899978824
0.7899979236
0.7899979343
0.7899979512
0.7899983495
0.7899983327
0.7899981763
0.7899979041
0.7899975473
0.7899971576
0.7899967892
0.7899965047
0.789996313
0.7899961735
0.7899960558
0.7899959634
0.7899959204
0.7899959489
0.7899960559
0.789996239
0.7899964852
0.7899967631
0.789997024
0.7899972393
0.7899974099
0.7899975406
0.789997639
0.7899977168
0.7899977893
0.7899978407
0.7899979004
0.78999793
0.7899979222
0.7899977829
0.7899975467
0.789997246
0.7899969222
0.7899966102
0.7899963537
0.7899961573
0.7899960019
0.789995873
0.7899957815
0.7899957528
0.7899957985
0.7899959106
0.7899960843
0.7899963131
0.7899965699
0.7899968121
0.789997022
0.7899972004
0.7899973403
0.7899974482
0.789997545
0.7899976482
0.7899977409
0.7899978361
0.7899974462
0.7899974487
0.7899973393
0.7899971569
0.78999693
0.7899966873
0.7899964496
0.7899962424
0.7899960703
0.7899959241
0.7899958036
0.7899957219
0.7899956931
0.7899957201
0.7899958032
0.7899959414
0.7899961243
0.7899963345
0.7899965602
0.7899967888
0.7899969837
0.7899971194
0.7899972232
0.7899973367
0.7899974744
0.7899976115
0.7899977416
0.7899969487
0.7899969346
0.7899968657
0.7899967647
0.7899966435
0.7899965183
0.7899963951
0.7899962804
0.7899961701
0.7899960585
0.7899959485
0.7899958502
0.7899957755
0.7899957381
0.7899957502
0.7899958067
0.7899958876
0.7899959983
0.789996196
0.7899964816
0.7899967174
0.7899968183
0.7899969129
0.7899970831
0.7899972371
0.7899973873
0.7899975246
0.7899966454
0.7899967657
0.789996917
0.7899970556
0.7899971203
0.7899973248
0.7899975063
0.789997729
0.7899979051
0.7899980163
0.7899980534
0.7899980407
0.7899980016
0.7899979818
0.789997982
0.7899968303
0.789996997
0.7899970738
0.7899971545
0.7899972668
0.7899973885
0.7899975053
0.7899974418
0.7899977711
0.7899980283
0.7899983508
0.7899986019
0.789998764
0.7899988288
0.7899988124
0.7899987345
0.7899986566
0.7899985857
0.7899985038
0.7899983705
0.7899981609
0.7899978611
0.7899974547
0.789997065
0.7899967953
0.7899966218
0.7899966584
0.7899968472
0.7899971433
0.7899973821
0.7899975456
0.7899976701
0.7899977681
0.7899978116
0.7899978
0.7899971902
0.7899979726
0.7899983981
0.7899988315
0.7899991535
0.7899993609
0.7899994683
0.7899994768
0.7899993667
0.7899992335
0.78999911
0.789998964
0.7899987756
0.7899985093
0.7899981919
0.7899977965
0.7899974152
0.7899971255
0.7899969058
0.7899968737
0.7899971314
0.7899974142
0.7899977254
0.7899979768
0.7899981562
0.7899982731
0.7899983416
0.7899983956
0.7899983123
0.7899985715
0.7899988968
0.7899992918
0.7899996188
0.7899998614
0.7900000565
0.7900001376
0.7900000336
0.7899998624
0.789999649
0.7899994107
0.7899991587
0.7899988591
0.7899985253
0.7899981407
0.7899977551
0.7899974254
0.7899971378
0.7899972496
0.7899976074
0.7899980065
0.7899983412
0.7899985768
0.7899987146
0.7899987791
0.7899988152
0.7899987772
0.789998998
0.7899993099
0.789999681
0.7900000097
0.7900002834
0.7900005278
0.7900005776
0.7900004309
0.7900002647
0.7900000838
0.7899998152
0.7899995301
0.7899992066
0.7899988551
0.7899984709
0.7899980671
0.7899976809
0.7899972844
0.789997365
0.7899977713
0.7899982356
0.7899986442
0.7899989336
0.7899990996
0.7899991644
0.7899991853
0.7899991825
0.7899994095
0.7899996631
0.789999999
0.7900003143
0.7900005665
0.7900007862
0.790000925
0.7900008837
0.7900006922
0.7900003954
0.7900000743
0.7899997812
0.7899994812
0.7899991506
0.7899987771
0.7899983654
0.789997949
0.7899975385
0.7899975645
0.7899979955
0.7899984667
0.7899989018
0.7899992344
0.7899994337
0.7899995078
0.7899995258
0.7899995379
0.7899998483
0.7899999377
0.7900002085
0.7900004948
0.7900007142
0.7900008471
0.7900008931
0.7900008381
0.7900006784
0.7900004812
0.790000267
0.7900000288
0.7899997539
0.7899994294
0.7899990622
0.7899986513
0.7899982117
0.7899977379
0.7899978161
0.7899982549
0.789998712
0.7899991465
0.7899994971
0.7899997221
0.7899998207
0.7899998677
0.7899999051
0.790000361
0.7900002022
0.7900003609
0.7900006004
0.7900008184
0.7900009545
0.7900009959
0.7900009533
0.790000842
0.7900006908
0.7900005089
0.7900002936
0.7900000364
0.7899997285
0.7899993708
0.789998965
0.7899985205
0.7899980168
0.7899980581
0.789998491
0.7899989417
0.7899993746
0.7899997325
0.7899999753
0.7900001049
0.790000201
0.7900002832
0.7900014822
0.7900004795
0.790000514
0.7900006593
0.7900008481
0.7900009945
0.7900010636
0.7900010561
0.7900009868
0.7900008702
0.790000712
0.7900005107
0.790000262
0.7899999618
0.78999961
0.7899992111
0.7899987656
0.7899982357
0.7899983842
0.7899987372
0.789999157
0.7899995809
0.7899999394
0.7900001911
0.790000331
0.7900003883
0.7900003931
0.7900005817
0.7900004431
0.7900005408
0.7900006992
0.7900008699
0.7900010142
0.7900011041
0.7900011292
0.7900010931
0.7900010031
0.7900008636
0.7900006749
0.7900004352
0.7900001426
0.7899997952
0.7899993967
0.7899989518
0.7899984068
0.7899988918
0.7899990578
0.7899993704
0.7899997618
0.7900001167
0.7900003807
0.7900005467
0.7900006383
0.7900006731
0.7900006985
0.7900006404
0.7900006581
0.7900007407
0.7900008648
0.7900009933
0.790001093
0.790001143
0.7900011357
0.7900010716
0.7900009525
0.7900007795
0.7900005515
0.7900002668
0.7899999236
0.7899995234
0.7899990718
0.7899985151
0.7899992069
0.7899993528
0.7899995853
0.789999925
0.7900002604
0.7900005259
0.7900006985
0.7900008293
0.7900008703
0.7900008425
0.7900007681
0.790000715
0.7900007215
0.7900007923
0.7900008992
0.7900010041
0.790001076
0.7900010973
0.7900010614
0.7900009668
0.7900008136
0.7900006012
0.7900003278
0.7899999916
0.7899995931
0.7899991349
0.7899985688
0.7899992016
0.7899993998
0.7899996953
0.7900000339
0.7900003513
0.7900006165
0.7900008132
0.7900009132
0.7900009509
0.7900009114
0.790000804
0.7900006819
0.7900006102
0.7900006227
0.7900007044
0.7900008138
0.7900009097
0.7900009636
0.7900009611
0.7900008966
0.7900007691
0.7900005777
0.790000321
0.7899999973
0.7899996068
0.7899991501
0.7899985817
0.7899991365
0.7899994373
0.7899997716
0.7900000836
0.7900003445
0.7900005269
0.7900004271
0.790000783
0.7900008745
0.7900008224
0.7900006779
0.790000497
0.7900003597
0.7900003236
0.7900003871
0.7900005074
0.7900006339
0.7900007277
0.790000766
0.790000739
0.790000644
0.7900004803
0.7900002468
0.7899999423
0.7899995674
0.7899991223
0.7899985641
0.7899992009
0.7899995119
0.7899998227
0.7900000931
0.7900003276
0.7900005313
0.7900006325
0.7900007636
0.7900007459
0.7900006024
0.7900003758
0.7900001256
0.7899999363
0.7899998741
0.7899999404
0.7900000872
0.7900002555
0.7900003978
0.7900004844
0.7900005017
0.7900004457
0.7900003161
0.7900001123
0.7899998337
0.7899994809
0.7899990554
0.7899985203
0.7899992968
0.7899995737
0.7899998471
0.7900000726
0.7900002868
0.790000494
0.7900006246
0.7900006697
0.7900005467
0.7900002699
0.7899999153
0.7899995777
0.7899993517
0.7899992942
0.789999392
0.7899995847
0.7899998055
0.7900000018
0.7900001404
0.7900002051
0.7900001916
0.7900001004
0.7899999311
0.7899996831
0.7899993567
0.789998956
0.7899984521
0.7899994124
0.7899996236
0.7899998501
0.7900000362
0.7900002255
0.790000408
0.7900004942
0.7900004708
0.7900002541
0.7899998433
0.7899993512
0.7899989283
0.7899986892
0.7899986676
0.7899988193
0.7899990672
0.7899993408
0.7899995868
0.7899997713
0.7899998795
0.789999907
0.7899998547
0.7899997219
0.7899995055
0.7899992075
0.789998834
0.7899983651
0.7899995032
0.789999667
0.7899998507
0.78999999
0.7900001263
0.7900002491
0.7900002597
0.7900001532
0.7899998384
0.7899993078
0.7899987173
0.7899982653
0.7899980618
0.7899981014
0.7899983086
0.7899986028
0.7899989167
0.789999199
0.7899994174
0.7899995583
0.7899996195
0.7899996014
0.7899995017
0.7899993163
0.789999047
0.7899987019
0.7899982701
0.7899995616
0.7899997163
0.7899998597
0.7899999345
0.7899999817
0.7900000144
0.7899999335
0.7899997228
0.7899992953
0.7899986808
0.7899980806
0.7899976844
0.7899975562
0.7899976517
0.7899978954
0.7899982174
0.7899985549
0.7899988575
0.7899990953
0.7899992575
0.7899993441
0.7899993548
0.7899992847
0.7899991283
0.7899988876
0.7899985725
0.7899981803
0.7899996085
0.7899997699
0.7899998783
0.7899998739
0.7899997838
0.7899996802
0.789999475
0.7899991373
0.7899986171
0.7899980078
0.7899975039
0.7899972278
0.7899971729
0.7899972997
0.7899975597
0.7899978954
0.7899982444
0.7899985563
0.7899988039
0.7899989804
0.7899990872
0.7899991221
0.7899990782
0.7899989494
0.7899987381
0.789998456
0.7899981072
0.7899996543
0.7899998215
0.7899998875
0.7899998008
0.7899995353
0.7899993053
0.7899989628
0.7899985032
0.7899979507
0.7899974236
0.7899970563
0.7899968662
0.7899968453
0.7899969855
0.7899972558
0.7899976019
0.7899979586
0.7899982766
0.7899985326
0.7899987226
0.7899988473
0.7899989031
0.7899988825
0.7899987806
0.7899986005
0.7899983565
0.7899980561
0.7899996978
0.7899998485
0.7899998525
0.7899997125
0.7899993184
0.7899989869
0.7899985234
0.7899979798
0.7899974386
0.7899970037
0.7899967016
0.7899965363
0.7899965268
0.7899966802
0.789996966
0.7899973234
0.789997686
0.7899980095
0.7899982747
0.7899984778
0.7899986178
0.7899986911
0.789998692
0.7899986167
0.7899984701
0.789998271
0.7899980259
0.7899997074
0.789999807
0.789999667
0.7899994258
0.789997873
0.7899983808
0.7899980849
0.7899975983
0.7899971125
0.7899967104
0.7899964178
0.7899962536
0.7899962502
0.7899964181
0.7899967176
0.7899970787
0.7899974383
0.7899977607
0.7899980303
0.7899982413
0.7899983913
0.789998478
0.789998499
0.7899984519
0.7899983419
0.7899981915
0.7899980014
0.7899996732
0.7899997387
0.7899995999
0.7899993481
0.7899984758
0.7899983691
0.7899979226
0.7899974106
0.7899969473
0.7899965753
0.7899963107
0.7899961603
0.7899961442
0.7899962797
0.7899965436
0.7899968753
0.7899972156
0.7899975285
0.7899977956
0.7899980078