/*--------------------------------*- C++ -*----------------------------------*\
  =========                 |
  \\      /  F ield         | OpenFOAM: The Open Source CFD Toolbox
   \\    /   O peration     | Website:  https://openfoam.org
    \\  /    A nd           | Version:  8
     \\/     M anipulation  |
\*---------------------------------------------------------------------------*/
FoamFile
{
    version     2.0;
    format      ascii;
    class       volScalarField;
    location    "1.1";
    object      nut;
}
// * * * * * * * * * * * * * * * * * * * * * * * * * * * * * * * * * * * * * //

dimensions      [0 2 -1 0 0 0 0];

internalField   nonuniform List<scalar> 
67451
(
0.0001907973771
0.0001816569387
0.0001942937537
0.0001917086423
0.0001723311739
0.0001760231911
0.00019054841
0.0002033260332
0.0002140800049
0.0002207407621
0.0002326494257
0.0001793929611
0.0001764910726
0.0001799189704
0.0001862406742
0.0001925959569
0.0001936912975
0.0002115923736
0.0002053046625
0.0001814438043
0.0001854139569
0.0002022340608
0.0002169309612
0.0002296442971
0.0002441044954
0.0002791271413
0.0003612003441
0.000388849969
0.0003654606532
0.0003136623308
0.0002577492676
0.000250803824
0.0002711332916
0.0002908077544
0.0003040172099
0.0003015034223
0.0002492057313
0.0001792499972
0.0001882220807
0.0001940931441
0.0001891040647
0.0001878363423
0.0001870521891
0.0001887478113
0.0001981725676
0.0002185409195
0.0002062479823
0.0001855749191
0.000195531053
0.0002135651082
0.0002301192629
0.0002505649275
0.0002891456898
0.0003593401216
0.0004546695122
0.0004791034495
0.0004537787106
0.0003963535095
0.0003188055959
0.0002655223541
0.0002732601782
0.0002934549896
0.0003072358746
0.0003041355786
0.0002506488175
0.0001868644677
0.0001975786685
0.0002108671861
0.000204351983
0.0001998386736
0.0001952318571
0.0001907475204
0.0001963585281
0.0002137962366
0.0001923325535
0.00019164763
0.0002107549144
0.0002298209403
0.0002500974385
0.000288349091
0.0003614285342
0.0004552263343
0.0005390919094
0.0005651604786
0.0005392335004
0.0004781273306
0.0003976931727
0.0003078748907
0.0002738864772
0.0002912045881
0.0003063847356
0.0003041473064
0.0002518418261
0.0002122466578
0.0002274565611
0.000219834983
0.0002128973261
0.0002074862739
0.0001997086252
0.000198583931
0.0002067869909
0.0001914394099
0.0002063934126
0.0002318191729
0.0002529921801
0.0002764874581
0.0003270844527
0.0004151567033
0.0005128673867
0.0005846056113
0.0006146894945
0.0005975348167
0.0005418631294
0.0004690369341
0.0003774862809
0.0002917968887
0.0002840696821
0.0003004300163
0.000300164946
0.0002520691654
0.00022206297
0.0002365639316
0.0002315702035
0.0002252750754
0.0002198163018
0.000211810915
0.0002055838821
0.0002040616719
0.0002006870032
0.0002230404849
0.000254187216
0.0002754600017
0.0002869276396
0.0003024621897
0.0003400978748
0.0004239803895
0.0005292740809
0.0005508267319
0.0005137934485
0.0004411662199
0.0003494647749
0.0002681054733
0.0002482095709
0.0002712631467
0.0002885430445
0.0002889579188
0.0002434792803
0.0002231861449
0.0002354566628
0.0002364418186
0.0002344050463
0.0002317586051
0.0002242279412
0.0002158503841
0.000206986705
0.0002101450846
0.0002300595787
0.000260904638
0.0002847644584
0.0002975943347
0.0003071397534
0.0003122591342
0.000331634788
0.0004241940391
0.0004521783418
0.0004153375742
0.000349593361
0.0002842069761
0.0002418314216
0.0002306888719
0.0002530429873
0.0002721697524
0.0002749671787
0.0002331070615
0.0002225616474
0.0002288509457
0.000237932321
0.0002410845327
0.0002415177145
0.0002372042154
0.0002293249157
0.0002238021869
0.000222226238
0.0002302249346
0.0002325512137
0.0002482359057
0.0002696564218
0.0002867714323
0.000295166673
0.0002970282483
0.0003248873023
0.0003504866133
0.0003223571877
0.0002838011416
0.0002556541114
0.000238453099
0.0002277991045
0.0002356687924
0.000255629835
0.0002612928254
0.0002247032309
0.000248425224
0.000236044565
0.0002425634741
0.0002472087694
0.000249550694
0.0002482393626
0.0002445432249
0.0002442935226
0.0002479482272
0.000290410233
0.0002448777476
0.0002454595625
0.0002529190574
0.0002682338017
0.0002812866791
0.0002857182796
0.0002873603562
0.0002908720331
0.0002783940066
0.0002654761796
0.0002554129124
0.0002452778563
0.0002339499902
0.0002283709069
0.0002392211595
0.0002483116725
0.0002185106868
0.0003196213314
0.0002638029444
0.0002503138955
0.0002523175412
0.0002559751118
0.0002580382184
0.0002611462408
0.0002711550883
0.0002776775959
0.0002716910596
0.0002604851823
0.0002582591198
0.0002650767297
0.0002760160664
0.000284748589
0.0002887052564
0.0002881206864
0.0002851218255
0.0002796066209
0.0002732728172
0.0002656534387
0.0002553967774
0.0002424487652
0.0002305384173
0.0002285956343
0.0002357460582
0.0002128006621
0.0004369239528
0.0003340276465
0.0002714089949
0.000257618955
0.0002608444826
0.0002674330652
0.0002808662904
0.0003031655223
0.0003150011012
0.000308473664
0.0002909038004
0.0002775391524
0.0002774064523
0.000282963927
0.0002888003032
0.0002921818345
0.0002924190011
0.000290136628
0.0002860288036
0.0002803139996
0.0002728136187
0.0002630389342
0.0002499105781
0.0002357749238
0.00022526095
0.0002246546216
0.0002056332028
0.0005449808199
0.0004326529397
0.0003200078879
0.000266911508
0.0002635769563
0.0002770824706
0.0003052439
0.0003364717851
0.0003506182399
0.0003465595161
0.0003277794405
0.000302995065
0.0002882512078
0.0002857903639
0.0002892553506
0.0002926252642
0.0002937019239
0.0002923403288
0.0002888382553
0.0002833551076
0.0002759690173
0.0002666102159
0.0002545834087
0.0002397198638
0.0002258274522
0.0002170773083
0.0001969831442
0.0005204138187
0.000407273592
0.0003068244079
0.0002613235584
0.0002654172545
0.000292362929
0.0003341654766
0.0003654558808
0.0003780946581
0.0003757679487
0.0003607677463
0.0003357214079
0.0003077092298
0.0002908134781
0.0002872789361
0.000289426214
0.0002912520565
0.0002908326803
0.0002879669152
0.000282816915
0.0002756275361
0.0002666024939
0.000255461227
0.0002411403044
0.0002265834369
0.0002128583437
0.0001882836802
0.0004078978215
0.0003119463618
0.0002572220566
0.0002512016506
0.0002781241224
0.0003229461265
0.0003627798178
0.000388474728
0.0003975316328
0.0003953649025
0.0003824122908
0.0003594012531
0.0003299595991
0.0003027405041
0.0002870363995
0.0002835273408
0.0002849318652
0.0002855377028
0.0002835594413
0.0002789335372
0.0002720561888
0.0002633819931
0.0002529643814
0.0002398754535
0.0002256148207
0.0002099783368
0.0001810400084
0.0003038484001
0.000252337057
0.0002407872763
0.0002484466986
0.0002790699857
0.000327980818
0.0003700705721
0.0003980574801
0.0004039399471
0.0003993695226
0.0003860018377
0.0003647305225
0.0003375353316
0.0003086774928
0.0002857421493
0.0002754752673
0.0002750889007
0.0002765983501
0.0002757404221
0.0002718349526
0.000265411091
0.0002571969885
0.0002475118088
0.0002356370589
0.0002223664849
0.0002066521224
0.0001754672039
0.0002525176019
0.0002335934089
0.0002358988661
0.0002457042515
0.0002788031094
0.0003388352774
0.0004008516308
0.0004156553812
0.0004117838725
0.0003998017703
0.0003823459845
0.000360334495
0.0003345197744
0.0003064874167
0.0002815159066
0.0002665066694
0.0002627810436
0.000264593404
0.000264830043
0.0002617221885
0.0002558742379
0.0002483002878
0.0002395000406
0.0002288624918
0.0002169891978
0.0002020650329
0.000170716858
0.0003148617363
0.0002588208685
0.0002392990006
0.0002443965238
0.0002833915726
0.0003754693732
0.0004736943135
0.0004772140016
0.0004525340972
0.0004182395506
0.0003842491883
0.0003537082795
0.0003255646506
0.0002982235462
0.0002733407779
0.0002561988544
0.0002502857407
0.0002507701879
0.0002514137587
0.0002489134417
0.000243715324
0.0002370325898
0.0002293838535
0.0002204290614
0.0002099145107
0.0001960791693
0.0001658745976
0.0003443190629
0.0002787981004
0.0002530705721
0.0002806836006
0.0003500954862
0.0004345021026
0.0005120460028
0.0005209884954
0.0004958919455
0.0004507472316
0.0004012722965
0.0003575929159
0.0003213243369
0.0002899122778
0.0002625844276
0.0002437714018
0.0002369608319
0.0002370132534
0.0002370771283
0.0002345130375
0.0002298956434
0.0002243416164
0.0002182074411
0.0002108964571
0.0002016191496
0.00018889177
0.0001604291965
0.0003375126145
0.0002811526712
0.0002658320335
0.0002833434393
0.0003488342818
0.0004333492674
0.0005071944733
0.0005181922391
0.0004961033316
0.0004521914559
0.0004015144302
0.0003545980867
0.0003133908332
0.0002771628999
0.0002471971745
0.0002282850539
0.0002223956439
0.0002227574909
0.0002225207287
0.0002199620317
0.0002160112949
0.0002116313245
0.0002068450229
0.0002008289458
0.0001925920931
0.00018087339
0.0001542811628
0.0003130137869
0.0002795785559
0.0002796821271
0.0002835791472
0.0003127814875
0.0003914553395
0.0004689435147
0.0004823934904
0.0004631085755
0.0004242386945
0.0003791982632
0.0003344494219
0.0002916771832
0.0002538303213
0.0002248532431
0.0002096607274
0.0002069145492
0.000208065202
0.0002075692589
0.0002051519607
0.0002021217744
0.0001990887709
0.0001956213295
0.000190731307
0.0001833786453
0.0001725493689
0.000147675439
0.0002884544675
0.0002847193862
0.0002948371099
0.0002952355398
0.000295946536
0.0003358602288
0.0004088835685
0.0004261633972
0.0004112811871
0.0003793670564
0.0003396062308
0.0002965804403
0.0002552410978
0.0002205950323
0.0001980060406
0.000190342317
0.0001917507719
0.0001935943132
0.000192871992
0.0001908189153
0.0001889139323
0.0001872760268
0.0001850439472
0.0001812044365
0.0001746796203
0.0001646219104
0.000141127419
0.0002780486236
0.0002942083703
0.0003048626161
0.0003046413735
0.000297136133
0.0003016190168
0.000346892179
0.000362952829
0.0003514301265
0.000323352277
0.0002866427998
0.0002477465872
0.0002125307482
0.0001862451023
0.000173645677
0.0001739397899
0.0001784951944
0.0001807143571
0.0001799762005
0.0001783651967
0.0001773732617
0.0001768336917
0.000175626668
0.0001729107635
0.0001675662644
0.0001581174488
0.0001353614238
0.0002791389897
0.0002992504896
0.0003081573672
0.0003075385109
0.0002999130061
0.0002884077318
0.0002989574047
0.0003033772419
0.0002901987582
0.0002647611362
0.0002346529013
0.0002061952152
0.0001828958276
0.0001665131709
0.0001602120139
0.0001632792331
0.0001683565232
0.0001706460336
0.0001701354195
0.0001687641643
0.0001680635003
0.00016805171
0.0001675785133
0.000166137564
0.0001634810646
0.0001542709629
0.0001312348124
0.0002803899914
0.0002980457316
0.00030505875
0.0003034380427
0.0002946956809
0.0002789364238
0.000269328649
0.0002598173572
0.0002438023957
0.0002254881774
0.000210309675
0.0001989682137
0.0001882892857
0.0001767568445
0.0001677009992
0.0001640938014
0.0001639745998
0.0001641215933
0.0001631312455
0.0001615409904
0.0001605807854
0.0001606158108
0.0001606453656
0.0001602575383
0.0001603833941
0.0001513174674
0.0001278886267
0.0002792860189
0.000292546525
0.0002972048861
0.0002939171699
0.0002835540433
0.0002661701029
0.0002503602263
0.0002372390982
0.0002282749432
0.0002250204276
0.0002239571637
0.0002203254224
0.0002118501833
0.0001998442194
0.0001876959935
0.0001776396768
0.0001699181338
0.0001641274482
0.0001596487607
0.0001561825706
0.0001541961241
0.0001539108873
0.0001543055392
0.0001544816827
0.0001555969984
0.0001470922665
0.0001267664264
0.0002770584624
0.0002855929538
0.0002870426258
0.0002814442602
0.0002690935393
0.0002518936063
0.000237633965
0.0002323053676
0.0002367657096
0.000243991251
0.00024623183
0.0002414027983
0.000230750138
0.0002170832759
0.0002032923318
0.0001906424193
0.0001792759356
0.0001690292604
0.0001601278158
0.0001530794049
0.0001487793842
0.000147537766
0.0001480752333
0.0001485365996
0.0001494428848
0.0001421845661
0.0001258080049
0.0002741459847
0.0002788747076
0.0002770331065
0.0002691443796
0.0002552803351
0.0002399400529
0.0002298195714
0.0002342851933
0.0002471887793
0.0002557201218
0.0002560775817
0.0002491552605
0.0002371961153
0.0002230617391
0.0002091035156
0.0001961494489
0.0001841130767
0.0001726314506
0.0001614642697
0.0001513290076
0.0001441350567
0.0001412762137
0.0001415765565
0.0001422516038
0.0001428606214
0.0001374279301
0.0001229860537
0.000269327188
0.0002719144118
0.0002677817724
0.0002585303653
0.0002445864456
0.0002312847832
0.000223514037
0.0002309622723
0.000244902309
0.0002525747467
0.0002519994461
0.00024468792
0.0002330546432
0.0002197280047
0.0002066284953
0.0001945242853
0.0001832357859
0.0001719486771
0.0001600551399
0.0001481551142
0.0001388037488
0.0001344920559
0.0001343898717
0.0001352432083
0.0001358484224
0.0001322895537
0.0001191628218
0.0002599940541
0.0002619504195
0.000256872949
0.0002475179054
0.0002355617788
0.0002240628869
0.0002163908387
0.0002202672849
0.0002300641527
0.0002370112511
0.0002372483783
0.0002315775704
0.0002221079897
0.0002108935115
0.0001992842262
0.0001882054211
0.0001775497613
0.0001663286005
0.0001537512049
0.0001407717903
0.0001306560345
0.0001260801528
0.0001259123438
0.0001269552555
0.0001277857227
0.0001258541823
0.0001141272161
0.0002413036622
0.0002434561399
0.0002386664178
0.0002311085889
0.0002225864238
0.0002138488568
0.0002066839921
0.0002060596996
0.0002110322343
0.0002159700132
0.0002172207805
0.000214103892
0.0002073344509
0.000198110799
0.0001878355963
0.0001775584937
0.0001670678679
0.0001550435242
0.000140914616
0.000127136108
0.0001179767705
0.0001146626193
0.0001148628374
0.0001161561277
0.0001173645046
0.000116943918
0.0001069952414
0.0002024482526
0.0002018787912
0.0001990533662
0.0001957571885
0.0001921355192
0.0001884228762
0.0001849430676
0.0001836934972
0.0001855998273
0.0001886951758
0.0001903570081
0.0001892256504
0.0001850999205
0.0001785043921
0.0001703767066
0.0001613862008
0.0001510602973
0.0001379397771
0.0001218405936
0.000106984241
9.890278494e-05
9.566474754e-05
9.495723747e-05
9.817671131e-05
0.0001000672663
0.0001010609434
9.429026696e-05
0.0007139980704
0.0006902567054
0.0006590416037
0.0006192943754
0.0004849434434
0.0004766830981
0.0005994334314
0.0006939203277
0.0007328632647
0.000753301505
0.0007529207607
0.0004928880082
0.0005017714907
0.0006181819361
0.0007297221443
0.0007909767038
0.0008300126863
0.0008223063541
0.0007769752099
0.0006105440329
0.0005798005024
0.0007189380441
0.0008421963557
0.000894481627
0.0009101214029
0.0008889033502
0.0008539286549
0.0008400673513
0.0007835371696
0.0006564002417
0.0005513519809
0.0005145918299
0.0006379325648
0.0008176494369
0.0008783685582
0.0007451410152
0.0002456659189
0.0003692229971
0.0005770849982
0.0006047722855
0.0006046481991
0.0006656760541
0.0007339041753
0.0008041878866
0.0009028715765
0.0009288404813
0.0008950231483
0.0006980774336
0.000688486432
0.0008366966169
0.0009838413613
0.001048808204
0.001052399469
0.001063304743
0.00110091321
0.001097746115
0.0009885402664
0.0008000774905
0.0005988140548
0.0005559807322
0.0006881805757
0.0008717230672
0.0009292761363
0.0007840095235
0.0002486381266
0.0004474806095
0.0006208820868
0.0007388794876
0.0007419329512
0.0007469389737
0.0007541917753
0.0007872839656
0.0009158184439
0.0009593735038
0.0008934754522
0.0007439688035
0.0008224488709
0.0009875991101
0.00113502812
0.001187181606
0.001208147575
0.001330318595
0.001454024622
0.001464438598
0.001317577287
0.00103539408
0.0007495480703
0.0006108769543
0.0007071595025
0.0008955528781
0.0009534000119
0.000802658048
0.0002497209828
0.0007736278314
0.0008537957047
0.0008715406055
0.0008610863688
0.0008341760294
0.0008189756396
0.0009057063743
0.0009556426527
0.0008570753078
0.0008333468267
0.001003539428
0.001169441424
0.0012719244
0.001299999648
0.001332916226
0.001480502263
0.001596782015
0.001576160479
0.001429236853
0.001165768459
0.0009109306736
0.0006959797254
0.0007043411191
0.0008769649741
0.0009447695758
0.0007971672406
0.0002476115726
0.0008815856681
0.000935924047
0.0009562223263
0.0009529506816
0.0009405754527
0.0009085338783
0.0009242528553
0.0009263349511
0.0008618200565
0.0009626615831
0.001151843424
0.001291467892
0.001392365281
0.00146505477
0.001520018637
0.001604404262
0.001642145201
0.001599424716
0.0014446562
0.001236023231
0.00103303351
0.0008432110328
0.0007646675091
0.0008493291508
0.0009072255764
0.0007730813746
0.000234383492
0.0009342152123
0.0009820676521
0.001005995569
0.00101476122
0.001019343107
0.001017185724
0.0009786942269
0.000915942089
0.000907287463
0.001101819522
0.001241345845
0.001370065807
0.001468675686
0.001549752457
0.001622243309
0.001652278058
0.001591909515
0.001509241247
0.001400697957
0.001240939941
0.001072649492
0.0009287833607
0.0007937078086
0.0007807794599
0.0008352125615
0.0007317109128
0.0002181089657
0.0009423680314
0.001009780775
0.001037473571
0.001059238951
0.001081597628
0.001100105137
0.001093698516
0.001031946267
0.001050745888
0.001405340041
0.001328171532
0.001417507288
0.001511816615
0.001577380589
0.001627463399
0.001652771263
0.001616656907
0.0015533571
0.001473855645
0.001359576664
0.001253928055
0.001113555594
0.0009350113654
0.0007946619814
0.0007706006355
0.0006799914686
0.0002073998783
0.0009684882955
0.001040808239
0.001072776262
0.00110329471
0.0011391921
0.001173234568
0.001191541123
0.001176724732
0.001306661589
0.001745173547
0.001492004877
0.001379484876
0.001480823761
0.001549869432
0.001583252109
0.001599772509
0.001592817169
0.001566830613
0.001521127776
0.001453580934
0.001369970718
0.001245571544
0.001067702414
0.0008742034784
0.0007453959581
0.0006437130718
0.0002044489314
0.001090630756
0.001096944811
0.001122482973
0.00115788407
0.001199506999
0.001241032502
0.001269958047
0.001279953821
0.001321886131
0.001474748477
0.001380306037
0.00141734466
0.00147290684
0.001508359172
0.001528915907
0.00153825683
0.001534929692
0.001518827849
0.001487966892
0.001445079785
0.001391281634
0.001315501291
0.001178445241
0.0009783576715
0.0007801853861
0.0006122621313
0.0002019214288
0.001428222253
0.001226085163
0.00117203053
0.001216672755
0.001261102947
0.001301278084
0.001330171827
0.001344318
0.001366420962
0.001394998615
0.001422334003
0.001454354432
0.001476619139
0.001490103928
0.001497434974
0.001499380273
0.001494448044
0.001481503706
0.001459299561
0.001428427819
0.001388090784
0.001332114657
0.001241043377
0.00106566047
0.0008420927024
0.0006120648637
0.0001986322822
0.001639481076
0.001332542696
0.001174623256
0.001246687179
0.001308651295
0.001345791475
0.001373856888
0.001392781089
0.001411593208
0.001424793605
0.001440684921
0.001458522998
0.001470774695
0.001475543195
0.001475018196
0.001471562153
0.001464788681
0.001453176924
0.001435180943
0.001409913973
0.001375858423
0.001328707026
0.001256225177
0.001121012166
0.0009014544979
0.0006306960926
0.0001944977993
0.001563174687
0.001303499089
0.00127379874
0.001325560353
0.001349402943
0.001375652098
0.001411620367
0.001440053819
0.00145748337
0.001457886904
0.001447172464
0.001436596925
0.001434732241
0.001437181162
0.001437321307
0.001434256959
0.001428499418
0.001419022347
0.001404092804
0.001382268877
0.001351956226
0.001309802855
0.001247091157
0.001140493044
0.0009382434258
0.0006510052239
0.0001901160238
0.001286986381
0.001192431739
0.001245078478
0.00131640322
0.001361324157
0.001399736805
0.001462473314
0.001496660574
0.001506475249
0.001485456891
0.001442831528
0.001396087803
0.001365719899
0.001358842234
0.001363883873
0.00136881147
0.001369897221
0.001366115918
0.001356134843
0.00133866016
0.001312397728
0.001274662301
0.001218377941
0.001125280255
0.0009460868781
0.0006600026258
0.0001858414212
0.00111555553
0.001126239387
0.001253261327
0.001330990985
0.001402886318
0.001475274606
0.001552281798
0.001593133982
0.001583214683
0.00152249965
0.001433141999
0.001341430911
0.001273514552
0.00124468473
0.001246754143
0.001262242202
0.001277621839
0.001285696404
0.001284911487
0.001274770194
0.001254732992
0.001222765862
0.001172727117
0.001089868524
0.0009277591825
0.0006519046396
0.0001814005566
0.001018092004
0.001109582413
0.001241087738
0.001316744063
0.001391411709
0.001546194561
0.001644372521
0.001697431328
0.001666063175
0.001554558018
0.00140288929
0.001255860847
0.001146286311
0.001087098496
0.001061310968
0.001085280097
0.001139960247
0.001172857559
0.001188057604
0.001189551686
0.001179021506
0.001155336147
0.001113051638
0.001041026072
0.0008888849399
0.0006272982847
0.0001762923123
0.0009637527655
0.001060168756
0.00120843628
0.001315102126
0.001427113249
0.001590801699
0.001689708374
0.001742866373
0.001694675817
0.001538618396
0.001325410411
0.001123558963
0.0009766988531
0.0008858356806
0.0008458635283
0.0008791306942
0.0009568094582
0.001029619886
0.001067812992
0.001085059859
0.001087651168
0.001075533255
0.001044130382
0.0009774551544
0.000835120664
0.0005903611916
0.0001702248375
0.0009914834091
0.00106133732
0.001183643235
0.001276207986
0.001429824129
0.001580941894
0.001692689457
0.001730778255
0.001651849522
0.001446102632
0.001175224374
0.0009327985282
0.0007683288103
0.0006638919101
0.0006380062163
0.0006853698553
0.0007754475115
0.0008646995557
0.0009263633903
0.0009631534317
0.0009830326932
0.0009871400918
0.0009672090938
0.0009057751483
0.0007733439681
0.0005469345478
0.0001632756784
0.001025388636
0.001132908401
0.001257739822
0.001312597549
0.001419401073
0.001531660611
0.001626963741
0.00164441014
0.001530535491
0.001276873324
0.0009661775788
0.0007142104047
0.0005488422209
0.0004727503507
0.0004715725311
0.0005291372931
0.0006204072039
0.0007098899196
0.0007777148654
0.0008273268595
0.0008653975359
0.000888768562
0.000884265463
0.0008327707707
0.0007111872268
0.0005033556926
0.0001558422681
0.001084517464
0.001252708799
0.001367629101
0.001395274757
0.001400101172
0.001436038777
0.001460636548
0.001433838882
0.001281276061
0.001005571071
0.0007140188959
0.0004970251473
0.0003802712688
0.0003423218887
0.0003588433817
0.0004200008947
0.0005055628191
0.0005870106
0.0006530277682
0.0007101915403
0.000762128758
0.0008005210934
0.0008086255986
0.0007672261948
0.0006565257734
0.0004654483031
0.0001485463564
0.001189999802
0.001361678591
0.001418460225
0.001430982933
0.001412026412
0.001356503691
0.001264087738
0.001154848801
0.0009648579005
0.0007162709399
0.0004902710566
0.0003493003894
0.0002836827314
0.0002670399867
0.0002921209235
0.0003544630052
0.0004342754415
0.0005075102711
0.0005692398506
0.0006279260364
0.0006853563269
0.0007309449003
0.000746966083
0.0007161023772
0.0006174501108
0.0004390729596
0.0001421366765
0.001310143103
0.001414254834
0.001441918324
0.001440132738
0.001415372319
0.001315284234
0.001140842872
0.000947948585
0.0007314843295
0.0005195483085
0.0003727645788
0.0002872455765
0.0002420622182
0.0002307573488
0.0002581138529
0.0003212460226
0.0003983884336
0.0004669088627
0.0005236939018
0.0005775445796
0.000631581046
0.000677225227
0.0006982805251
0.0006827481721
0.000604231255
0.0004321333915
0.0001375724894
0.001385744656
0.001440016918
0.001453541938
0.001444208633
0.001436651456
0.001294379958
0.001075930652
0.0008324043283
0.0006199084097
0.0004649812122
0.0003661692686
0.0003019342793
0.0002570765977
0.0002354819117
0.0002525532585
0.0003085981975
0.0003804532247
0.0004447351647
0.0004958166648
0.0005410664828
0.0005867469124
0.000628923585
0.0006537700019
0.0006588725106
0.0006137506466
0.0004424456805
0.0001349675214
0.001416128546
0.001448428854
0.001451724979
0.0014285122
0.00138277771
0.001252974503
0.001029635191
0.0008031595341
0.0006357167075
0.0005328955084
0.0004695637588
0.0004159658554
0.0003569801536
0.0003055174388
0.0002905723088
0.0003184749586
0.0003686944089
0.0004193512558
0.0004610352218
0.0004972583001
0.000535434838
0.0005751880455
0.0006032594274
0.0006250149234
0.0006102155868
0.000443396905
0.0001332123422
0.001419389392
0.001442545308
0.00143861777
0.001406214695
0.001340925297
0.001214215461
0.001010977517
0.0008430293691
0.0007445713113
0.0006957133161
0.0006560303866
0.0005963492805
0.0005140538006
0.0004306412365
0.0003770515969
0.000362602638
0.0003732517732
0.0003934678882
0.0004150559759
0.0004392640254
0.0004716683616
0.0005114736636
0.0005432368858
0.0005703997551
0.0005647447257
0.0004171417847
0.000132902726
0.001399790539
0.001420893748
0.001412670951
0.00137463994
0.0013010637
0.001167944623
0.001011065069
0.0009177146915
0.0008790518063
0.0008485619554
0.0008008212877
0.0007255174238
0.0006271538605
0.0005290604135
0.000457142786
0.0004158449798
0.0003900194361
0.0003744965182
0.0003685618868
0.0003760564058
0.0004013262063
0.0004410103816
0.000477061985
0.0005030181722
0.0004907425797
0.0003711578401
0.0001302482073
0.001358115408
0.001380579743
0.001370492403
0.001329365371
0.001252547729
0.00111462252
0.001004728758
0.0009624212464
0.0009370457295
0.0009049094166
0.0008504435634
0.0007664265188
0.0006614167883
0.000558405846
0.0004802363827
0.0004286060868
0.0003885486434
0.0003509585573
0.0003241450001
0.0003170543094
0.0003342297975
0.0003709510566
0.0004093381829
0.000434125644
0.0004178626684
0.0003251341858
0.0001252441283
0.001289059055
0.001314465111
0.001304176566
0.001261674665
0.001181993153
0.001051487737
0.0009607227694
0.0009319221383
0.0009053548277
0.0008683496471
0.0008070100096
0.0007176313282
0.000612726726
0.000516992077
0.0004450176188
0.0003935409415
0.0003484346615
0.0003061053552
0.0002747220281
0.000263489243
0.0002757993791
0.0003071259827
0.0003428497074
0.0003661971732
0.0003543397477
0.0002858933125
0.0001188238887
0.001171406159
0.001198479426
0.001188926523
0.001147105127
0.001066125931
0.0009502279053
0.0008610023975
0.0008227106115
0.0008010828809
0.000759696168
0.0006975682079
0.0006135930349
0.0005148475474
0.0004227179293
0.000356772882
0.0003121357884
0.0002755004963
0.0002429608299
0.0002211876669
0.0002158233766
0.0002275646797
0.0002522508152
0.0002797103491
0.0002986347003
0.0002939368021
0.0002477232759
0.0001118618108
0.0009219305871
0.0009428092216
0.0009342456251
0.0008976511807
0.0008312460245
0.0007459568031
0.0006692710569
0.0006183984546
0.0005837895914
0.0005477703078
0.0004990596932
0.0004358968834
0.0003671127188
0.0003072568726
0.0002638774399
0.000233065805
0.000207217553
0.0001848402137
0.0001717353502
0.0001720330421
0.0001833340772
0.0002001397807
0.00021647377
0.0002282202017
0.0002287214183
0.00020259822
0.0001031053933
0.00023023518
0.0002322307831
0.0002308085264
0.0002271439779
0.0002217214443
0.0002150107792
0.0002079359069
0.0002020096909
0.0001979889571
0.0001951157105
0.0001918343855
0.0001869267955
0.0001801142848
0.000171986319
0.0001632527485
0.00015389092
0.0001428587582
0.0001289361451
0.0001132698625
0.0001017183127
9.80614866e-05
9.732105639e-05
9.897184158e-05
0.0001031531925
0.0001054996623
0.0001052387482
9.186405117e-05
0.0008917204622
0.0009409430078
0.0009146114607
0.0008874063599
0.0008686310192
0.000783977813
0.000776051792
0.0008448585381
0.0008855249563
0.0008972055668
0.0008976260702
0.0008907283851
0.0008898972014
0.0009082642003
0.0009199460122
0.0007253548802
0.0007804989706
0.0009138888448
0.001027162633
0.00109174146
0.001116546801
0.001127588967
0.001106795422
0.001026053534
0.0009788990599
0.001045157691
0.001093656676
0.001105988589
0.001085290219
0.001047929251
0.001044936228
0.001067991203
0.001077918288
0.001051362842
0.000967780216
0.0008954567417
0.0009570858096
0.001052044078
0.001056250156
0.0008626942101
0.0002547578756
0.0005575343495
0.0007968108116
0.0008685021661
0.0009249600601
0.001020204204
0.00111598056
0.0011994694
0.001266516637
0.001306688335
0.001248080235
0.001249564817
0.001171135465
0.001231617367
0.001284096823
0.001282931826
0.001232379373
0.001240689432
0.001308338483
0.001331318775
0.00128596582
0.001221231873
0.001109756469
0.001033662766
0.001086127386
0.001162053933
0.001141504802
0.0009143192132
0.0002589866752
0.0006640609959
0.0008845890604
0.001011557545
0.00107240993
0.001127331968
0.001186880078
0.001261732149
0.001353966042
0.001414684051
0.001460221576
0.001332954232
0.001332591976
0.001412292352
0.001454128546
0.001411107004
0.001394977203
0.001517070876
0.001642103472
0.001666152502
0.001559788239
0.001410523343
0.001283837968
0.001183428465
0.00120043561
0.001252682997
0.001203974733
0.0009478059095
0.0002602988728
0.001035159077
0.001144457092
0.001202354021
0.001240355039
0.001274248281
0.001325899721
0.001412708511
0.001466168188
0.001464663137
0.001436298692
0.001504167696
0.001580786538
0.001597140762
0.001509985908
0.001513238291
0.00166181495
0.001782132684
0.001790336133
0.001681446634
0.001518206054
0.001428422429
0.001325781639
0.00129295213
0.001317374495
0.001241327764
0.000962782515
0.0002572547281
0.001153168345
0.001236696082
0.001290520348
0.001328847585
0.001365216016
0.001405720106
0.001464089809
0.001505011127
0.001517391442
0.001584318565
0.001669163484
0.001737397326
0.001778631124
0.001737026724
0.001701508834
0.001784097597
0.001868307103
0.001874143699
0.001790445177
0.001689585027
0.001633027648
0.001514609168
0.001400580109
0.001357155
0.001258436527
0.0009667325039
0.0002442396515
0.00122171206
0.001297008596
0.001349291182
0.001391877229
0.00143596864
0.001484848249
0.001524408022
0.001553879618
0.001636059824
0.001808633664
0.001846156646
0.001874836416
0.001921935277
0.001946036225
0.001915083292
0.001896700999
0.001911161958
0.001919911996
0.001903045199
0.001873760522
0.001802787032
0.001650743639
0.001481221274
0.001372993662
0.001266434783
0.00097501249
0.0002262387994
0.001254037603
0.001335587152
0.001394247544
0.001443345039
0.001495916077
0.001552423521
0.001604750096
0.001663987686
0.001862533054
0.002103249294
0.002059009759
0.001992653964
0.002004531656
0.002043344643
0.002062846595
0.002044498222
0.002022314511
0.002027433205
0.002022283808
0.001984916698
0.001908019578
0.001782380641
0.001603774141
0.001422594607
0.001254710206
0.0009610573679
0.0002133844237
0.001258674465
0.00134976948
0.001433822219
0.001497443817
0.001554817234
0.001611451591
0.001665296295
0.001743553435
0.001988446475
0.00219679018
0.002161967678
0.0020261316
0.002025208799
0.002062125461
0.002089959796
0.00209446854
0.002085008247
0.002078545296
0.002057400896
0.002013418376
0.001948230715
0.001853493485
0.001702268436
0.001495971916
0.001264941578
0.0009365084479
0.0002097662766
0.001397749642
0.001384999767
0.001456752273
0.0015543713