/*--------------------------------*- C++ -*----------------------------------*\
  =========                 |
  \\      /  F ield         | OpenFOAM: The Open Source CFD Toolbox
   \\    /   O peration     | Website:  https://openfoam.org
    \\  /    A nd           | Version:  8
     \\/     M anipulation  |
\*---------------------------------------------------------------------------*/
FoamFile
{
    version     2.0;
    format      ascii;
    class       volVectorField;
    location    "1.1";
    object      U;
}
// * * * * * * * * * * * * * * * * * * * * * * * * * * * * * * * * * * * * * //

dimensions      [0 1 -1 0 0 0 0];

internalField   nonuniform List<vector> 
67451
(
(-0.04220842363 -0.1690497076 -0.06670108464)
(0.006529652633 -0.3532373371 0.0003911739137)
(-0.03201476129 -0.3237837391 -0.02897591159)
(0.03491743159 -0.3654425938 -0.06855284059)
(0.0221371479 -0.3570030443 0.04428101723)
(-0.03541211929 -0.3255339668 0.08012066451)
(-0.05314640436 -0.2939979431 0.03259903034)
(-0.03414096273 -0.2874601866 -0.003031945388)
(0.001957003607 -0.2935328591 -0.0211688688)
(0.04555680562 -0.3250211284 -0.006658522785)
(0.07279714756 -0.3593602884 0.0133460128)
(0.06730096652 -0.3713766256 0.01183682638)
(-0.07672595817 -0.350504505 0.07260818672)
(-0.09566875884 -0.3330832751 0.02917726663)
(-0.1253391044 -0.2974620193 -0.00668046771)
(-0.05244757296 -0.2706252921 -0.01501684206)
(-0.02903542168 -0.3538643978 -0.01073340501)
(-0.03873245366 -0.3343090586 -0.06929589642)
(0.0372184466 -0.3656781409 -0.0865191054)
(0.0406481211 -0.3779137867 0.031558335)
(-0.04412628305 -0.3609514852 0.07876352834)
(-0.07853808546 -0.3296447173 0.0378107326)
(-0.07035131944 -0.3184133738 0.005944190233)
(-0.04406904063 -0.3207330584 -0.005906076605)
(-0.002701790589 -0.3556345229 0.01233883783)
(0.01658848421 -0.4024572858 0.00678448569)
(0.08927829338 -0.5536573717 -0.1386239926)
(0.2454179675 -0.6692880672 -0.2529521227)
(0.3462982726 -0.6892886412 -0.1594020545)
(0.344162353 -0.6288454245 0.03084918658)
(0.2021751803 -0.5378690197 0.1877317753)
(-0.05871339495 -0.4079015609 0.1512079273)
(-0.1794725509 -0.3304766793 0.0006141854181)
(-0.2219504453 -0.2928706346 -0.08049733223)
(-0.1910185636 -0.2781039623 -0.1313691063)
(-0.1224327749 -0.2879943503 -0.1581668579)
(-0.03677978394 -0.3263592388 -0.1609704649)
(0.03089377395 -0.331045878 0.1241169954)
(-0.001064017343 -0.2701954906 -0.04516473935)
(0.03737886907 -0.3778475397 -0.002926612536)
(-0.04515116322 -0.3589126076 0.04795396356)
(-0.05776554641 -0.3573822064 0.0388661207)
(-0.08743445353 -0.3252142083 0.03172611488)
(-0.06005440319 -0.2903868462 0.0269844635)
(-0.0664044688 -0.3387665912 -0.009954495435)
(-0.05434867005 -0.3027440123 -0.08701296968)
(0.0314078319 -0.3284307615 -0.07818437038)
(0.02103579464 -0.3719767264 0.0500657986)
(-0.07390586036 -0.3697895184 0.06825524239)
(-0.1161929949 -0.3497962628 0.04036713092)
(-0.1208125197 -0.3408699558 0.01940137101)
(-0.1118366441 -0.3466173641 0.01275412816)
(-0.09364300367 -0.3836334347 0.004343911025)
(-0.07303364896 -0.4406859444 -0.09001369013)
(0.09987694003 -0.5610698057 -0.364523825)
(0.3117359182 -0.6324134984 -0.4884018339)
(0.4549772113 -0.650200806 -0.4135377216)
(0.5077398975 -0.6086568293 -0.2000206867)
(0.3596153261 -0.5112903309 0.09605875199)
(0.04283991999 -0.3873026722 0.1870283385)
(-0.1377353592 -0.2970129643 0.02945787119)
(-0.1975436742 -0.2305446074 -0.07236016528)
(-0.1858385475 -0.1982071738 -0.1337694965)
(-0.1313337104 -0.1927440791 -0.1696637766)
(-0.04838279602 -0.2121840367 -0.1946095388)
(0.02754782498 -0.376807968 0.1081626732)
(-0.01620159503 -0.328249659 0.03707856171)
(0.008667485435 -0.3905169146 -0.03763689524)
(-0.009798257366 -0.3779521094 0.00658778641)
(-0.01310147226 -0.383657528 0.02257159622)
(-0.03743433096 -0.3638926212 0.03647069896)
(-0.03853600208 -0.3340664056 0.05536565096)
(-0.06548250209 -0.3375935027 0.01129685742)
(-0.0460284819 -0.2920944237 -0.05950745042)
(0.01573605305 -0.3058520406 0.01290524085)
(-0.05829026859 -0.3695161789 0.07591972145)
(-0.1332047754 -0.3687250506 0.04364862467)
(-0.1717016419 -0.355358789 0.02589118715)
(-0.1878072302 -0.3456532036 0.01897438976)
(-0.2083286116 -0.346296647 0.0005488683987)
(-0.2200029873 -0.3618262725 -0.08654354374)
(-0.1551493573 -0.381404232 -0.2998840314)
(0.1013569784 -0.4090279135 -0.6071358183)
(0.3658715803 -0.4326676066 -0.6998468922)
(0.5594626014 -0.4421625 -0.6349411667)
(0.6620394473 -0.4254961041 -0.4757103744)
(0.5960827194 -0.3856711495 -0.1681008626)
(0.2780484018 -0.3247063291 0.1376581385)
(-0.04129240921 -0.2479057543 0.08453644257)
(-0.1510975212 -0.1623522498 -0.05455048138)
(-0.1704927385 -0.1098640067 -0.1330128385)
(-0.1354845942 -0.08945331854 -0.1828216193)
(-0.05495434619 -0.09592299302 -0.2307694683)
(-0.01940454735 -0.3625492913 -0.008226341732)
(0.01424021556 -0.3726799602 -0.07887141358)
(0.02657325178 -0.3789347185 -0.03078980922)
(0.02854917992 -0.3894160907 -0.0018169098)
(0.01256587971 -0.3826607392 0.01574813507)
(-0.001348830196 -0.3605020696 0.04986224974)
(-0.04554851714 -0.3454372137 0.02657868028)
(-0.03981095646 -0.2978263815 -0.02192946562)
(-0.02890336358 -0.3245125132 0.05870635502)
(-0.1352771571 -0.3635702082 0.04887515373)
(-0.19127551 -0.3499308359 -0.01032797109)
(-0.2183637204 -0.3255628936 -0.02243793821)
(-0.2389893921 -0.2950190593 -0.01664887331)
(-0.2792421905 -0.261670359 -0.05341025978)
(-0.2887434411 -0.227073329 -0.199865235)
(-0.1822269953 -0.1897579865 -0.4758743912)
(0.1053641825 -0.1275510756 -0.7893480539)
(0.4066516023 -0.1012297203 -0.8640448318)
(0.6316937618 -0.1206634409 -0.8009297509)
(0.76206176 -0.1527361872 -0.6828776203)
(0.7754198097 -0.1491126855 -0.4598897992)
(0.5823388822 -0.1235988017 -0.07308474633)
(0.1904742295 -0.0954965927 0.1314734205)
(-0.07198184976 -0.01918047102 -0.01291612748)
(-0.1322935127 0.02801004952 -0.1164690872)
(-0.1301893487 0.05585076267 -0.1810058872)
(-0.05888097311 0.07131490756 -0.2499560915)
(-0.005040599371 -0.325139123 -0.02900395465)
(0.02206025155 -0.3350517363 -0.08823531093)
(0.05072285401 -0.3555681776 -0.05140727739)
(0.05553037428 -0.3724961982 -0.02198418365)
(0.04983385721 -0.3760596991 -0.006923821873)
(0.0369285698 -0.3631334392 0.02298171115)
(-0.009634344979 -0.3449058157 0.03152075064)
(-0.02722487214 -0.2950389945 0.02415750306)
(-0.07537839916 -0.3184778136 0.06799250567)
(-0.1780385442 -0.3370754351 0.004842469291)
(-0.2056756342 -0.2995965105 -0.07180945798)
(-0.2069953907 -0.264502234 -0.09678094827)
(-0.1883206112 -0.2217452445 -0.08493492821)
(-0.1764816528 -0.1677053932 -0.07799081448)
(-0.1526270155 -0.08352115969 -0.06673122778)
(-0.1091083943 0.04548775288 -0.1714428445)
(0.09673712231 0.2176088617 -0.4977530811)
(0.3658583878 0.2726498365 -0.6278399698)
(0.5441936492 0.2722924069 -0.5422556208)
(0.626359253 0.2382237784 -0.3324484484)
(0.5393554092 0.1874299258 -0.045038167)
(0.3229484149 0.1362694826 0.1628818995)
(0.04573544953 0.1046459861 0.1468863102)
(-0.1026216559 0.1088607029 -0.01675736524)
(-0.133479632 0.1345312142 -0.1026870824)
(-0.1255273234 0.1614440293 -0.1575722295)
(-0.06252664675 0.1825945628 -0.2183288527)
(0.004172147713 -0.2932542375 -0.008198070102)
(0.01841802275 -0.2998439634 -0.05226035104)
(0.05708738664 -0.3278052306 -0.0469404704)
(0.06700881125 -0.3469630158 -0.03368875138)
(0.07329976552 -0.3546366244 -0.02587702278)
(0.07002353083 -0.3500866585 -0.002958767646)
(0.03653661713 -0.3388715143 0.02787296432)
(-2.233361317e-06 -0.2994183234 0.07389132997)
(-0.08466835523 -0.2894262576 0.07500618512)
(-0.1513554249 -0.3038662357 0.0130572547)
(-0.1613507524 -0.2242996712 -0.07084541807)
(-0.1735516654 -0.1869578804 -0.1150128166)
(-0.151796803 -0.1415055652 -0.1162629779)
(-0.1387260345 -0.0990213828 -0.1163436003)
(-0.08760092349 -0.04821987321 -0.06011056873)
(-0.0490887981 0.04721335391 -0.005028312436)
(0.05808326947 0.2788159937 -0.1781998931)
(0.2989735062 0.3881694503 -0.3359743748)
(0.4466399857 0.3771250982 -0.2256435824)
(0.5016619422 0.2681283741 -0.02093375846)
(0.4412305715 0.1416182394 0.1284023133)
(0.3306744239 0.07846419985 0.1817748021)
(0.1689261132 0.07742029643 0.1934705291)
(-0.01462002388 0.1386567846 0.05997760864)
(-0.06973759811 0.1993614253 -0.07070745229)
(-0.08881130184 0.2425812441 -0.1323580531)
(-0.0523879203 0.2615153456 -0.188553075)
(0.008603335431 -0.3078270756 0.04029328982)
(0.01074090534 -0.3021888457 0.01193901354)
(0.05475259455 -0.3156268746 -0.03044018427)
(0.06930580442 -0.3236416974 -0.03899680914)
(0.08734442539 -0.3279411946 -0.03936375539)
(0.0923682128 -0.3273489387 -0.02229921821)
(0.0697900461 -0.326105849 0.007376779772)
(0.06244461074 -0.3261299739 0.04628838328)
(-0.01080461066 -0.3055265117 0.07521911379)
(-0.009986386878 -0.4350617101 0.0797754701)
(0.0153986722 -0.1988362981 0.05813782147)
(-0.05065268209 -0.1182738437 0.02988467603)
(-0.04503745168 -0.041742815 -0.007052499325)
(-0.04157232675 0.01265888253 -0.04154474474)
(-0.005478702144 0.03311113001 -0.04395052708)
(0.02881050155 0.07332554508 -0.008449015624)
(0.072393623 0.1969987659 -0.002433768015)
(0.23751765 0.3237819923 -0.06775547023)
(0.3535209039 0.2998556695 0.01216860319)
(0.3947656185 0.2088929256 0.08404685004)
(0.3713933716 0.1387479297 0.09795878199)
(0.3097751389 0.1100987491 0.1007046251)
(0.2161309969 0.1143388127 0.1364270782)
(0.0715953391 0.1679601503 0.1222443217)
(-0.01610095211 0.2510959177 -0.01666098701)
(-0.04660995894 0.3034699343 -0.1067844365)
(-0.03641214272 0.3142160885 -0.1691025878)
(0.02990689738 -0.3635965282 0.02475633684)
(0.02510960577 -0.3388973614 0.029002233)
(0.068516062 -0.3122592862 -0.02573403391)
(0.08171944733 -0.2984918376 -0.04307306634)
(0.1018048733 -0.293892558 -0.04733349328)
(0.108293828 -0.2928045375 -0.03344786592)
(0.08071804597 -0.2967706293 -0.006880220273)
(0.08449167179 -0.2956615831 0.02434230777)
(-0.1289327822 -0.2999101181 0.04925984388)
(0.04577621884 -0.1898976071 -0.0669730584)
(0.2667973963 -0.1931003834 0.05653523349)
(0.07848411633 -0.1253038504 0.06482181612)
(0.05327578692 -0.06248837964 0.04321950658)
(0.04549408069 -0.002275612832 0.01296547788)
(0.06958813298 0.03801987314 -0.01494917001)
(0.09743477548 0.07859234253 -0.01493446486)
(0.1339494976 0.1361060251 0.007618084085)
(0.2227402796 0.2042944969 0.02199440944)
(0.3049640229 0.1941109459 0.04562050242)
(0.3428132804 0.1531850319 0.04779072436)
(0.3423203947 0.120397086 0.04013364163)
(0.314213869 0.1077575384 0.04410110878)
(0.2607544431 0.1190952798 0.07569903476)
(0.1612656614 0.1640387653 0.119019082)
(0.05566528179 0.2571600608 0.06471731771)
(-0.005635875039 0.3442798959 -0.0574147299)
(-0.01401794259 0.3520996844 -0.156141101)
(0.09221772897 -0.4176360221 -0.06011964699)
(0.09075560556 -0.3519005439 0.02331269907)
(0.1050431063 -0.2986515239 -0.01342786919)
(0.1073816018 -0.2642507109 -0.03856866304)
(0.1194674337 -0.2502026053 -0.04775488685)
(0.1237776406 -0.2480311225 -0.03745788466)
(0.1162740108 -0.2555498727 -0.01811791965)
(0.1164351515 -0.2525010536 -0.009040485626)
(0.09145941454 -0.2715953181 -0.001261368392)
(0.1252209646 -0.03550197741 0.01300337512)
(0.1682055435 -0.1348825742 0.03663708509)
(0.1285535423 -0.07495102052 0.03182796)
(0.1091281139 -0.0245213773 0.01085703824)
(0.107319848 0.03114748248 -0.01594176892)
(0.1244155409 0.07266338763 -0.0378921189)
(0.1526063753 0.1077547773 -0.04566929993)
(0.1894107034 0.1409874744 -0.03735708905)
(0.2433783284 0.1706422673 -0.02158203515)
(0.2964017961 0.1716012006 -0.01340891406)
(0.3268521928 0.1587769688 -0.01185891158)
(0.3340012089 0.147245671 -0.008878063249)
(0.320721274 0.1436996663 0.002204494641)
(0.2866400254 0.1521203297 0.02915867153)
(0.2207517152 0.1796908577 0.07801434254)
(0.1237381369 0.2521704939 0.09929733358)
(0.03609727177 0.3535301534 0.01884513757)
(0.001604338585 0.3912444272 -0.123026923)
(0.1946244493 -0.3878189862 -0.2739890433)
(0.2308023538 -0.3284951272 -0.05347426863)
(0.1815382449 -0.265073089 -0.003839001317)
(0.1467031587 -0.2185334249 -0.02233422523)
(0.1367087032 -0.1973043953 -0.03793257815)
(0.1306713206 -0.1957794363 -0.03326995395)
(0.1243648349 -0.2105583991 -0.02759133979)
(0.1331275452 -0.2286072423 -0.0471594752)
(0.1430684701 -0.237835137 -0.0578718529)
(0.183200324 -0.1802076473 -0.03406507962)
(0.2154382884 -0.1469137591 0.0005634863793)
(0.1931823633 -0.07438693682 0.01352947866)
(0.1746459831 -0.0017935887 -0.002577204928)
(0.1665136358 0.0633958871 -0.02607585552)
(0.1745278787 0.1137033282 -0.04778832258)
(0.195783774 0.1503849121 -0.06071479076)
(0.2266814898 0.1770716358 -0.06276357893)
(0.2650918605 0.1948770421 -0.0571645832)
(0.3017485877 0.198310654 -0.05086877433)
(0.3261780496 0.1939975486 -0.04413326164)
(0.3352895907 0.1889597948 -0.03516723116)
(0.3283819851 0.1874902073 -0.0218641873)
(0.3044834361 0.1930291562 0.0003799500813)
(0.2566745248 0.2105194307 0.03903755408)
(0.177389998 0.2572508002 0.08642209589)
(0.07599699763 0.3487735715 0.07229111809)
(0.0145878765 0.4159774478 -0.05694866734)
(0.3122951994 -0.1461022702 -0.5804209816)
(0.4180415742 -0.1776947918 -0.2559447414)
(0.3223800573 -0.1765625269 -0.04647937281)
(0.2084162744 -0.1410159556 -0.0006862241554)
(0.1543426507 -0.1200980422 -0.0150311022)
(0.1256221535 -0.1238009127 -0.02203297619)
(0.1142945729 -0.147841328 -0.04571048615)
(0.1419120739 -0.1650708932 -0.09870186496)
(0.1856286403 -0.1664638115 -0.123547669)
(0.2370302181 -0.1311080393 -0.1070579094)
(0.2730733323 -0.09600144711 -0.06081856085)
(0.272243528 -0.02666150903 -0.01388109531)
(0.2511716772 0.05565460524 -0.0009352297327)
(0.2278345602 0.1241199127 -0.01614345037)
(0.2204037322 0.174743616 -0.04044468607)
(0.229448546 0.2099889225 -0.05961508067)
(0.250668263 0.2330051927 -0.06896245096)
(0.2787777747 0.2459842913 -0.06976023817)
(0.3063906219 0.2494681312 -0.06546929583)
(0.3265438209 0.2473758678 -0.05776426419)
(0.3355010841 0.2435707439 -0.04737433502)
(0.3313832304 0.240914368 -0.03423733783)
(0.3127398282 0.242419438 -0.01600225372)
(0.2753883402 0.2521378259 0.01305427605)
(0.2117058041 0.280149592 0.05782675868)
(0.1115960715 0.347431801 0.08625635152)
(0.02994655817 0.4241253145 0.0127958066)
(0.3548881432 0.1848994461 -0.639277301)
(0.4730172525 0.1394696988 -0.312650891)
(0.3567959185 0.06659596784 -0.04299416886)
(0.2090642043 0.00865183816 0.03186651476)
(0.1328266126 -0.02528699522 0.007102984296)
(0.08842400592 -0.04704058061 -0.02733225162)
(0.08771614109 -0.07335316651 -0.09214383252)
(0.1437766096 -0.07972712703 -0.1621914058)
(0.2111520131 -0.07620654386 -0.1883785297)
(0.2789408093 -0.05447586389 -0.1774262903)
(0.3273825478 -0.01879232554 -0.1373561394)
(0.3436800119 0.03969858063 -0.07921710836)
(0.3239560305 0.1125966613 -0.02697865625)
(0.2893844663 0.183485744 -0.01019951881)
(0.2642103348 0.2374148971 -0.02396384061)
(0.2576743956 0.2733415144 -0.04601700634)
(0.2669309217 0.2952572591 -0.06184230143)
(0.2855304568 0.3064009281 -0.06823640909)
(0.3062021683 0.3093072864 -0.06701237085)
(0.3225637296 0.307083949 -0.06050142956)
(0.3303988782 0.3023810458 -0.05065685618)
(0.3273617661 0.2973499472 -0.03864382138)
(0.3118635828 0.2946436315 -0.02363012544)
(0.2812924599 0.2982516318 -0.001539849619)
(0.2292660814 0.314307519 0.0337508389)
(0.137675766 0.3587033954 0.07538891282)
(0.0481410317 0.423635735 0.06111022231)
(0.3119256494 0.343749677 -0.3484676398)
(0.307461404 0.2396555693 -0.02919654857)
(0.1982656891 0.1447674639 0.07000291991)
(0.09589350546 0.092991458 0.05815476554)
(0.01659030533 0.06467244807 0.01734668341)
(-0.02017165481 0.05759194662 -0.06336729077)
(0.02362576834 0.03995613749 -0.1438642715)
(0.1316448805 0.05518652648 -0.2039099264)
(0.2287820738 0.06856909465 -0.2199722058)
(0.3213715771 0.09502029885 -0.2138828695)
(0.3881710455 0.1275975299 -0.1852899343)
(0.4195248325 0.1683569849 -0.1354648574)
(0.4125183291 0.2163806105 -0.07486937017)
(0.3744907123 0.2653226718 -0.02655872196)
(0.3269389076 0.3074192825 -0.01100030371)
(0.2938223346 0.3383954995 -0.02407728916)
(0.2832200977 0.3578038754 -0.04418373716)
(0.2888482248 0.3672457318 -0.05699990294)
(0.3014034512 0.3690927462 -0.06021433868)
(0.3131618495 0.3658377236 -0.05619433858)
(0.3189466674 0.3594421962 -0.04788748773)
(0.315981983 0.3516588801 -0.03748770848)
(0.3027404429 0.3449826112 -0.02525848312)
(0.2769702846 0.3434772739 -0.0084008521)
(0.2341112681 0.3515906922 0.01867221513)
(0.1519763026 0.3801802183 0.05886058567)
(0.06523288734 0.4254031448 0.08295493597)
(0.2425695247 0.3424903707 -0.02959958639)
(0.1550744398 0.2387486974 0.114808688)
(0.1084034569 0.1747600477 0.07819659711)
(0.03688689947 0.1500152225 0.06081719027)
(-0.03899872056 0.126143339 0.03523570617)
(-0.07521706487 0.1149830385 -0.03520858653)
(-0.0170711618 0.08349959205 -0.09971825362)
(0.1324692969 0.1115109731 -0.1740209945)
(0.2474225514 0.1462458346 -0.1895826697)
(0.3543633216 0.189522576 -0.1895248069)
(0.4315898459 0.2326848469 -0.1733122101)
(0.4733337165 0.2749950152 -0.1402486062)
(0.47796215 0.3160798114 -0.09224259717)
(0.4468437441 0.3529506833 -0.0389108174)
(0.3901449124 0.3830843269 -0.002620559704)
(0.3335567071 0.4050683975 -0.0006911520985)
(0.2997986629 0.4180449716 -0.02076158955)
(0.2896086082 0.4235922615 -0.03968010519)
(0.2924388354 0.423319408 -0.04805441672)
(0.298487865 0.4184896184 -0.04716414435)
(0.3013460393 0.4100997158 -0.0408717781)
(0.2978017281 0.3995001926 -0.03239124644)
(0.2863914886 0.3892204644 -0.02278100276)
(0.2647720646 0.3834828519 -0.009995978875)
(0.2296066267 0.3861087268 0.01116138725)
(0.1559757703 0.4048612293 0.04612978535)
(0.07703498082 0.4342684172 0.08747447228)
(0.1946829872 0.2212191597 0.1261720197)
(0.0854575643 0.1946275865 0.1241993921)
(0.06777520808 0.1718169248 0.0747714186)
(0.007156478911 0.1913681339 0.07583247292)
(-0.05491717295 0.1847836156 0.07901249555)
(-0.1110438096 0.1591794813 0.01011224826)
(-0.03869739249 0.06993769641 -0.0833712034)
(0.1490592988 0.1410503975 -0.1183999612)
(0.2946739073 0.2133609792 -0.1262986089)
(0.4130769339 0.279656008 -0.1320466868)
(0.4893972532 0.3339106561 -0.1307983108)
(0.5268492303 0.3759139104 -0.1169793373)
(0.5303994445 0.4085604687 -0.08597792669)
(0.5015316051 0.4338703018 -0.0384142887)
(0.4395326203 0.4526173903 0.00686953756)
(0.3667556847 0.4652996899 0.02079286619)
(0.3132626376 0.4715238258 0.003507430355)
(0.2874148679 0.4715482887 -0.01989337376)
(0.279851774 0.4680836051 -0.03293214059)
(0.2793512762 0.4612476608 -0.0349955741)
(0.2785836631 0.4506909424 -0.03078007197)
(0.2740850662 0.4373223009 -0.02446147829)
(0.2644001091 0.4239155892 -0.01752763151)
(0.2467658697 0.4150342044 -0.008114884658)
(0.2182803943 0.413898868 0.008902840787)
(0.1521928898 0.426779379 0.03907855962)
(0.08211051153 0.4473036616 0.08568124332)
(0.3098354738 0.1945674651 0.08165129304)
(0.16182721 0.1594064962 0.1255814203)
(0.09842693544 0.1461277261 0.09586272972)
(0.03923315097 0.1746296297 0.08361507502)
(-0.00444339172 0.1826714609 0.07877805867)
(-0.07685889949 0.1818832276 -0.05694385323)
(0.07079135947 0.08449030568 -0.2886219894)
(0.2121327209 0.1008470287 -0.2623939495)
(0.3684306292 0.1936210448 -0.2003748868)
(0.4829768789 0.2987658809 -0.1501653573)
(0.5489139273 0.3849166582 -0.1202293707)
(0.5738157688 0.4413018171 -0.09972635617)
(0.5691579544 0.4731495304 -0.07206688206)
(0.5353961568 0.491392054 -0.02670745081)
(0.4677955219 0.5022105538 0.0215178919)
(0.3849888906 0.5083485814 0.04076411251)
(0.3180104447 0.5098933012 0.02464308373)
(0.2805026662 0.5072590831 -0.001124955494)
(0.2638563577 0.5009748709 -0.01674854274)
(0.2568270588 0.4917791602 -0.02064291924)
(0.2522014732 0.478738728 -0.01829252898)
(0.246735872 0.4626458121 -0.01447503146)
(0.2389379509 0.4467433323 -0.0104684878)
(0.2248785683 0.4355574613 -0.004071974923)
(0.2022706808 0.4323235537 0.01002018976)
(0.1431073779 0.4420074619 0.03666334328)
(0.08144376381 0.4589228572 0.08340900907)
(0.3669494933 0.2629887645 0.03463191497)
(0.1984930679 0.2058072113 0.1186332106)
(0.07643956636 0.1694618353 0.1149744063)
(-0.0434721591 0.1942603496 0.07870004394)
(-0.1002200174 0.2441139946 -0.05247076699)
(-0.07796357484 0.2889677275 -0.2357139064)
(0.1036506743 0.292868045 -0.4386808372)
(0.2645918269 0.3215463438 -0.4345010521)
(0.4285020059 0.3661517844 -0.3638954588)
(0.5510711538 0.422412602 -0.2765433672)
(0.6193569476 0.4737652897 -0.1999370815)
(0.6383399777 0.5064996918 -0.1365409134)
(0.6207527903 0.5217218826 -0.07542540996)
(0.567900472 0.527193785 -0.01051698811)
(0.4857095183 0.5298616465 0.04343187488)
(0.3908402056 0.5312168899 0.06207902027)
(0.3134343435 0.5300110548 0.04330673778)
(0.2672817312 0.5256918568 0.01562065448)
(0.2436595003 0.5182609283 -0.0003966930117)
(0.2312046549 0.5071537023 -0.00466228968)
(0.2234822754 0.4916690477 -0.004132055106)
(0.2176629984 0.4733615021 -0.003396386497)
(0.2118757311 0.4559227711 -0.002568929106)
(0.2010732775 0.4437720215 0.001284243201)
(0.1835085049 0.4399697212 0.01327132196)
(0.1307747581 0.4482476536 0.03736147644)
(0.07676247789 0.4642749612 0.08218015344)
(0.3407284487 0.3298235162 0.05354519783)
(0.1898573643 0.2628372487 0.1075643221)
(0.09257406249 0.2317462996 0.08476523414)
(-0.01839476406 0.255905603 0.08125934138)
(-0.1030006216 0.3194614275 -0.03224762998)
(-0.08446971156 0.3755922759 -0.2426460337)
(0.1219698701 0.4307718124 -0.4373503322)
(0.3028072307 0.4726006779 -0.4437755246)
(0.4798679426 0.509573905 -0.3944167558)
(0.6093110874 0.5426429629 -0.321837192)
(0.6786547836 0.5654714116 -0.2421104077)
(0.6918736012 0.5719790681 -0.1536955686)
(0.654536575 0.5635623275 -0.05895210136)
(0.5806037895 0.5498516746 0.02249997484)
(0.4821437716 0.5398407369 0.07426716383)
(0.3780971705 0.5353496837 0.0836239313)
(0.2963742831 0.5320311407 0.05889109814)
(0.2466175205 0.5262051367 0.03094138091)
(0.2188819542 0.516825511 0.01671659152)
(0.2029701011 0.5034518922 0.01241786003)
(0.1937201144 0.4863222953 0.01030319913)
(0.1885329531 0.4676584706 0.007382365885)
(0.1849785956 0.4509146195 0.005210193769)
(0.1770284743 0.4397942072 0.007127536899)
(0.1635707938 0.4366589235 0.01772245942)
(0.1167947959 0.4445888679 0.03980667879)
(0.06963485801 0.4603544732 0.08159364648)
(0.2577843011 0.3717965791 0.08801927085)
(0.1480885497 0.3048504405 0.07513378447)
(0.1028567488 0.2821395242 0.03217288353)
(0.05282960695 0.2967714109 0.04587416311)
(0.01000111642 0.364685728 0.04384739301)
(-0.02728250014 0.4436314573 -0.1376255301)
(0.1714378575 0.5424498136 -0.3596599004)
(0.342976079 0.6023533397 -0.3874078019)
(0.5109817644 0.633371617 -0.3565796832)
(0.631797138 0.6454350627 -0.2965006983)
(0.6929366658 0.6407504007 -0.2113574465)
(0.6915137814 0.6167141877 -0.1011675559)
(0.6373772329 0.5801106707 0.003992742028)
(0.5505808743 0.5463443039 0.07559849945)
(0.4451353837 0.5255911777 0.1077266021)
(0.3424207773 0.5182158112 0.1002118994)
(0.2661671514 0.5145362259 0.06988135082)
(0.2196735842 0.5074395375 0.0447591652)
(0.1920686114 0.4957257461 0.03359685634)
(0.1754583188 0.4806271127 0.02852683343)
(0.1663113542 0.4638161771 0.02287273378)
(0.1621637739 0.447445481 0.01635239178)
(0.1603430186 0.4336694119 0.01194764195)
(0.1542405023 0.4252521717 0.01269320485)
(0.1438148097 0.4234437629 0.02260342878)
(0.1025802971 0.4314247518 0.0428377262)
(0.06142388422 0.4462126053 0.08083715487)
(0.1517642875 0.3872278902 0.08862057366)
(0.1004907641 0.3343514637 0.02326173276)
(0.105268699 0.318939449 -0.02104006226)
(0.108681805 0.3270033939 -0.009992124712)
(0.1254006987 0.3805902603 0.03537062133)
(0.1011947318 0.4525441295 -0.0262077388)
(0.2315972912 0.5855603406 -0.2213221004)
(0.3799481845 0.6659415057 -0.2778296965)
(0.5198759327 0.6952291304 -0.2609360161)
(0.6179706388 0.6901586209 -0.197996231)
(0.6573505642 0.6533037852 -0.097288864)
(0.6379093831 0.5982514671 0.01051637707)
(0.5756859897 0.543075128 0.08821956482)
(0.4864057227 0.5017386647 0.1263920901)
(0.3848334243 0.4821357071 0.1303542427)
(0.2936392139 0.4784481625 0.10669698)
(0.2309734124 0.4764670683 0.07503965981)
(0.193412691 0.4689026859 0.05511947698)
(0.1697283435 0.4561016655 0.04673398574)
(0.1543366945 0.4416992079 0.04028731066)
(0.1454830927 0.4283140352 0.03154948016)
(0.1412712781 0.4169975829 0.02259916251)
(0.1397686805 0.4077357138 0.01714806363)
(0.1339706718 0.4030236006 0.01722914787)
(0.1253853488 0.4021309166 0.02691556519)
(0.08941080918 0.4099943187 0.0454887167)
(0.05335213945 0.4226210185 0.07963837552)
(0.06131837655 0.3893939395 0.04999600489)
(0.06162864485 0.3559233891 -0.02470163001)
(0.09986723757 0.3465016818 -0.05888859041)
(0.1387823987 0.3488644032 -0.0532080454)
(0.1942599775 0.3782705844 -0.01367084894)
(0.2177300379 0.427247489 0.005230208759)
(0.2877832861 0.5574572719 -0.08468933618)
(0.4009039984 0.6450316034 -0.1305171313)
(0.5068938011 0.665297089 -0.1086041458)
(0.5744667369 0.6320429651 -0.03830232393)
(0.5917390827 0.572366856 0.04769522209)
(0.56312173 0.5074723551 0.1152799925)
(0.5013692773 0.4543684935 0.1500225689)
(0.4179338384 0.4249327247 0.1560315375)
(0.3264381598 0.4183443898 0.1380299958)
(0.251032989 0.4212978972 0.1043418435)
(0.2045535486 0.4212906276 0.07420806295)
(0.1779297393 0.4150383943 0.05852308466)
(0.1595902912 0.4045771221 0.05176183769)
(0.14509649 0.3944937002 0.0450667923)
(0.1346205835 0.3871442245 0.03569640243)
(0.1275700805 0.3823526003 0.02624421341)
(0.1242520546 0.3777835711 0.02089596501)
(0.116472821 0.3774554105 0.01951782819)
(0.1093958532 0.3753688271 0.0262151043)
(0.07918982506 0.3819005324 0.04428139254)
(0.04678609882 0.391139232 0.07766113854)
(0.002139469147 0.3862993816 0.008694860038)
(0.034270814 0.3710564909 -0.05140712001)
(0.092164615 0.3707060331 -0.07756520632)
(0.1481827826 0.3733634126 -0.07638839471)
(0.225359455 0.3896282091 -0.06390352372)
(0.284830207 0.4108379491 -0.01351825487)
(0.3314966781 0.4904612567 -0.006417059578)
(0.4089030479 0.5428333137 -0.00181083558)
(0.4800759331 0.53568136 0.03492404062)
(0.5215345972 0.4872460041 0.0889709833)
(0.5252888035 0.4246085259 0.1325035968)
(0.4951302069 0.3677497609 0.1515873579)
(0.4395214623 0.3328848757 0.1532888886)
(0.3648178458 0.3274057765 0.1471920555)
(0.2851467925 0.3396537251 0.1283584277)
(0.2261338287 0.351243714 0.09754839257)
(0.1948448031 0.3556420986 0.07088738056)
(0.178044005 0.3547754709 0.05654499786)
(0.1640201517 0.3511752387 0.05005892247)
(0.1486610699 0.3483395227 0.04468253044)
(0.1340938462 0.347753087 0.03717586311)
(0.121113294 0.3490305115 0.02865161308)
(0.1143124263 0.3485600309 0.02416063789)
(0.1004004877 0.3534509226 0.01856535177)
(0.09885870436 0.3545970762 0.007678895921)
(0.07718433945 0.3581785153 0.02895683146)
(0.0454643254 0.359938201 0.07483345488)
(-0.03005488697 0.3776743771 -0.01435842363)
(0.02107828774 0.3773230156 -0.05743429925)
(0.09103721673 0.3862533558 -0.07595620883)
(0.160196733 0.3921382242 -0.07397053102)
(0.239234628 0.4036484555 -0.06068401733)
(0.3047104029 0.4006457039 -0.01875737212)
(0.3488120234 0.4205228036 0.0225612321)
(0.3977933472 0.4179347039 0.06039266436)
(0.433167314 0.3765035651 0.09682043166)
(0.4468127238 0.3203915532 0.1149024535)
(0.4406737089 0.2754336638 0.1062553281)
(0.419286946 0.2504388173 0.08310031017)
(0.3854344507 0.2450506611 0.0666192203)
(0.3387865443 0.2540883741 0.0664678308)
(0.2864546234 0.2658809847 0.07144109349)
(0.2440249623 0.2738277637 0.06973838609)
(0.216780873 0.2819480088 0.06238783916)
(0.198608674 0.2917598628 0.05460029013)
(0.1817546368 0.3002749173 0.04919535059)
(0.1618524511 0.3071369462 0.04512980115)
(0.1412345801 0.3132492493 0.03954169029)
(0.1206020331 0.3192074173 0.03173088891)
(0.109324996 0.3226982939 0.02796320758)
(0.08617955139 0.3314716392 0.01785818559)
(0.09019129277 0.34204556 -0.01158666929)
(0.07560823426 0.3429101549 0.01323835491)
(0.03830241082 0.3280574261 0.05965919643)
(-0.04403723593 0.3631062791 -0.0263231956)
(0.01758365797 0.3704641162 -0.05320864488)
(0.0923282136 0.3837436217 -0.06382923444)
(0.1664255203 0.3894567659 -0.05877202995)
(0.2409725953 0.3903486051 -0.04242462258)
(0.3017546916 0.3727741121 -0.006648968596)
(0.3386177165 0.3533736243 0.03614515883)
(0.3611451972 0.3164172855 0.06884068129)
(0.3641883813 0.2640700552 0.07442735944)
(0.3598072947 0.2236249613 0.04983452401)
(0.3578417629 0.2084730454 0.01391099454)
(0.3576025998 0.2107882136 -0.0146404267)
(0.3543157522 0.2197659744 -0.02710261036)
(0.3433101248 0.2279752327 -0.02297020638)
(0.3241332686 0.2302728937 -0.007907033164)
(0.299751403 0.2283221633 0.01143514016)
(0.2718272656 0.2311032043 0.02944115056)
(0.2425629569 0.2422984933 0.04148761438)
(0.2132766635 0.2570053138 0.04729821812)
(0.1829599181 0.2706501769 0.04856838266)
(0.1536718124 0.2820448028 0.04504167144)
(0.1249094284 0.291507885 0.03692427495)
(0.1080021409 0.2994095135 0.03253832222)
(0.0759885553 0.3100934801 0.02141370866)
(0.07701109538 0.3329025999 -0.009384555563)
(0.05113746591 0.3386591714 0.01235217026)
(0.001998288398 0.3463619697 -0.0317468555)
(-0.05004407896 0.3444514102 -0.03439049088)
(0.01803513696 0.351437402 -0.04785780662)
(0.09244875623 0.363488 -0.04975920511)
(0.1658499104 0.3660887327 -0.04031715165)
(0.2329380991 0.3580354044 -0.020592433)
(0.2825575834 0.3309082677 0.01225492763)
(0.3018304907 0.2966888084 0.04184571805)
(0.3043286677 0.2606528411 0.04249670263)
(0.3004178537 0.2283659849 0.01282700822)
(0.3042697234 0.2122013298 -0.02548247709)
(0.3168056879 0.2138665596 -0.05444159736)
(0.3331882327 0.2251174206 -0.06970743014)
(0.3475586552 0.2363564895 -0.0730650924)
(0.3549618687 0.2406452892 -0.06732873271)
(0.3536296776 0.2359331869 -0.05441891803)
(0.3431437747 0.2268495432 -0.03524489251)
(0.321008288 0.2213290537 -0.01068821733)
(0.2893760835 0.2229875158 0.01473917965)
(0.2517462277 0.2301662143 0.03629748784)
(0.210711887 0.2403815399 0.0498372514)
(0.1708847227 0.2521224727 0.05213450701)