/*--------------------------------*- C++ -*----------------------------------*\
  =========                 |
  \\      /  F ield         | OpenFOAM: The Open Source CFD Toolbox
   \\    /   O peration     | Website:  https://openfoam.org
    \\  /    A nd           | Version:  8
     \\/     M anipulation  |
\*---------------------------------------------------------------------------*/
FoamFile
{
    version     2.0;
    format      ascii;
    class       volScalarField;
    location    "0.3";
    object      alphat;
}
// * * * * * * * * * * * * * * * * * * * * * * * * * * * * * * * * * * * * * //

dimensions      [1 -1 -1 0 0 0 0];

internalField   nonuniform List<scalar> 
67193
(
6.07994141e-07
7.191909486e-07
2.353470161e-06
3.011585521e-05
2.541020525e-06
7.334493487e-07
6.095163759e-07
6.040168239e-07
6.033724086e-07
6.75780504e-07
6.077733735e-07
6.034403504e-07
6.028049896e-07
6.026085694e-07
6.024654602e-07
6.023898757e-07
6.023207595e-07
6.02379794e-07
6.022464828e-07
6.021509835e-07
6.020345695e-07
6.019274633e-07
6.018340122e-07
6.017561383e-07
6.016934931e-07
6.016443836e-07
6.016066883e-07
6.015783179e-07
6.015574095e-07
6.015424122e-07
6.015318174e-07
6.015058616e-07
6.005662523e-07
4.923515815e-07
9.006252446e-07
3.978280344e-06
2.70821662e-05
0.0001883454435
2.609881088e-05
3.797489172e-06
8.980642102e-07
6.817617887e-07
6.790866462e-07
3.800125025e-06
9.489399182e-07
6.900251272e-07
6.657874891e-07
6.641402403e-07
6.639667533e-07
6.638771113e-07
6.638258318e-07
6.655790216e-07
6.639457991e-07
6.636788878e-07
6.635898281e-07
6.635263158e-07
6.634747098e-07
6.634335725e-07
6.634016954e-07
6.633773904e-07
6.633590556e-07
6.633453364e-07
6.633351549e-07
6.6332767e-07
6.633204942e-07
6.632494066e-07
6.61359967e-07
5.269565732e-07
5.201709957e-06
3.581268545e-05
0.000142069676
9.923917606e-05
0.0001276642656
3.103824928e-05
4.5548459e-06
1.052095749e-06
1.126828243e-06
4.263411059e-05
7.033947417e-06
1.477972581e-06
7.337632313e-07
6.700987565e-07
6.661573435e-07
6.658412992e-07
6.661799715e-07
7.665660695e-07
6.804620817e-07
6.67080341e-07
6.655018041e-07
6.653071224e-07
6.652267638e-07
6.651671674e-07
6.651221345e-07
6.650884268e-07
6.650633753e-07
6.65044852e-07
6.650312246e-07
6.650211626e-07
6.650083993e-07
6.648637415e-07
6.62308211e-07
5.272242024e-07
4.142590895e-05
0.000168938199
9.012411972e-05
0.0001251376328
0.0003460201025
0.0001450753122
3.379484984e-05
5.476352723e-06
8.140802317e-06
0.0002151971547
6.162485108e-05
1.303079744e-05
2.189497221e-06
7.861947126e-07
6.724784841e-07
6.672915817e-07
6.819542531e-07
3.30267515e-06
1.180325185e-06
7.331070048e-07
6.710974471e-07
6.658196421e-07
6.654189284e-07
6.653206998e-07
6.652577154e-07
6.652123396e-07
6.651794962e-07
6.651557785e-07
6.651387726e-07
6.651265507e-07
6.651113116e-07
6.649540066e-07
6.623442871e-07
5.272401802e-07
0.0001774794034
9.617317938e-05
0.0001224956803
0.0001491371712
0.0001151353078
8.918546428e-05
0.000145129178
3.42417028e-05
5.58383124e-05
0.0001050840778
0.0002576876489
9.032115847e-05
1.865994722e-05
2.732461478e-06
8.049305289e-07
6.965810801e-07
1.031097688e-06
3.123499596e-05
9.53129781e-06
2.219830664e-06
8.303814157e-07
6.769615331e-07
6.660661251e-07
6.654233749e-07
6.653147346e-07
6.652517365e-07
6.652084325e-07
6.651781545e-07
6.651570475e-07
6.651423904e-07
6.651255517e-07
6.649661815e-07
6.623515611e-07
5.272546271e-07
9.540696894e-05
0.0001299257213
0.0001575229316
0.0001809256329
0.0001425793515
0.0001194937325
0.0003400305396
0.000127016407
0.0002283786583
0.0001290465526
0.0001102080723
0.0003142762215
0.0001074472268
2.028781815e-05
2.533775312e-06
1.195499439e-06
6.206513662e-06
0.0001532285284
7.057488821e-05
1.914071876e-05
3.48565729e-06
9.255202708e-07
6.81025189e-07
6.661415928e-07
6.654058439e-07
6.65298352e-07
6.652401201e-07
6.652015483e-07
6.651755293e-07
6.651582101e-07
6.65139768e-07
6.649789986e-07
6.623600008e-07
5.272702821e-07
0.0001231637237
0.0001622194804
0.0002072757567
0.0002155237378
0.0001734018249
0.0001420706355
0.0001028279624
0.0002987873
0.0001104980452
0.000145990814
0.0001344239779
0.0001159062102
0.0003272551088
9.922623926e-05
1.501969607e-05
6.83618305e-06
4.772653889e-05
9.047216744e-05
0.0002579767677
0.0001075162865
2.645125267e-05
4.160021516e-06
9.439604419e-07
6.79716761e-07
6.659655385e-07
6.65366898e-07
6.652781475e-07
6.652296153e-07
6.651982046e-07
6.65178703e-07
6.651586832e-07
6.649965727e-07
6.623707101e-07
5.272851317e-07
0.0001349052081
0.0001838773103
0.0002419906393
0.0002315609552
0.0001937198569
0.0001523239152
9.577674306e-05
0.0001165363978
0.0001480712501
0.0001675275978
0.0001535978461
0.0001387538853
0.0001132683378
0.0002640728929
5.912749596e-05
4.628143078e-05
0.0002193394705
0.0001203948461
0.0001072712131
0.0003138098005
0.0001202513258
2.637379308e-05
3.652449544e-06
8.66920519e-07
6.741105151e-07
6.656677485e-07
6.653266694e-07
6.652625786e-07
6.652256369e-07
6.65206303e-07
6.651845012e-07
6.650217755e-07
6.62384714e-07
5.272973738e-07
0.0001596601048
0.0001010194589
0.0001523662865
0.0001971340407
0.0001103492915
0.0002828274214
0.0001134343093
0.0001536200964
0.0001953804625
0.0001947073201
0.000174157508
0.0001526313842
0.0001292117357
9.23641379e-05
0.0001215782427
0.0002169231573
0.0001147203069
0.0001511538812
0.0001346908485
0.0001104711896
0.0003033522746
0.0001022292526
1.881949893e-05
2.393177185e-06
7.607970536e-07
6.688237975e-07
6.65452359e-07
6.653058942e-07
6.652608149e-07
6.652485744e-07
6.652233949e-07
6.650612957e-07
6.62404461e-07
5.273070854e-07
1.273714648e-05
0.0001156837496
9.385553343e-05
0.0001439517002
0.0001465325051
0.0001709823021
0.0001150590607
0.0001734038255
0.000237571972
0.0002095548551
0.0001858924367
0.0001584417129
0.0001223455592
0.0002632678714
0.0001734841323
0.0001151548973
0.0001641244973
0.0001807770746
0.0001570187494
0.0001293032317
0.0001020486976
0.0002268990131
6.064982715e-05
8.821014857e-06
1.260331181e-06
6.916503145e-07
6.661461012e-07
6.653692786e-07
6.653104694e-07
6.653522729e-07
6.654209127e-07
6.651455705e-07
6.624363611e-07
5.273203444e-07
1.225028168e-06
8.249085884e-06
9.495880556e-05
0.0001047159644
2.558175459e-05
4.304214289e-05
0.0002491775545
0.0001318932188
0.0002141683683
0.0001862150911
0.0001496529049
0.0001516736556
0.0001152604562
0.0001854170441
8.940181326e-05
0.0001421573192
0.0001941923883
0.0001880269639
0.0001591277528
0.0001295127545
0.0001055471539
0.0003024868927
0.0001027178514
2.086885533e-05
2.896745178e-06
8.050013502e-07
6.705989401e-07
6.655748383e-07
6.654629267e-07
6.671027208e-07
6.744115016e-07
6.663670749e-07
6.625637516e-07
5.273643836e-07
1.03858781e-05
1.168725821e-06
5.884760789e-06
0.0001519557014
6.336672097e-06
4.330479155e-06
3.319223964e-05
0.0001771953698
0.0001168558124
0.0001392943677
0.0001117448409
0.0002081843914
0.0001762798468
0.0001244497192
0.0002072590302
0.0001130057305
0.0001510163566
0.000147929176
0.0001127092618
0.0002813153923
9.027514787e-05
2.142772023e-05
1.712658622e-05
8.541868064e-06
1.264571716e-06
6.895844732e-07
6.662231805e-07
6.657276299e-07
6.680461042e-07
7.301014876e-07
1.033464102e-06
7.181097458e-07
6.666326389e-07
5.276601789e-07
7.971911934e-05
9.023342106e-06
1.069680641e-06
1.660824092e-05
9.779081578e-07
1.384175913e-06
1.258647684e-05
9.41216145e-05
0.0003318998058
0.0001244609965
0.0001646065945
0.0002555319249
0.0002203306111
0.0001777114113
0.0001205492814
0.0002019880358
0.0002697601624
9.907522059e-05
0.000304897052
0.0001037623012
1.380688098e-05
1.371881608e-05
0.0001630908071
9.889466712e-05
1.384587342e-05
1.492047651e-06
6.912633296e-07
6.687389371e-07
7.47613199e-07
2.307550161e-06
8.789209159e-06
2.179241603e-06
8.0975866e-07
5.351275231e-07
0.0003548987465
7.347452824e-05
7.065365221e-06
1.241184296e-06
7.487753824e-07
4.179061272e-06
4.516581072e-05
0.0002343291748
0.0001145896764
0.0001557259549
0.0001896864386
0.0002935531841
0.0002604137914
0.0002109572435
0.0001620294568
0.0001029786504
0.0001357493501
0.0001704994925
8.962219515e-05
1.321613508e-05
1.157608378e-05
0.000140808335
0.0001323271672
0.000106159418
0.0001235687844
1.479412147e-05
1.383052891e-06
7.337559247e-07
2.558742113e-06
2.425217797e-05
8.337583442e-05
2.360429064e-05
3.8453911e-06
7.345059098e-07
0.000153168324
0.0003430989061
5.343502373e-05
3.487522051e-06
1.140288102e-06
1.358517773e-05
0.0001093700394
9.307080911e-05
0.0001386129114
0.0001777107569
0.0001928266299
0.0002589946784
0.0002495799156
0.0002081034252
0.0001599016457
0.0001007204195
9.785275848e-05
3.595996634e-05
1.20735476e-05
9.740493052e-06
0.0001420827557
0.0001276468086
0.0002308742974
0.0001946784311
0.0001138802054
0.0001409872673
1.598972512e-05
2.034746228e-06
2.422749317e-05
0.0001587587125
0.0003657970164
0.0001619150874
3.712339263e-05
3.989066925e-06
0.0002397120645
0.000153374037
0.0002555778674
2.298384577e-05
6.142324699e-06
8.219184386e-05
0.0003721924735
0.0001370022566
0.0001776214464
0.000211512147
0.0001637095729
0.0001455207343
0.0001278052357
0.0001065606566
0.0002896013779
9.714517758e-05
1.781052196e-05
4.210958253e-06
1.558198074e-06
3.897212776e-06
7.756285431e-05
0.0001173194938
0.0002591895849
0.000148493741
0.0001477182785
1.20609199e-05
1.125044393e-06
2.07301601e-05
0.0001575634787
0.0001036397026
0.0001351201498
0.0001083329016
0.000206803342
3.272085737e-05
0.0001931544429
9.449518045e-05
4.486235573e-05
4.730558651e-06
5.857869686e-05
0.0003204922701
0.0001341457443
0.0001775614326
0.0002110127618
0.0002548061827
0.00019023455
0.0001644700423
0.0001387983896
0.0001154731095
9.131501352e-05
0.0001961621003
5.967946383e-05
9.197510616e-06
1.211833803e-06
7.838859498e-07
6.809721146e-06
9.090387053e-05
0.0001361213433
0.0001963047695
1.854931611e-05
1.449590501e-06
1.405077003e-05
0.0001429115073
0.0001013318451
0.0001454423226
0.0001785101913
0.00015361627
0.0001135563605
0.0001535896417
9.596658679e-05
6.34786234e-05
4.274264484e-06
2.539422045e-05
0.0002066342659
0.0001193492803
0.0001662275343
0.0002020340984
0.0002388130089
0.0003054864593
0.0002442187162
0.0001939214691
0.0001565158022
0.0001285232453
0.000105143565
0.0003147592508
0.0001395598129
3.448178836e-05
4.114672517e-06
7.759274688e-07
9.382319861e-07
7.556742637e-06
0.0001296207439
1.572352739e-05
1.483122495e-06
9.155648664e-06
0.00010505536
9.205400563e-05
0.0001304459028
0.000182112195
0.000223055225
0.000193705873
0.0001557262075
9.73252717e-05
6.570671606e-05
6.454300716e-06
1.161367237e-06
1.855402122e-05
0.0001959967396
0.0001281852298
0.0001825163989
0.0002168386148
0.000254685076
0.0003266037924
0.000293386006
0.0002297775945
0.0001876714057
0.0001544271096
0.0001160959302
0.0002685094094
7.307012575e-05
1.115200594e-05
1.396636727e-06
6.87898787e-07
6.724811865e-07
8.904924049e-07
8.922962994e-06
1.1580739e-06
7.536205768e-07
3.577878101e-06
4.33395819e-05
0.0002521632392
0.0001349008212
0.0001913296416
0.0001577440084
0.0001119772649
0.0002174503734
5.802682573e-05
5.747851276e-06
1.001868967e-06
6.973530308e-07
2.642213659e-06
3.512399387e-05
0.0002212023697
0.0001189698206
0.0001688683418
0.0002203598917
0.0003200282144
0.000263221267
0.0001986465744
0.000159359193
0.0001226305584
0.0003255173399
9.976661379e-05
1.766606645e-05
2.247481691e-06
7.449165607e-07
6.680718825e-07
6.660914346e-07
6.700357331e-07
9.011317357e-07
6.741011638e-07
6.713316514e-07
8.575529695e-07
4.331588235e-06
3.675575026e-05
0.0001977039934
0.0001157811965
0.0001031702122
0.0001923751463
3.431156543e-05
4.031492732e-06
9.021716373e-07
6.795265229e-07
6.679919894e-07
7.975479315e-07
4.014028063e-06
3.786527066e-05
0.0001925850594
0.0001135140001
0.0001721153987
0.000251355852
0.0001971282884
0.0001601344738
0.000123687666
0.0003499950036
0.0001145871591
2.241614102e-05
3.004801767e-06
8.140898761e-07
6.717755557e-07
6.661012102e-07
6.657730681e-07
6.656974258e-07
6.690885923e-07
6.659568501e-07
6.66711148e-07
6.791573341e-07
9.462238269e-07
4.58801396e-06
3.301011069e-05
0.0001471127506
0.0001275928934
2.379305703e-05
1.845977802e-06
8.537413715e-06
6.733148102e-07
6.664761597e-07
6.662828143e-07
6.724573595e-07
8.618817381e-07
4.044607573e-06
2.985376346e-05
0.0001628292954
0.0001104244374
0.0001915428497
0.0001468228677
0.0001167332622
0.0003222818613
0.0001118622144
2.319633102e-05
3.35066261e-06
8.59071833e-07
6.752304987e-07
6.66340235e-07
6.658176943e-07
6.656272577e-07
6.655295055e-07
6.655215718e-07
6.65495722e-07
6.655817161e-07
6.663460044e-07
6.755985653e-07
8.280203488e-07
2.49518062e-06
1.384123995e-05
1.215348601e-05
2.248651493e-06
1.384306742e-05
6.18685297e-05
6.659949256e-07
6.659743512e-07
6.660308868e-07
6.666231554e-07
6.745379411e-07
8.599367428e-07
3.085082072e-06
2.367133787e-05
0.0001355174126
0.0001176512338
9.850640327e-05
0.0002464240978
8.77981596e-05
1.950055886e-05
3.073703963e-06
8.606580089e-07
6.766313673e-07
6.665711644e-07
6.659131025e-07
6.656973719e-07
6.655528985e-07
6.654759165e-07
6.654488391e-07
6.654874439e-07
6.656167371e-07
6.658964345e-07
6.66766981e-07
6.725873687e-07
7.313795191e-07
1.194276867e-06
2.770931909e-06
2.09313008e-05
9.628047371e-05
0.0001955991264
6.657491738e-07
6.658574886e-07
6.658838139e-07
6.66138535e-07
6.66553325e-07
6.740241981e-07
7.86341748e-07
2.327598014e-06
1.543810396e-05
0.0001219001581
0.000135785892
5.227075157e-05
1.233630937e-05
2.301580109e-06
8.109241508e-07
6.751529311e-07
6.666468773e-07
6.660226289e-07
6.657797869e-07
6.656226706e-07
6.655058225e-07
6.654325235e-07
6.653847291e-07
6.653630189e-07
6.65363378e-07
6.654029934e-07
6.6551357e-07
6.668240555e-07
7.075036508e-07
1.834768411e-06
1.926336571e-05
0.0001247877694
0.0003441841019
0.0001567236557
6.657556054e-07
6.657132181e-07
6.65812638e-07
6.658309866e-07
6.660075193e-07
6.661145941e-07
6.666216937e-07
6.705541831e-07
7.388258547e-07
1.470143173e-06
1.081149153e-05
2.104163104e-05
5.798187497e-06
1.460255214e-06
7.461637137e-07
6.719169824e-07
6.666211762e-07
6.661272677e-07
6.658984722e-07
6.65728361e-07
6.655948262e-07
6.65495249e-07
6.65427211e-07
6.653896006e-07
6.653917951e-07
6.654578297e-07
6.657911802e-07
6.761766123e-07
1.064320744e-06
8.542683537e-06
7.219173781e-05
0.0003070862028
0.000125212451
0.0001592110823
0.0001408714012
6.657262504e-07
6.657049838e-07
6.657949303e-07
6.657958868e-07
6.659330305e-07
6.659617895e-07
6.661753972e-07
6.663059759e-07
6.685616474e-07
6.919441281e-07
1.074654701e-06
2.091852085e-06
9.172826721e-07
6.963258205e-07
6.688428552e-07
6.664816203e-07
6.661857132e-07
6.660132009e-07
6.658467573e-07
6.657195929e-07
6.65600054e-07
6.655141552e-07
6.654420883e-07
6.653931427e-07
6.65362201e-07
6.653574174e-07
6.654041971e-07
6.657196209e-07
6.743141757e-07
9.283678684e-07
5.067866727e-06
3.7782651e-05
0.0001603435438
0.0003539724078
0.0001483122097
6.657298053e-07
6.65710468e-07
6.658053115e-07
6.657928522e-07
6.659241297e-07
6.659252163e-07
6.660972941e-07
6.661065373e-07
6.663904588e-07
6.668151846e-07
6.759394356e-07
7.168798249e-07
6.732564446e-07
6.67124904e-07
6.664245641e-07
6.662853427e-07
6.661478335e-07
6.660523198e-07
6.658933348e-07
6.657949159e-07
6.656655572e-07
6.655849665e-07
6.655030108e-07
6.654546958e-07
6.654265759e-07
6.654333017e-07
6.654869126e-07
6.656255113e-07
6.661904968e-07
6.771754306e-07
9.334732189e-07
4.354614998e-06
2.7825439e-05
9.836371438e-05
0.000173113515
6.657604586e-07
6.657314275e-07
6.658433725e-07
6.658063718e-07
6.659525893e-07
6.659108118e-07
6.660732737e-07
6.660267844e-07
6.662004383e-07
6.661276297e-07
6.664499999e-07
6.672146623e-07
6.664253715e-07
6.662935642e-07
6.662606626e-07
6.66244449e-07
6.661212615e-07
6.661123515e-07
6.659337579e-07
6.65887793e-07
6.657427224e-07
6.656873286e-07
6.655917332e-07
6.655365508e-07
6.654815819e-07
6.654525792e-07
6.654506881e-07
6.654997232e-07
6.656626744e-07
6.662784972e-07
6.745284624e-07
8.37355892e-07
2.88139968e-06
1.515860212e-05
5.469251202e-05
6.657713837e-07
6.659187029e-07
6.658371289e-07
6.660278408e-07
6.659278442e-07
6.661185227e-07
6.660236303e-07
6.661759401e-07
6.661036732e-07
6.66238073e-07
6.662204608e-07
6.662873662e-07
6.663130525e-07
6.663451862e-07
6.663979602e-07
6.663342407e-07
6.665343587e-07
6.695280591e-07
6.664804582e-07
6.659979326e-07
6.659164433e-07
6.657718098e-07
6.657083766e-07
6.656282132e-07
6.655921971e-07
6.655797793e-07
6.656033771e-07
6.656698722e-07
6.658171384e-07
6.66253344e-07
6.716315219e-07
7.668881373e-07
1.731238913e-06
8.510442008e-06
6.658326862e-07
6.660841991e-07
6.65886396e-07
6.661646014e-07
6.659734687e-07
6.663040121e-07
6.660572966e-07
6.662153571e-07
6.661141158e-07
6.662309592e-07
6.662102238e-07
6.662947232e-07
6.65816397e-07
6.657451436e-07
6.656887668e-07
6.656652311e-07
6.656718837e-07
6.657213547e-07
6.658251146e-07
6.660479439e-07
6.679571735e-07
6.958245494e-07
9.785062156e-07
6.660479797e-07
6.664209381e-07
6.660599748e-07
6.765042268e-07
6.663080861e-07
6.663193026e-07
5.722661081e-07
5.785643129e-07
6.19509099e-07
2.54652502e-06
6.403453443e-07
5.885757547e-07
5.785362038e-07
5.848375213e-07
5.782338275e-07
5.885531555e-07
5.798124679e-07
5.790658147e-07
5.767421903e-07
5.747921069e-07
5.734885939e-07
5.722355221e-07
5.714428878e-07
5.708325665e-07
5.698798555e-07
5.688685672e-07
5.678378849e-07
5.668326095e-07
5.659297233e-07
5.65149118e-07
5.644985753e-07
5.639734486e-07
5.635609738e-07
5.632449509e-07
5.630086213e-07
5.628368781e-07
5.627151906e-07
5.625611968e-07
5.603576044e-07
4.335017845e-07
5.261271621e-06
4.285837525e-06
5.145202182e-06
2.387782952e-05
4.915160913e-06
4.690541566e-06
5.400605774e-06
5.552277867e-06
5.528353541e-06
4.985375108e-06
5.819360339e-06
5.845207032e-06
6.013672388e-06
6.006607641e-06
6.068387973e-06
6.063890726e-06
6.087741269e-06
6.04885498e-06
6.099529169e-06
6.134512273e-06
6.189622012e-06
6.241361448e-06
6.290806018e-06
6.334778585e-06
6.372800271e-06
6.405015065e-06
6.431919365e-06
6.454076127e-06
6.47197007e-06
6.485929384e-06
6.492804406e-06
6.386211075e-06
4.457025161e-06
4.420167175e-07
7.856873209e-06
8.065996967e-06
1.913113422e-05
3.875421474e-05
1.724995914e-05
8.924987203e-06
7.543950901e-06
8.262841615e-06
7.198053961e-06
6.89046682e-06
6.421893656e-06
7.942349398e-06
8.750922892e-06
8.520514427e-06
8.668451144e-06
8.550962768e-06
8.63040176e-06
8.264581679e-06
8.593949504e-06
8.710655483e-06
8.951680794e-06
9.155363677e-06
9.352166146e-06
9.522445859e-06
9.665619378e-06
9.782200709e-06
9.875388278e-06
9.948865492e-06
1.000585669e-05
1.004832495e-05
1.006293371e-05
9.730104767e-06
5.714332641e-06
4.428670235e-07
1.284467036e-05
2.775912968e-05
2.740038736e-05
7.571775397e-06
2.754062474e-05
2.886326571e-05
1.108179498e-05
9.925295429e-06
5.889533144e-06
2.636078531e-05
8.643664589e-06
6.705011714e-06
8.685206798e-06
8.462409926e-06
8.51756556e-06
8.192966599e-06
8.261373852e-06
6.20227404e-06
7.770512075e-06
8.290217977e-06
8.701307854e-06
8.990237994e-06
9.292409376e-06
9.553018555e-06
9.767569377e-06
9.935099023e-06
1.006257198e-05
1.01582814e-05
1.022939874e-05
1.028043604e-05
1.029586828e-05
9.923707763e-06
5.760597862e-06
4.429752431e-07
3.850369326e-05
4.199516701e-05
8.660929322e-06
3.344442247e-05
9.579508168e-06
5.743698205e-05
3.220746474e-05
2.002936456e-05
1.090307753e-05
3.212731988e-05
2.770878096e-05
1.365214142e-05
8.33472055e-06
7.786274166e-06
8.067488228e-06
7.461745009e-06
6.509269908e-06
5.307835335e-06
5.004029022e-06
6.607832234e-06
8.007726288e-06
8.433229989e-06
8.871533406e-06
9.242607733e-06
9.554656271e-06
9.791572207e-06
9.965164298e-06
1.008918874e-05
1.017695407e-05
1.023763144e-05
1.02580211e-05
9.888216896e-06
5.748511383e-06
4.430777352e-07
4.591672247e-05
1.922216511e-05
3.565559916e-05
0.000109688364
1.497551453e-05
3.281660557e-05
6.878923404e-05
5.546780181e-05
3.53797683e-05
1.086271273e-05
2.156521787e-05
4.617417208e-05
1.789395213e-05
7.700671606e-06
7.298105671e-06
7.063713105e-06
2.980687312e-06
1.755319179e-05
9.133674202e-06
5.59244129e-06
6.586752214e-06
7.824532886e-06
8.390448219e-06
8.837638519e-06
9.257383642e-06
9.58259252e-06
9.818773119e-06
9.981464885e-06
1.009101536e-05
1.016402002e-05
1.019097771e-05
9.828561772e-06
5.729366363e-06
4.431940455e-07
1.613293382e-05
1.598920779e-05
0.0002140370422
0.0002163539365
9.983713588e-05
1.201467995e-05
4.509602804e-05
9.031226124e-05
1.54684562e-05
1.661201442e-05
6.717653591e-06
3.341864762e-05
4.688552943e-05
1.6368092e-05
6.469729702e-06
5.78327582e-06
2.362672826e-06
2.652232879e-05
2.84888749e-05
1.457080282e-05
6.917322309e-06
6.276670924e-06
7.772665664e-06
8.33554801e-06
8.886945737e-06
9.317014606e-06
9.634768963e-06
9.846707954e-06
9.981940921e-06
1.006949115e-05
1.010275952e-05
9.749736623e-06
5.702738112e-06
4.433158362e-07
9.900926106e-06
3.251224594e-05
0.000321065836
0.000264751493
0.000161266202
1.918902827e-05
5.854454303e-05
3.873932936e-05
3.115905317e-05
5.803225054e-05
3.316172511e-05
1.088767622e-05
2.792700486e-05
4.181187136e-05
1.088527209e-05
1.01467985e-05
7.149618921e-06
1.22832013e-05
1.12896288e-05
4.045950532e-05
1.9435955e-05
7.309931618e-06
6.715320588e-06
7.941741426e-06
8.589786766e-06
9.056323909e-06
9.435490237e-06
9.692294905e-06
9.849172514e-06
9.952364164e-06
9.987038967e-06
9.647040044e-06
5.665687493e-06
4.434352744e-07
1.458167014e-05
9.773875357e-06
0.0001408454728
0.0001901102518
3.850746743e-05
5.269961537e-05
3.501676027e-05
1.335974275e-05
0.0001450168184
0.0001222407011
7.70051652e-05
2.474059828e-05
1.09019779e-05
4.519188724e-05
2.021280256e-05
2.834394273e-05
4.894347139e-05
8.254590363e-05
4.111439563e-05
1.724584359e-05
4.289577381e-05
1.543560696e-05
6.038227283e-06
6.518197167e-06
8.100350863e-06
8.702627863e-06
9.198278235e-06
9.519754747e-06
9.688177478e-06
9.811516764e-06
9.830610544e-06
9.513920372e-06
5.613600561e-06
4.43551453e-07
6.227371255e-06
1.156288762e-05
8.107939608e-06
3.959323111e-05
8.807064815e-06
1.836063242e-05
1.266358896e-05
3.760397091e-05
0.0002527246047
0.0001520866091
9.460928285e-05
3.687330293e-05
2.250705565e-05
1.950756543e-05
2.721527633e-05
3.789725212e-05
0.000188334627
0.0001918407459
0.0001226501939
3.102924187e-05
1.282765541e-05
2.818772431e-05
9.093368491e-06
5.154347617e-06
7.649729326e-06
8.691838301e-06
9.100622144e-06
9.393559024e-06
9.514783664e-06
9.65908682e-06
9.617719849e-06
9.348285156e-06
5.539835197e-06
4.436804751e-07
1.014319953e-05
3.653815475e-06
5.73537816e-06
1.663385296e-05
3.888730202e-06
2.107364748e-06
7.100056625e-06
5.023754831e-05
0.000211624117
0.0001270959463
4.190166373e-05
5.074177521e-05
3.935834085e-05
3.604205007e-05
5.321098075e-05
0.000128026338
0.000268270835
0.0002082285287
0.0001024371111
2.459407138e-05
1.1050842e-05
3.370157037e-05
9.713038432e-06
5.533662955e-06
6.28618174e-06
8.581597081e-06
9.02677462e-06
9.29750229e-06
9.35639017e-06
9.359863383e-06
9.365476909e-06
9.188225614e-06
5.44012005e-06
4.43874688e-07
9.705684036e-06
8.345605763e-06
4.140754047e-06
1.401143845e-05
4.207161291e-06
3.786094476e-06
1.189488524e-06
9.616978251e-06
2.030867326e-05
4.62252868e-05
3.44004214e-05
5.866506363e-05
2.802365164e-05
3.24868427e-05
2.574778562e-05
2.123775207e-05
0.0001381091511
0.0001370959481
4.334960966e-05
3.230930603e-06
1.236575434e-05
3.178284819e-06
7.564235048e-07
4.8706511e-07
2.31668317e-06
9.207201167e-06
9.664056041e-06
9.494380413e-06
9.324319598e-06
6.061841118e-06
8.681805421e-06
9.089402269e-06
5.322136447e-06
4.442175283e-07
1.436653542e-05
1.068135817e-05
1.038176678e-05
3.855767131e-06
9.181576373e-06
6.813860892e-06
2.419120487e-06
7.720289624e-06
2.462124162e-05
5.211479872e-05
3.24888806e-05
0.0002463863748
0.0001028649427
2.982490191e-05
3.133503143e-05
2.143125986e-05
1.888162537e-05
1.109548264e-05
1.692521082e-05
1.610766363e-05
3.480385449e-06
4.501850571e-07
6.966193637e-06
8.681371241e-07
3.294031521e-07
2.767872649e-06
9.842497543e-06
1.024903008e-05
8.991943553e-06
1.093414289e-06
6.066045252e-06
8.658912857e-06
5.335448196e-06
4.453121886e-07
2.339787668e-05
1.152747935e-05
8.813694436e-06
6.964455073e-06
7.690053571e-06
6.16875095e-06
1.11022078e-05
4.749804092e-05
5.60384647e-05
5.310085557e-05
0.0002428299061
0.0004989542477
0.000382929306
8.89200911e-05
2.621345733e-05
2.83342615e-05
8.446305919e-06
1.658381603e-05
1.227291123e-05
6.340479176e-06
4.962751786e-07
1.744370238e-06
4.173835777e-05
1.32506194e-05
1.277557985e-06
3.452157043e-07
3.492501275e-06
1.131075693e-05
5.226884492e-06
6.328028461e-07
6.684111573e-06
5.777846592e-06
4.876988731e-06
4.537676146e-07
3.557748203e-06
1.47075711e-05
8.020471833e-06
7.633843489e-06
9.094741722e-06
6.935096491e-06
2.006973016e-05
5.859096586e-05
4.186223161e-05
5.911400267e-05
0.0003225908579
0.000427261299
0.0003858778993
0.0001499455153
5.072002215e-05
2.027375014e-05
4.872247984e-06
4.656073822e-06
6.200531614e-06
1.535865998e-06
1.63445757e-06
2.198845432e-05
0.000144027333
9.468478002e-05
1.226739786e-05
1.085646137e-06
1.126544368e-06
6.466193793e-06
1.825052974e-06
3.180521794e-06
1.325385344e-05
1.247057598e-05
6.849816142e-06
6.125185949e-07
3.101160972e-05
7.444006343e-06
1.261111092e-05
3.878134822e-06
5.973353894e-06
1.433950049e-05
6.994599788e-05
5.227219839e-05
4.486737324e-05
3.748692295e-05
0.0001969750412
0.000172225452
7.69461564e-05
4.019221744e-05
2.927189466e-05
1.215457834e-05
3.219718136e-06
5.088571717e-06
1.078265371e-06
7.711115115e-07
1.037716352e-05
9.617461502e-05
0.0002101155595
0.000101539283
1.450879159e-05
1.24221356e-06
1.326296845e-06
3.154615667e-06
5.230013397e-06
1.224558469e-05
7.065651846e-06
1.359022794e-05
2.147979522e-05
2.900240965e-06
6.59573885e-05
8.723430876e-06
6.696658288e-07
1.208783553e-06
9.923333489e-06
5.436050566e-05
4.355902748e-05
4.395590748e-05
2.488504583e-05
0.0001280634593
6.269902529e-05
3.514121795e-05
2.539918888e-05
4.52668142e-05
7.113935657e-05
4.283635037e-05
1.18467891e-05
5.978771641e-06
6.639513499e-06
5.410320137e-07
7.018483707e-07
2.215459312e-06
2.575922647e-05
4.887715993e-06
8.579119117e-07
1.28975086e-06
3.744633766e-06
5.502172721e-06
6.192871848e-06
4.891583755e-05
7.379782541e-05
2.309079977e-05
1.247875211e-05
1.661661342e-05
5.963990292e-06
1.059502786e-06
4.163047498e-07
4.886731442e-06
2.659768266e-05
3.303981703e-05
3.457884831e-05
1.646800288e-05
6.268543368e-05
0.0002750967903
0.0001660413181
5.198734649e-05
2.18877981e-05
8.918985417e-06
4.850335505e-05
5.910910799e-05
2.421779305e-05
7.376619356e-06
6.724995437e-06
4.6069319e-06
3.181301424e-07
3.160158361e-07
3.88169447e-06
4.751285486e-07
6.317607697e-07
1.062873762e-05
6.678107361e-06
7.234392381e-06
3.881008234e-05
9.887214259e-05
0.0001665981267
8.288699404e-05
1.134401127e-05
6.817673612e-05
9.0617545e-07
2.461786471e-07
1.734619907e-06
4.96407814e-06
1.743666352e-05
2.456242787e-05
2.304438876e-05
2.651524763e-05
0.0001089523243
0.0003405214753
0.0002916165947
7.953625881e-05
2.581468325e-05
7.605438628e-06
2.312823554e-05
3.519114872e-05
1.075912877e-05
5.959856773e-06
8.584952358e-06
9.211351307e-06
3.877546506e-06
5.708057792e-07
2.939956189e-07
5.476324891e-07
1.935487232e-06
3.403466095e-07
1.782873962e-06
1.117130796e-05
8.366339934e-05
0.0001519316867
9.686490963e-05
2.15024506e-05
2.597563114e-06
4.537459936e-06
2.256084544e-07
6.918456519e-07
5.99145183e-06
6.570895782e-06
4.195866223e-06
1.577942334e-05
2.01088714e-05
1.532839175e-05
3.533731182e-05
0.00032567453
0.0002725358006
3.390376535e-05
1.553256255e-05
3.089004021e-05
4.338502556e-05
1.381475132e-05
5.683954228e-06
7.296817887e-06
8.526732779e-06
9.213002194e-06
9.487806533e-06
6.038472172e-06
5.688169757e-07
5.800128877e-06
7.39930378e-06
1.05331949e-06
2.869354115e-07
6.567389814e-07
3.051497349e-06
4.115747252e-05
5.909827767e-06
1.29792621e-05
5.365309496e-06
7.217506681e-07
7.894668809e-07
5.174041315e-06
8.575637346e-06
8.761960768e-06
5.135374053e-06
3.961362568e-06
1.649931544e-05
2.556987729e-05
2.021727902e-05
5.383792786e-05
3.409844811e-05
1.903474934e-05
3.523548236e-05
5.336673546e-05
1.60109066e-05
6.399690745e-06
7.388382327e-06
8.640603473e-06
9.052128495e-06
9.442379467e-06
9.753445626e-06
9.917446776e-06
6.960770162e-06
1.06234073e-05
1.130375181e-05
6.997364689e-06
1.250641361e-06
3.316136697e-07
7.439244499e-07
3.881819378e-06
6.594321435e-06
6.694126575e-06
2.71369208e-06
8.363236978e-07
5.571043877e-06
9.257901983e-06
9.044106164e-06
9.150129292e-06
8.112518462e-06
4.935707775e-06
4.328730269e-06
1.262065903e-05
2.023828325e-05
1.498488385e-05
1.150846265e-05
3.260595359e-05
4.570871467e-05
1.568045838e-05
6.62024785e-06
7.369286258e-06
8.503232448e-06
8.98648542e-06
9.228820545e-06
9.632490365e-06
9.835092687e-06
1.007580278e-05
1.012338714e-05
1.027284471e-05
1.019111547e-05
1.020967738e-05
7.734630171e-06
3.611210267e-06
9.087289672e-07
5.295015736e-07
8.171859604e-06
6.69830833e-06
4.22076771e-07
4.72738869e-06
9.689473111e-06
1.001261833e-05
9.536210056e-06
9.458300862e-06
8.882264215e-06
8.326430576e-06
6.255966801e-06
3.359858588e-06
9.88897304e-06
1.671281021e-05
3.047608336e-05
3.101589471e-05
1.172139368e-05
6.107743532e-06
7.544012646e-06
8.606491244e-06
9.001741039e-06
9.28248683e-06
9.561661658e-06
9.829436139e-06
9.969993138e-06
1.011753843e-05
1.018010047e-05
1.031966446e-05
1.052492996e-05
1.099254434e-05
1.206200109e-05
1.273802444e-05
9.302711888e-06
4.185031768e-06
2.237613234e-06
6.66401594e-07
1.540286677e-06
3.306566261e-05
1.02116508e-05
1.021557934e-05
9.8739858e-06
9.756134065e-06
9.281386923e-06
9.215132952e-06
8.483318615e-06
6.181574746e-06
3.92577823e-06
5.418550492e-06
1.299197381e-05
6.665267531e-06
5.420202096e-06
7.763048202e-06
8.656557704e-06
9.107417044e-06
9.292786999e-06
9.600946705e-06
9.788506519e-06
9.969093309e-06
1.006777149e-05
1.01605975e-05
1.019749936e-05
1.022861403e-05
1.022526207e-05
1.022836192e-05
1.013162959e-05
9.868161066e-06
6.666866811e-06
2.162575539e-06
7.392190265e-07
1.517345336e-06
9.337510517e-06
0.0001959498065
1.058632101e-05
1.039771431e-05
1.037001448e-05
1.016386714e-05
1.005143682e-05
9.75392506e-06
9.644333183e-06
9.202972106e-06
9.023773775e-06
7.331086963e-06