/*--------------------------------*- C++ -*----------------------------------*\
  =========                 |
  \\      /  F ield         | OpenFOAM: The Open Source CFD Toolbox
   \\    /   O peration     | Website:  https://openfoam.org
    \\  /    A nd           | Version:  8
     \\/     M anipulation  |
\*---------------------------------------------------------------------------*/
FoamFile
{
    version     2.0;
    format      ascii;
    class       volScalarField;
    location    "0.3";
    object      epsilon;
}
// * * * * * * * * * * * * * * * * * * * * * * * * * * * * * * * * * * * * * //

dimensions      [0 2 -3 0 0 0 0];

internalField   nonuniform List<scalar> 
67193
(
8.475515825e-06
9.957510813e-06
3.192031782e-05
0.0004095037414
3.437682474e-05
1.014374589e-05
8.495768773e-06
8.423451564e-06
8.414620693e-06
9.374905395e-06
8.472298133e-06
8.415429567e-06
8.406886874e-06
8.404188179e-06
8.402213368e-06
8.40116851e-06
8.40021452e-06
8.401020018e-06
8.399179457e-06
8.397855856e-06
8.396242536e-06
8.394757786e-06
8.393462146e-06
8.392382393e-06
8.391513765e-06
8.390832841e-06
8.390310228e-06
8.389916952e-06
8.389627165e-06
8.389419344e-06
8.389272543e-06
8.388911747e-06
8.375825793e-06
9.182397262e-06
1.086241119e-05
4.712303593e-05
0.0003222450352
0.002266833628
0.0003101751837
4.495874713e-05
1.083010763e-05
8.310664441e-06
8.280496098e-06
4.491213396e-05
1.140730375e-05
8.404381338e-06
8.125371465e-06
8.106464617e-06
8.104423647e-06
8.103343461e-06
8.102723584e-06
8.123246159e-06
8.104073133e-06
8.1009372e-06
8.099869624e-06
8.099101782e-06
8.098477464e-06
8.097979925e-06
8.09759453e-06
8.097300814e-06
8.097079358e-06
8.096913736e-06
8.096790884e-06
8.096700608e-06
8.096613887e-06
8.095748529e-06
8.072719357e-06
8.911653416e-06
6.149209257e-05
0.0004262238588
0.001707691922
0.02733480946
0.001532626966
0.000369099112
5.383103551e-05
1.26292948e-05
1.353593401e-05
0.0005071134978
8.278245215e-05
1.756262826e-05
8.909557231e-06
8.176076357e-06
8.130956596e-06
8.127246298e-06
8.131201448e-06
9.315060114e-06
8.298166593e-06
8.141503215e-06
8.123097874e-06
8.120795743e-06
8.119826022e-06
8.119105189e-06
8.118560675e-06
8.118153325e-06
8.117850761e-06
8.117627162e-06
8.117462735e-06
8.117341353e-06
8.117186818e-06
8.115425427e-06
8.084275964e-06
8.916172548e-06
0.0004926428072
0.00202996505
0.02034551816
0.05552284218
0.004184576877
0.00174141642
0.000401294485
6.464976772e-05
9.674835674e-05
0.002590192514
0.0007321131217
0.0001534260827
2.58455914e-05
9.514366242e-06
8.203449589e-06
8.144334246e-06
8.317501924e-06
3.946583051e-05
1.418739012e-05
8.914604983e-06
8.188316757e-06
8.12684713e-06
8.122151614e-06
8.120969922e-06
8.120208262e-06
8.11965965e-06
8.119262784e-06
8.11897636e-06
8.118771093e-06
8.118623604e-06
8.118439087e-06
8.116524004e-06
8.08471476e-06
8.916441498e-06
0.002130657901
0.02467356243
0.05175112905
0.09435751623
0.04297312984
0.01963727722
0.001740183139
0.0004063624127
0.0006692878335
0.03257908493
0.003098032612
0.001074953994
0.000219780558
3.217227137e-05
9.730374804e-06
8.488506593e-06
1.245928296e-05
0.0003746105986
0.0001134300374
2.645353203e-05
1.00542245e-05
8.256569892e-06
8.129706149e-06
8.122201766e-06
8.120897587e-06
8.120135895e-06
8.119612392e-06
8.119246585e-06
8.118991729e-06
8.118814799e-06
8.118610943e-06
8.116670875e-06
8.084802465e-06
8.916684314e-06
0.02401814674
0.06159670424
0.1104770015
0.1687474199
0.08206921234
0.04789580368
0.00410535409
0.001521052111
0.002754816296
0.06129221686
0.03746365599
0.003782146071
0.001279411622
0.0002389449015
2.985034205e-05
1.438776753e-05
7.423040967e-05
0.00185229011
0.00084627028
0.0002278914592
4.140464997e-05
1.116937131e-05
8.303841074e-06
8.130567866e-06
8.121988321e-06
8.120698555e-06
8.119994628e-06
8.119528478e-06
8.119214247e-06
8.119005123e-06
8.118781894e-06
8.116824943e-06
8.084903984e-06
8.91694724e-06
0.05228627233
0.1204178166
0.2522028224
0.2859436971
0.1478071897
0.08090756051
0.03035687863
0.003604608566
0.03777523328
0.08909840989
0.06898793652
0.04357541284
0.003937694618
0.001180843655
0.0001767757105
8.160484822e-05
0.0005740533652
0.02082768466
0.003118271838
0.001290709456
0.0003150835505
4.93770042e-05
1.138497204e-05
8.288505302e-06
8.128503091e-06
8.121518844e-06
8.120452673e-06
8.119866223e-06
8.119486916e-06
8.119251357e-06
8.119009109e-06
8.11703596e-06
8.085032577e-06
8.917196299e-06
0.06883425328
0.1762654383
0.4037405967
0.3553782722
0.2067764422
0.09991623459
0.02444735348
0.04426024866
0.09160908299
0.1347654398
0.1034506318
0.07576405632
0.04056458313
0.003173522707
0.0007023591249
0.0005557750309
0.002648746484
0.0495595045
0.03473643066
0.00379487154
0.001444121334
0.0003141824667
4.337195236e-05
1.048062087e-05
8.223156631e-06
8.125022118e-06
8.121033194e-06
8.120261909e-06
8.119816232e-06
8.119582474e-06
8.119318892e-06
8.117338211e-06
8.085200396e-06
8.917400979e-06
0.001929317119
0.02885426418
0.09961524871
0.2188442583
0.03778743282
0.003415008726
0.04069935286
0.1020995385
0.210716864
0.2116210698
0.1510948308
0.1012245613
0.06083642693
0.021823282
0.001457436681
0.002623613367
0.04239234751
0.09848390214
0.06932842571
0.03795644874
0.003668362829
0.001227292973
0.0002241023432
2.849120594e-05
9.236677077e-06
8.161613152e-06
8.122503264e-06
8.120779698e-06
8.120237667e-06
8.120088602e-06
8.119783588e-06
8.117811455e-06
8.085436619e-06
8.917562077e-06
0.0001535228678
0.001396162368
0.0230923547
0.08491465031
0.001766645912
0.002051219839
0.04217142254
0.1470675803
0.3813235021
0.2637247643
0.1838073272
0.1129203402
0.05125950453
0.003168773826
0.002095084383
0.04298015719
0.1254919901
0.1691626903
0.110424385
0.06135734672
0.02990123724
0.0027422657
0.0007275213883
0.0001050438626
1.511652962e-05
8.427281847e-06
8.130502148e-06
8.121527617e-06
8.120830375e-06
8.121310478e-06
8.122028837e-06
8.118804936e-06
8.085816798e-06
8.917780384e-06
1.449683137e-05
9.953634083e-05
0.001145498966
0.03227138607
0.0003063403241
0.000513603493
0.002998867351
0.06423224781
0.279857225
0.1838128026
0.09448932394
0.09827761442
0.04211848647
0.002216426856
0.02013177093
0.08171721639
0.2097248568
0.1905559366
0.1152655438
0.0619688166
0.03343258349
0.003678362481
0.001244837681
0.0002518668153
3.472478381e-05
9.765023198e-06
8.182341655e-06
8.123935537e-06
8.122618065e-06
8.141323026e-06
8.223227076e-06
8.132486211e-06
8.087269303e-06
8.91850532e-06
0.000120316918
1.384263394e-05
7.063269601e-05
0.001833404038
7.530538062e-05
5.162556743e-05
0.0003969888676
0.002134215982
0.04454126963
0.07629847442
0.03893529715
0.2574620619
0.1538886402
0.05314184697
0.002477781519
0.001368453307
0.09860186031
0.09224968992
0.04059510283
0.003414661597
0.001094774721
0.0002602283952
0.0001934143517
9.079744308e-05
1.417623234e-05
8.360250074e-06
8.130450046e-06
8.125740737e-06
8.152184292e-06
8.865795333e-06
1.232011885e-05
8.714972207e-06
8.132561383e-06
8.923188002e-06
0.0009352679145
0.0001041947505
1.271150506e-05
0.000198861981
1.17782306e-05
1.657023154e-05
0.0001491064475
0.001123834669
0.003997648089
0.0539486882
0.1266403497
0.4786213094
0.3040011491
0.1576329563
0.04825796613
0.002416215203
0.003284380352
0.02759035653
0.003702778065
0.001255052119
0.000167497553
0.0001528515801
0.001874985687
0.001093424309
0.0001465450582
1.642996382e-05
8.374626417e-06
8.159848079e-06
9.071495549e-06
2.721121884e-05
0.0001022951819
2.540472086e-05
9.745229169e-06
9.0385437e-06
0.004218067278
0.000858126242
8.1450451e-05
1.485074779e-05
9.105819723e-06
4.965847712e-05
0.0005380737633
0.002814901679
0.0417193233
0.1061590586
0.193769147
0.7288823048
0.5043355536
0.2663904796
0.1191632301
0.02997804096
0.001629856899
0.002068245175
0.001082862413
0.0001595293688
0.0001286164616
0.001605647767
0.05967418493
0.02862760872
0.001365220358
0.0001564395652
1.533381488e-05
8.892859736e-06
3.028916959e-05
0.0002858847319
0.0009844944851
0.0002746233533
4.448148949e-05
1.215041242e-05
0.09717816754
0.004058572494
0.0006209839369
4.021578745e-05
1.370206073e-05
0.0001607164308
0.001302269872
0.02183445364
0.07356107746
0.1576726856
0.20190074
0.4991095158
0.4447906964
0.2560658955
0.1145639203
0.02796590852
0.001167247743
0.0004324058692
0.0001451098153
0.000108783576
0.001628166635
0.05377311633
0.3390560514
0.1919650489
0.03580491624
0.00156980071
0.0001697727723
2.342177409e-05
0.0002880003292
0.001897237232
0.004387787838
0.001916098245
0.0004324266017
6.374861798e-05
0.3818066417
0.09690175459
0.003011208633
0.0002657857745
7.270817535e-05
0.0009776391973
0.004464712585
0.07107494925
0.1575160584
0.2694068712
0.1230971122
0.08662237479
0.05876936514
0.03385595807
0.003494365325
0.001164478691
0.0002118090552
5.031691429e-05
1.871170435e-05
4.486134142e-05
0.0008982968772
0.04181164781
0.4794937998
0.08215688446
0.001668467293
0.0001327117895
1.312720859e-05
0.0002457576702
0.001886713342
0.03084386485
0.06903355839
0.03455322804
0.002450633878
0.000527958053
0.1974740957
0.02212688109
0.0005229422921
5.563878999e-05
0.0006970715514
0.003845880016
0.06687814211
0.1576463129
0.2673706719
0.4745915981
0.1949766554
0.1250622157
0.07479283972
0.04299151141
0.02114913861
0.00236582649
0.0007150049048
0.0001094555167
1.456195686e-05
9.455956692e-06
7.785235144e-05
0.001053858691
0.06582626987
0.002233713086
0.0002046840617
1.669203563e-05
0.0001668817278
0.001711732151
0.02887824194
0.08724199937
0.1618485824
0.1015511765
0.03984555418
0.002520343621
0.02354313576
0.0007462281552
4.98091888e-05
0.0003019599248
0.00247727368
0.04697376452
0.1291596819
0.2346555372
0.3902181798
0.8233102224
0.4150272533
0.2066148114
0.1079380592
0.05953351608
0.03253612775
0.003812806613
0.001684257265
0.0004135375197
4.915645974e-05
9.425860367e-06
1.115955939e-05
8.597069351e-05
0.001501138257
0.0001734008814
1.697512926e-05
0.0001084173329
0.00125755827
0.02163582493
0.06284182164
0.1730059008
0.3201840458
0.2074256821
0.1061555253
0.03445959157
0.000774428933
7.523894493e-05
1.388339185e-05
0.0002193910469
0.002341846769
0.05818479374
0.1720504011
0.2920155428
0.4748394676
1.005148004
0.7219969795
0.3460932034
0.1876106828
0.103458728
0.0433470611
0.003229519739
0.0008735828738
0.0001325861553
1.674206976e-05
8.38595888e-06
8.200477724e-06
1.061142165e-05
0.000101312523
1.338433284e-05
9.136685723e-06
4.235739087e-05
0.0005149606894
0.003031148613
0.06875373518
0.1978279643
0.1096946614
0.03882464345
0.00260432116
0.0009539019337
6.70949369e-05
1.198124903e-05
8.493330377e-06
3.131002898e-05
0.0004160999414
0.002648239522
0.04652905071
0.1353224357
0.30410644
0.9416782269
0.5137874683
0.2207641786
0.1134568423
0.05114956348
0.003916730625
0.001192778886
0.0002099113916
2.677494599e-05
9.054232375e-06
8.153439952e-06
8.130137706e-06
8.17280892e-06
1.072505351e-05
8.214264425e-06
8.190852114e-06
1.036236913e-05
5.126621676e-05
0.0004376541452
0.002373184604
0.04279489799
0.03008734455
0.002299727096
0.0004059063979
6.571084553e-05
1.083746222e-05
8.283078196e-06
8.152620228e-06
9.667780368e-06
4.753999466e-05
0.0004500001498
0.002308229067
0.04029359476
0.1427597609
0.4530597467
0.2149559974
0.1147694534
0.0524741208
0.004213323011
0.001370651879
0.0002664055006
3.571601841e-05
9.86585342e-06
8.196731847e-06
8.130376855e-06
8.126436297e-06
8.125449278e-06
8.162190334e-06
8.128480715e-06
8.137521647e-06
8.281797395e-06
1.139475964e-05
5.420614151e-05
0.0003908726881
0.001755321722
0.001519109991
0.0002805490352
2.157332689e-05
0.0001337833096
8.212146442e-06
8.134656111e-06
8.132627532e-06
8.204893241e-06
1.042596482e-05
4.801629488e-05
0.0003551610032
0.001949303771
0.03688638035
0.1969737234
0.08814697155
0.0440357141
0.003879059164
0.001338148525
0.0002757057389
3.980046297e-05
1.039402181e-05
8.237173514e-06
8.133215759e-06
8.126997256e-06
8.124683735e-06
8.123494195e-06
8.123341768e-06
8.12306708e-06
8.124097e-06
8.133135738e-06
8.240452541e-06
1.001475936e-05
2.9497811e-05
0.0001633055911
0.0001428060319
2.606680508e-05
0.0001582990231
0.000997806489
8.129004064e-06
8.128895747e-06
8.129603087e-06
8.136692698e-06
8.229379113e-06
1.040860833e-05
3.671350199e-05
0.0002812341761
0.001616936848
0.04436921388
0.02636526294
0.002964030268
0.001049668059
0.000231736136
3.653043052e-05
1.041274771e-05
8.253602113e-06
8.135973226e-06
8.128159621e-06
8.125543626e-06
8.123787639e-06
8.122849187e-06
8.12251235e-06
8.122969259e-06
8.124515151e-06
8.127855638e-06
8.138152596e-06
8.205639285e-06
8.884081583e-06
1.423133223e-05
3.205277501e-05
0.0002418435519
0.001129823397
0.003226312636
8.126176341e-06
8.127493582e-06
8.127823507e-06
8.13091144e-06
8.13584906e-06
8.223479035e-06
9.544543359e-06
2.772521268e-05
0.0001826327468
0.001449320661
0.001631876085
0.0006242684624
0.0001465598732
2.741208152e-05
9.828969944e-06
8.236370912e-06
8.136907247e-06
8.129494735e-06
8.126551745e-06
8.124642206e-06
8.123222005e-06
8.122329245e-06
8.121746241e-06
8.12147922e-06
8.12147957e-06
8.121952112e-06
8.123262884e-06
8.138123203e-06
8.593512139e-06
2.137962263e-05
0.0002230620047
0.001470682595
0.004123627439
0.01783948177
8.126255518e-06
8.125748976e-06
8.126955382e-06
8.12718521e-06
8.129327401e-06
8.130632784e-06
8.136693879e-06
8.182854435e-06
8.984328058e-06
1.756634619e-05
0.0001275029536
0.0002513131904
6.89222696e-05
1.748592401e-05
9.069095211e-06
8.198600537e-06
8.136649502e-06
8.130772613e-06
8.127997789e-06
8.125931674e-06
8.124308408e-06
8.123097395e-06
8.12226787e-06
8.121806335e-06
8.121823819e-06
8.122604653e-06
8.12642132e-06
8.240903844e-06
1.257752606e-05
9.786082606e-05
0.0008416206466
0.003652459794
0.05401316015
0.1143893408
0.1074165471
8.125907237e-06
8.125653876e-06
8.126745488e-06
8.126762208e-06
8.128426968e-06
8.128781805e-06
8.131371307e-06
8.132923047e-06
8.159448741e-06
8.432560931e-06
1.290278553e-05
2.503062888e-05
1.108572354e-05
8.484647909e-06
8.162657694e-06
8.135026069e-06
8.13149126e-06
8.129398642e-06
8.127376062e-06
8.125830224e-06
8.12437665e-06
8.123331184e-06
8.122453446e-06
8.121856064e-06
8.121476625e-06
8.1214126e-06
8.121964539e-06
8.125570763e-06
8.220871076e-06
1.106992666e-05
5.838313609e-05
0.0004404301482
0.001899182366
0.004251258
0.01569941987
8.125956131e-06
8.125724619e-06
8.126875749e-06
8.126728269e-06
8.128321911e-06
8.128339174e-06
8.130427565e-06
8.130543673e-06
8.133970567e-06
8.138886886e-06
8.245064646e-06
8.728866606e-06
8.214366455e-06
8.142584214e-06
8.134378491e-06
8.132709142e-06
8.131038848e-06
8.129877714e-06
8.127945454e-06
8.126748169e-06
8.125175248e-06
8.124193827e-06
8.12319567e-06
8.122604744e-06
8.122257386e-06
8.122329655e-06
8.122964105e-06
8.124610403e-06
8.131106318e-06
8.253434416e-06
1.114016065e-05
5.031395942e-05
0.0003235512174
0.001158193344
0.002853091591
8.126333119e-06
8.125982906e-06
8.12734158e-06
8.126895595e-06
8.128670511e-06
8.128166695e-06
8.130138688e-06
8.12957761e-06
8.131684702e-06
8.13079981e-06
8.13464212e-06
8.143584972e-06
8.134364898e-06
8.132813671e-06
8.132418247e-06
8.132221725e-06
8.13072528e-06
8.130615348e-06
8.128441518e-06
8.127883211e-06
8.126118772e-06
8.125441958e-06
8.124277689e-06
8.123603503e-06
8.122931919e-06
8.122574445e-06
8.122543481e-06
8.123123569e-06
8.125062472e-06
8.132219372e-06
8.224512012e-06
1.005665254e-05
3.330324491e-05
0.0001744925158
0.0008821714616
8.126472074e-06
8.128259557e-06
8.127272668e-06
8.129587247e-06
8.128376543e-06
8.130690752e-06
8.129541462e-06
8.131390402e-06
8.130514573e-06
8.132145487e-06
8.131928331e-06
8.132745683e-06
8.133059807e-06
8.133450894e-06
8.134091662e-06
8.13331701e-06
8.135714143e-06
8.17109735e-06
8.134983328e-06
8.129211765e-06
8.128226825e-06
8.126467341e-06
8.125691832e-06
8.12471285e-06
8.124268719e-06
8.124109683e-06
8.124384255e-06
8.125173261e-06
8.126924329e-06
8.13197351e-06
8.191907322e-06
9.254718344e-06
2.005428128e-05
0.0001337309523
8.127221039e-06
8.130261249e-06
8.127875117e-06
8.131251199e-06
8.12893406e-06
8.132924482e-06
8.129952947e-06
8.131872854e-06
8.130645543e-06
8.132065374e-06
8.131815379e-06
8.132843997e-06
8.127004359e-06
8.126132662e-06
8.125442363e-06
8.125149141e-06
8.125219469e-06
8.125802641e-06
8.127030456e-06
8.129596094e-06
8.150233138e-06
8.450548753e-06
1.575632014e-05
8.129811031e-06
8.134359043e-06
8.129981976e-06
8.25381852e-06
8.132936198e-06
8.13313771e-06
9.042119393e-06
9.140369646e-06
9.754534551e-06
3.912085358e-05
1.006470069e-05
9.297453161e-06
9.141012869e-06
9.24021375e-06
9.136406799e-06
9.296900059e-06
9.160828552e-06
9.149222356e-06
9.112609119e-06
9.081980634e-06
9.061503329e-06
9.041821593e-06
9.029387065e-06
9.019758838e-06
9.004773452e-06
8.988854311e-06
8.972632547e-06
8.956814128e-06
8.942607198e-06
8.930325827e-06
8.920092293e-06
8.9118328e-06
8.905345953e-06
8.900376521e-06
8.896660606e-06
8.893960382e-06
8.892047157e-06
8.889623215e-06
8.85487146e-06
9.702800251e-06
2.973376713e-06
5.3878714e-06
2.298488964e-05
0.0002782748391
2.295126515e-05
5.808800261e-06
3.116865349e-06
3.0358376e-06
2.495534765e-06
4.716305065e-06
2.753960643e-06
2.507798662e-06
2.308838584e-06
2.162029789e-06
2.06499218e-06
1.994919259e-06
1.93735597e-06
1.928089257e-06
1.87013696e-06
1.82105075e-06
1.770090829e-06
1.723421559e-06
1.683594789e-06
1.650508827e-06
1.62372085e-06
1.602318782e-06
1.585399851e-06
1.572161062e-06
1.561925361e-06
1.554184123e-06
1.549194772e-06
1.568074922e-06
2.114079842e-06
9.89299008e-06
7.03444347e-06
4.141962735e-05
0.0001734830346
0.001094527843
0.0001511906092
4.007085959e-05
6.961308579e-06
4.360379777e-06
2.860638246e-06
3.797451078e-05
6.900094868e-06
3.27567046e-06
2.436392081e-06
2.038003008e-06
1.842598084e-06
1.738887363e-06
1.6324323e-06
1.749317326e-06
1.596460167e-06
1.511155842e-06
1.4232147e-06
1.343313054e-06
1.278670827e-06
1.226455005e-06
1.185659376e-06
1.154134437e-06
1.129983089e-06
1.111647729e-06
1.097907242e-06
1.087869811e-06
1.081913335e-06
1.107461586e-06
1.722378588e-06
9.911976042e-06
5.356768285e-05
0.000289565469
0.0004378335421
0.006646044432
0.0003853288644
0.0002861514601
4.815004932e-05
1.46240868e-05
1.011956039e-05
0.0003327683847
6.01687114e-05
1.345804515e-05
4.684643397e-06
2.715270708e-06
2.171437807e-06
2.045266229e-06
1.84677017e-06
3.553054234e-06
2.18303063e-06
1.818746082e-06
1.60557519e-06
1.45377291e-06
1.345371493e-06
1.264355517e-06
1.205148778e-06
1.16161195e-06
1.129662961e-06
1.106271968e-06
1.089316878e-06
1.07733771e-06
1.070324417e-06
1.096399185e-06
1.715830275e-06
9.914385365e-06
0.0003429952602
0.000993858459
0.001300682755
0.05686617736
0.00105436847
0.0009787471408
0.0003153932131
0.0001110770567
8.820584098e-05
0.001971623521
0.0003970680559
0.0001170157152
2.335637238e-05
5.552494636e-06
2.878317861e-06
2.664536276e-06
2.743390523e-06
2.575293267e-05
8.209137895e-06
3.287794208e-06
2.116999162e-06
1.698991712e-06
1.491880148e-06
1.354394461e-06
1.263811152e-06
1.201291019e-06
1.157772752e-06
1.127268813e-06
1.105945357e-06
1.091416018e-06
1.08292255e-06
1.108155583e-06
1.72611032e-06
9.916663707e-06
0.001037224154
0.002189834663
0.05571875427
0.1703587254
0.02229845916
0.002227261102
0.001079985967
0.0006649652298
0.0004676994151
0.003871063157
0.001305357084
0.0006600646723
0.000165566039
2.61189494e-05
5.542522757e-06
4.649206723e-06
1.320238073e-05
0.0001777403605
7.040661096e-05
1.833605092e-05
4.992083346e-06
2.36955982e-06
1.763907639e-06
1.499387669e-06
1.351193906e-06
1.257859289e-06
1.19727436e-06
1.156896912e-06
1.129777941e-06
1.112125199e-06
1.101809542e-06
1.125956463e-06
1.741541087e-06
9.919247129e-06
0.001232348767
0.01955205605
0.3714929614
0.3063359834
0.1815307424
0.01311776649
0.003172335616
0.001513118894
0.001537616964
0.03913405154
0.01134987001
0.00292552928
0.0007549067273
0.0001563487323
2.107140722e-05
1.695557114e-05
0.0001721850914
0.0005266198153
0.0003635012127
0.0001360373471
2.945064775e-05
5.77187769e-06
2.432115015e-06
1.737559421e-06
1.479530368e-06
1.334995747e-06
1.249680261e-06
1.196168788e-06
1.161644164e-06
1.140789904e-06
1.128366682e-06
1.151506837e-06
1.763952811e-06
9.921949021e-06
0.002119657075
0.04058177379
0.5848008728
0.3665836461
0.3073003254
0.01844191302
0.003421997315
0.006585118909
0.07654233775
0.141742145
0.08520360259
0.01338546931
0.003267554698
0.0006036057218
9.585570742e-05
0.0001252451505
0.003191618324
0.007056265623
0.002346050371
0.0005751200411
0.0001766413278
3.050800132e-05
5.451779202e-06
2.244852479e-06
1.66641847e-06
1.436298748e-06
1.316782999e-06
1.247402406e-06
1.203860245e-06
1.181367089e-06
1.16639995e-06
1.189365276e-06
1.797198909e-06
9.924593926e-06
0.000231601366
0.003474101229
0.2491817433
0.2945614592
0.06884264362
0.001926495921
0.004171921519
0.0170860442
0.3725099273
0.2880056349
0.1931277737
0.0572773349
0.007005076191
0.001582120554
0.0002745104464
0.001028784833
0.03769215023
0.06283316046
0.02979568158
0.003472006124
0.0005692770184
0.0001406543849
2.042539948e-05
3.865087175e-06
2.019475899e-06
1.591557064e-06
1.412672286e-06
1.31943148e-06
1.262315155e-06
1.243226392e-06
1.22389794e-06
1.249119273e-06
1.848423812e-06
9.927160765e-06
2.238842336e-05
0.0002054457468
0.003073980753
0.06669564235
0.0009033299979
0.0005780740334
0.006172927181
0.07284769683
0.588952625
0.3607002991
0.2420290356
0.07969561155
0.01898324966
0.001987030275
0.0006636163171
0.01169540868
0.1526332581
0.1574831316
0.09435862888
0.02177748055
0.001573917232
0.0003427926471
7.556197716e-05
9.743339386e-06
2.670262211e-06
1.783518629e-06
1.521799087e-06
1.415423572e-06
1.344484185e-06
1.347284068e-06
1.319028961e-06
1.351863301e-06
1.931860047e-06
9.930009436e-06
4.630440781e-06
1.650704874e-05
0.0001811328217
0.002713620714
6.245812905e-05
0.0002112465989
0.004027820163
0.1019670171
0.4555073701
0.3473991686
0.09304043063
0.02698829363
0.00539704469
0.0004759049198
0.002954013089
0.06131984648
0.221632651
0.1864965663
0.09162092106
0.02044407152
0.001093906396
0.0004944234153
0.0003416732905
3.414323088e-05
5.5576609e-06
2.378467282e-06
1.772808284e-06
1.595039701e-06
1.493309766e-06
1.592256486e-06
1.521488406e-06
1.55603602e-06
2.080484666e-06
9.934314579e-06
1.306706589e-05
4.314897229e-06
1.190660826e-05
0.0002545787714
9.847890073e-06
1.40150301e-05
0.0002009097413
0.00110863508
0.03311283542
0.028074366
0.01065831647
0.06221158126
0.01329098209
0.005437314028
0.0006747343331
0.0119839077
0.1288967417
0.1438689623
0.043314336
0.001269000464
0.0001369361105
0.0001355397808
0.003652460704
0.0001532248572
1.686437821e-05
3.808372487e-06
2.164735034e-06
1.876431485e-06
1.786453386e-06
3.073689266e-06
2.165760757e-06
2.049674134e-06
2.371076227e-06
9.941974625e-06
0.0001024161208
1.164237129e-05
3.967104305e-06
1.960014802e-05
3.571629084e-06
6.031821757e-06
3.464388378e-05
0.0003617869702
0.003489480629
0.01349320493
0.02483982418
0.2892016396
0.1154825951
0.01406433508
0.004550781011
0.0008179748648
0.01547073376
0.007139782185
0.001391030002
0.000204973203
8.125200705e-05
0.001082688064
0.04627206562
0.003220356135
0.0002497817176
1.991536876e-05
4.018439677e-06
2.628296219e-06
2.839991614e-06
2.418116511e-05
8.125689229e-06
4.584436828e-06
3.210274913e-06
9.966013086e-06
0.0004707079688
7.540997414e-05
8.074841706e-06
3.541603842e-06
3.225698508e-06
7.206404158e-06
6.930195256e-05
0.000641957796
0.006757229654
0.02535240318
0.3174569981
0.5753583424
0.4267886111
0.09507248292
0.01107776715
0.00209683482
0.0009546970202
0.0004953071933
0.0001863273669
3.972138636e-05
0.0006746206297
0.00818079561
0.3115388841
0.1074234949
0.007053135731
0.0003548522596
2.093806334e-05
5.10701586e-06
9.877991298e-06
0.0002844366255
7.588868764e-05
2.635706761e-05
7.036094497e-06
1.014187418e-05
0.005167846303
0.0004252490541
4.198381518e-05
4.516505437e-06
4.492863584e-06
1.900502044e-05
0.0001951209445
0.001554085469
0.01019289836
0.06566069282
0.5195306327
0.5526056433
0.478932711
0.1757594001
0.04425767143
0.005999443678
0.0005030064979
8.388437386e-05
2.836586021e-05
8.794137269e-05
0.005248548833
0.1487911746
1.0334875
0.9194220595
0.1030676281
0.002576659181
0.0001271160509
1.413962316e-05
9.525253054e-05
0.003298838166
0.0005409180526
0.000235756958
4.723668796e-05
1.34324801e-05
0.1305438631
0.005642096298
0.0003222990896
2.37866605e-05
9.849909809e-06
0.0001260347523
0.001032275232
0.008084586152
0.009689440763
0.05403359488
0.2303109071
0.2496554753
0.08618412879
0.01937676284
0.003263378944
0.0004298800804
5.177109378e-05
1.056285303e-05
8.219832317e-05
0.003153570218
0.0571766171
0.6484261891
1.561822713
0.7500891399
0.09807598112
0.006150280207
0.0003016961128
6.06782409e-05
0.0006921118457
0.02841801329
0.01469714043
0.001936162121
0.0003311418283
6.152507227e-05
0.2703808917
0.02587863034
0.001088444982
5.962412864e-05
7.442246877e-05
0.0007491007327
0.007305824737
0.01106142326
0.01832217979
0.3279377864
0.1039510947
0.04712300434
0.02271224093
0.009417204381
0.002733581979
0.0006345003197
0.0001106640338
1.41002084e-05
6.311582694e-06
9.121821369e-05
0.002906759277
0.00906097639
0.1624722051
0.0246605782
0.002964040236
0.0001746240706
4.101407971e-05
0.0005962787325
0.01277129682
0.1318753978
0.2052753139
0.06427166992
0.002469159424
0.0003557952179
0.009327794564
0.002379410626
9.420332616e-05
2.862897971e-05
0.0003150505779
0.003655921732
0.006511545148
0.01246298177
0.1594197024
0.771937598
0.4191864561
0.1005340813
0.03265232644
0.008272866454
0.002410743327
0.0009972766122
0.0002755678849
4.262237875e-05
6.248966021e-06
5.151596637e-06
0.0001254417406
0.001017669463
0.0205556828
0.001784822238
0.0001633601825
2.596008817e-05
0.0001895380667
0.003246686619
0.1396277906
0.2938863282
0.4416821933
0.2477714401
0.02656325759
0.001491151682
0.002074581406
0.0002637293775
1.401201753e-05
1.620764885e-05
0.0002595968829
0.004725088914
0.01121531821
0.03920091402
0.3477080648
0.9387707996
0.8165261325
0.1722489773
0.04222409642
0.006950752049
0.002445616582
0.0005206753649
9.888135847e-05
1.312701118e-05
3.383574039e-06
2.136151753e-06
5.471509861e-06
3.914114932e-05
0.00101382245
7.103670559e-05
2.11414275e-05
0.0003021605638
0.00452074106
0.03549491835
0.2810180132
0.4285595176
0.2971329253
0.06584606707
0.002437351204
9.739248542e-05
0.0002401068888
2.469294612e-05
3.066646007e-06
4.266509001e-06
3.901466265e-05
0.0004287280289
0.003159803207
0.00638573214
0.07503192301
1.069167869
0.7995702099
0.07224876007
0.003722245339
0.003102566443
0.0006308880557
0.0001424929998
2.028065131e-05
4.108815569e-06
2.250758515e-06
1.768634597e-06
1.862285796e-06
2.778162998e-06
4.059279249e-05
3.752636592e-06
3.064249302e-06
2.414642519e-05
0.00025566726
0.0008319532542
0.005613444345
0.06361268784
0.004214184338
0.0005394114672
5.802313566e-05
1.580705111e-05
2.091625559e-05
3.149959139e-06
1.847408639e-06
2.35404284e-06
6.277654662e-06
4.989287103e-05
0.0003094566202
0.00337949473
0.006126791735
0.1101062136
0.07103978275
0.006807020292
0.004090151851
0.0007922508897
0.0001729372352
2.638102028e-05
5.2572473e-06
2.449593512e-06
1.86490216e-06
1.579863187e-06
1.515754778e-06
1.442857483e-06
2.290958305e-06
1.656831343e-06
2.049111711e-06
4.116862859e-06
2.198051839e-05
0.0001402512714
0.0008142731515
0.005092620412
0.0002474689528
4.238058751e-05
1.792078998e-05
1.792625193e-05
2.430125351e-06
1.499481014e-06
1.49751097e-06
1.759887799e-06
2.392876139e-06
6.613303112e-06
2.996984304e-05
0.0002366246712
0.001850989092
0.01019693327
0.003512899906
0.003349995239
0.000660439999
0.0001589370284
2.598616619e-05
5.415411854e-06
2.548894396e-06
1.892161323e-06
1.594816337e-06
1.438946172e-06
1.370312369e-06
1.31900029e-06
1.358627947e-06
1.345247296e-06
1.390762757e-06
1.598967026e-06
2.349774925e-06
6.643791467e-06
2.510799689e-05
0.0001393719148
2.23920639e-05
4.420717829e-05
0.0002030512364
0.0001010782982
1.301142565e-06
1.319950793e-06
1.344790538e-06
1.515446398e-06
1.713075003e-06
2.409748736e-06
4.703211113e-06
2.505234661e-05
0.0001338902435
0.002575553705
0.00120961296
0.0004207128801
0.000108681459
2.109379343e-05
5.073136322e-06
2.504145795e-06
1.90101135e-06
1.608116656e-06
1.443435667e-06
1.3459705e-06
1.294311655e-06
1.271697627e-06
1.294501853e-06
1.348690322e-06
1.478531756e-06
1.710315172e-06
2.215870859e-06
3.348296764e-06
5.968171128e-06
1.839176843e-05
6.099973345e-05
0.0004357647401
0.00276871798
0.000720071375
1.174375237e-06
1.226300718e-06
1.236015193e-06
1.348786204e-06
1.425650951e-06
1.679611237e-06
2.039961318e-06
4.004666361e-06
1.105521612e-05
0.0001229151155
0.0001514100169
5.100821842e-05
1.213435419e-05
3.978964628e-06
2.298199075e-06
1.837735971e-06
1.58440283e-06
1.438534872e-06
1.335865471e-06
1.27466217e-06
1.235477329e-06
1.216031812e-06
1.210560473e-06
1.216138947e-06
1.23308502e-06
1.275863192e-06
1.339870259e-06
1.571268032e-06
3.497344448e-06
2.789496158e-05
0.0003001707044
0.003428094092
0.04675936651
0.004323064634
1.143981972e-06
1.131714616e-06
1.179327662e-06
1.182758493e-06
1.266441528e-06
1.301310123e-06
1.448330171e-06
1.548693495e-06
1.92041687e-06
2.474572121e-06
1.072039653e-05
1.673621986e-05
5.789647306e-06
2.781497157e-06
2.037332549e-06
1.730445086e-06
1.548137455e-06
1.425692142e-06
1.338639187e-06
1.275303776e-06
1.233710944e-06
1.207522084e-06
1.199273605e-06
1.209724864e-06
1.249259558e-06
1.342113025e-06
1.567568221e-06
2.605372359e-06
1.637991065e-05
0.0001885055461
0.001671894983
0.01124325595
0.2270118772
0.3134884887
0.1375517393
1.122845803e-06
1.112037672e-06
1.154039138e-06
1.148063277e-06
1.212490022e-06
1.218801216e-06
1.31475626e-06
1.340070029e-06
1.504860235e-06
1.558137614e-06
2.223710593e-06
2.596340505e-06
1.964724533e-06
1.696237125e-06
1.587316345e-06
1.470393539e-06
1.395793197e-06
1.329981377e-06
1.279769161e-06
1.240672599e-06
1.211257241e-06
1.191608538e-06
1.178886139e-06
1.174003025e-06
1.176952424e-06
1.192433396e-06
1.239045272e-06
1.372137382e-06
2.184790013e-06
1.130931178e-05
0.000115120048
0.0009321547066
0.005014132574
0.03071973536
0.003723265672
1.118209217e-06
1.105616037e-06
1.149253945e-06
1.134529561e-06
1.1943031e-06
1.185526005e-06
1.26181962e-06
1.26372239e-06
1.360486792e-06
1.372899334e-06
1.498735494e-06
1.543979858e-06