/*--------------------------------*- C++ -*----------------------------------*\
  =========                 |
  \\      /  F ield         | OpenFOAM: The Open Source CFD Toolbox
   \\    /   O peration     | Website:  https://openfoam.org
    \\  /    A nd           | Version:  8
     \\/     M anipulation  |
\*---------------------------------------------------------------------------*/
FoamFile
{
    version     2.0;
    format      ascii;
    class       volScalarField;
    location    "0.3";
    object      k;
}
// * * * * * * * * * * * * * * * * * * * * * * * * * * * * * * * * * * * * * //

dimensions      [0 2 -2 0 0 0 0];

internalField   nonuniform List<scalar> 
67193
(
7.046038921e-06
8.306340824e-06
2.690296913e-05
0.0003446979735
2.901010313e-05
8.466356977e-06
7.063279836e-06
7.001352764e-06
6.993948544e-06
7.812656175e-06
7.043425481e-06
6.994679312e-06
6.987447131e-06
6.985187472e-06
6.983537615e-06
6.982665543e-06
6.9818687e-06
6.982545757e-06
6.981008383e-06
6.979904978e-06
6.978559946e-06
6.977322279e-06
6.976242331e-06
6.975342373e-06
6.974618403e-06
6.974050879e-06
6.973615289e-06
6.973287484e-06
6.973045925e-06
6.97287268e-06
6.9727503e-06
6.972449951e-06
6.961565952e-06
6.599763451e-06
9.708394982e-06
4.249878967e-05
0.0002899659938
0.002028147798
0.000279271222
4.055717564e-05
9.680158294e-06
7.388335378e-06
7.360430394e-06
4.055021985e-05
1.02122945e-05
7.474769662e-06
7.219413868e-06
7.202083843e-06
7.200236823e-06
7.199271163e-06
7.198717971e-06
7.217340606e-06
7.199968267e-06
7.197128158e-06
7.196171179e-06
7.195485853e-06
7.194928827e-06
7.194484869e-06
7.194140925e-06
7.193878751e-06
7.193681036e-06
7.19353314e-06
7.193423414e-06
7.193342772e-06
7.193265374e-06
7.192495546e-06
7.172020813e-06
6.726346243e-06
5.551303048e-05
0.000383486021
0.00152885996
0.005112247888
0.001372983171
0.0003322250917
4.860327988e-05
1.131434912e-05
1.212231062e-05
0.0004563978466
7.489988595e-05
1.581395214e-05
7.936308457e-06
7.265314198e-06
7.22390083e-06
7.22053925e-06
7.224132753e-06
8.294308878e-06
7.375740515e-06
7.233591343e-06
7.21685652e-06
7.214778429e-06
7.213912077e-06
7.213268845e-06
7.212782889e-06
7.212419257e-06
7.212149096e-06
7.211949398e-06
7.211802521e-06
7.211694087e-06
7.21155627e-06
7.2099895e-06
7.182295955e-06
6.729759792e-06
0.0004434189971
0.001817692483
0.004203075672
0.008181676268
0.003734984591
0.001560128593
0.0003614674558
5.840386204e-05
8.710996276e-05
0.002317376778
0.000659294515
0.0001387866058
2.334951846e-05
8.489214529e-06
7.290377081e-06
7.23599353e-06
7.392420196e-06
3.543693234e-05
1.27017826e-05
7.935007283e-06
7.276167963e-06
7.220245453e-06
7.215987046e-06
7.214929633e-06
7.214249888e-06
7.213760243e-06
7.213405946e-06
7.213150178e-06
7.212966841e-06
7.2128351e-06
7.212670541e-06
7.210966924e-06
7.182686472e-06
6.729963253e-06
0.001908723525
0.004781400842
0.007815067588
0.01164377178
0.006904230025
0.004107712476
0.001559865568
0.0003661396736
0.0006000466583
0.005743151929
0.002773334115
0.0009671684646
0.0001987752521
2.91025061e-05
8.686733814e-06
7.54768952e-06
1.112522994e-05
0.0003357556362
0.00010205931
2.378561248e-05
8.968621526e-06
7.338282662e-06
7.222852019e-06
7.216033508e-06
7.214865223e-06
7.214185382e-06
7.213718116e-06
7.213391518e-06
7.21316392e-06
7.213005897e-06
7.212824075e-06
7.211098161e-06
7.182764854e-06
6.730147075e-06
0.004698638548
0.008780892634
0.01294852539
0.01715066117
0.01061771351
0.007425637201
0.003667301298
0.001364313809
0.002461991213
0.008729481659
0.006307020261
0.003384054508
0.001150840651
0.0002161120766
2.699424726e-05
1.287312324e-05
6.662348523e-05
0.001653624457
0.0007585639573
0.0002050008743
3.728889266e-05
9.979756233e-06
7.381314599e-06
7.223644066e-06
7.215843692e-06
7.214688031e-06
7.214059686e-06
7.21364355e-06
7.213362947e-06
7.213176191e-06
7.21297707e-06
7.21123607e-06
7.182855684e-06
6.730346189e-06
0.007876759624
0.01371858546
0.02244200018
0.02436687628
0.01571401022
0.0105234754
0.005483987824
0.003221234909
0.006341519881
0.01119464723
0.009452300185
0.006975680845
0.003523519368
0.00106248282
0.0001599389946
7.331238292e-05
0.0005137699157
0.00426079505
0.002783939978
0.001156282465
0.0002833665337
4.448593736e-05
1.017549362e-05
7.367407903e-06
7.221772301e-06
7.215424005e-06
7.214469286e-06
7.213945716e-06
7.213606977e-06
7.213396649e-06
7.213180526e-06
7.211425058e-06
7.182970837e-06
6.730534921e-06
0.009458646955
0.0176709607
0.03068053322
0.02815725255
0.01964491387
0.01210917342
0.004749612364
0.007049365623
0.01143186764
0.01474839979
0.01237290343
0.01006391081
0.006653347903
0.002841483551
0.0006325382898
0.0004978120417
0.002365871754
0.007581937516
0.005991655804
0.003387227761
0.0012934789
0.0002825464427
3.906692147e-05
9.356119313e-06
7.307981651e-06
7.218611354e-06
7.214990168e-06
7.214300148e-06
7.213901949e-06
7.213693334e-06
7.213458072e-06
7.211695924e-06
7.183121264e-06
6.730690248e-06
0.001722710443
0.005299317097
0.01209260354
0.02038735139
0.006338271093
0.00305048525
0.006669270427
0.01229273384
0.01991601901
0.01992428325
0.01592238651
0.01220049575
0.008702527042
0.00440680851
0.0013065776
0.002341614431
0.006845048983
0.01197581474
0.009485002863
0.006355943157
0.003274329532
0.001099446978
0.0002015764531
2.563040247e-05
8.228200949e-06
7.251977952e-06
7.216324548e-06
7.214764908e-06
7.21427981e-06
7.214147291e-06
7.213875309e-06
7.212120355e-06
7.183333195e-06
6.730812956e-06
0.0001372571051
0.001247430657
0.004569581325
0.01085206043
0.001579261567
0.001838205276
0.006837257612
0.01567474152
0.02954313073
0.02307472201
0.01814364879
0.01312905141
0.007773091696
0.002835025697
0.001871298578
0.006905383797
0.01408663894
0.01716471564
0.01292471409
0.008742803958
0.005422018363
0.002448407244
0.000652003934
9.448375805e-05
1.354817999e-05
7.493757614e-06
7.22363911e-06
7.215440658e-06
7.214812208e-06
7.21525223e-06
7.215943536e-06
7.213018514e-06
7.183674933e-06
6.730979862e-06
1.308042321e-05
8.894181857e-05
0.00102371073
0.00570594597
0.0002747765014
0.0004615016909
0.002683153531
0.009034422958
0.02403025699
0.01815966236
0.0116720294
0.01198380677
0.006838943109
0.001989820749
0.004164152547
0.01057923106
0.01980859624
0.01857949526
0.01329338096
0.008793377595
0.005830703982
0.003274109102
0.001109920389
0.0002250335336
3.113059585e-05
8.702569429e-06
7.2708104e-06
7.217624578e-06
7.216432769e-06
7.233633127e-06
7.309644464e-06
7.225718937e-06
7.185010718e-06
6.731534361e-06
0.0001097228683
1.248469447e-05
6.328190905e-05
0.00163832436
6.780410152e-05
4.641012718e-05
0.0003563032875
0.001908788477
0.007081396828
0.01011898845
0.006474374762
0.02272444255
0.01616654207
0.007982295174
0.002224337449
0.001220612437
0.01197752993
0.0114662675
0.006639408587
0.003042168734
0.0009757961024
0.0002317809831
0.0001786455918
8.644214919e-05
1.314209343e-05
7.452737896e-06
7.224032654e-06
7.219254491e-06
7.243572549e-06
7.897017211e-06
1.107561258e-05
7.764992299e-06
7.227191749e-06
6.735189165e-06
0.0008475423956
9.517411386e-05
1.144558034e-05
0.0001783815695
1.053419603e-05
1.48652521e-05
0.0001344660524
0.001009504484
0.003575346062
0.008043023316
0.0141717085
0.03432663743
0.02540315582
0.0164283433
0.007486508617
0.002168418588
0.00292165019
0.005131849175
0.003298018639
0.001120116648
0.0001492672536
0.0001421365295
0.001716430914
0.001020688525
0.00013981639
1.536816521e-05
7.468217157e-06
7.250732359e-06
8.083333509e-06
2.459586908e-05
9.307114753e-05
2.309524077e-05
8.719396365e-06
6.826380118e-06
0.003797704184
0.0007793924094
7.446056003e-05
1.332614618e-05
8.10489938e-06
4.47145027e-05
0.0004838805454
0.002520909053
0.006786624085
0.0126203529
0.01881798143
0.04540300806
0.03557167593
0.02326854691
0.01363894302
0.005453656102
0.001460011065
0.001843211377
0.0009669565978
0.0001425230414
0.0001197682318
0.001475882444
0.008722267057
0.005411054473
0.001274875139
0.000149324201
1.429410366e-05
7.928829002e-06
2.732558644e-05
0.0002584541083
0.0008892815573
0.0002499060453
4.059499362e-05
9.272689466e-06
0.01197515047
0.003662760164
0.0005654125194
3.675945346e-05
1.226909576e-05
0.0001450357725
0.001171418404
0.004424766537
0.009911478038
0.01643037927
0.0193671118
0.0352903303
0.03270356814
0.02265834176
0.01328504378
0.005209376576
0.00104901229
0.0003870507957
0.000129920699
0.0001010379652
0.001492906447
0.008132043761
0.02746205718
0.01897466688
0.006267661197
0.001460240741
0.0001617211195
2.142778696e-05
0.0002592765115
0.001703500134
0.003932379314
0.001728880694
0.000393271556
4.949753236e-05
0.02969470367
0.0119661371
0.00272297892
0.0002425992616
6.55949336e-05
0.000879864903
0.004001225033
0.009685782589
0.01641809562
0.02343066001
0.01393392339
0.0110202114
0.008506724479
0.005895607582
0.003122460753
0.001043972101
0.0001906439841
4.518143532e-05
1.676025367e-05
4.104174456e-05
0.0008193124209
0.006874584547
0.03460282944
0.0108414609
0.001540950761
0.0001241817297
1.192843916e-05
0.0002215478077
0.00169236225
0.005549579905
0.009479877288
0.006005330192
0.002209685204
0.0004079664339
0.01916990372
0.004488252507
0.0004754230512
5.035671144e-05
0.0006272214029
0.003446030031
0.009297006134
0.01642210849
0.02331438421
0.03413320942
0.01890376552
0.01407728927
0.01000080399
0.006915832957
0.004313502738
0.002114518822
0.0006411792976
9.84841927e-05
1.30389908e-05
8.450682596e-06
7.146825626e-05
0.0009607162479
0.009291279311
0.002055377477
0.0001912574586
1.526826862e-05
0.0001503027509
0.001535196617
0.005309712116
0.01105657374
0.01668391736
0.01225951422
0.006602492337
0.001931181192
0.004665569439
0.0006755569171
4.528952764e-05
0.0002718031249
0.002220754618
0.007349370382
0.01438227681
0.0213717662
0.02996367899
0.04922536633
0.03124924364
0.01964744168
0.01275789805
0.008585874075
0.005740994358
0.003400355628
0.001504863094
0.0003706507709
4.414388122e-05
8.394284414e-06
1.004364328e-05
7.911433772e-05
0.001369179016
0.0001620739351
1.55742681e-05
9.779271628e-05
0.001128199038
0.004380470029
0.00888693805
0.01742255685
0.02623116913
0.0196750019
0.0126201486
0.005684336712
0.0007001773369
6.840035149e-05
1.246364224e-05
0.0001980345064
0.002102887811
0.0084768854
0.01739368098
0.02469926498
0.03413402313
0.05623890561
0.04517507287
0.02767978239
0.01841792043
0.01240675625
0.00696307547
0.002890422768
0.0007842139351
0.0001193543248
1.500924689e-05
7.455062068e-06
7.289072735e-06
9.541453765e-06
9.332516178e-05
1.222022229e-05
8.144854659e-06
3.821114174e-05
0.0004637053032
0.002713671323
0.009452964316
0.01909620156
0.01291163723
0.006471890378
0.002335822947
0.0007302619804
6.095509786e-05
1.075397266e-05
7.554014093e-06
2.823177252e-05
0.0003752435557
0.002375669672
0.007302863092
0.0148378786
0.02540925149
0.05388371592
0.03609644905
0.02055500893
0.01319826415
0.007773796015
0.003504786677
0.00107074283
0.0001890168429
2.407825291e-05
8.06106158e-06
7.244270508e-06
7.223181107e-06
7.263522646e-06
9.649537714e-06
7.303978793e-06
7.278564594e-06
9.25278897e-06
4.625427589e-05
0.0003936777551
0.002126112635
0.006909200119
0.005468670384
0.002064548572
0.0003663073331
5.05200441e-05
9.705564487e-06
7.363961813e-06
7.243470492e-06
8.618947997e-06
4.287777681e-05
0.0004051719564
0.002069489901
0.006638277129
0.01538599424
0.03312341096
0.02020515258
0.01330664271
0.007907670885
0.00376925902
0.00123011057
0.0002398637349
3.215525933e-05
8.796625579e-06
7.283583035e-06
7.223340306e-06
7.219810705e-06
7.218962294e-06
7.253670304e-06
7.221715552e-06
7.229821679e-06
7.361395554e-06
1.019206507e-05
4.894961577e-05
0.0003525768665
0.001577306621
0.001366533796
0.0002535957282
1.958773442e-05
0.0001049002155
7.298773265e-06
7.227271602e-06
7.225322456e-06
7.290903405e-06
9.304530915e-06
4.325586958e-05
0.0003196132114
0.001748713277
0.00626438255
0.01906557415
0.01116640565
0.00703740576
0.003470513895
0.001200898919
0.0002482247718
3.584445605e-05
9.275111684e-06
7.320280793e-06
7.225897274e-06
7.220301768e-06
7.218241579e-06
7.217183262e-06
7.217072554e-06
7.21681044e-06
7.21773432e-06
7.22589361e-06
7.323733795e-06
8.938269037e-06
2.662922573e-05
0.0001475708694
0.0001293112322
2.376388368e-05
0.0001453007079
0.0007712055427
7.222151681e-06
7.221992296e-06
7.222613335e-06
7.228974242e-06
7.313062112e-06
9.286287661e-06
3.303382177e-05
0.0002532549907
0.001452970049
0.007091722896
0.005002199403
0.002652745173
0.000942282834
0.0002086570111
3.289053934e-05
9.292029401e-06
7.335174198e-06
7.228374234e-06
7.221335317e-06
7.219003631e-06
7.217440319e-06
7.216606119e-06
7.216309722e-06
7.216722056e-06
7.218109858e-06
7.221110343e-06
7.230404652e-06
7.291942057e-06
7.91207336e-06
1.279640315e-05
2.925218887e-05
0.0002208400904
0.001023734186
0.00246574614
7.219563508e-06
7.220736177e-06
7.221025711e-06
7.223778745e-06
7.228221346e-06
7.30765608e-06
8.5034627e-06
2.493469161e-05
0.0001648158118
0.001304658808
0.001461112037
0.000560696239
0.0001319814023
2.465452493e-05
8.763078739e-06
7.319503615e-06
7.229199613e-06
7.222522193e-06
7.219898233e-06
7.218198155e-06
7.216933781e-06
7.216139831e-06
7.215621764e-06
7.215385498e-06
7.215387673e-06
7.215812447e-06
7.216994343e-06
7.230701183e-06
7.653539807e-06
1.944031451e-05
0.0002034658516
0.001329713505
0.003697836011
0.005190016121
7.219633754e-06
7.219179116e-06
7.220254271e-06
7.220456043e-06
7.222364979e-06
7.223525577e-06
7.228967696e-06
7.270795506e-06
7.99698766e-06
1.577368327e-05
0.0001152432526
0.0002257147417
6.204952972e-05
1.568452114e-05
8.074425645e-06
7.28517979e-06
7.228945742e-06
7.223657164e-06
7.221184051e-06
7.219343946e-06
7.217898878e-06
7.216821061e-06
7.21608371e-06
7.2156748e-06
7.215694484e-06
7.216399382e-06
7.219902213e-06
7.32706621e-06
1.135655163e-05
8.974580925e-05
0.0007650934416
0.003287270579
0.008072086183
0.01324617592
0.0120740869
7.21932028e-06
7.219092584e-06
7.220065338e-06
7.220078104e-06
7.221561351e-06
7.221875033e-06
7.224183636e-06
7.225581034e-06
7.249594778e-06
7.497696413e-06
1.155816267e-05
2.246021755e-05
9.8979718e-06
7.544592046e-06
7.252545176e-06
7.227467886e-06
7.224293278e-06
7.222428364e-06
7.220627466e-06
7.219251321e-06
7.217957506e-06
7.217027381e-06
7.21624676e-06
7.215716043e-06
7.215379763e-06
7.21532543e-06
7.215824296e-06
7.219136539e-06
7.308070067e-06
9.95050365e-06
5.33911085e-05
0.0004004030953
0.001712859561
0.003807643961
0.004736320847
7.219361626e-06
7.219154061e-06
7.220179772e-06
7.220046823e-06
7.221466641e-06
7.221480299e-06
7.223341094e-06
7.223442851e-06
7.226504634e-06
7.230991479e-06
7.327629933e-06
7.764521743e-06
7.299446026e-06
7.234313295e-06
7.226870885e-06
7.225374477e-06
7.223886942e-06
7.222853283e-06
7.221132927e-06
7.220067465e-06
7.218667378e-06
7.217794475e-06
7.216906734e-06
7.216382294e-06
7.216075542e-06
7.21614412e-06
7.21671663e-06
7.218199419e-06
7.224148402e-06
7.338048364e-06
1.000942843e-05
4.594431536e-05
0.0002945134407
0.001047661072
0.002181399698
7.219695594e-06
7.219382715e-06
7.220593316e-06
7.220194677e-06
7.221775997e-06
7.221325749e-06
7.223082676e-06
7.222581415e-06
7.224459021e-06
7.223671176e-06
7.227125934e-06
7.235244595e-06
7.226869261e-06
7.225465505e-06
7.225111468e-06
7.22493626e-06
7.223603578e-06
7.22350644e-06
7.221572428e-06
7.221075214e-06
7.219504846e-06
7.218903867e-06
7.217868369e-06
7.217269698e-06
7.216673337e-06
7.2163573e-06
7.216333304e-06
7.216856866e-06
7.218601681e-06
7.225119912e-06
7.310849074e-06
9.00729474e-06
3.040587988e-05
0.0001596358994
0.0006817932777
7.219816893e-06
7.221409751e-06
7.220529139e-06
7.222591411e-06
7.221511469e-06
7.223573378e-06
7.222548371e-06
7.224195554e-06
7.223414669e-06
7.224867878e-06
7.22467591e-06
7.225401755e-06
7.225680554e-06
7.226028502e-06
7.226599273e-06
7.225909641e-06
7.228059544e-06
7.260009552e-06
7.227442639e-06
7.222262504e-06
7.221383158e-06
7.219817361e-06
7.219128938e-06
7.21825941e-06
7.217866833e-06
7.217728842e-06
7.21797873e-06
7.218689714e-06
7.220265985e-06
7.224873941e-06
7.280658093e-06
8.269136369e-06
1.828919423e-05
0.0001047139183
7.220482183e-06
7.223196436e-06
7.221064051e-06
7.22407223e-06
7.222006634e-06
7.225571477e-06
7.222913795e-06
7.224623668e-06
7.223529543e-06
7.224793783e-06
7.224570288e-06
7.225485361e-06
7.220297568e-06
7.219523986e-06
7.218911635e-06
7.21865373e-06
7.218720991e-06
7.21924821e-06
7.220356102e-06
7.222703829e-06
7.242222627e-06
7.526704258e-06
1.218769657e-05
7.222800274e-06
7.226842773e-06
7.222941281e-06
7.334581444e-06
7.225598883e-06
7.225749194e-06
7.060686239e-06
7.137900104e-06
7.630270171e-06
3.098067837e-05
7.879894526e-06
7.260993374e-06
7.137980035e-06
7.215584817e-06
7.134317128e-06
7.260639668e-06
7.153591555e-06
7.144454194e-06
7.115824916e-06
7.091836601e-06
7.075800367e-06
7.060385898e-06
7.050641428e-06
7.043117305e-06
7.031389343e-06
7.01893543e-06
7.00624371e-06
6.993866195e-06
6.982749493e-06
6.97313894e-06
6.965130283e-06
6.958666046e-06
6.953588855e-06
6.94969912e-06
6.946790424e-06
6.944676715e-06
6.943179064e-06
6.941282704e-06
6.914120368e-06
6.365861145e-06
1.227674101e-05
1.491554799e-05
3.375477557e-05
0.0002530155657
3.296742537e-05
1.620196057e-05
1.273482992e-05
1.274347202e-05
1.15290271e-05
1.50509119e-05
1.242594628e-05
1.188390791e-05
1.156590671e-05
1.118557982e-05
1.098775388e-05
1.079571487e-05
1.065972201e-05
1.060017992e-05
1.048329861e-05
1.037442769e-05
1.027408023e-05
1.018001807e-05
1.010148125e-05
1.003662693e-05
9.984676066e-06
9.94369253e-06
9.911807395e-06
9.887322865e-06
9.868736382e-06
9.854861031e-06
9.84424324e-06
9.822413328e-06
9.527882745e-06
6.490771267e-06
2.307557247e-05
5.67341895e-05
0.0001788181843
0.0006392721438
0.0001585146202
5.869903932e-05
2.249353712e-05
1.86311546e-05
1.408484133e-05
5.020920706e-05
2.066198606e-05
1.583206584e-05
1.433222206e-05
1.293446127e-05
1.240506666e-05
1.196895649e-05
1.165054293e-05
1.180205984e-05
1.149710585e-05
1.126141967e-05
1.107900125e-05
1.088527823e-05
1.073367916e-05
1.060750384e-05
1.050770696e-05
1.04294073e-05
1.03687454e-05
1.032246752e-05
1.028781439e-05
1.026238864e-05
1.024169184e-05
1.018911015e-05
9.737786197e-06
6.503242721e-06
8.141897566e-05
0.0002782845205
0.0003399740128
0.0006962951291
0.0003197537182
0.0002820873587
7.169952995e-05
3.739546942e-05
2.396261432e-05
0.0002907121681
7.078598824e-05
2.9485178e-05
1.97989133e-05
1.487875582e-05
1.334886913e-05
1.270599159e-05
1.21239916e-05
1.457100339e-05
1.278403098e-05
1.205263766e-05
1.160167494e-05
1.122139867e-05
1.097484509e-05
1.078743132e-05
1.064943876e-05
1.054459193e-05
1.046506889e-05
1.040529087e-05
1.036132569e-05
1.032987001e-05
1.030391732e-05
1.023845669e-05
9.758523423e-06
6.504827656e-06
0.0003567040276
0.0006341247385
0.0003294433762
0.004280571959
0.00031194696
0.0007359427998
0.0003128364653
0.0001464059299
9.625785342e-05
0.0007812002251
0.0003255774004
0.0001240610697
4.330731129e-05
2.040900991e-05
1.495724384e-05
1.3840254e-05
1.311665261e-05
3.628984595e-05
1.989398371e-05
1.446754691e-05
1.277991743e-05
1.174913e-05
1.129222259e-05
1.098203873e-05
1.078603336e-05
1.064543642e-05
1.054306877e-05
1.046779042e-05
1.041331235e-05
1.037547679e-05
1.034531338e-05
1.027477978e-05
9.777439498e-06
6.506327564e-06
0.0006773834875
0.0006368243194
0.00437499369
0.01341761991
0.001793664624
0.0008391612619
0.0008460232178
0.0005961188821
0.0003992766594
0.0006364985184
0.0005207805214
0.0005418835175
0.0001689475128
4.402052038e-05
1.9741122e-05
1.778766669e-05
1.947140952e-05
0.0001733740744
7.871229041e-05
3.143161473e-05
1.779875644e-05
1.336522107e-05
1.194108011e-05
1.12989531e-05
1.097781986e-05
1.077632494e-05
1.064237595e-05
1.054769639e-05
1.048038244e-05
1.043572801e-05
1.040098206e-05
1.032568671e-05
9.804677711e-06
6.508029002e-06
0.0004376595094
0.001735491734
0.02767786704
0.02526937299
0.01321399393
0.001232250733
0.001174009806
0.001147421219
0.0004786969343
0.002502659155
0.0008570721169
0.0009705320337
0.0005839547456
0.0001570215508
3.624122324e-05
3.073662531e-05
6.260552002e-05
0.0003668322757
0.0003158665894
0.0001381923202
4.430263035e-05
1.868255767e-05
1.34955364e-05
1.181272322e-05
1.125515116e-05
1.094690788e-05
1.077043509e-05
1.065258252e-05
1.05695672e-05
1.052009712e-05
1.047992777e-05
1.040022798e-05
9.844606374e-06
6.509809535e-06
0.0004496593155
0.003565347626
0.0425318162
0.03057868779
0.02185074036
0.001846471121
0.001389299782
0.001567728928
0.0047935374
0.00890220151
0.005217478875
0.001184943336
0.0009376414522
0.0004931051904
0.0001002632181
0.0001106516744
0.000468878164
0.0009138109795
0.0005051514715
0.0004734811183
0.0001818704739
4.635286962e-05
1.878086543e-05
1.31058408e-05
1.174346747e-05
1.119467516e-05
1.094088562e-05
1.079269096e-05
1.068811346e-05
1.064311398e-05
1.059388539e-05
1.051399635e-05
9.904613634e-06
6.511554089e-06
0.000180379432
0.0005719624301
0.01838833478
0.02322757115
0.005053754404
0.0009890100613
0.00118636705
0.00148297204
0.02281345869
0.01841711057
0.01197003528
0.003694959387
0.0008577727619
0.0008299714481
0.0002312095173
0.0005300360972
0.004215857986
0.007068957688
0.003435474866
0.0007595311682
0.0004850452125
0.000144627743
3.447093829e-05
1.557960744e-05
1.2554065e-05
1.155179422e-05
1.118889297e-05
1.100067771e-05
1.085470651e-05
1.084067519e-05
1.076653598e-05
1.070027307e-05
9.99849617e-06
6.513249086e-06
3.66502488e-05
0.0001512845378
0.00049002551
0.005043965321
0.0002768545462
0.0003197779023
0.000867834593
0.00513733468
0.03786840687
0.02298962421
0.01485298931
0.00532091638
0.002028886415
0.0006111063669
0.0004171362116
0.002066448893
0.01664189781
0.01706084824
0.01055937261
0.002551541075
0.0004410397628
0.0003051117386
8.136304223e-05
2.199651651e-05
1.402856091e-05
1.222102925e-05
1.155120629e-05
1.131804551e-05
1.110172462e-05
1.119723429e-05
1.105544866e-05
1.103431838e-05
1.015428625e-05
6.515130821e-06
2.127215311e-05
2.410576025e-05
0.000100044321
0.0006594530924
4.837391603e-05
6.549039487e-05
0.0005249028167
0.007025174791
0.03047499276
0.02062498044
0.006128649357
0.0036323164
0.001430571304
0.0004065161816
0.00123060841
0.008696877189
0.02393408602
0.01934277097
0.009509095298
0.002200959851
0.0003412722241
0.0004006709221
0.0001788118393
4.266501763e-05
1.834647651e-05
1.402315787e-05
1.241681858e-05
1.195314088e-05
1.1602251e-05
1.198269236e-05
1.171689165e-05
1.173650503e-05
1.044238365e-05
6.51796898e-06
3.495545314e-05
1.862631576e-05
2.179448336e-05
0.0001853810278
1.99792431e-05
2.261026258e-05
4.798367629e-05
0.0003204989211
0.002545376236
0.00353596407
0.001879486439
0.00592978049
0.00189432315
0.001304545129
0.0004091187206
0.001565909186
0.01309620531
0.01378507181
0.004253256651
0.0001987503483
0.0001277269299
6.442330588e-05
0.000163150549
2.681460664e-05
1.94013387e-05
1.838005163e-05
1.419695693e-05
1.310125276e-05
1.266827748e-05
1.339816738e-05
1.345932892e-05
1.339748286e-05
1.102627701e-05
6.522998948e-06
0.0001190619749
3.461360141e-05
1.991981399e-05
2.698347652e-05
1.777479715e-05
1.989911399e-05
2.841547379e-05
0.000164042412
0.0009098050159
0.002602861917
0.00278839811
0.02620124727
0.01069806311
0.002010306637
0.00117211751
0.0004109669205
0.001677599224
0.000873632325
0.0004762647067
0.0001783520131
5.219680536e-05
6.852684362e-05
0.001762263824
0.0001641196058
2.815515373e-05
2.304521597e-05
1.95206674e-05
1.610985897e-05
1.568550389e-05
1.596041341e-05
2.179194901e-05
1.955635051e-05
1.28460526e-05
6.538921806e-06
0.0003257444373
9.151545449e-05
2.618537831e-05
1.541545655e-05
1.545928578e-05
2.06952553e-05
8.609744882e-05
0.0005420059271
0.001910031337
0.00360141809
0.02725251639
0.05259116867
0.03968065975
0.009024861098
0.001672635833
0.0007565735384
0.0002787271168
0.000281314843
0.0001484312075
4.925909668e-05
5.679424821e-05
0.0003707924144
0.01119276424
0.003703243436
0.0002946426186
3.435442624e-05
2.654299022e-05
2.359079908e-05
2.230329136e-05
4.164282282e-05
6.990747066e-05
3.830405221e-05
1.81825527e-05
6.658692894e-06
0.0004208772233
0.0002454738067
5.695787719e-05
1.822576446e-05
1.984127926e-05
3.563471624e-05
0.0001942386398
0.0009366252348
0.002027557792
0.00611520759
0.04018322285
0.04769444011
0.04219641133
0.01593453058
0.004650473069
0.00108251916
0.0001536613048
6.134279105e-05
4.116475436e-05
3.607335268e-05
0.0002874880687
0.005614352675
0.03786939324
0.02896086603
0.003490216
0.0001641675223
3.714394169e-05
2.967950385e-05
4.092505431e-05
0.0003179384015
0.0002628150329
0.0001683018126
5.583317906e-05
8.903297014e-06
0.006245301081
0.0006361164695
0.0001978878638
2.981199616e-05
2.38088345e-05
0.0001319547676
0.0008340502781
0.002017797385
0.002046576419
0.004417586736
0.02090624596
0.02035318716
0.00799319275
0.002739206076
0.0009593392328
0.0002243657777
4.007426969e-05
2.275629915e-05
2.922183084e-05
0.0001530639929
0.00239090292
0.02451171356
0.056228709
0.0270885897
0.003702631955
0.0002713057278
6.208955256e-05
4.294404843e-05
0.0001867466725
0.001831049254
0.001000243938
0.0005034979674
0.0002617794047
4.14625783e-05
0.01310788795
0.001474780137
8.38002313e-05
2.635106595e-05
8.435168201e-05
0.0006263612471
0.001751003312
0.002164349965
0.002095902396
0.02011507222
0.007924249892
0.00399427678
0.002357507911
0.002026582151
0.001368781776
0.0005117233793
0.0001123871402
2.849914449e-05
2.009325861e-05
2.180546964e-05
0.0001401972395
0.0004397773033
0.006349937937
0.001077626858
0.0001565226165
4.65820397e-05
3.846666246e-05
0.0001777890857
0.0008729252147
0.007883519229
0.01208101806
0.003781313857
0.0005448458407
0.0002386627401
0.0007321008692
0.0001558470887
1.943800678e-05
3.67134408e-05
0.0002841351847
0.001078773839
0.001472856851
0.001406191971
0.009812225539
0.04523211443
0.02589552316
0.007096084634
0.002624045643
0.0008431385827
0.001061388948
0.0007536126799
0.0002535681362
5.50377417e-05
2.012163061e-05
1.512132896e-05
1.96081498e-05
5.566356292e-05
0.0008767784042
9.038913089e-05
3.153280808e-05
5.155931714e-05
0.0001104302785
0.0004757015334
0.007225559168
0.0167316941
0.026625831
0.01406637561
0.001703874397
0.0009896746243
0.0001345811736
2.501021151e-05
1.530260724e-05
2.784147595e-05
0.0002088307375
0.001057435269
0.001577980583
0.00316452946
0.01910463667
0.05549644305
0.04789653026
0.01148878944
0.003240611038
0.0007136599486
0.0007382078749
0.0004201587325
0.0001012415637
2.74545246e-05
1.672899648e-05
1.376863422e-05
1.429701145e-05
1.46714885e-05
5.358763933e-05
1.935972942e-05
1.985525896e-05
3.147696412e-05
0.0002786623954
0.001954557135
0.01505040683
0.02504626651
0.01665220202
0.003693364528
0.0002469763918
6.525027852e-05
2.284509252e-05
1.282933063e-05
1.33048754e-05
1.643469265e-05
3.971346044e-05
0.0002552992584
0.000782414739
0.0009711065228
0.005054206712
0.05791993084
0.04581978632
0.004857943339
0.0007463409478
0.0009609107514
0.0005135222168
0.0001377150491
3.332570223e-05
1.699566529e-05
1.359780728e-05
1.252947202e-05
1.304725681e-05
1.271321963e-05
1.491502189e-05
1.448105618e-05
1.477987119e-05
1.565379571e-05
2.658537702e-05
7.255361911e-05
0.0004062416891
0.005022379056
0.000489843757
0.0002597158286
5.476602653e-05
1.048412538e-05
1.261310048e-05
1.253084489e-05
1.235457068e-05
1.409680905e-05
1.762372686e-05
4.363696877e-05
0.0002217920225
0.0009124380328
0.001092423737
0.00755724206
0.0048309371
0.001117288646
0.001178346663
0.0006382339055
0.0001633297553
4.033094236e-05
1.934492118e-05
1.428012956e-05
1.27531213e-05
1.198846526e-05
1.193456625e-05
1.174153305e-05
1.239511024e-05
1.302219599e-05
1.493851018e-05
1.665956363e-05
1.627415813e-05
2.116814515e-05
7.639460421e-05
0.0004364168494
0.000125388777
5.228097048e-05
2.164572375e-05
1.20183608e-05
1.142077514e-05
1.156484314e-05
1.142301701e-05
1.245572785e-05
1.367574449e-05
1.773360247e-05
3.535375466e-05
0.0001696227573
0.0006007612488
0.00121331829
0.0006241007836
0.001025849825
0.0005392986385
0.0001549547949
4.071189354e-05
1.960837229e-05
1.445043889e-05
1.279932662e-05
1.190807475e-05
1.155592432e-05
1.139494275e-05
1.131554335e-05
1.15113521e-05
1.153877151e-05
1.168558726e-05
1.254119505e-05
1.323262721e-05
1.520363932e-05
1.482642366e-05
2.666456154e-05
4.198756969e-05
5.341241322e-05
2.8735047e-05
6.78505352e-05
1.102111418e-05
1.128406803e-05
1.111548043e-05
1.175140722e-05
1.210773954e-05
1.390363514e-05
1.683672086e-05
2.847723259e-05
0.000112943997
0.0006439812526
0.0005959584178
0.0003545669034
0.0001107848678
3.523147469e-05
1.920226902e-05
1.4409734e-05
1.284010903e-05
1.199234336e-05
1.153130656e-05
1.129003259e-05
1.115013149e-05
1.113377641e-05
1.126783576e-05
1.157982644e-05
1.224441614e-05
1.345861397e-05
1.604704461e-05
2.027104677e-05
2.31280281e-05
2.723167369e-05
3.626350836e-05
5.289412952e-05
0.0002027001279
0.0004789502064
1.074890995e-05
1.098608638e-05
1.084354248e-05
1.125961341e-05
1.129083592e-05
1.221147853e-05
1.291239855e-05
1.54435026e-05
2.044841135e-05
8.01045712e-05
0.0001376663984
5.723239876e-05
2.517266214e-05
1.72509996e-05
1.384457176e-05
1.269849551e-05
1.19101958e-05
1.153533836e-05
1.122413021e-05
1.106467089e-05
1.094705227e-05
1.091051431e-05
1.090569188e-05
1.094745412e-05
1.102165671e-05
1.121290775e-05
1.143626441e-05
1.222239815e-05
1.498798656e-05
2.410803182e-05
4.623640389e-05
0.0002238628777
0.002050989162
0.0028568123
1.080177522e-05
1.064756822e-05
1.085475343e-05
1.076194027e-05
1.107438719e-05
1.105842251e-05
1.160066715e-05
1.171817204e-05
1.292126225e-05
1.322048322e-05
1.725849885e-05
2.69247187e-05
1.795518483e-05
1.479680534e-05
1.333205409e-05
1.245826449e-05
1.189920937e-05
1.154052299e-05
1.12710875e-05
1.106670667e-05
1.093177758e-05
1.084473724e-05
1.083005426e-05
1.08887779e-05
1.108784785e-05
1.156233238e-05
1.268456785e-05
1.52272457e-05
1.772577097e-05
2.529032089e-05
0.0001271068421
0.0007091438636
0.009668311007
0.01461325264
0.01353417771
1.069627739e-05
1.059506853e-05
1.077143346e-05
1.068001478e-05
1.092158912e-05
1.084355437e-05
1.120534703e-05
1.109566244e-05
1.182206157e-05
1.146197151e-05
1.296489141e-05
1.315575484e-05
1.29705816e-05
1.215706376e-05
1.203635973e-05
1.165219595e-05
1.146533363e-05
1.125807524e-05
1.107480263e-05
1.094586874e-05