/*--------------------------------*- C++ -*----------------------------------*\
  =========                 |
  \\      /  F ield         | OpenFOAM: The Open Source CFD Toolbox
   \\    /   O peration     | Website:  https://openfoam.org
    \\  /    A nd           | Version:  8
     \\/     M anipulation  |
\*---------------------------------------------------------------------------*/
FoamFile
{
    version     2.0;
    format      ascii;
    class       volScalarField;
    location    "0.3";
    object      p;
}
// * * * * * * * * * * * * * * * * * * * * * * * * * * * * * * * * * * * * * //

dimensions      [1 -1 -2 0 0 0 0];

internalField   nonuniform List<scalar> 
67193
(
100003.9374
100003.9486
100003.9407
100003.9685
100003.9122
100003.8946
100003.8673
100003.8538
100003.8329
100003.8321
100003.8095
100003.7992
100003.7846
100003.774
100003.7639
100003.7552
100003.7475
100003.7412
100003.7347
100003.7289
100003.7235
100003.7186
100003.7141
100003.7101
100003.7065
100003.7034
100003.7006
100003.6982
100003.6962
100003.6946
100003.6933
100003.6924
100003.6917
100003.6914
100003.9436
100003.9503
100003.9407
100003.936
100003.909
100003.8913
100003.8684
100003.854
100003.8337
100003.8369
100003.8126
100003.8013
100003.7861
100003.7751
100003.7645
100003.7558
100003.7478
100003.7421
100003.7353
100003.7295
100003.724
100003.7189
100003.7144
100003.7103
100003.7067
100003.7035
100003.7007
100003.6984
100003.6964
100003.6947
100003.6934
100003.6925
100003.6918
100003.6915
100003.9543
100003.9538
100003.9335
100003.8964
100003.8973
100003.8857
100003.8702
100003.8544
100003.8346
100003.8389
100003.8187
100003.8051
100003.7896
100003.7774
100003.766
100003.7572
100003.7486
100003.7444
100003.7369
100003.731
100003.725
100003.7198
100003.715
100003.7108
100003.7071
100003.7039
100003.7011
100003.6986
100003.6966
100003.695
100003.6937
100003.6927
100003.6921
100003.6918
100003.963
100003.956
100003.9147
100003.8639
100003.8748
100003.8764
100003.8691
100003.8538
100003.8324
100003.8242
100003.8205
100003.808
100003.7945
100003.7809
100003.7686
100003.7593
100003.7498
100003.748
100003.7399
100003.7337
100003.727
100003.7213
100003.7162
100003.7118
100003.7079
100003.7046
100003.7016
100003.6991
100003.6971
100003.6954
100003.6941
100003.6931
100003.6925
100003.6922
100003.9629
100003.9539
100003.8976
100003.9248
100003.856
100003.8676
100003.8669
100003.8509
100003.8263
100003.7888
100003.8095
100003.799
100003.7968
100003.7849
100003.772
100003.7614
100003.7503
100003.7486
100003.7434
100003.7369
100003.7297
100003.7234
100003.718
100003.7132
100003.7092
100003.7056
100003.7025
100003.6999
100003.6978
100003.696
100003.6947
100003.6938
100003.6932
100003.6929
100003.9415
100003.9233
100003.9172
100004.0785
100003.8736
100003.8634
100003.8748
100003.8549
100003.8221
100003.7392
100003.7798
100003.7783
100003.7908
100003.7874
100003.7763
100003.7635
100003.7491
100003.741
100003.7435
100003.7389
100003.7332
100003.7264
100003.7205
100003.7154
100003.711
100003.7072
100003.7038
100003.701
100003.6987
100003.697
100003.6956
100003.6946
100003.694
100003.6938
100003.9104
100003.906
100004.0036
100004.2186
100003.963
100003.8747
100003.8984
100003.887
100003.8128
100003.7688
100003.7606
100003.7516
100003.7774
100003.7841
100003.7803
100003.766
100003.7474
100003.7235
100003.7367
100003.7336
100003.7337
100003.7292
100003.724
100003.7189
100003.7142
100003.7098
100003.7059
100003.7027
100003.7002
100003.6982
100003.6969
100003.6959
100003.6953
100003.695
100003.9062
100003.8881
100003.9826
100004.1902
100003.9239
100003.9083
100003.9393
100003.9001
100003.8328
100003.9197
100003.8375
100003.7268
100003.7587
100003.7792
100003.785
100003.772
100003.747
100003.7082
100003.724
100003.723
100003.7295
100003.7308
100003.7289
100003.7246
100003.7193
100003.7138
100003.709
100003.7051
100003.7022
100003.7001
100003.6986
100003.6977
100003.6971
100003.6969
100003.9225
100003.8906
100003.9136
100004.0155
100003.9322
100003.8988
100003.8686
100003.8072
100003.9666
100004.1045
100003.9744
100003.7563
100003.7344
100003.7692
100003.7951
100003.7803
100003.7513
100003.7375
100003.7243
100003.7073
100003.7192
100003.7279
100003.7342
100003.7353
100003.7294
100003.7214
100003.7145
100003.7092
100003.7052
100003.7027
100003.7013
100003.7003
100003.6997
100003.6995
100003.9519
100003.9231
100003.9068
100003.8935
100003.8964
100003.8733
100003.8554
100003.8148
100004.0847
100004.1143
100003.95
100003.8096
100003.7705
100003.7808
100003.8025
100003.7689
100003.7888
100003.8259
100003.7827
100003.7165
100003.719
100003.7339
100003.7464
100003.7598
100003.7481
100003.7341
100003.7233
100003.7152
100003.7097
100003.7064
100003.7055
100003.7042
100003.7036
100003.7034
100003.9643
100003.9339
100003.9249
100003.8765
100003.884
100003.8559
100003.8278
100003.7762
100003.9303
100003.9026
100003.8457
100003.821
100003.786
100003.7898
100003.8061
100003.752
100003.8338
100003.8599
100003.7894
100003.712
100003.7113
100003.7479
100003.7761
100003.815
100003.7823
100003.7588
100003.7402
100003.7259
100003.7171
100003.7116
100003.7124
100003.7102
100003.7096
100003.7092
100003.9721
100003.9521
100003.9296
100003.907
100003.8854
100003.8664
100003.8528
100003.8249
100003.8337
100003.8561
100003.8587
100003.8027
100003.7728
100003.7694
100003.7893
100003.7595
100003.7989
100003.7926
100003.7357
100003.7247
100003.7448
100003.8011
100003.7489
100003.9169
100003.8543
100003.8084
100003.7694
100003.7423
100003.7283
100003.7185
100003.7234
100003.7195
100003.719
100003.7182
100003.9741
100003.9624
100003.9363
100003.9194
100003.8917
100003.8788
100003.8658
100003.8445
100003.8602
100003.9028
100003.8001
100003.7976
100003.7578
100003.7358
100003.7606
100003.7634
100003.758
100003.7344
100003.7432
100003.7499
100003.7583
100003.8201
100003.6236
100003.7499
100003.9102
100003.8745
100003.8196
100003.7711
100003.7456
100003.7272
100003.738
100003.7341
100003.733
100003.732
100003.9677
100003.9695
100003.9448
100003.9269
100003.8968
100003.8818
100003.8615
100003.8324
100003.8278
100003.8287
100003.8193
100003.8984
100003.8355
100003.7206
100003.7308
100003.7515
100003.7566
100003.748
100003.7558
100003.7672
100003.7639
100003.7615
100003.8255
100004.0565
100004.0101
100003.9221
100003.8455
100003.779
100003.7556
100003.7268
100003.7365
100003.7476
100003.7495
100003.7507
100003.9273
100003.9522
100003.9426
100003.9265
100003.8999
100003.8812
100003.8538
100003.8195
100003.7994
100003.8092
100003.9234
100003.9841
100003.8814
100003.7408
100003.723
100003.7463
100003.7597
100003.7564
100003.7762
100003.8078
100003.7261
100003.6555
100004.41
100004.7936
100003.852
100003.7815
100003.9768
100003.9157
100003.8069
100003.7095
100003.6984
100003.7497
100003.7645
100003.7803
100003.9015
100003.9184
100003.9326
100003.9332
100003.911
100003.8774
100003.8366
100003.7938
100003.7502
100003.7613
100003.9111
100003.8855
100003.7943
100003.7464
100003.7446
100003.7543
100003.7563
100003.7449
100003.732
100003.7104
100003.6462
100003.5954
100004.0274
100003.8679
100003.5738
100003.6523
100003.7273
100003.7195
100003.695
100003.6437
100003.6288
100003.7154
100003.7699
100003.8266
100003.8706
100003.887
100003.9036
100003.9039
100003.8808
100003.8486
100003.8016
100003.7487
100003.7059
100003.9457
100003.9235
100003.8065
100003.7558
100003.7393
100003.7399
100003.7475
100003.756
100003.747
100003.7376
100003.7197
100003.6889
100003.6259
100003.4671
100003.7248
100003.8172
100003.7988
100003.7968
100003.7516
100003.6534
100003.7921
100003.8593
100003.7629
100003.7877
100003.9051
100003.8266
100003.8631
100003.8738
100003.8764
100003.8511
100003.8089
100003.7568
100003.7313
100003.8353
100004.3859
100004.1547
100003.9
100003.7376
100003.6727
100003.6947
100003.7208
100003.7368
100003.7413
100003.7352
100003.7163
100003.7015
100003.6873
100003.6797
100003.7698
100003.7344
100003.727
100003.7211
100003.6549
100003.7269
100004.0748
100004.1447
100003.8309
100003.6957
100003.9645
100003.863
100003.8592
100003.8523
100003.8497
100003.8265
100003.7835
100003.7277
100003.7116
100003.9137
100004.4841
100004.2924
100003.9318
100003.7215
100003.6545
100003.7047
100003.7298
100003.7396
100003.7359
100003.7266
100003.711
100003.7052
100003.6965
100003.7043
100003.7284
100003.7158
100003.7009
100003.6841
100003.6387
100003.7381
100004.0012
100003.9001
100003.7479
100003.7332
100003.8171
100003.8547
100003.8424
100003.8313
100003.8233
100003.8056
100003.7774
100003.7448
100003.7183
100003.7316
100004.0281
100003.9639
100003.714
100003.6803
100003.6986
100003.7235
100003.7335
100003.7366
100003.7307
100003.7235
100003.714
100003.7112
100003.7045
100003.71
100003.7138
100003.7067
100003.697
100003.6854
100003.6581
100003.619
100003.6268
100003.658
100003.7789
100003.8267
100003.9182
100003.844
100003.8294
100003.816
100003.8058
100003.7926
100003.7751
100003.7565
100003.7376
100003.7109
100003.692
100003.6948
100003.6816
100003.7112
100003.7223
100003.7337
100003.7355
100003.7328
100003.7264
100003.7202
100003.713
100003.7099
100003.7033
100003.7049
100003.7028
100003.699
100003.6938
100003.6882
100003.6792
100003.6818
100003.7047
100003.7482
100003.8218
100003.8396
100003.9323
100003.8266
100003.8137
100003.8014
100003.7914
100003.7808
100003.7699
100003.7588
100003.7462
100003.7342
100003.6992
100003.7004
100003.7218
100003.7328
100003.7356
100003.7386
100003.7338
100003.7291
100003.7236
100003.7185
100003.7137
100003.7105
100003.7061
100003.7053
100003.7027
100003.6988
100003.6964
100003.6931
100003.693
100003.6988
100003.7188
100003.7588
100003.8184
100003.8094
100003.8812
100003.8095
100003.7987
100003.788
100003.7792
100003.7703
100003.762
100003.7547
100003.7471
100003.7418
100003.7315
100003.7228
100003.7375
100003.739
100003.7384
100003.7357
100003.7301
100003.726
100003.7218
100003.7178
100003.7143
100003.7113
100003.7082
100003.7063
100003.7044
100003.7024
100003.7009
100003.6999
100003.7
100003.7018
100003.7068
100003.7024
100003.7301
100003.56
100003.7144
100003.7932
100003.7845
100003.7756
100003.7682
100003.7609
100003.7547
100003.7498
100003.7466
100003.7454
100003.7478
100003.7382
100003.7446
100003.741
100003.7361
100003.7319
100003.7273
100003.724
100003.7207
100003.7177
100003.715
100003.7124
100003.7099
100003.7075
100003.705
100003.7022
100003.6998
100003.6972
100003.6963
100003.6962
100003.703
100003.6923
100003.6692
100003.5991
100004.0679
100003.786
100003.7784
100003.7715
100003.7643
100003.7582
100003.7524
100003.7474
100003.7435
100003.7406
100003.7398
100003.7421
100003.7388
100003.7389
100003.7354
100003.7312
100003.7284
100003.7252
100003.7227
100003.7204
100003.7181
100003.716
100003.7139
100003.712
100003.7104
100003.7096
100003.7098
100003.712
100003.7174
100003.7275
100003.7353
100003.7073
100003.5557
100003.6443
100004.2117
100005.3447
100003.7713
100003.7653
100003.7599
100003.7541
100003.7493
100003.7446
100003.7407
100003.7376
100003.7354
100003.7345
100003.7353
100003.7342
100003.7326
100003.7304
100003.7276
100003.7259
100003.7238
100003.7222
100003.7206
100003.719
100003.7174
100003.7157
100003.7142
100003.7126
100003.7109
100003.7091
100003.7075
100003.7065
100003.7066
100003.7062
100003.7097
100003.6633
100003.6214
100003.466
100003.9506
100003.7585
100003.7538
100003.7496
100003.7451
100003.7413
100003.7376
100003.7347
100003.7323
100003.7305
100003.7296
100003.7292
100003.7289
100003.7276
100003.7268
100003.7252
100003.7244
100003.7234
100003.7224
100003.7215
100003.7204
100003.7192
100003.7179
100003.7167
100003.7155
100003.7146
100003.7142
100003.7144
100003.7149
100003.7156
100003.7152
100003.7132
100003.687
100003.7061
100003.5758
100003.7264
100003.7476
100003.7438
100003.7407
100003.7371
100003.7344
100003.7315
100003.7295
100003.7275
100003.7262
100003.7255
100003.725
100003.725
100003.7243
100003.7242
100003.7236
100003.7235
100003.7232
100003.723
100003.7229
100003.7221
100003.7215
100003.7206
100003.7198
100003.719
100003.7183
100003.7176
100003.717
100003.7168
100003.7175
100003.7195
100003.7249
100003.7237
100003.7579
100003.7384
100003.8174
100003.7353
100003.7333
100003.7302
100003.7285
100003.7261
100003.7251
100003.7235
100003.7228
100003.7223
100003.7221
100003.7223
100003.7224
100003.7228
100003.7231
100003.7236
100003.7242
100003.7245
100003.7253
100003.7248
100003.7244
100003.7236
100003.723
100003.7224
100003.7221
100003.7221
100003.7225
100003.7235
100003.7252
100003.7278
100003.7325
100003.7377
100003.7646
100003.7799
100003.8584
100003.7281
100003.7273
100003.7243
100003.7237
100003.7216
100003.7217
100003.7202
100003.72
100003.7196
100003.7198
100003.7202
100003.7208
100003.7267
100003.7272
100003.7282
100003.7294
100003.7312
100003.7339
100003.7384
100003.7451
100003.764
100003.7785
100003.8317
100003.7194
100003.7197
100003.7179
100003.7195
100003.7178
100003.718
100003.8024
100003.8029
100003.7876
100003.7701
100003.756
100003.7435
100003.7272
100003.7155
100003.6984
100003.6898
100003.675
100003.6662
100003.6555
100003.6469
100003.6384
100003.6307
100003.6237
100003.6173
100003.6114
100003.606
100003.6009
100003.5963
100003.5922
100003.5883
100003.5849
100003.5819
100003.5792
100003.5769
100003.5749
100003.5733
100003.572
100003.5711
100003.5705
100003.5702
100003.8075
100003.803
100003.7818
100003.7248
100003.7465
100003.736
100003.726
100003.714
100003.6971
100003.6873
100003.6734
100003.665
100003.6549
100003.6464
100003.6381
100003.6305
100003.6234
100003.6172
100003.6113
100003.6059
100003.601
100003.5964
100003.5922
100003.5884
100003.585
100003.582
100003.5793
100003.577
100003.575
100003.5734
100003.5721
100003.5712
100003.5706
100003.5703
100003.8139
100003.8001
100003.7561
100003.6973
100003.7156
100003.7161
100003.72
100003.7086
100003.6922
100003.6753
100003.6669
100003.6597
100003.6528
100003.6451
100003.6375
100003.63
100003.6228
100003.6167
100003.6109
100003.6057
100003.6009
100003.5965
100003.5924
100003.5886
100003.5852
100003.5822
100003.5795
100003.5772
100003.5752
100003.5736
100003.5723
100003.5714
100003.5708
100003.5705
100003.8127
100003.7858
100003.7378
100003.7391
100003.6835
100003.676
100003.7062
100003.6978
100003.682
100003.6213
100003.6474
100003.6468
100003.6488
100003.6428
100003.6367
100003.6293
100003.6218
100003.6157
100003.6102
100003.6056
100003.601
100003.5966
100003.5926
100003.5889
100003.5856
100003.5825
100003.5799
100003.5775
100003.5756
100003.5739
100003.5727
100003.5718
100003.5712
100003.5709
100003.7806
100003.7767
100003.7642
100003.7597
100003.6958
100003.6249
100003.6662
100003.6721
100003.6609
100003.5603
100003.591
100003.6051
100003.636
100003.6351
100003.6347
100003.6266
100003.6185
100003.6083
100003.6055
100003.6025
100003.5998
100003.5961
100003.5928
100003.5892
100003.586
100003.583
100003.5804
100003.578
100003.5761
100003.5745
100003.5732
100003.5723
100003.5717
100003.5714
100003.7268
100003.7572
100003.7709
100003.7461
100003.7202
100003.6187
100003.6243
100003.6331
100003.6102
100003.5757
100003.55
100003.532
100003.6006
100003.6211
100003.6315
100003.6221
100003.613
100003.5851
100003.5929
100003.5956
100003.5976
100003.5954
100003.5929
100003.5895
100003.5865
100003.5836
100003.581
100003.5787
100003.5767
100003.5751
100003.5739
100003.573
100003.5725
100003.5722
100003.7287
100003.7467
100003.762
100003.7505
100003.7161
100003.6323
100003.6131
100003.5938
100003.5931
100003.6069
100003.5849
100003.4982
100003.5329
100003.5867
100003.6223
100003.6123
100003.5994
100003.5688
100003.5617
100003.5692
100003.5856
100003.5899
100003.5916
100003.5889
100003.5869
100003.5842
100003.5817
100003.5795
100003.5775
100003.576
100003.5748
100003.5739
100003.5734
100003.5732
100003.7144
100003.7191
100003.7362
100003.7367
100003.6963
100003.594
100003.6358
100003.5516
100003.6094
100003.6069
100003.5865
100003.5431
100003.5025
100003.5474
100003.608
100003.5998
100003.5856
100003.5764
100003.5606
100003.5419
100003.5636
100003.5796
100003.5885
100003.5867
100003.5866
100003.5843
100003.5822
100003.5802
100003.5783
100003.5769
100003.5758
100003.5751
100003.5747
100003.5745
100003.7513
100003.7213
100003.7397
100003.715
100003.7232
100003.6324
100003.6107
100003.5694
100003.6625
100003.6539
100003.5995
100003.5676
100003.5218
100003.5267
100003.5943
100003.5776
100003.5788
100003.5826
100003.5667
100003.5489
100003.5293
100003.5521
100003.5773
100003.5779
100003.584
100003.5827
100003.5819
100003.5806
100003.579
100003.5778
100003.5769
100003.5765
100003.5761
100003.5761
100003.7695
100003.7405
100003.7275
100003.7178
100003.7186
100003.6671
100003.632
100003.5901
100003.6624
100003.6433
100003.5454
100003.5176
100003.5209
100003.5671
100003.5973
100003.5635
100003.585
100003.5903
100003.5738
100003.5599
100003.5365
100003.5304
100003.5564
100003.5599
100003.5742
100003.5754
100003.5788
100003.5797
100003.5789
100003.5782
100003.5776
100003.5777
100003.5777
100003.578
100003.7735
100003.7562
100003.7478
100003.6857
100003.7316
100003.6938
100003.6467
100003.6165
100003.5794
100003.5366
100003.4861
100003.5203
100003.5233
100003.5766
100003.5736
100003.563
100003.5798
100003.6007
100003.5745
100003.5552
100003.5263
100003.4833
100003.5021
100003.4718
100003.5384
100003.5512
100003.5693
100003.5759
100003.5772
100003.5773
100003.5775
100003.5783
100003.5789
100003.5797
100003.7557
100003.7674
100003.7539
100003.7348
100003.7358
100003.7125
100003.6988
100003.6419
100003.6338
100003.5583
100003.5767
100003.5291
100003.5198
100003.5153
100003.5774
100003.5952
100003.5632
100003.5858
100003.5721
100003.5372
100003.5301
100003.5107
100003.4732
100003.4603
100003.5237
100003.5329
100003.554
100003.5654
100003.5708
100003.5717
100003.5724
100003.5762
100003.5786
100003.5811
100003.7104
100003.754
100003.7527
100003.745
100003.7378
100003.7213
100003.7069
100003.671
100003.6164
100003.5482
100003.5439
100003.5608
100003.5454
100003.5083
100003.5247
100003.5778
100003.5985
100003.5678
100003.5541
100003.4996
100003.4909
100003.3245
100003.1416
100002.8339
100003.2169
100003.3101
100003.4839
100003.5335
100003.5582
100003.5597
100003.5619
100003.5728
100003.578
100003.5828
100003.6564
100003.7256
100003.7398
100003.749
100003.7332
100003.7169
100003.6971
100003.6272
100003.5792
100003.4896
100003.61
100003.5788
100003.5783
100003.5609
100003.5347
100003.5527
100003.5802
100003.5652
100003.5599
100003.5118
100003.4592
100003.2003
100003.0267
100002.5687
100002.9181
100003.2594
100003.4661
100003.5189
100003.5356
100003.5257
100003.5075
100003.5382
100003.5587
100003.5741
100003.6653
100003.6481
100003.7173
100003.731
100003.7209
100003.6989
100003.6584
100003.5546
100003.4853
100003.455
100003.5833
100003.5658
100003.5321
100003.5028
100003.5122
100003.5596
100003.5958
100003.5763
100003.572
100003.5072
100003.3493
100003.2844
100003.1466
100003.2028
100002.368
100002.6795
100003.2627
100003.4145
100003.4745
100003.4427
100003.4017
100003.4598
100003.5268
100003.5675
100003.6761
100003.6282
100003.6743
100003.7216
100003.7027
100003.6674
100003.5824
100003.4603
100003.4527
100003.5065
100003.5623
100003.5542
100003.5335
100003.5293
100003.5562
100003.5871
100003.6006
100003.5888
100003.5672
100003.5331
100003.3684
100003.3953
100003.2282
100003.3482
100003.2377
100003.4171
100003.4635
100003.4711
100003.4382
100003.3762
100003.4328
100003.3421
100003.3978
100003.5086
100003.6777
100003.6597
100003.7086
100003.7058
100003.6776
100003.5998
100003.4739
100003.4268
100003.4811
100003.5624
100003.5604
100003.4773
100003.4703
100003.4683
100003.4894
100003.5375
100003.5866
100003.5852
100003.5776
100003.5422
100003.4744
100003.3979
100003.2431
100003.1531
100003.2132
100003.3153
100003.4284
100003.4168
100003.3552
100003.3592
100003.4277
100003.3685
100003.3363
100003.4373
100003.6627
100003.6829
100003.6923
100003.6895
100003.6403
100003.5417
100003.4846
100003.53
100003.56
100003.6492
100003.6492
100003.5504
100003.5296
100003.5077
100003.5106
100003.5098
100003.5568
100003.5808
100003.5848
100003.5675
100003.5463
100003.5299
100003.4837
100003.5524
100003.5184
100003.5015
100003.4918
100003.3992
100003.4973
100003.515
100003.5406
100003.4638
100003.3383
100003.3632
100003.7006
100003.704
100003.6941
100003.6806
100003.6352
100003.5365
100003.4863
100003.5111
100003.569
100003.6631
100003.6489
100003.5286
100003.5012
100003.4636
100003.4828
100003.5227
100003.5763
100003.5848
100003.5871
100003.5726
100003.5585
100003.5345
100003.5073
100003.4916
100003.5044
100003.5083
100003.4922
100003.451
100003.4048
100003.4836
100003.5283
100003.4634
100003.4418
100003.4925
100003.7042
100003.7007
100003.6873
100003.6745
100003.6496
100003.5993
100003.5376
100003.5061
100003.5336
100003.5774
100003.6009
100003.5106
100003.5053
100003.467
100003.5221
100003.5585
100003.5882
100003.5903
100003.5908
100003.5835
100003.5788
100003.5697
100003.566
100003.5636
100003.5556
100003.5479
100003.5378
100003.5043
100003.4824
100003.4584
100003.406
100003.4303
100003.48
100003.5205
100003.7084
100003.6967
100003.6811
100003.6679
100003.6492
100003.6193
100003.5842
100003.5209
100003.5004
100003.5062
100003.4943
100003.4593
100003.4714
100003.5017
100003.5609
100003.5813
100003.5951
100003.5934
100003.5922
100003.5865
100003.5825
100003.575
100003.57
100003.566
100003.5621
100003.5571
100003.5483
100003.5291
100003.5025
100003.4973
100003.4777
100003.5137
100003.483
100003.4658
100003.6963
100003.6851
100003.6715
100003.66
100003.6463
100003.6293
100003.6134
100003.5771
100003.5405
100003.4812
100003.5229
100003.4851
100003.5376
100003.5623
100003.5892
100003.5927
100003.5974
100003.5951
100003.593
100003.5895
100003.5863
100003.582
100003.579
100003.5758
100003.5708
100003.5672
100003.5593
100003.5521
100003.5427
100003.5351
100003.5072
100003.5003
100003.4207
100003.2461
100003.6832
100003.673
100003.6614
100003.6513
100003.6403
100003.6275
100003.6164
100003.5947
100003.5773
100003.5247
100003.5268
100003.5427
100003.573
100003.586
100003.5974
100003.5967
100003.5984
100003.5962
100003.5941
100003.5914
100003.5887
100003.5856
100003.5828
100003.5802
100003.5766
100003.5724
100003.566
100003.5557
100003.537
100003.5156
100003.4297
100003.3792
100003.1018
100003.0593
100003.6687
100003.6602
100003.6508
100003.6426
100003.634
100003.6256
100003.6188
100003.6096
100003.6037
100003.5875
100003.5869
100003.5911
100003.5985
100003.5984
100003.6008
100003.5989
100003.5988
100003.5969
100003.595
100003.5929
100003.5905
100003.5881
100003.5854
100003.5826
100003.5789
100003.5744
100003.5668
100003.5576
100003.5389
100003.5186
100003.4505
100003.3482
100003.2404
100003.3716
100003.6626
100003.6549
100003.6481
100003.6406
100003.634
100003.6273
100003.621
100003.6156
100003.6087
100003.6052
100003.5974
100003.5969
100003.5978
100003.6009
100003.6
100003.6015
100003.5998
100003.5993
100003.5977
100003.5961
100003.5943
100003.5923
100003.5904
100003.5883
100003.5863
100003.5841
100003.5807
100003.574
100003.5619
100003.5194
100003.4634
100003.1818
100003.2412
100003.3714
100003.7455
100003.6482
100003.6422
100003.6368
100003.631
100003.6259
100003.6208
100003.6162
100003.6122
100003.6083
100003.6061
100003.6036
100003.6029
100003.6018
100003.6023
100003.601
100003.6014
100003.6002
100003.5996
100003.5985
100003.5973
100003.5959
100003.5944
100003.5928
100003.5911
100003.5892
100003.5866
100003.5829
100003.5766
100003.5686
100003.5481
100003.5265
100003.4467
100003.2899
100003.1695
100003.3183
100003.6356
100003.6309
100003.6267
100003.6222
100003.6184
100003.6145
100003.6113
100003.6084
100003.6058
100003.6044
100003.6023
100003.6023
100003.6014
100003.602
100003.6012
100003.6015
100003.6008
100003.6004
100003.5997
100003.5988
100003.5977
100003.5965
100003.5952
100003.5938
100003.5924
100003.5909
100003.5886
100003.5845
100003.5768
100003.5597
100003.5391
100003.446
100003.3905
100003.1863
100003.1293
100003.6247
100003.621
100003.6179
100003.6144
100003.6117
100003.6087
100003.6066
100003.6045
100003.6029
100003.6019
100003.601
100003.601
100003.6006
100003.601
100003.6008
100003.6012
100003.601
100003.601
100003.6007
100003.6003
100003.5997
100003.599
100003.5983
100003.5977
100003.5969
100003.5958
100003.5943
100003.5917
100003.5875
100003.58
100003.5732
100003.5513
100003.5242
100003.4546
100003.2993
100003.6124
100003.6102
100003.6074
100003.6057
100003.6035
100003.6023
100003.6008
100003.6
100003.5995
100003.5993
100003.5996
100003.5998
100003.6005
100003.6008
100003.6016
100003.602
100003.6023
100003.6027
100003.6025
100003.6023
100003.6017
100003.6012
100003.6006
100003.6002
100003.5999
100003.5994
100003.5988
100003.5974
100003.5942
100003.5884
100003.5739
100003.5642
100003.5217
100003.5005
100003.605
100003.6037
100003.6013
100003.6005
100003.5988
100003.5985
100003.5974
100003.5973
100003.5971
100003.5974
100003.5979
100003.5985
100003.6049
100003.6055
100003.6064
100003.6071
100003.6075
100003.607
100003.6053
100003.6016
100003.6008
100003.5911
100003.5921
100003.5959
100003.5959
100003.5946
100003.5953
100003.5945
100003.5949
100003.6909
100003.6991
100003.6848
100003.6705
100003.647
100003.628
100003.6072
100003.5927
100003.5759
100003.5659
100003.5518
100003.5422
100003.5316
100003.5227
100003.5145
100003.507
100003.5002
100003.4941
100003.4884
100003.4831
100003.4782
100003.4737
100003.4696
100003.4659
100003.4626
100003.4596
100003.4571
100003.4548
100003.4529
100003.4513
100003.4501
100003.4492
100003.4486
100003.4483
100003.7036
100003.7169
100003.6948
100003.6731
100003.6504
100003.6287
100003.6079
100003.5927
100003.5759
100003.5656
100003.5517
100003.5421
100003.5316
100003.5227
100003.5145
100003.507
100003.5002
100003.4942
100003.4884
100003.4832
100003.4783
100003.4738
100003.4697
100003.466
100003.4627
100003.4597
100003.4571
100003.4549
100003.453
100003.4514
100003.4502
100003.4492
100003.4486
100003.4484
100003.728
100003.758
100003.7126
100003.6832
100003.6569
100003.631
100003.6092
100003.5927
100003.5759
100003.5646
100003.5514
100003.5415
100003.5315
100003.5227
100003.5146
100003.5072
100003.5003
100003.4944
100003.4886
100003.4833
100003.4784
100003.474
100003.4699
100003.4661
100003.4628
100003.4599
100003.4573
100003.455
100003.4531
100003.4516
100003.4503
100003.4494
100003.4488
100003.4485
100003.7603
100003.8313
100003.7349
100003.6956
100003.6647
100003.6339
100003.6109
100003.593
100003.576
100003.562
100003.5506
100003.5403
100003.5311
100003.5225
100003.5148
100003.5074
100003.5004
100003.4947
100003.4888
100003.4836
100003.4787
100003.4742
100003.4701
100003.4664
100003.4631
100003.4601
100003.4575
100003.4553
100003.4534
100003.4518
100003.4506
100003.4497
100003.4491
100003.4489
100003.7822
100003.9268
100003.7448
100003.6875
100003.661
100003.6307
100003.6105
100003.5932
100003.5768
100003.5615
100003.5488
100003.5382
100003.5296
100003.5215
100003.5146
100003.5072
100003.5001
100003.4942
100003.4885
100003.4834
100003.4786
100003.4742
100003.4703
100003.4666
100003.4633
100003.4604
100003.4578
100003.4556
100003.4537
100003.4522
100003.451
100003.4501
100003.4496
100003.4493
100003.7217
100003.7758
100003.7008
100003.6763
100003.653
100003.6325
100003.6088
100003.5927
100003.5769
100003.561
100003.5469
100003.5347
100003.5268
100003.5201
100003.5142
100003.5069
100003.4994
100003.493
100003.4877
100003.4828
100003.4783
100003.474
100003.4702
100003.4667
100003.4635
100003.4606
100003.4581
100003.4559
100003.4541
100003.4526
100003.4515
100003.4506
100003.4501
100003.4499
100003.6866
100003.6954
100003.6684
100003.6593
100003.6416
100003.6299
100003.606
100003.5927
100003.5835
100003.5533
100003.543
100003.5361
100003.5239
100003.5184
100003.5133
100003.5066
100003.4982
100003.4922
100003.486
100003.4809
100003.4767
100003.4728
100003.4695
100003.4662
100003.4634
100003.4607
100003.4583
100003.4562
100003.4545
100003.4531
100003.452
100003.4513
100003.4508
100003.4506
100003.6767
100003.6815
100003.6591
100003.6507
100003.6473
100003.6344
100003.6078
100003.5924
100003.5709
100003.5596
100003.5125
100003.5288
100003.5162
100003.5152
100003.5112
100003.5065
100003.4943
100003.49
100003.4845
100003.4788
100003.4746
100003.4711
100003.468
100003.465
100003.4627
100003.4603
100003.4581
100003.4564
100003.4548
100003.4536
100003.4527
100003.4521
100003.4517
100003.4515
100003.6698
100003.6579
100003.6447
100003.637
100003.6479
100003.6272
100003.6004
100003.6057
100003.5715
100003.571
100003.5214
100003.5136
100003.516
100003.5144
100003.5086
100003.5066
100003.4888
100003.481
100003.4798
100003.4787
100003.4723
100003.4684
100003.4649
100003.4625
100003.4612
100003.4591
100003.4573
100003.4561
100003.4549
100003.454
100003.4533
100003.453
100003.4527
100003.4527
100003.6781
100003.661
100003.6621
100003.6318
100003.6375
100003.6208
100003.5963
100003.5996
100003.536
100003.5561
100003.4823
100003.511
100003.4978
100003.513
100003.5045
100003.5154
100003.477
100003.4871
100003.4666
100003.471
100003.4724
100003.4692
100003.4635
100003.4653
100003.4605
100003.4568
100003.4554
100003.4551
100003.4545
100003.4542
100003.4541
100003.4541
100003.4541
100003.4542
100003.6863
100003.6599
100003.6529
100003.6353
100003.6272
100003.6113
100003.5795
100003.5718
100003.514
100003.5013
100003.511
100003.519
100003.5102
100003.5163
100003.4986
100003.5085
100003.4802
100003.4997
100003.4917
100003.4736
100003.4708
100003.4653
100003.4452
100003.4471
100003.4504
100003.449
100003.4521
100003.4536
100003.454
100003.4542
100003.4553
100003.4555
100003.456
100003.4563
100003.7027
100003.6706
100003.6594
100003.6429
100003.6303
100003.6159
100003.5986
100003.5856
100003.5765
100003.5726
100003.5438
100003.5452
100003.5174
100003.5188
100003.5042
100003.521
100003.4908
100003.4888
100003.4897
100003.4898
100003.4676
100003.4883
100003.4135
100003.5034
100003.4693
100003.4674
100003.4598
100003.4549
100003.454
100003.4532
100003.4562
100003.4567
100003.4584
100003.4591
100003.7041
100003.6671
100003.6579
100003.6417
100003.6279
100003.6129
100003.5902
100003.5836
100003.5419
100003.5505
100003.5512
100003.5278
100003.5096
100003.5149
100003.5014
100003.5247
100003.5144
100003.505
100003.491