/*--------------------------------*- C++ -*----------------------------------*\
  =========                 |
  \\      /  F ield         | OpenFOAM: The Open Source CFD Toolbox
   \\    /   O peration     | Website:  https://openfoam.org
    \\  /    A nd           | Version:  8
     \\/     M anipulation  |
\*---------------------------------------------------------------------------*/
FoamFile
{
    version     2.0;
    format      ascii;
    class       volScalarField;
    location    "0.3";
    object      p_rgh;
}
// * * * * * * * * * * * * * * * * * * * * * * * * * * * * * * * * * * * * * //

dimensions      [1 -1 -2 0 0 0 0];

internalField   nonuniform List<scalar> 
67193
(
100003.9978
100004.0089
100004.001
100004.0288
100003.9726
100003.9549
100003.9276
100003.9142
100003.8933
100003.8925
100003.8698
100003.8596
100003.8449
100003.8344
100003.8242
100003.8156
100003.8078
100003.8015
100003.795
100003.7893
100003.7838
100003.7789
100003.7744
100003.7704
100003.7669
100003.7637
100003.7609
100003.7586
100003.7566
100003.7549
100003.7537
100003.7527
100003.7521
100003.7518
100004.004
100004.0106
100004.001
100003.9963
100003.9693
100003.9516
100003.9287
100003.9143
100003.894
100003.8972
100003.873
100003.8617
100003.8464
100003.8354
100003.8248
100003.8162
100003.8082
100003.8025
100003.7957
100003.7899
100003.7843
100003.7793
100003.7747
100003.7706
100003.767
100003.7639
100003.7611
100003.7587
100003.7567
100003.7551
100003.7538
100003.7528
100003.7522
100003.7519
100004.0147
100004.0141
100003.9938
100003.9567
100003.9576
100003.9461
100003.9305
100003.9148
100003.8949
100003.8993
100003.8791
100003.8655
100003.8499
100003.8377
100003.8264
100003.8176
100003.8089
100003.8048
100003.7972
100003.7914
100003.7854
100003.7801
100003.7754
100003.7712
100003.7675
100003.7642
100003.7614
100003.759
100003.757
100003.7553
100003.754
100003.7531
100003.7524
100003.7521
100004.0233
100004.0164
100003.975
100003.9242
100003.9352
100003.9367
100003.9294
100003.9141
100003.8927
100003.8845
100003.8809
100003.8683
100003.8548
100003.8412
100003.8289
100003.8196
100003.8101
100003.8083
100003.8003
100003.794
100003.7873
100003.7816
100003.7765
100003.7721
100003.7683
100003.7649
100003.762
100003.7595
100003.7574
100003.7557
100003.7544
100003.7535
100003.7529
100003.7526
100004.0233
100004.0143
100003.9579
100003.9852
100003.9163
100003.928
100003.9272
100003.9112
100003.8867
100003.8491
100003.8698
100003.8594
100003.8571
100003.8452
100003.8324
100003.8217
100003.8107
100003.809
100003.8037
100003.7972
100003.7901
100003.7838
100003.7783
100003.7736
100003.7695
100003.7659
100003.7629
100003.7603
100003.7581
100003.7564
100003.7551
100003.7541
100003.7535
100003.7532
100004.0019
100003.9837
100003.9775
100004.1388
100003.9339
100003.9238
100003.9351
100003.9152
100003.8825
100003.7995
100003.8401
100003.8387
100003.8512
100003.8477
100003.8367
100003.8238
100003.8095
100003.8014
100003.8038
100003.7992
100003.7935
100003.7868
100003.7809
100003.7758
100003.7714
100003.7675
100003.7642
100003.7614
100003.7591
100003.7573
100003.7559
100003.755
100003.7544
100003.7541
100003.9707
100003.9663
100004.0639
100004.2789
100004.0233
100003.935
100003.9587
100003.9473
100003.8731
100003.8291
100003.821
100003.8119
100003.8378
100003.8444
100003.8407
100003.8263
100003.8078
100003.7838
100003.7971
100003.7939
100003.7941
100003.7895
100003.7843
100003.7793
100003.7746
100003.7701
100003.7662
100003.763
100003.7605
100003.7586
100003.7572
100003.7562
100003.7556
100003.7554
100003.9665
100003.9485
100004.0429
100004.2505
100003.9842
100003.9687
100003.9997
100003.9604
100003.8931
100003.98
100003.8978
100003.7871
100003.819
100003.8395
100003.8453
100003.8323
100003.8074
100003.7686
100003.7843
100003.7834
100003.7898
100003.7911
100003.7892
100003.7849
100003.7796
100003.7741
100003.7693
100003.7655
100003.7625
100003.7604
100003.759
100003.758
100003.7574
100003.7572
100003.9828
100003.9509
100003.9739
100004.0758
100003.9925
100003.9591
100003.929
100003.8675
100004.027
100004.1649
100004.0348
100003.8166
100003.7947
100003.8295
100003.8555
100003.8406
100003.8116
100003.7979
100003.7847
100003.7677
100003.7795
100003.7883
100003.7945
100003.7956
100003.7898
100003.7817
100003.7749
100003.7695
100003.7655
100003.763
100003.7616
100003.7607
100003.7601
100003.7598
100004.0123
100003.9834
100003.9672
100003.9539
100003.9567
100003.9336
100003.9158
100003.8751
100004.1451
100004.1746
100004.0103
100003.87
100003.8308
100003.8412
100003.8629
100003.8292
100003.8491
100003.8862
100003.8431
100003.7768
100003.7794
100003.7942
100003.8067
100003.8201
100003.8084
100003.7945
100003.7836
100003.7756
100003.7701
100003.7667
100003.7658
100003.7646
100003.764
100003.7637
100004.0246
100003.9942
100003.9852
100003.9369
100003.9443
100003.9162
100003.8881
100003.8365
100003.9906
100003.9629
100003.906
100003.8814
100003.8463
100003.8501
100003.8664
100003.8123
100003.8942
100003.9202
100003.8498
100003.7723
100003.7717
100003.8083
100003.8364
100003.8753
100003.8426
100003.8192
100003.8005
100003.7862
100003.7774
100003.772
100003.7728
100003.7706
100003.77
100003.7696
100004.0325
100004.0125
100003.99
100003.9674
100003.9457
100003.9268
100003.9131
100003.8853
100003.8941
100003.9165
100003.9191
100003.863
100003.8331
100003.8297
100003.8496
100003.8198
100003.8593
100003.8529
100003.7961
100003.7851
100003.8052
100003.8614
100003.8093
100003.9773
100003.9146
100003.8688
100003.8297
100003.8027
100003.7886
100003.7788
100003.7837
100003.7798
100003.7793
100003.7786
100004.0344
100004.0228
100003.9967
100003.9797
100003.9521
100003.9392
100003.9262
100003.9048
100003.9206
100003.9631
100003.8605
100003.858
100003.8181
100003.7962
100003.8209
100003.8238
100003.8183
100003.7948
100003.8036
100003.8102
100003.8186
100003.8804
100003.6839
100003.8102
100003.9705
100003.9348
100003.8799
100003.8314
100003.8059
100003.7875
100003.7984
100003.7944
100003.7933
100003.7923
100004.028
100004.0299
100004.0051
100003.9873
100003.9572
100003.9421
100003.9218
100003.8928
100003.8882
100003.889
100003.8796
100003.9587
100003.8959
100003.781
100003.7911
100003.8119
100003.8169
100003.8083
100003.8161
100003.8275
100003.8242
100003.8219
100003.8858
100004.1169
100004.0704
100003.9824
100003.9059
100003.8394
100003.8159
100003.7871
100003.7968
100003.808
100003.8098
100003.8111
100003.9876
100004.0126
100004.0029
100003.9869
100003.9603
100003.9415
100003.9142
100003.8798
100003.8597
100003.8695
100003.9838
100004.0444
100003.9418
100003.8011
100003.7833
100003.8066
100003.8201
100003.8167
100003.8366
100003.8682
100003.7864
100003.7158
100004.4703
100004.8539
100003.9124
100003.8418
100004.0371
100003.9761
100003.8672
100003.7699
100003.7588
100003.81
100003.8249
100003.8407
100003.9619
100003.9787
100003.9929
100003.9936
100003.9713
100003.9377
100003.8969
100003.8541
100003.8105
100003.8216
100003.9714
100003.9458
100003.8547
100003.8068
100003.8049
100003.8146
100003.8166
100003.8053
100003.7924
100003.7707
100003.7065
100003.6557
100004.0878
100003.9283
100003.6342
100003.7127
100003.7876
100003.7798
100003.7553
100003.7041
100003.6891
100003.7757
100003.8303
100003.887
100003.9309
100003.9473
100003.9639
100003.9643
100003.9411
100003.9089
100003.862
100003.809
100003.7662
100004.006
100003.9839
100003.8669
100003.8162
100003.7996
100003.8002
100003.8079
100003.8163
100003.8074
100003.798
100003.78
100003.7492
100003.6863
100003.5275
100003.7851
100003.8775
100003.8591
100003.8572
100003.812
100003.7137
100003.8524
100003.9196
100003.8232
100003.8481
100003.9654
100003.8869
100003.9235
100003.9342
100003.9367
100003.9115
100003.8692
100003.8172
100003.7916
100003.8956
100004.4463
100004.215
100003.9604
100003.798
100003.733
100003.7551
100003.7812
100003.7972
100003.8016
100003.7955
100003.7766
100003.7618
100003.7476
100003.74
100003.8302
100003.7947
100003.7874
100003.7815
100003.7152
100003.7872
100004.1352
100004.205
100003.8913
100003.7561
100004.0248
100003.9233
100003.9196
100003.9127
100003.9101
100003.8869
100003.8438
100003.7881
100003.7719
100003.974
100004.5444
100004.3527
100003.9921
100003.7819
100003.7148
100003.765
100003.7901
100003.8
100003.7963
100003.7869
100003.7714
100003.7656
100003.7568
100003.7647
100003.7888
100003.7761
100003.7612
100003.7445
100003.699
100003.7985
100004.0615
100003.9604
100003.8082
100003.7936
100003.8774
100003.9151
100003.9028
100003.8916
100003.8836
100003.866
100003.8378
100003.8051
100003.7787
100003.7919
100004.0885
100004.0243
100003.7743
100003.7407
100003.759
100003.7839
100003.7938
100003.7969
100003.791
100003.7838
100003.7743
100003.7715
100003.7649
100003.7703
100003.7741
100003.767
100003.7573
100003.7457
100003.7184
100003.6793
100003.6872
100003.7184
100003.8392
100003.887
100003.9785
100003.9044
100003.8897
100003.8763
100003.8662
100003.8529
100003.8354
100003.8168
100003.7979
100003.7713
100003.7523
100003.7552
100003.7419
100003.7715
100003.7827
100003.7941
100003.7959
100003.7932
100003.7868
100003.7806
100003.7734
100003.7703
100003.7637
100003.7652
100003.7632
100003.7593
100003.7542
100003.7485
100003.7395
100003.7421
100003.765
100003.8086
100003.8822
100003.9
100003.9926
100003.887
100003.874
100003.8617
100003.8518
100003.8412
100003.8302
100003.8192
100003.8066
100003.7945
100003.7595
100003.7607
100003.7822
100003.7931
100003.7959
100003.799
100003.7941
100003.7894
100003.784
100003.7788
100003.774
100003.7709
100003.7664
100003.7656
100003.763
100003.7591
100003.7567
100003.7534
100003.7533
100003.7591
100003.7792
100003.8191
100003.8788
100003.8697
100003.9415
100003.8698
100003.8591
100003.8484
100003.8395
100003.8306
100003.8223
100003.8151
100003.8074
100003.8021
100003.7919
100003.7831
100003.7979
100003.7994
100003.7987
100003.796
100003.7904
100003.7864
100003.7821
100003.7782
100003.7746
100003.7716
100003.7685
100003.7667
100003.7647
100003.7627
100003.7612
100003.7603
100003.7604
100003.7622
100003.7671
100003.7627
100003.7904
100003.6204
100003.7748
100003.8535
100003.8449
100003.836
100003.8285
100003.8212
100003.8151
100003.8101
100003.8069
100003.8057
100003.8082
100003.7985
100003.805
100003.8013
100003.7965
100003.7923
100003.7876
100003.7843
100003.781
100003.778
100003.7753
100003.7727
100003.7702
100003.7679
100003.7654
100003.7626
100003.7601
100003.7575
100003.7566
100003.7565
100003.7634
100003.7526
100003.7295
100003.6595
100004.1282
100003.8463
100003.8387
100003.8319
100003.8247
100003.8186
100003.8127
100003.8077
100003.8039
100003.801
100003.8002
100003.8025
100003.7992
100003.7993
100003.7957
100003.7915
100003.7888
100003.7855
100003.7831
100003.7807
100003.7785
100003.7763
100003.7742
100003.7724
100003.7708
100003.7699
100003.7701
100003.7723
100003.7778
100003.7878
100003.7957
100003.7677
100003.616
100003.7046
100004.272
100005.405
100003.8316
100003.8256
100003.8202
100003.8145
100003.8096
100003.8049
100003.801
100003.7979
100003.7957
100003.7948
100003.7957
100003.7945
100003.7929
100003.7907
100003.7879
100003.7862
100003.7841
100003.7825
100003.7809
100003.7793
100003.7777
100003.7761
100003.7745
100003.7729
100003.7712
100003.7694
100003.7679
100003.7668
100003.767
100003.7666
100003.7701
100003.7236
100003.6818
100003.5263
100004.0109
100003.8188
100003.8141
100003.8099
100003.8054
100003.8017
100003.798
100003.7951
100003.7926
100003.7908
100003.7899
100003.7896
100003.7893
100003.788
100003.7871
100003.7856
100003.7848
100003.7837
100003.7828
100003.7819
100003.7807
100003.7796
100003.7783
100003.777
100003.7759
100003.775
100003.7746
100003.7747
100003.7753
100003.776
100003.7755
100003.7735
100003.7474
100003.7665
100003.6361
100003.7868
100003.8079
100003.8042
100003.8011
100003.7974
100003.7948
100003.7918
100003.7898
100003.7878
100003.7866
100003.7858
100003.7854
100003.7853
100003.7846
100003.7845
100003.7839
100003.7838
100003.7836
100003.7833
100003.7832
100003.7825
100003.7818
100003.7809
100003.7801
100003.7793
100003.7787
100003.778
100003.7774
100003.7772
100003.7778
100003.7798
100003.7853
100003.784
100003.8182
100003.7987
100003.8777
100003.7956
100003.7936
100003.7905
100003.7889
100003.7865
100003.7855
100003.7838
100003.7831
100003.7826
100003.7825
100003.7827
100003.7827
100003.7831
100003.7835
100003.7839
100003.7846
100003.7849
100003.7857
100003.7851
100003.7847
100003.7839
100003.7833
100003.7828
100003.7824
100003.7825
100003.7828
100003.7838
100003.7855
100003.7881
100003.7928
100003.798
100003.825
100003.8403
100003.9188
100003.7884
100003.7876
100003.7846
100003.784
100003.782
100003.7821
100003.7805
100003.7804
100003.78
100003.7802
100003.7806
100003.7812
100003.787
100003.7876
100003.7885
100003.7897
100003.7915
100003.7942
100003.7987
100003.8054
100003.8243
100003.8388
100003.892
100003.7797
100003.78
100003.7783
100003.7798
100003.7781
100003.7783
100003.9834
100003.9839
100003.9686
100003.9511
100003.9371
100003.9245
100003.9082
100003.8965
100003.8794
100003.8709
100003.856
100003.8473
100003.8365
100003.8279
100003.8195
100003.8118
100003.8047
100003.7983
100003.7924
100003.787
100003.782
100003.7774
100003.7732
100003.7694
100003.7659
100003.7629
100003.7602
100003.7579
100003.7559
100003.7543
100003.753
100003.7521
100003.7515
100003.7512
100003.9885
100003.984
100003.9628
100003.9058
100003.9275
100003.917
100003.907
100003.895
100003.8781
100003.8683
100003.8544
100003.846
100003.8359
100003.8274
100003.8192
100003.8115
100003.8044
100003.7982
100003.7923
100003.7869
100003.782
100003.7774
100003.7732
100003.7694
100003.766
100003.763
100003.7603
100003.758
100003.756
100003.7544
100003.7531
100003.7522
100003.7516
100003.7513
100003.9949
100003.9811
100003.9372
100003.8783
100003.8966
100003.8971
100003.901
100003.8896
100003.8732
100003.8563
100003.8479
100003.8407
100003.8338
100003.8261
100003.8185
100003.811
100003.8038
100003.7977
100003.7919
100003.7868
100003.782
100003.7775
100003.7734
100003.7696
100003.7662
100003.7632
100003.7605
100003.7582
100003.7562
100003.7546
100003.7533
100003.7524
100003.7518
100003.7515
100003.9937
100003.9668
100003.9188
100003.9201
100003.8645
100003.857
100003.8872
100003.8788
100003.863
100003.8023
100003.8284
100003.8279
100003.8298
100003.8238
100003.8177
100003.8103
100003.8028
100003.7967
100003.7912
100003.7866
100003.782
100003.7776
100003.7736
100003.7699
100003.7666
100003.7636
100003.7609
100003.7585
100003.7566
100003.755
100003.7537
100003.7528
100003.7522
100003.7519
100003.9616
100003.9577
100003.9453
100003.9407
100003.8769
100003.8059
100003.8472
100003.8531
100003.842
100003.7413
100003.7721
100003.7861
100003.817
100003.8162
100003.8157
100003.8076
100003.7995
100003.7893
100003.7865
100003.7835
100003.7808
100003.7771
100003.7738
100003.7703
100003.767
100003.7641
100003.7614
100003.7591
100003.7571
100003.7555
100003.7542
100003.7533
100003.7527
100003.7525
100003.9079
100003.9382
100003.9519
100003.9271
100003.9013
100003.7997
100003.8054
100003.8141
100003.7912
100003.7567
100003.731
100003.7131
100003.7816
100003.8021
100003.8125
100003.8031
100003.794
100003.7661
100003.7739
100003.7766
100003.7786
100003.7764
100003.7739
100003.7705
100003.7676
100003.7647
100003.762
100003.7597
100003.7577
100003.7561
100003.7549
100003.754
100003.7535
100003.7532
100003.9098
100003.9277
100003.943
100003.9315
100003.8971
100003.8133
100003.7941
100003.7749
100003.7741
100003.7879
100003.7659
100003.6792
100003.7139
100003.7678
100003.8033
100003.7933
100003.7804
100003.7498
100003.7427
100003.7502
100003.7666
100003.7709
100003.7727
100003.77
100003.7679
100003.7652
100003.7627
100003.7605
100003.7585
100003.757
100003.7558
100003.755
100003.7544
100003.7542
100003.8954
100003.9002
100003.9172
100003.9178
100003.8773
100003.775
100003.8168
100003.7326
100003.7904
100003.7879
100003.7675
100003.7241
100003.6835
100003.7284
100003.789
100003.7808
100003.7666
100003.7574
100003.7417
100003.723
100003.7446
100003.7606
100003.7695
100003.7677
100003.7676
100003.7653
100003.7632
100003.7612
100003.7594
100003.7579
100003.7568
100003.7561
100003.7557
100003.7555
100003.9323
100003.9023
100003.9207
100003.8961
100003.9042
100003.8134
100003.7917
100003.7504
100003.8435
100003.835
100003.7805
100003.7486
100003.7028
100003.7078
100003.7753
100003.7586
100003.7598
100003.7636
100003.7477
100003.7299
100003.7104
100003.7331
100003.7583
100003.759
100003.765
100003.7637
100003.7629
100003.7616
100003.76
100003.7588
100003.7579
100003.7575
100003.7572
100003.7571
100003.9505
100003.9215
100003.9085
100003.8989
100003.8996
100003.8481
100003.813
100003.7711
100003.8434
100003.8244
100003.7264
100003.6986
100003.7019
100003.7482
100003.7783
100003.7445
100003.766
100003.7713
100003.7548
100003.7409
100003.7175
100003.7114
100003.7374
100003.7409
100003.7552
100003.7564
100003.7598
100003.7607
100003.76
100003.7592
100003.7586
100003.7588
100003.7587
100003.759
100003.9546
100003.9372
100003.9289
100003.8667
100003.9127
100003.8748
100003.8278
100003.7975
100003.7604
100003.7176
100003.6672
100003.7013
100003.7043
100003.7577
100003.7546
100003.744
100003.7608
100003.7818
100003.7556
100003.7362
100003.7074
100003.6643
100003.6831
100003.6529
100003.7195
100003.7322
100003.7503
100003.7569
100003.7583
100003.7583
100003.7585
100003.7594
100003.7599
100003.7608
100003.9367
100003.9484
100003.9349
100003.9158
100003.9168
100003.8936
100003.8798
100003.8229
100003.8148
100003.7393
100003.7578
100003.7101
100003.7008
100003.6963
100003.7585
100003.7762
100003.7442
100003.7669
100003.7531
100003.7182
100003.7111
100003.6917
100003.6542
100003.6414
100003.7047
100003.7139
100003.7351
100003.7464
100003.7518
100003.7527
100003.7534
100003.7573
100003.7596
100003.7621
100003.8914
100003.9351
100003.9337
100003.926
100003.9188
100003.9023
100003.8879
100003.852
100003.7974
100003.7292
100003.7249
100003.7418
100003.7264
100003.6893
100003.7057
100003.7588
100003.7795
100003.7488
100003.7352
100003.6806
100003.6719
100003.5055
100003.3226
100003.0149
100003.3979
100003.4912
100003.6649
100003.7145
100003.7392
100003.7407
100003.7429
100003.7538
100003.759
100003.7638
100003.8375
100003.9066
100003.9208
100003.9301
100003.9142
100003.898
100003.8782
100003.8082
100003.7602
100003.6706
100003.791
100003.7599
100003.7593
100003.7419
100003.7157
100003.7337
100003.7613
100003.7463
100003.741
100003.6928
100003.6402
100003.3813
100003.2077
100002.7497
100003.0991
100003.4404
100003.6471
100003.7
100003.7167
100003.7067
100003.6885
100003.7192
100003.7397
100003.7551
100003.8463
100003.8291
100003.8983
100003.912
100003.902
100003.8799
100003.8394
100003.7356
100003.6664
100003.636
100003.7643
100003.7468
100003.7131
100003.6838
100003.6932
100003.7406
100003.7768
100003.7574
100003.753
100003.6882
100003.5303
100003.4654
100003.3277
100003.3839
100002.5491
100002.8606
100003.4437
100003.5955
100003.6555
100003.6237
100003.5827
100003.6408
100003.7078
100003.7485
100003.8571
100003.8092
100003.8553
100003.9026
100003.8838
100003.8485
100003.7634
100003.6414
100003.6337
100003.6876
100003.7433
100003.7352
100003.7145
100003.7103
100003.7372
100003.7681
100003.7817
100003.7698
100003.7482
100003.7141
100003.5494
100003.5763
100003.4092
100003.5293
100003.4187
100003.5981
100003.6445
100003.6521
100003.6193
100003.5572
100003.6139
100003.5231
100003.5788
100003.6896
100003.8587
100003.8407
100003.8896
100003.8869
100003.8586
100003.7809
100003.655
100003.6078
100003.6621
100003.7434
100003.7415
100003.6583
100003.6514
100003.6493
100003.6704
100003.7185
100003.7676
100003.7662
100003.7586
100003.7232
100003.6554
100003.5789
100003.4241
100003.3341
100003.3942
100003.4963
100003.6094
100003.5979
100003.5362
100003.5403
100003.6087
100003.5495
100003.5173
100003.6183
100003.8437
100003.8639
100003.8733
100003.8705
100003.8213
100003.7227
100003.6656
100003.7111
100003.741
100003.8302
100003.8302
100003.7314
100003.7107
100003.6887
100003.6916
100003.6909
100003.7378
100003.7618
100003.7658
100003.7485
100003.7273
100003.7109
100003.6647
100003.7334
100003.6994
100003.6826
100003.6728
100003.5802
100003.6784
100003.696
100003.7216
100003.6448
100003.5193
100003.5442
100003.8816
100003.885
100003.8751
100003.8616
100003.8162
100003.7175
100003.6673
100003.6922
100003.7501
100003.8441
100003.8299
100003.7096
100003.6822
100003.6446
100003.6638
100003.7037
100003.7574
100003.7659
100003.7682
100003.7537
100003.7395
100003.7156
100003.6883
100003.6726
100003.6854
100003.6893
100003.6733
100003.632
100003.5859
100003.6646
100003.7093
100003.6444
100003.6228
100003.6735
100003.8852
100003.8817
100003.8683
100003.8555
100003.8306
100003.7804
100003.7186
100003.6871
100003.7147
100003.7584
100003.7819
100003.6916
100003.6863
100003.648
100003.7031
100003.7395
100003.7693
100003.7713
100003.7718
100003.7645
100003.7598
100003.7507
100003.747
100003.7446
100003.7366
100003.7289
100003.7188
100003.6853
100003.6634
100003.6394
100003.5871
100003.6113
100003.661
100003.7015
100003.8895
100003.8778
100003.8621
100003.8489
100003.8302
100003.8003
100003.7652
100003.7019
100003.6814
100003.6872
100003.6753
100003.6403
100003.6524
100003.6827
100003.742
100003.7623
100003.7761
100003.7744
100003.7732
100003.7675
100003.7635
100003.756
100003.7511
100003.747
100003.7431
100003.7381
100003.7293
100003.7102
100003.6835
100003.6783
100003.6587
100003.6947
100003.6641
100003.6469
100003.8773
100003.8661
100003.8525
100003.841
100003.8273
100003.8103
100003.7944
100003.7581
100003.7215
100003.6622
100003.7039
100003.6661
100003.7186
100003.7434
100003.7702
100003.7737
100003.7784
100003.7761
100003.774
100003.7705
100003.7673
100003.7631
100003.76
100003.7568
100003.7518
100003.7482
100003.7403
100003.7331
100003.7237
100003.7161
100003.6883
100003.6813
100003.6018
100003.4271
100003.8642
100003.854
100003.8424
100003.8323
100003.8213
100003.8085
100003.7974
100003.7758
100003.7583
100003.7057
100003.7078
100003.7237
100003.754
100003.767
100003.7784
100003.7777
100003.7794
100003.7772
100003.7751
100003.7725
100003.7697
100003.7667
100003.7638
100003.7612
100003.7576
100003.7535
100003.747
100003.7367
100003.718
100003.6966
100003.6108
100003.5602
100003.2828
100003.2403
100003.8498
100003.8412
100003.8318
100003.8236
100003.815
100003.8067
100003.7999
100003.7907
100003.7847
100003.7685
100003.7679
100003.7721
100003.7795
100003.7794
100003.7818
100003.7799
100003.7798
100003.778
100003.7761
100003.7739
100003.7715
100003.7691
100003.7665
100003.7637
100003.7599
100003.7555
100003.7479
100003.7386
100003.7199
100003.6997
100003.6315
100003.5292
100003.4214
100003.5526
100003.8436
100003.8359
100003.8291
100003.8216
100003.815
100003.8084
100003.8021
100003.7966
100003.7897
100003.7862
100003.7784
100003.7779
100003.7788
100003.782
100003.781
100003.7825
100003.7808
100003.7803
100003.7787
100003.7771
100003.7753
100003.7733
100003.7714
100003.7693
100003.7674
100003.7651
100003.7617
100003.7551
100003.7429
100003.7004
100003.6444
100003.3628
100003.4222
100003.5524
100003.9265
100003.8292
100003.8232
100003.8178
100003.812
100003.8069
100003.8018
100003.7972
100003.7932
100003.7894
100003.7872
100003.7846
100003.7839
100003.7828
100003.7833
100003.7821
100003.7824
100003.7812
100003.7806
100003.7795
100003.7783
100003.7769
100003.7754
100003.7738
100003.7721
100003.7702
100003.7676
100003.7639
100003.7577
100003.7496
100003.7291
100003.7075
100003.6277
100003.4709
100003.3505
100003.4993
100003.8166
100003.8119
100003.8078
100003.8032
100003.7994
100003.7956
100003.7923
100003.7894
100003.7868
100003.7854
100003.7833
100003.7834
100003.7824
100003.783
100003.7822
100003.7825
100003.7818
100003.7815
100003.7807
100003.7798
100003.7787
100003.7775
100003.7762
100003.7749
100003.7735
100003.7719
100003.7696
100003.7655
100003.7578
100003.7408
100003.7202
100003.627
100003.5716
100003.3673
100003.3103
100003.8057
100003.802
100003.7989
100003.7954
100003.7927
100003.7897
100003.7876
100003.7855
100003.7839
100003.7829
100003.782
100003.782
100003.7816
100003.7821
100003.7818
100003.7822
100003.782
100003.782
100003.7818
100003.7813
100003.7807
100003.78
100003.7793
100003.7787
100003.7779
100003.7769
100003.7753
100003.7727
100003.7685
100003.761
100003.7542
100003.7323
100003.7052
100003.6356
100003.4803
100003.7934
100003.7913
100003.7884
100003.7867
100003.7845
100003.7833
100003.7818
100003.781
100003.7805
100003.7803
100003.7806
100003.7808
100003.7815
100003.7819
100003.7826
100003.783
100003.7834
100003.7837
100003.7835
100003.7833
100003.7828
100003.7822
100003.7816
100003.7812
100003.7809
100003.7804
100003.7799
100003.7784
100003.7752
100003.7695
100003.7549
100003.7452
100003.7027
100003.6815
100003.786
100003.7847
100003.7823
100003.7815
100003.7798
100003.7795
100003.7784
100003.7783
100003.7781
100003.7784
100003.7789
100003.7795
100003.7859
100003.7866
100003.7874
100003.7881
100003.7885
100003.788
100003.7863
100003.7826
100003.7818
100003.7721
100003.7731
100003.7769
100003.7769
100003.7756
100003.7763
100003.7755
100003.7759
100003.9926
100004.0008
100003.9865
100003.9722
100003.9487
100003.9297
100003.9088
100003.8944
100003.8776
100003.8676
100003.8535
100003.8439
100003.8333
100003.8244
100003.8162
100003.8087
100003.8019
100003.7958
100003.79
100003.7848
100003.7799
100003.7754
100003.7713
100003.7676
100003.7643
100003.7613
100003.7587
100003.7565
100003.7546
100003.753
100003.7518
100003.7509
100003.7503
100003.75
100004.0053
100004.0186
100003.9965
100003.9748
100003.9521
100003.9304
100003.9096
100003.8944
100003.8776
100003.8673
100003.8534
100003.8437
100003.8333
100003.8244
100003.8162
100003.8087
100003.8019
100003.7959
100003.7901
100003.7848
100003.78
100003.7755
100003.7714
100003.7677
100003.7644
100003.7614
100003.7588
100003.7566
100003.7547
100003.7531
100003.7519
100003.7509
100003.7503
100003.75
100004.0297
100004.0597
100004.0143
100003.9849
100003.9586
100003.9327
100003.9109
100003.8944
100003.8776
100003.8663
100003.8531
100003.8432
100003.8332
100003.8244
100003.8163
100003.8089
100003.802
100003.796
100003.7903
100003.785
100003.7801
100003.7756
100003.7715
100003.7678
100003.7645
100003.7615
100003.759
100003.7567
100003.7548
100003.7533
100003.752
100003.7511
100003.7505
100003.7502
100004.062
100004.133
100004.0366
100003.9973
100003.9664
100003.9356
100003.9126
100003.8947
100003.8777
100003.8637
100003.8523
100003.842
100003.8328
100003.8242
100003.8165
100003.8091
100003.8021
100003.7963
100003.7905
100003.7853
100003.7804
100003.7759
100003.7718
100003.7681
100003.7647
100003.7618
100003.7592
100003.757
100003.7551
100003.7535
100003.7523
100003.7514
100003.7508
100003.7506
100004.0839
100004.2285
100004.0465
100003.9892
100003.9627
100003.9324
100003.9122
100003.8949
100003.8785
100003.8632
100003.8505
100003.8399
100003.8313
100003.8232
100003.8163
100003.8089
100003.8018
100003.7959
100003.7902
100003.7851
100003.7803
100003.7759
100003.772
100003.7683
100003.765
100003.7621
100003.7595
100003.7573
100003.7554
100003.7539
100003.7527
100003.7518
100003.7513
100003.751
100004.0234
100004.0775
100004.0025
100003.978
100003.9547
100003.9341
100003.9105
100003.8944
100003.8786
100003.8627
100003.8486
100003.8364
100003.8285
100003.8218
100003.8159
100003.8086
100003.8011
100003.7947
100003.7894
100003.7845
100003.78
100003.7757
100003.7719
100003.7684
100003.7652
100003.7623
100003.7598
100003.7576
100003.7558
100003.7543
100003.7532
100003.7523
100003.7518
100003.7516
100003.9883
100003.9971
100003.9701
100003.961
100003.9433
100003.9316
100003.9077
100003.8943
100003.8852
100003.855
100003.8447
100003.8378
100003.8256
100003.8201
100003.815
100003.8083
100003.7999
100003.7939
100003.7877
100003.7826
100003.7784
100003.7745
100003.7712
100003.7679
100003.7651
100003.7624
100003.76
100003.7579
100003.7562
100003.7548
100003.7537
100003.753
100003.7525
100003.7523
100003.9784
100003.9832
100003.9608
100003.9524
100003.949
100003.9361
100003.9095
100003.8941
100003.8726
100003.8613
100003.8142
100003.8305
100003.8179
100003.8169
100003.8129
100003.8082
100003.796
100003.7917
100003.7862
100003.7805
100003.7763
100003.7728
100003.7697
100003.7667
100003.7644
100003.762
100003.7598
100003.758
100003.7565
100003.7553
100003.7544
100003.7538
100003.7534
100003.7532
100003.9715
100003.9596
100003.9464
100003.9387
100003.9496
100003.9289
100003.9021
100003.9074
100003.8732
100003.8727
100003.8231
100003.8153
100003.8177
100003.8161
100003.8103
100003.8083
100003.7905
100003.7827
100003.7815
100003.7804
100003.774
100003.7701
100003.7666
100003.7642
100003.7629
100003.7608
100003.759
100003.7578
100003.7565
100003.7557
100003.755
100003.7547
100003.7544
100003.7544
100003.9798
100003.9627
100003.9638
100003.9334
100003.9392
100003.9225
100003.898
100003.9013
100003.8377
100003.8578
100003.784
100003.8127
100003.7995
100003.8147
100003.8062
100003.8171
100003.7787
100003.7888
100003.7683
100003.7727
100003.7741
100003.7709
100003.7652
100003.767
100003.7622
100003.7585
100003.7571
100003.7568
100003.7562
100003.7558
100003.7558
100003.7558
100003.7558
100003.7559
100003.988
100003.9616
100003.9546
100003.937
100003.9288
100003.913
100003.8812
100003.8735
100003.8157
100003.803
100003.8127
100003.8207
100003.8119
100003.818
100003.8003
100003.8102
100003.7819
100003.8014
100003.7934
100003.7753
100003.7725
100003.767
100003.7469
100003.7488
100003.7521
100003.7507
100003.7538
100003.7553
100003.7557
100003.7559
100003.757
100003.7572
100003.7577
100003.758
100004.0044
100003.9723
100003.9611
100003.9446
100003.932
100003.9176
100003.9003
100003.8873
100003.8782
100003.8743
100003.8455
100003.8469
100003.8191
100003.8205
100003.8059
100003.8227
100003.7925
100003.7905
100003.7914
100003.7915
100003.7693
100003.79
100003.7152
100003.8051
100003.771
100003.7691
100003.7615
100003.7566
100003.7557
100003.7549
100003.7579
100003.7584
100003.7601
100003.7608
100004.0058
100003.9688
100003.9596
100003.9434
100003.9296
100003.9146
100003.8919
100003.8853
100003.8436
100003.8522
100003.8529
100003.8295
100003.8113
100003.8166
100003.803
100003.8264
100003.8161
100003.8067