/*--------------------------------*- C++ -*----------------------------------*\
  =========                 |
  \\      /  F ield         | OpenFOAM: The Open Source CFD Toolbox
   \\    /   O peration     | Website:  https://openfoam.org
    \\  /    A nd           | Version:  8
     \\/     M anipulation  |
\*---------------------------------------------------------------------------*/
FoamFile
{
    version     2.0;
    format      ascii;
    class       surfaceScalarField;
    location    "0.3";
    object      phi;
}
// * * * * * * * * * * * * * * * * * * * * * * * * * * * * * * * * * * * * * //

dimensions      [1 0 -1 0 0 0 0];

internalField   nonuniform List<scalar> 
196504
(
-4.837137824e-06
-3.634095247e-06
4.192865814e-06
-6.212416118e-06
-5.375162077e-06
6.75045686e-06
-4.398524567e-06
-8.468647981e-06
6.654780665e-06
7.265050256e-06
-2.547590615e-05
1.381235178e-05
8.482321e-06
-8.038430291e-06
6.821170062e-06
6.909206227e-06
-5.574843626e-06
7.147954331e-06
6.21591957e-06
-3.927626203e-06
4.620876445e-06
5.422880413e-06
-3.996102846e-06
4.789070503e-06
4.75387208e-06
-2.959206532e-06
3.628099964e-06
6.454900348e-06
-6.435472244e-06
4.73428549e-06
6.66731041e-06
-3.628772968e-06
3.416161907e-06
6.635951741e-06
-3.269697558e-06
3.300817109e-06
6.36615589e-06
-2.394163631e-06
2.663684693e-06
5.994284223e-06
-1.985080997e-06
2.356647623e-06
5.566427623e-06
-1.639733631e-06
2.067259713e-06
5.208319863e-06
-1.523158725e-06
1.880915558e-06
4.833379246e-06
-1.361610506e-06
1.736184691e-06
4.772283581e-06
-1.629253579e-06
1.6899717e-06
4.591012269e-06
-1.375826651e-06
1.556713398e-06
4.41441553e-06
-1.265974704e-06
1.44218334e-06
4.178318383e-06
-1.08584516e-06
1.321553594e-06
3.902942317e-06
-9.358898309e-07
1.210878911e-06
3.599667037e-06
-8.112125661e-07
1.11410437e-06
3.27831414e-06
-7.114419715e-07
1.032416162e-06
2.946884572e-06
-6.33822326e-07
9.648787549e-07
2.610940521e-06
-5.742562129e-07
9.098330837e-07
2.274071158e-06
-5.289975863e-07
8.655057786e-07
1.938523346e-06
-4.950110246e-07
8.302034462e-07
1.605644212e-06
-4.69928976e-07
8.024580451e-07
1.27615393e-06
-4.519363724e-07
7.810812819e-07
9.503187927e-07
-4.396578145e-07
7.651514948e-07
6.28255388e-07
-4.322359256e-07
7.539609047e-07
3.100860354e-07
-4.287721546e-07
7.466051461e-07
-4.192489462e-07
7.289996645e-07
-6.674099102e-06
-7.865530311e-06
5.344786056e-06
-8.424173821e-06
-1.239779728e-05
8.772725083e-06
-5.145286723e-06
-2.045772462e-05
8.710218919e-06
7.895870581e-06
-4.883527817e-05
1.031826859e-05
1.032808191e-05
-1.918297577e-05
8.712347873e-06
8.112334019e-06
-1.26262377e-05
9.267135935e-06
6.920342527e-06
-8.61844919e-06
5.882775801e-06
5.316416234e-06
-8.345017274e-06
5.952766006e-06
4.195744362e-06
-6.240783916e-06
4.402131071e-06
7.073535755e-06
-1.60532653e-05
6.739838878e-06
7.737034138e-06
-8.730354546e-06
4.43787849e-06
7.412738118e-06
-7.125648066e-06
4.180004522e-06
7.009196833e-06
-5.20095339e-06
3.210053319e-06
6.436472097e-06
-4.183589451e-06
2.770925281e-06
5.850306313e-06
-3.41614482e-06
2.362243499e-06
5.387676152e-06
-3.210176801e-06
2.149294376e-06
4.886847771e-06
-2.816449995e-06
1.955298532e-06
4.979972345e-06
-3.727249904e-06
2.004491328e-06
4.83592329e-06
-3.025849263e-06
1.793684281e-06
4.67971503e-06
-2.762622974e-06
1.652465742e-06
4.424996411e-06
-2.31411985e-06
1.482602054e-06
4.121426266e-06
-1.96726514e-06
1.334556084e-06
3.787300748e-06
-1.68624671e-06
1.208773954e-06
3.436573147e-06
-1.466775564e-06
1.105680393e-06
3.079099638e-06
-1.299805268e-06
1.023081329e-06
2.720536109e-06
-1.173625903e-06
9.575641368e-07
2.363987166e-06
-1.078786414e-06
9.059747488e-07
2.01114983e-06
-1.008190577e-06
8.656596777e-07
1.662880666e-06
-9.565028451e-07
8.34491161e-07
1.31947997e-06
-9.197055014e-07
8.108226511e-07
9.807813873e-07
-8.947150079e-07
7.934125206e-07
6.467162659e-07
-8.795694329e-07
7.810584047e-07
3.184708752e-07
-8.721978898e-07
7.71332961e-07
-8.520899146e-07
7.509747113e-07
-1.062893244e-05
-1.368455522e-05
8.054159362e-06
-1.256507045e-05
-2.262605957e-05
1.216441422e-05
-6.274118105e-06
-3.456231801e-05
7.813692018e-06
8.421854346e-06
-6.1855619e-05
-1.675530884e-06
1.365846639e-05
-3.255847698e-05
8.138917857e-06
1.067822523e-05
-2.277629593e-05
1.313029027e-05
8.44351412e-06
-1.524247303e-05
8.858689724e-06
4.885182145e-06
-1.346043406e-05
8.673666457e-06
2.769858506e-06
-1.033352808e-05
6.207942327e-06
8.104475065e-06
-3.203725627e-05
1.06492052e-05
1.01333343e-05
-1.777498993e-05
7.015563687e-06
9.117425791e-06
-1.242373479e-05
6.313747957e-06
8.3096897e-06
-8.877948295e-06
4.484448138e-06
7.229878503e-06
-6.784876024e-06
3.680784509e-06
6.286515072e-06
-5.442690548e-06
2.969569992e-06
5.502298778e-06
-5.151071053e-06
2.724750965e-06
4.714070666e-06
-4.42341369e-06
2.394816741e-06
5.219245909e-06
-7.029117436e-06
2.796306123e-06
5.254297956e-06
-5.402415486e-06
2.341121108e-06
5.109010878e-06
-4.749740223e-06
2.132008184e-06
4.80940397e-06
-3.837872606e-06
1.822963373e-06
4.440017004e-06
-3.18045599e-06
1.582183758e-06
4.039958197e-06
-2.673391658e-06
1.38681369e-06
3.63183646e-06
-2.294087863e-06
1.235049171e-06
3.228460969e-06
-2.015825545e-06
1.119016809e-06
2.833855797e-06
-1.810441714e-06
1.031048219e-06
2.449012484e-06
-1.658775357e-06
9.64465644e-07
2.073842258e-06
-1.54749402e-06
9.141129058e-07
1.707771738e-06
-1.467079316e-06
8.762915754e-07
1.349951817e-06
-1.410559146e-06
8.483228405e-07
9.990979029e-07
-1.372228276e-06
8.280203658e-07
6.555967647e-07
-1.348217784e-06
8.118056963e-07
3.224937121e-07
-1.334724628e-06
7.952880513e-07
-1.302984335e-06
7.730474198e-07
-1.83080024e-05
-2.089212883e-05
1.146369106e-05
-1.922062036e-05
-3.27830932e-05
1.106967161e-05
-8.533385739e-06
-4.348342116e-05
-1.766043456e-06
1.021336482e-05
-6.609003829e-05
-1.451222886e-05
1.972947032e-05
-4.161043036e-05
-4.640987477e-07
1.666921151e-05
-3.330028464e-05
1.358424899e-05
1.216105433e-05
-2.379277446e-05
1.305840545e-05
4.779661483e-06
-1.957706684e-05
1.349793014e-05
1.650020015e-06
-1.6498795e-05
9.29477185e-06
9.908569416e-06
-5.127620376e-05
1.098023746e-05
1.433901089e-05
-3.265260968e-05
1.044696095e-05
1.253636398e-05
-2.08042494e-05
1.018290982e-05
1.076606864e-05
-1.404613135e-05
6.938190119e-06
8.665947433e-06
-1.001588634e-05
5.33081147e-06
7.036105014e-06
-7.824922371e-06
4.011727308e-06
5.484071097e-06
-7.339564606e-06
3.740159672e-06
4.101234849e-06
-6.166099136e-06
3.125138276e-06
5.539548777e-06
-1.293657227e-05
4.468746227e-06
6.187428739e-06
-9.529433318e-06
3.478736322e-06
5.974435744e-06
-7.618688404e-06
3.081537114e-06
5.554049483e-06
-5.875934202e-06
2.458044208e-06
5.020120017e-06
-4.672949558e-06
2.026022231e-06
4.479098518e-06
-3.822523079e-06
1.689756676e-06
3.959514509e-06
-3.219962049e-06
1.445067625e-06
3.472712867e-06
-2.797675089e-06
1.268266875e-06
3.01561482e-06
-2.494320065e-06
1.140598497e-06
2.583261273e-06
-2.274917073e-06
1.048123605e-06
2.171452477e-06
-2.116938669e-06
9.808876397e-07
1.776849907e-06
-2.004893272e-06
9.320560256e-07
1.396983678e-06
-1.928055174e-06
8.970063933e-07
1.028909702e-06
-1.876495876e-06
8.719895722e-07
6.726515906e-07
-1.843957587e-06
8.51648901e-07
3.302568479e-07
-1.824674331e-06
8.319974645e-07
-1.781680766e-06
8.086073168e-07
-3.109653321e-05
-2.489064956e-05
1.079357161e-05
-2.945080386e-05
-3.557023056e-05
1.141400668e-06
-1.439429275e-05
-4.496812002e-05
-1.357171448e-05
1.650086908e-05
-6.327569187e-05
-3.370943336e-05
3.003382155e-05
-4.334045882e-05
-1.180285689e-05
2.85327244e-05
-3.783114321e-05
6.031975728e-06
2.02168279e-05
-3.048547295e-05
1.500854154e-05
6.102799362e-06
-2.613359365e-05
2.067044345e-05
2.871439204e-06
-2.640921414e-05
1.314162855e-05
1.347103634e-05
-6.256140442e-05
6.854748584e-07
2.078551511e-05
-4.892089323e-05
8.953611037e-06
1.851892817e-05
-3.309910762e-05
1.456120952e-05
1.511142356e-05
-2.174205783e-05
1.1103143e-05
1.110852035e-05
-1.4348526e-05
8.335216484e-06
8.253703085e-06
-1.07373387e-05
5.766877577e-06
5.205883034e-06
-9.796076404e-06
5.503953653e-06
2.878420063e-06
-8.1946037e-06
4.355573508e-06
5.988083564e-06
-2.292949469e-05
6.882856812e-06
8.083753496e-06
-1.73727445e-05
5.747229215e-06
7.674515669e-06
-1.225159969e-05
5.041734633e-06
6.911367138e-06
-8.813503339e-06
3.70030449e-06
5.999090861e-06
-6.597053174e-06
2.835970579e-06
5.181894845e-06
-5.207835219e-06
2.202104323e-06
4.462970789e-06
-4.285562383e-06
1.784126958e-06
3.837261125e-06
-3.672274976e-06
1.499918864e-06
3.280667766e-06
-3.243673543e-06
1.305562805e-06
2.775129452e-06
-2.940591305e-06
1.170834788e-06
2.30829264e-06
-2.727331097e-06
1.076857233e-06
1.871631127e-06
-2.579621662e-06
1.011023042e-06
1.460823616e-06
-2.482959525e-06
9.653494775e-07
1.069657761e-06
-2.419333128e-06
9.336444561e-07
6.966094646e-07
-2.380241326e-06
9.089762901e-07
3.412275373e-07
-2.35638044e-06
8.867342785e-07
-2.302571985e-06
8.617659962e-07
-4.484292716e-05
-2.100312889e-05
2.221702222e-06
-4.22231056e-05
-2.972500773e-05
-8.464943663e-06
-2.152441348e-05
-3.994739063e-05
-2.571932078e-05
2.440727556e-05
-5.051857293e-05
-5.86886979e-05
4.310500008e-05
-3.907247752e-05
-2.296567035e-05
4.115028784e-05
-3.31665292e-05
-2.709878927e-06
2.856143135e-05
-2.94415604e-05
1.154489166e-05
6.369314837e-06
-3.014558106e-05
2.620398094e-05
4.886411134e-06
-3.691860549e-05
1.199214164e-05
1.927532111e-05
-6.505494717e-05
-1.189546914e-05
2.970471596e-05
-5.738879255e-05
-1.961612379e-06
2.882755938e-05
-4.427521523e-05
1.205314712e-05
2.291910988e-05
-3.054088853e-05
1.470702607e-05
1.538419003e-05
-1.960378982e-05
1.278985478e-05
1.024885186e-05
-1.413902465e-05
8.536657733e-06
4.7548315e-06
-1.253829856e-05
8.235851615e-06
2.283832966e-06
-1.170733879e-05
5.983327632e-06
7.640423872e-06
-3.387036751e-05
5.583881353e-06
1.166662174e-05
-2.884658131e-05
7.447220893e-06
1.104199541e-05
-1.958438244e-05
7.95698393e-06
9.394696274e-06
-1.305011088e-05
5.88348194e-06
7.652234352e-06
-9.063187639e-06
4.208177053e-06
6.288315855e-06
-6.872275562e-06
3.027946542e-06
5.207782495e-06
-5.520493663e-06
2.315059826e-06
4.355566443e-06
-4.67234461e-06
1.851888275e-06
3.648352401e-06
-4.088375872e-06
1.55152583e-06
3.035451391e-06
-3.679212173e-06
1.351137471e-06
2.489509912e-06
-3.398020053e-06
1.216251441e-06
1.99253833e-06
-3.208077894e-06
1.12505358e-06
1.540152576e-06
-3.095117531e-06
1.064173666e-06
1.119145709e-06
-3.021759361e-06
1.023066494e-06
7.258814848e-07
-2.979778925e-06
9.924379701e-07
3.545163128e-07
-2.95171375e-06
9.663365335e-07
-2.887399975e-06
9.389833189e-07
-5.314353665e-05
-9.66042081e-06
-5.970624414e-06
-5.009450792e-05
-1.776683307e-05
-1.50071575e-05
-2.439361599e-05
-2.376525347e-05
-4.18829568e-05
2.758601334e-05
-2.948325778e-05
-7.301482058e-05
5.049207348e-05
-2.479480573e-05
-3.718372949e-05
4.482845274e-05
-2.11300416e-05
-6.372905013e-06
2.190775122e-05
-1.73158987e-05
1.079496428e-05
-6.124130943e-06
-2.887131217e-05
2.67574788e-05
6.236775077e-07
-4.301595256e-05
-6.506076924e-07
2.662168209e-05
-6.195822857e-05
-2.909485649e-05
4.104768417e-05
-5.735660783e-05
-1.445821562e-05
4.334752362e-05
-4.651444935e-05
-6.019853171e-08
3.577475219e-05
-3.503452315e-05
1.206626062e-05
2.281553794e-05
-2.34410086e-05
1.679611069e-05
1.330550016e-05
-1.727415606e-05
1.2644789e-05
4.136906882e-06
-1.597365906e-05
1.260354734e-05
3.987759657e-06
-1.869562544e-05
7.137016672e-06
1.236620249e-05
-4.042032464e-05
-1.828883691e-06
1.762515729e-05
-3.827950336e-05
4.17355688e-06
1.690561926e-05
-2.844569244e-05
9.580420437e-06
1.364671389e-05
-1.890888557e-05
9.117244876e-06
1.025887865e-05
-1.238831141e-05
6.712528687e-06
7.931966733e-06
-8.996887655e-06
4.45110311e-06
6.273342741e-06
-7.057673022e-06
3.195391582e-06
5.089553726e-06
-5.895659503e-06
2.40670038e-06
4.159019485e-06
-5.084835592e-06
1.926597328e-06
3.385447374e-06
-4.523728775e-06
1.617697666e-06
2.72420959e-06
-4.155490101e-06
1.418321415e-06
2.138792043e-06
-3.912070235e-06
1.28902747e-06
1.632086863e-06
-3.79602337e-06
1.207232143e-06
1.17412755e-06
-3.717660169e-06
1.15348433e-06
7.59254344e-07
-3.679848614e-06
1.114569632e-06
3.693699588e-07
-3.644735978e-06
1.082535153e-06
-3.569926043e-06
1.051525493e-06
-4.429844445e-05
2.168393256e-06
-2.293792918e-06
-4.46646379e-05
-5.392050461e-08
-1.734677463e-05
-2.214501492e-05
-5.667495742e-07
-4.57181404e-05
2.467583525e-05
-3.214411118e-06
-7.308967655e-05
4.029500878e-05
-2.195708503e-06
-3.821834942e-05
2.152426546e-05
-2.031086647e-06
-3.283743653e-07
-1.3624529e-05
-5.792434311e-06
2.362520683e-05
-3.068315205e-05
-2.384946785e-05
1.203663952e-05
-5.63642429e-06
-4.519735859e-05
-2.286550705e-05
3.464654587e-05
-4.974026186e-05
-5.250110367e-05
5.471191682e-05
-4.615642358e-05
-3.126571599e-05
5.798721021e-05
-3.997540091e-05
-9.814447334e-06
5.074972663e-05
-3.070828876e-05
2.911022669e-06
3.247996931e-05
-2.089810653e-05
1.572651597e-05
1.545945167e-05
-1.7004595e-05
1.675055611e-05
1.231871227e-06
-1.834460456e-05
1.659810578e-05
5.775121914e-06
-2.706141022e-05
3.822111256e-06
1.912758252e-05
-4.312884855e-05
-1.064435175e-05
2.555003543e-05
-4.11205954e-05
-3.581765685e-06
2.572024933e-05
-3.290891992e-05
4.292594102e-06
2.072600664e-05
-2.357241831e-05
9.657340577e-06
1.451594786e-05
-1.559062598e-05
9.411934348e-06
1.035813287e-05
-1.130603642e-05
6.466535172e-06
7.69987033e-06
-8.835615444e-06
4.435787578e-06
6.021591162e-06
-7.39152967e-06
3.173741368e-06
4.795158439e-06
-6.309654406e-06
2.450850108e-06
3.819052634e-06
-5.542408111e-06
1.99438801e-06
3.013394564e-06
-5.057347558e-06
1.707121485e-06
2.302431429e-06
-4.726838297e-06
1.52533979e-06
1.728498983e-06
-4.640327342e-06
1.417847614e-06
1.229516747e-06
-4.568113794e-06
1.349049571e-06
7.971403162e-07
-4.546209599e-06
1.298353418e-06
3.856293389e-07
-4.490154929e-06
1.256547647e-06
-4.404098159e-06
1.219420088e-06
-1.634289343e-05
1.735790473e-06
8.897307477e-06
-2.526473299e-05
7.529529226e-06
1.338278383e-06
-1.840938096e-05
1.45223157e-05
-2.194452731e-05
1.076145843e-05
2.408099533e-05
-5.646634907e-05
-1.302826539e-06
1.366130599e-05
-3.792878195e-06
-3.809149263e-05
1.220009315e-05
2.255729109e-05
-4.970124638e-05
8.250707537e-08
5.734655618e-06
-4.743520463e-05
-1.723005201e-05
-8.885647943e-06
-6.447669762e-06
-3.324619928e-05
-5.29389333e-05
3.935473343e-05
-2.460677023e-05
-7.093606545e-05
6.218718379e-05
-2.01509685e-05
-4.883811561e-05
6.612499896e-05
-2.417549152e-05
-1.973799521e-05
5.701460844e-05
-1.904248022e-05
-2.555716035e-06
3.475107001e-05
-1.14614292e-05
1.282649892e-05
1.004357367e-05
-1.24971395e-05
2.019963029e-05
-6.533026778e-06
-1.767762602e-05
1.590919613e-05
4.912011233e-06
-3.109215002e-05
-7.414728913e-06
2.582171706e-05
-4.093668383e-05
-2.31023136e-05
3.424632576e-05
-3.745040098e-05
-1.209523173e-05
3.528052793e-05
-3.039175918e-05
-3.55178413e-06
2.983169045e-05
-2.339928453e-05
5.27527635e-06
2.038773155e-05
-1.687819056e-05
1.073108647e-05
1.366662871e-05
-1.39140648e-05
9.328701621e-06
9.792488136e-06
-1.164664896e-05
6.684756462e-06
7.537484353e-06
-9.702810005e-06
4.565876694e-06
5.853227716e-06
-7.988195642e-06
3.362394753e-06
4.489996586e-06
-6.785902779e-06
2.606323753e-06
3.415520116e-06
-6.135739671e-06
2.152466637e-06
2.485620545e-06
-5.680120393e-06
1.882780054e-06
1.811964923e-06
-5.709652364e-06
1.742580346e-06
1.282398885e-06
-5.698688302e-06
1.659742101e-06
8.414988355e-07
-5.694267508e-06
1.588561717e-06
4.061979968e-07
-5.583078661e-06
1.527830097e-06
-5.477284013e-06
1.478990372e-06
-3.868098954e-06
-4.628151973e-06
1.16612073e-05
-1.051745885e-05
2.424261082e-06
1.175438161e-05
-9.334924758e-06
1.103975799e-05
2.299815197e-06
1.17631429e-06
3.35726216e-05
-2.000306057e-05
-6.159752333e-06
9.234140587e-06
1.176299929e-05
-2.794423288e-05
1.454728193e-05
1.943702755e-05
-4.272024462e-05
8.932842713e-06
5.925403566e-06
-4.242020037e-05
-2.085741196e-06
-1.544462966e-05
2.755484913e-06
-8.115756674e-06
-7.030636773e-05
4.090736573e-05
1.038792713e-05
-7.314682223e-05
5.422770129e-05
1.403780317e-05
-4.750937217e-05
5.496958897e-05
-1.612894797e-05
-8.788743199e-06
4.083670191e-05
-1.682304041e-05
1.191308199e-05
1.306872483e-05
-6.251355234e-06
2.255749224e-05
-1.177615258e-05
-7.686165454e-06
2.003347554e-05
-1.914676697e-05
-1.379531871e-05
3.487871953e-06
2.247919593e-06
-2.486776155e-05
-2.761951328e-05
2.88110311e-05
-2.852604409e-05
-3.897418969e-05
4.117718305e-05
-2.476548953e-05
-2.505150536e-05
4.30623008e-05
-2.100334444e-05
-1.127397324e-05
3.857993786e-05
-1.681518909e-05
-2.102156613e-06
2.70656545e-05
-1.181001304e-05
6.445675955e-06
1.722877329e-05
-1.442022507e-05
1.034262304e-05
1.190582321e-05
-1.530829635e-05
8.984187258e-06
9.006469052e-06
-1.307900422e-05
6.275147905e-06
6.90770055e-06
-1.04300753e-05
4.540246796e-06
5.173457501e-06
-8.491479181e-06
3.439413684e-06
3.814268281e-06
-7.570572634e-06
2.793611335e-06
2.613922788e-06
-6.898584325e-06
2.418395273e-06
1.798086789e-06
-7.152133184e-06
2.257902513e-06
1.32985892e-06
-7.41767687e-06
2.186803469e-06
9.000919931e-07
-7.337946698e-06
2.07303576e-06
4.425340168e-07
-7.098626194e-06
1.972697365e-06
-6.932646421e-06
1.897489541e-06
4.578050059e-06
-1.067524224e-05
1.160207517e-05
-1.500531337e-06
-2.87673264e-06
1.137922359e-05
-3.075973982e-06
3.616189714e-06
8.998691128e-06
1.403868074e-06
2.477713315e-05
4.315372018e-06
-3.54220122e-06
4.835847769e-06
9.344052827e-06
-1.261304146e-05
8.798239637e-06
1.481956338e-05
-2.270792835e-05
7.319747762e-06
1.170765663e-05
-2.204483831e-05
3.384839297e-06
-6.133994504e-06
9.717174577e-06
1.450198854e-05
-5.438004237e-05
2.968651249e-05
2.995848653e-05
-3.954020919e-05
2.769112762e-05
1.571017738e-05
3.226517015e-07
2.575225183e-05
-3.202084871e-05
1.783041052e-05
1.952938695e-05
-3.223868072e-05
2.163810158e-05
7.174271614e-07
-1.576017773e-05
2.832034969e-05
-1.801157255e-05
-5.056980608e-06
1.609937023e-05
-1.957748047e-05
-4.833937455e-06
-7.395927434e-06
5.256963792e-06
-1.044761576e-05
-3.925502646e-05
2.875670095e-05
-4.875902729e-06
-4.715032334e-05
3.942029722e-05
-2.346277304e-07
-3.519491788e-05
3.989624893e-05
-2.378919311e-06
-1.910084503e-05
3.628059839e-05
-7.253338866e-06
-5.946636031e-06
2.625338948e-05
-5.967534281e-06
4.18430709e-06
1.846849607e-05
-2.028389771e-05
1.364816297e-05
1.644245259e-05
-2.820151971e-05
1.491891549e-05
1.29699138e-05
-1.992357295e-05
1.031673973e-05
9.667242752e-06
-1.422287399e-05
7.095082788e-06
6.768068136e-06
-1.061611555e-05
5.023404472e-06
4.503355747e-06
-9.192970152e-06
3.886687359e-06
2.729312811e-06
-8.427219713e-06
3.302246713e-06
1.612244923e-06
-9.162083579e-06
3.126585404e-06
1.40023534e-06
-1.037903786e-05
3.172939767e-06
1.029279472e-06
-9.902858675e-06
2.935441135e-06
5.347917379e-07
-9.348769627e-06
2.744207855e-06
-9.000787684e-06
2.602511472e-06
1.216394013e-05
-1.897531388e-05
1.559574821e-05
5.874809363e-06
-7.967338422e-06
1.137929465e-05
1.773871671e-06
-2.133828795e-06
9.85055224e-06
4.106816044e-06
1.184384469e-05
1.059997141e-05
5.825871518e-08
1.002326131e-06
7.88169751e-06
-5.329673733e-06
2.412191824e-06
1.177363909e-05
-9.388437627e-06
2.137048223e-07
1.116446261e-05
-1.807547512e-05
-4.260894246e-06
1.63324041e-05
-9.501296308e-06
3.846413483e-06
2.081015398e-06
1.96127436e-06
3.795500663e-06
1.470004055e-05
1.165449545e-05
-1.683827771e-05
2.28548343e-05
2.646594013e-05
-4.362377362e-05
-3.208901165e-06
3.225671837e-05
-4.026914541e-05
2.239295803e-06
2.818135656e-05
-2.695814568e-05
1.527289874e-05
9.710966834e-06
-1.024696395e-05
2.365991342e-05
6.581765541e-07
-4.225593822e-06
8.44395982e-06
1.585395428e-05
3.995583184e-06
-2.963944829e-05
2.566005879e-05
1.770370268e-05
-3.238618684e-05
2.323541256e-05
1.767081301e-05
-1.548128345e-05
1.343995504e-05
9.143793376e-06
-1.727728977e-06
1.91775287e-06
-4.642820901e-06
8.911272025e-06
-6.780751034e-06
-1.028035202e-05
1.301087999e-05
-3.697181505e-08
-4.407951964e-05
1.70513617e-05
1.543616118e-05
-6.286280455e-05
1.918799553e-05
1.606888807e-05
-3.514260074e-05
1.458596377e-05
1.243384924e-05
-2.073262846e-05
1.014441724e-05
8.381245297e-06
-1.370421905e-05
7.140296851e-06
4.979746687e-06
-1.127528528e-05
5.483372111e-06
2.313301429e-06
-1.051310639e-05
4.751873781e-06
8.986143135e-07
-1.239661742e-05
4.648762122e-06
1.471323961e-06
-1.615330763e-05
5.201107501e-06
1.422908328e-06
-1.441596449e-05
4.561075545e-06
7.874858972e-07
-1.285474898e-05
4.14096251e-06
-1.203518873e-05
3.821449988e-06
2.226826825e-05
-2.763978292e-05
1.745692938e-05
1.377074293e-05
-1.339448518e-05
1.392415287e-05
5.983406815e-06
-4.955057289e-06
1.060809272e-05
3.477570934e-06
3.177706097e-06
1.117153661e-05
-3.155763693e-06
-3.666145004e-07
8.001858539e-06
-1.118910936e-05
-5.812153045e-07
1.102635259e-05
-2.060072908e-05
-4.418645285e-06
1.404357662e-05
-3.286522302e-05
-1.309995833e-05
2.110315208e-05
-3.134562314e-05
-2.285138667e-05
2.5177798e-05
-2.030695962e-05
-3.478706058e-05
2.754350625e-05
5.109619361e-07
-3.853634229e-05
8.797176048e-07
2.889272624e-05
-4.08865798e-05
-3.111933663e-05
4.134723597e-05
-3.767891275e-05
-1.504513086e-05
4.151799222e-05
-2.760347223e-05
4.741519145e-07
3.391197481e-05
-1.59864758e-05
1.334508081e-05
2.148253302e-05
-8.734889768e-06
1.693825432e-05
1.637083481e-05
5.731508827e-06
3.375271178e-06
1.633542388e-05
1.967112148e-05
-1.932510858e-06
1.263681832e-05
1.602157892e-05
5.347363046e-06
3.797914822e-06
4.923110318e-06
1.305911178e-05
-1.004696689e-05
-1.029407743e-05
1.949574457e-05
-2.235661475e-05
-2.014979317e-05
2.217879759e-05
-3.336500452e-06
-7.376544393e-05
1.066518837e-05
3.039875292e-05
-0.0001144290221
1.78304464e-05
3.100206186e-05
-6.227166247e-05
2.652549235e-05
2.105284576e-05
-3.000719195e-05
1.922348835e-05
1.261428192e-05
-1.712304278e-05
1.185701086e-05
5.943271662e-06
-1.293008702e-05
8.325338729e-06
8.655078925e-07
-1.263144893e-05
7.195606009e-06
-8.525920647e-07
-1.796724863e-05
7.288235257e-06
1.8972741e-06
-2.775727545e-05
8.853622839e-06
2.692113759e-06
-2.287133419e-05
7.660063592e-06
1.500628514e-06
-1.832663839e-05
6.662920351e-06
-1.648543543e-05
5.950422877e-06
3.885075956e-05
-2.992546464e-05
8.56888626e-06
2.563218341e-05
-1.54669112e-05
1.529042593e-05
1.257434515e-05
-5.804630432e-06
1.390688166e-05
5.491848148e-06
-1.890659955e-07
1.044878493e-05
-2.984317479e-06
-1.018429351e-06
9.127524125e-06
-1.28460391e-05
-2.696279631e-06
1.197634688e-05
-2.474620541e-05
-8.534862001e-06
1.601595763e-05
-3.784359833e-05
-2.171086015e-05
2.170788067e-05
-3.889912939e-05
-3.865215077e-05
1.685588769e-05
-2.699630383e-05
-5.757117609e-05
1.088088246e-05
4.910772042e-08
-4.135704991e-05
-2.422516216e-05
3.310410058e-05
-2.776556799e-05
-4.617636994e-05
5.161279447e-05
-2.180885835e-05
-3.437913569e-05
5.39244968e-05
-1.711296743e-05
-1.280263259e-05
4.519498271e-05
-9.506752333e-06
2.249351736e-06
2.661825216e-05
-3.009865856e-06
1.285123005e-05
1.340200584e-05
3.00255911e-06
1.594469839e-05
9.730370733e-06
1.300029558e-05
1.03419583e-05
2.679962969e-06
1.044670957e-05
1.262479672e-05
-9.653242396e-06
3.193354737e-06
1.406248803e-05
-3.32178285e-05
-6.444578129e-06
1.971467834e-05
-5.021746026e-05
-1.878324595e-05
1.563282186e-05
3.613506647e-06
-7.225729527e-05
-5.533966828e-05
7.860296167e-05
-0.0001189892933
-7.042931644e-05
6.704018362e-05
-6.061734087e-05
9.90762092e-06
3.672216027e-05
-2.195212497e-05
2.226273151e-05
1.701753136e-05
-1.270136827e-05
1.528264827e-05
5.413570801e-06
-1.261222602e-05
1.128557922e-05
-3.017794184e-06
-1.525620345e-05
1.105556401e-05
-3.287316593e-06
-2.908600472e-05
1.138773889e-05
4.387863906e-06
-4.776361621e-05
1.233065494e-05
6.195173025e-06
-3.801619583e-05
1.333706419e-05
3.359110298e-06
-2.718187261e-05
1.169082772e-05
-2.305410226e-05
9.927312939e-06
6.235261585e-05
-1.832176143e-05
-7.995995714e-06
4.214003683e-05
-4.943363373e-06
9.688439687e-06
1.942642519e-05
1.742083113e-06
1.516633321e-05
5.567070909e-06
1.931147126e-06
1.173862359e-05
-5.701796357e-06
-6.500663696e-07
1.090001744e-05
-1.701076644e-05
-5.952134537e-06
1.456436151e-05
-2.883594265e-05
-1.607469238e-05
1.936457195e-05
-3.908645059e-05
-3.255643208e-05
2.109566844e-05
-3.731066368e-05
-5.079883558e-05
1.037048107e-05
-2.209098621e-05
-7.034028575e-05
-2.450967468e-06
8.342744321e-06
-3.721490092e-05
-3.457632397e-05
3.968358356e-05
-1.436366105e-05
-4.474313816e-05
5.855582134e-05
-6.513409176e-06
-3.416808943e-05
5.953752802e-05
-7.603441145e-06
-1.049166585e-05
4.669226812e-05
-5.129973984e-06
8.468034953e-06
2.832301628e-05
-4.81213166e-07
1.584011579e-05
1.328261833e-05
3.699155313e-06
1.434329653e-05
4.593118839e-06
8.432398806e-06
1.325687775e-05
-8.81616685e-06
9.927739739e-06
1.392776403e-05
-3.129787522e-05
8.746484281e-06
1.692805145e-05
-7.081830678e-05
1.161807129e-05
2.14571898e-05
-7.130775376e-05
2.932144224e-06
-2.122667687e-05
3.32195654e-05
-3.912027256e-06
-0.0001728714893
0.0001446252567
1.913300147e-05
-0.0002495156037
0.0001396986661
2.170555256e-05
-7.739587062e-05
8.530386909e-05
1.479337605e-05
1.764897674e-05
3.674650106e-05
7.324273538e-06
2.853200564e-05
8.88467787e-06
-5.134763464e-06
2.038382408e-05
-6.661522707e-06
-1.705119565e-05
1.734054733e-05
-1.361328403e-06
-4.506930833e-05
1.068253724e-05
1.354331181e-05
-6.579757811e-05
3.128830663e-06
1.535705148e-05
-5.489794581e-05
1.506750732e-05
8.304549984e-06
-3.807894053e-05
1.794908845e-05
-3.093650743e-05
1.618648117e-05
7.342237967e-05
5.60768566e-06
-2.397828444e-05
5.259597905e-05
1.414911594e-05
1.73333291e-06
2.52795184e-05
1.369255548e-05
1.536540447e-05
6.146221849e-06
7.655325384e-06
1.340857484e-05
-1.016626131e-05
1.198760372e-06
1.446314248e-05
-2.669596524e-05
-7.848313673e-06
1.842541365e-05
-4.07479761e-05
-2.179986055e-05
1.977675728e-05
-4.543948959e-05
-3.801636514e-05
1.015103419e-05
-3.574982982e-05
-5.325457008e-05
-7.234355976e-06
-5.868835686e-06
-7.592565401e-05
-2.429601758e-05
3.138723584e-05
-4.412180231e-05
-3.034963643e-05
5.362075889e-05
-2.753616792e-05
-9.06144829e-06
6.000585925e-05
-1.917911264e-05
6.280163446e-06
5.299362311e-05
-1.544696088e-05
1.485530909e-05
3.912470361e-05
-1.088222499e-05
1.962070926e-05
2.42144803e-05
-4.938389513e-06
1.936690767e-05
1.279887423e-05
4.844914849e-07
1.462976376e-05
5.171674128e-06
4.921619139e-06
1.11374685e-05
-3.694531287e-06
8.269560001e-06
1.052388196e-05
-1.429659946e-05
1.012144921e-05
9.22657104e-06
-3.335357965e-05
1.838151308e-05
1.229299134e-05
-1.961892749e-05
1.8790141e-05
-2.959338801e-05
4.050427958e-05
5.646783453e-05
-0.0001205032618
5.045961517e-05
8.011615208e-05
-7.09392249e-05
2.96952814e-05
4.622732033e-05
-3.758379053e-06
1.293898437e-05
1.940210831e-05
1.21470476e-05
7.331147302e-08
5.924116825e-06
1.426546383e-05
-1.229674987e-05
-9.157334338e-06
1.63920306e-05
-1.604441891e-05
-2.685360545e-05
1.354950341e-05
6.304881469e-06
-5.675070386e-05
-1.0668418e-05
3.081943908e-05
-7.153619601e-05
-1.877635317e-05
3.410597332e-05
-6.127639278e-05
3.09147327e-06
2.01069306e-05
-4.482316032e-05
2.074278316e-05
-3.740634181e-05
2.657627079e-05
3.509059301e-05
2.018274984e-05
-1.868637787e-05
1.829363324e-05
2.215187376e-05
8.793555177e-06
5.651558942e-06
1.533896647e-05
1.099504674e-05
-8.627150585e-06
9.924614026e-06
1.200886192e-05
-2.623581128e-05
2.852114783e-06
1.59547967e-05
-4.497960257e-05
-7.499272105e-06
1.839430306e-05
-5.707091392e-05
-2.021936435e-05
1.05103987e-05
-5.676297101e-05
-3.257944682e-05
-5.745292497e-06
-4.167631831e-05
-4.56630838e-05
-2.267856345e-05
1.011287264e-05
-6.467503769e-05
-6.30401131e-05
5.411211154e-05
-4.835743204e-05
-3.976405053e-05
6.955921188e-05
-3.742979936e-05
-5.553909628e-06
7.351572934e-05
-2.628380664e-05
3.147732761e-06
6.860202105e-05
-1.632652763e-05
5.792832413e-06
5.696360514e-05
-9.135127967e-06
9.890871683e-06
3.989788559e-05
-2.747884174e-06
1.487474876e-05
2.329957025e-05
2.601836825e-06
1.448047206e-05
1.153397129e-05
5.601346751e-06
1.108535829e-05
3.599281172e-06
7.525158783e-06
8.678582934e-06
-2.222159826e-06
8.187776987e-06
7.754600195e-06
-9.943143786e-06
1.368113075e-05
1.242089745e-05
-1.467467771e-05
1.400709942e-05
9.51415077e-06
-8.851918684e-07
4.564575215e-05
-2.967708427e-06
1.64070662e-05
4.178772044e-05
2.1036317e-05
1.278540525e-05
2.385343367e-05
2.599548322e-05
8.224269081e-07
1.172765956e-05
1.963724557e-05
-1.425182888e-05
2.18524952e-06
1.881282921e-05
-3.067223896e-05
-9.452945858e-06
1.67155707e-05
-2.577991176e-05
-3.008291244e-05
-1.663476759e-06
1.748964786e-05
-4.727474886e-05
-5.274588013e-05
5.435501106e-05
-5.305939778e-05
-5.534241142e-05
6.052074266e-05
-4.620547067e-05
-2.123692504e-05
4.280115545e-05
-3.104628252e-05
3.942302319e-06
-2.312377574e-05
2.851807862e-05
9.483521678e-06
1.532963393e-05
8.932061505e-06
4.132338471e-06
1.727010607e-05
1.023223639e-05
-3.706253523e-06
1.290714376e-05
1.026977864e-05
-1.83609807e-05
1.255847919e-05
1.202030056e-05
-4.019636754e-05
9.949985772e-06
1.473702464e-05
-6.082020309e-05
4.254263085e-06
8.869859749e-06
-7.097154432e-05
-4.403112211e-06
-5.665346423e-06
-7.049174153e-05
-1.318012102e-05
-1.987954357e-05
-4.687377273e-05
-2.18335101e-05
-4.744787634e-05
2.093446857e-05
-2.911565595e-05
-0.0001033676267
6.482786754e-05
-2.363919644e-05
-6.861193416e-05
7.921038374e-05
-1.153298647e-05
-4.027973915e-05
7.969645706e-05
-3.045360715e-06
-2.372498051e-05
7.11221427e-05
2.04855602e-06
-9.8012365e-06
6.076362628e-05
4.408906117e-06
-3.185976461e-06
4.690692343e-05
7.093631604e-06
4.014736053e-06
3.003921369e-05
9.265259634e-06
1.020381705e-05
1.523331245e-05
9.566435771e-06
1.084031736e-05
5.462463792e-06
8.853005364e-06
8.442504968e-06
-7.369323538e-07
8.079716451e-06
6.306957707e-06
-6.619304439e-06
1.090804587e-05
8.654990138e-06
-1.083950739e-05
1.048177691e-05
7.745070721e-06
-3.066939074e-06
2.614048542e-05
1.173224885e-05
4.464379311e-06
2.224126849e-05
1.201479361e-05
-1.350170792e-06
1.66396331e-05
1.302791479e-05
-1.482883061e-05
1.236681873e-05
1.283905688e-05
-3.483649498e-05
9.134661933e-06