/*--------------------------------*- C++ -*----------------------------------*\
  =========                 |
  \\      /  F ield         | OpenFOAM: The Open Source CFD Toolbox
   \\    /   O peration     | Website:  https://openfoam.org
    \\  /    A nd           | Version:  8
     \\/     M anipulation  |
\*---------------------------------------------------------------------------*/
FoamFile
{
    version     2.0;
    format      ascii;
    class       volScalarField;
    location    "0.6";
    object      alphat;
}
// * * * * * * * * * * * * * * * * * * * * * * * * * * * * * * * * * * * * * //

dimensions      [1 -1 -1 0 0 0 0];

internalField   nonuniform List<scalar> 
67410
(
5.54169073e-07
9.872396025e-07
3.140290043e-06
1.568410198e-05
5.854814693e-05
0.0001395426521
0.000233657224
0.0003135591747
0.0001445875833
9.350105442e-05
9.773624614e-05
0.0001010394413
0.0001039441134
0.000107444212
0.0001125884316
0.0001192401359
0.0001258623236
0.0001311480905
0.0001349031911
0.0001374127572
0.000138912473
0.0001395050643
0.0001392474496
0.0001382133665
0.0001364060101
0.0001342865412
4.71071787e-06
8.240624264e-06
1.468058541e-05
2.957645254e-05
7.348701466e-05
0.0001599295089
0.0002689474464
8.766076612e-05
9.805277387e-05
0.0001068311368
0.0001134292792
0.0001179164585
0.0001204745169
0.0001216963128
0.0001225407717
0.0001237514239
0.0001257986053
0.000128465041
0.000131345164
0.0001341303731
0.0001366417629
0.000138812862
0.0001407486486
0.0001426528504
0.0001444512871
0.000146991641
3.504501597e-05
5.518649869e-05
8.243246975e-05
0.0001132976575
0.0001620851023
0.0002439975507
0.0003556993435
9.900165171e-05
0.0001106062621
0.0001197851232
0.0001264643131
0.0001305188385
0.0001321216483
0.0001318090036
0.0001304090534
0.0001281027261
0.0001260010955
0.0001249617422
0.0001253687567
0.0001270061854
0.0001295555742
0.0001329511862
0.0001373582352
0.0001427322931
0.0001482699081
0.0001551758716
0.0001416794789
0.0002016460922
0.0002643619699
0.0003269065847
9.038459493e-05
9.901883e-05
0.0001085069819
0.0001175294328
0.0001252197438
0.0001320037143
0.0001373246092
0.000140477396
0.0001411470384
0.0001399808365
0.0001382952485
0.0001347226978
0.0001302168249
0.0001259746486
0.0001234901127
0.0001231818702
0.0001248141043
0.0001284133604
0.0001341299867
0.0001416925541
0.0001495692117
0.0001584081257
0.0001388611009
9.631222912e-05
0.0001051881081
0.0001130807703
0.0001204192346
0.0001268648992
0.0001318062575
0.0001352374572
0.0001386620268
0.0001431607229
0.0001476233582
0.0001501422054
0.0001493530532
0.0001466790173
0.000145762747
0.00014247683
0.0001373868526
0.0001311448085
0.0001263066816
0.0001241919094
0.0001245256382
0.0001271651587
0.0001320699435
0.0001396945933
0.0001481539558
0.0001555062623
0.0001082812916
0.0001214471636
0.0001285040552
0.0001347419571
0.0001404059343
0.0001448292348
0.0001472999091
0.0001483678517
0.0001506230944
0.0001554712571
0.0001607414232
0.0001628083278
0.000159150086
0.0001527043288
0.0001524888441
0.0001500371681
0.0001456666794
0.0001384909257
0.0001320616546
0.0001289757667
0.000128752373
0.0001302808362
0.0001323701108
0.0001382806262
0.0001464717231
0.0001534358805
0.0001247535619
0.0001377204259
0.0001425880466
0.0001471691796
0.0001516661263
0.0001552702756
0.000157248844
0.0001589634611
0.0001637794784
0.0001719210566
0.0001789573082
0.0001798864058
0.0001721371737
0.0001595628876
0.0001587873708
0.0001567771772
0.0001539231827
0.0001466708498
0.0001394945474
0.0001368780536
0.0001381685293
0.0001396281803
0.0001360246716
0.0001391412239
0.0001459089041
0.0001514366243
0.0001343194414
0.000147207755
0.0001507908637
0.0001544638295
0.0001585056054
0.0001621274088
0.0001651108975
0.0001702510646
0.0001805462317
0.0001929041496
0.0002006004613
0.0001995109021
0.0001883704971
0.0001692746383
0.0001654886999
0.0001626466164
0.0001614767118
0.0001548920863
0.0001483356471
0.0001488435498
0.0001551612062
0.0001584841485
0.0001440772592
0.0001434240036
0.0001479276827
0.0001508746526
0.0001397718654
0.0001529573153
0.000156003774
0.0001593318194
0.0001633832572
0.0001676167035
0.0001730674545
0.000183859045
0.0002003128522
0.0002155675609
0.0002227668532
0.0002206293792
0.0002079656559
0.0001841786314
0.0001738573211
0.0001681262845
0.0001679425065
0.0001627272573
0.0001593480609
0.0001674146835
0.0001822578023
0.0001886659217
0.000157373964
0.0001515900854
0.0001523743185
0.0001531590644
0.0001428998251
0.000156822639
0.0001598616483
0.000163186901
0.0001674968415
0.0001727401315
0.0001817413072
0.0001987434863
0.0002200704306
0.0002369180534
0.0002440563203
0.0002421869445
0.0002298519295
0.0002045836
0.000185419523
0.0001739151659
0.0001732710015
0.0001702725988
0.0001740729218
0.0001945057654
0.0002187558311
0.0002284641276
0.0001777444492
0.000163618896
0.0001584822571
0.0001572058181
0.0001446517167
0.000159722599
0.0001631544623
0.0001666919723
0.0001713364516
0.0001775020164
0.000189844905
0.0002117483014
0.0002363966633
0.0002542447694
0.0002622271869
0.0002622089313
0.0002506313403
0.0002262157194
0.0002005112238
0.0001796302531
0.0001777779294
0.0001781337942
0.0001932422409
0.0002279395234
0.0002605823157
0.0002746740449
0.0002086633225
0.0001813477432
0.0001667408369
0.0001618456819
0.0001454203095
0.000161964728
0.0001661746374
0.0001702527132
0.0001749217648
0.0001809415804
0.0001942588817
0.000218358678
0.0002449510572
0.0002640406316
0.0002742165531
0.0002767822693
0.0002657409676
0.0002434842253
0.0002128895882
0.0001849261603
0.0001821106067
0.0001865401525
0.0002145016018
0.0002615489031
0.0003033189732
0.0003220964308
0.0002527568755
0.0002075727007
0.0001780627958
0.0001666674727
0.0001452086189
0.0001634433673
0.000168790805
0.0001735021854
0.0001778239529
0.0001818862042
0.0001906805531
0.0002114699475
0.0002389898779
0.0002616797717
0.0002754201344
0.0002801875682
0.0002708852089
0.0002508790951
0.0002123291132
0.0001869805971
0.0001867167712
0.0001933528396
0.0002306578854
0.0002870511384
0.0003377914673
0.000358249544
0.0003019717664
0.0002388475303
0.0001912884405
0.0001710490521
0.0001437702568
0.0001638924357
0.0001705578475
0.0001759000006
0.000179739268
0.0001808914934
0.0001795786587
0.0001821446456
0.0001956058224
0.0002193108434
0.0002404071174
0.000252886756
0.0002527958751
0.0002321911332
0.0001995343327
0.0001903228008
0.0001906380882
0.0001923922175
0.0002235092446
0.0002850599475
0.0003474422472
0.0003724532963
0.0003260826794
0.0002504356222
0.0001931190975
0.0001709723795
0.0001413336266
0.0001642304244
0.0001727492507
0.0001781938971
0.0001808024176
0.0001796112076
0.0001770310318
0.0001770784517
0.0001824266406
0.0001937744055
0.000207189139
0.0002141487367
0.0002088195312
0.0001957391738
0.0001925622865
0.0001924710174
0.0001935084787
0.0001905835038
0.0001793794271
0.0001847426445
0.0002382115287
0.0002987458622
0.0002774447189
0.0001908835412
0.0001707979161
0.0001648562973
0.0001411108229
0.0001692096613
0.00018114896
0.000187516802
0.0001880351813
0.0001825655131
0.0001748291775
0.0001707827803
0.0001712600585
0.000175412852
0.0001819112453
0.0001855207738
0.0001842058927
0.0001835509715
0.0001881711559
0.0001917902895
0.0001936311526
0.0001917534103
0.0001819862853
0.0001693612615
0.0001823639187
0.0002085458593
0.0001750321407
0.0001652230974
0.0001650106318
0.0001608719802
0.0001498723815
0.0001845761041
0.0002000880616
0.000208282595
0.0002091677095
0.0002015991772
0.0001869772161
0.0001728755698
0.0001652029135
0.0001631619484
0.0001651128841
0.0001692307109
0.0001727786169
0.0001771042025
0.0001828379988
0.0001879854314
0.000191502897
0.0001911286221
0.0001862233046
0.0001784740053
0.0002026324698
0.0002323614634
0.0001631011178
0.0001598418093
0.0001608279745
0.0001566347859
0.0001664362569
0.0002044693236
0.0002203801201
0.0002295089085
0.0002326876735
0.0002290648531
0.0002168865413
0.0001953266449
0.0001753090681
0.0001649545856
0.0001588230474
0.0001570890247
0.000160449185
0.0001660235034
0.0001722434062
0.0001789567843
0.0001848502642
0.0001885853448
0.0001905263884
0.0002017498616
0.0002492121576
0.0002879632802
0.0001871885373
0.0001623926842
0.0001573762336
0.0001534937496
0.0001807959524
0.0002188117901
0.0002329278216
0.0002418837447
0.0002465312447
0.0002468766561
0.0002409308412
0.0002200519215
0.0001916906847
0.0001801377147
0.0001700980045
0.0001572881585
0.0001506357108
0.0001544220862
0.0001606360395
0.0001679718526
0.0001766445461
0.0001897090144
0.000217326608
0.0002615577606
0.0003059726283
0.0003208214712
0.0002712397654
0.000220219296
0.0001699479673
0.0001472425472
0.000187294653
0.0002250027629
0.00023720334
0.0002455450419
0.0002534788939
0.0002599821708
0.0002574480742
0.0002357768182
0.0002016088247
0.0001932835822
0.0001887106127
0.0001755797876
0.0001537904372
0.0001436171073
0.0001494946774
0.0001569709101
0.0001655624227
0.0001759427939
0.0001925758099
0.0002244696303
0.0002686603066
0.0002937247513
0.0002122408223
0.0001694808856
0.0001453921099
0.0001411287037
0.0001824555502
0.0002221166287
0.0002367319127
0.0002465417471
0.0002584401549
0.0002685308881
0.0002662883357
0.0002447754552
0.0002071614077
0.0002005752202
0.0001998506587
0.0001946556277
0.0001772756028
0.0001503016884
0.0001388920748
0.0001461602786
0.0001544926047
0.0001637447162
0.000175172322
0.0001919662406
0.0002229825771
0.0002450563619
0.0001710316166
0.0001484624664
0.0001346399857
0.0001302327588
0.0001736405121
0.0002042878964
0.0002228398554
0.0002357675002
0.0002428506991
0.0002461848927
0.0002420884332
0.0002307143151
0.0002129258802
0.0002068505622
0.0002057703133
0.0002023719526
0.0001934116185
0.0001778896847
0.0001379654658
0.0001357451066
0.0001432913393
0.0001518588684
0.0001624109235
0.0001714073436
0.0001867989345
0.0002019953451
0.0001476923456
0.0001366064763
0.0001262141475
0.0001218545373
0.0001908784007
0.0001927591959
0.0002016678889
0.0002075885673
0.0002086616152
0.0002060423065
0.000205796671
0.0002092149738
0.0002126964456
0.0002164315325
0.0002148693004
0.0002079494279
0.000198479863
0.000187800856
0.0001731270444
0.000145832652
0.0001350886176
0.0001413360794
0.0001518883268
0.0001591960321
0.0001625536111
0.0001670165989
0.0001350650605
0.0001291544986
0.0001204294242
0.0001162829081
0.000226447113
0.0001965763608
0.0001930669487
0.0001973860893
0.0002001673619
0.0002025141906
0.0002060587235
0.0002119003101
0.0002199543319
0.0002266806752
0.0002236883055
0.0002131835244
0.0002004815987
0.0001891005469
0.0001786364505
0.0001644778447
0.0001440795317
0.0001368328554
0.0001429807984
0.000150359642
0.0001488262635
0.0001436629009
0.000127940473
0.000124399505
0.0001171727789
0.0001139702421
0.0002642670644
0.000232131809
0.0001908160904
0.0001916486501
0.0001962890875
0.0002008981869
0.0002067524658
0.0002143052922
0.0002219804912
0.0002237476493
0.0002174857082
0.0002060996203
0.0001959622951
0.0001844155284
0.0001741141465
0.000165941609
0.0001525765975
0.0001398784015
0.0001379760965
0.0001431932618
0.0001410073067
0.0001305406919
0.0001215274979
0.0001208761341
0.0001153506305
0.00029897737
0.0003021380828
0.000205285273
0.0001831499813
0.0001843951526
0.0001868557236
0.0001913464573
0.0001978540583
0.0002063151526
0.0002128014194
0.0002032653557
0.0001864262035
0.0001772021263
0.0001661723278
0.0001554285536
0.0001488239573
0.0001449865008
0.0001384416488
0.0001346204491
0.0001371350326
0.0001333355542
0.0001182976416
0.0001062120788
0.0001147927948
0.0001100620892
0.0003354114808
0.0003694755554
0.0003206345105
0.0002121524986
0.0001813184162
0.0001832940161
0.0001859168397
0.0001906018964
0.000196127911
0.0001996481508
0.0001951827253
0.0001867017476
0.0001815504965
0.0001718080367
0.0001610610607
0.0001527336305
0.0001471201619
0.000139948557
0.0001332826628
0.000132165561
0.0001259182785
0.0001049694605
8.993997657e-05
0.0001062100322
0.0001106657441
0.000270535165
0.0002422376972
0.0002026697434
0.000181781541
0.0001796383101
0.0001811524951
0.0001831367641
0.0001879451063
0.0001947652868
0.0002005720132
0.000201963873
0.000197282
0.0001891757464
0.0001778283105
0.0001671995223
0.0001586720429
0.0001516363427
0.0001424031541
0.0001307824219
0.0001281565236
0.0001188443252
9.348316248e-05
0.0003462228877
9.612993003e-05
0.0001050642659
0.0002322763595
0.0001835267748
0.0001760564759
0.0001777642578
0.0001793718139
0.0001795945856
0.0001807745592
0.0001840749
0.0001883982045
0.0001938592645
0.0001986131351
0.0001945621927
0.0001851761851
0.0001762158312
0.0001683216115
0.0001521478816
0.000150437543
0.0001443351283
0.0001339178204
0.0001247427982
0.0001094884943
9.345148161e-05
0.000309212041
0.0003414944188
9.260632489e-05
9.570305692e-05
0.0001866006378
0.000179121021
0.0001863552725
0.00019425669
0.0002011231826
0.0002037232012
0.0001982203398
0.0001852108914
0.0001816696629
0.0001845364132
0.0001864051193
0.0001828188026
0.0001767176951
0.0001716731909
0.0001658403098
0.000157490942
0.0001517335596
0.0001431144908
0.0001317570976
0.000118005008
0.000118799864
0.0001480845338
9.763260408e-05
0.0002639799876
0.0002474657567
0.0002651603238
4.228285934e-07
8.597560954e-07
2.043801428e-06
9.75140859e-06
3.959174121e-05
0.0001037816405
0.0001867954546
0.0002608601218
0.0003153532894
0.0003557263512
8.952222875e-05
9.274958085e-05
9.595814455e-05
9.984483272e-05
0.0001055178443
0.0001130371062
0.0001208925317
0.0001275056915
0.0001325877052
0.0001365788857
0.0001397262639
0.0001418213645
0.0001424386718
0.0001412283391
0.000138098252
0.0001334536513
2.420942409e-06
4.715375997e-06
7.821390911e-06
1.575032611e-05
4.220344632e-05
9.102932909e-05
0.0001317036226
0.0001309590332
0.0001072785114
0.0001111972532
0.0001177373873
0.0001242792512
0.0001298020855
0.0001340381661
0.0001377994464
0.0001420873255
0.0001478070354
0.0001557592125
0.0001671106156
0.0001823937331
0.0001991087162
0.0002118743819
0.0002163955188
0.0002132556037
0.0002078326516
0.0002056620605
1.83037876e-05
1.808140253e-05
2.692911364e-05
3.781029364e-05
5.952763268e-05
9.179708981e-05
0.0001151493002
0.0001054326985
0.0001094910574
0.0001194040086
0.0001302407472
0.0001391391715
0.0001449332028
0.0001475614551
0.0001479438284
0.000147078728
0.0001462347138
0.0001472207733
0.0001532778278
0.0001668093636
0.0001849254509
0.0002000355013
0.0002072697353
0.0002100124357
0.0002159665122
0.0002290070041
8.351594914e-05
5.352369294e-05
6.574310455e-05
7.757436475e-05
8.095571287e-05
8.392611825e-05
9.690018112e-05
0.0001113388666
0.0001235416147
0.0001344779446
0.0001446870164
0.0001527595731
0.000156579273
0.0001562124606
0.0001533623614
0.0001489096589
0.0001441082391
0.0001405095442
0.00014127202
0.0001498387287
0.0001658582484
0.0001830983591
0.000196152731
0.0002074633443
0.0002217220308
0.0002413784796
0.000223998634
8.241478253e-05
8.098829733e-05
8.440279323e-05
9.256588824e-05
0.0001064679175
0.0001233010706
0.0001370495212
0.0001457385215
0.0001521099852
0.0001585734191
0.0001644573157
0.0001659466318
0.0001635439829
0.000160223489
0.0001552034347
0.0001492923929
0.0001436857448
0.0001408985915
0.0001434596617
0.0001530939269
0.0001696210843
0.0001887181256
0.0002086228478
0.0002275761522
0.0002471791873
9.164807177e-05
0.0001039949734
0.0001029251949
0.0001089933018
0.0001227805912
0.0001421173574
0.000160099326
0.0001706190039
0.0001738370794
0.0001736071706
0.0001736704531
0.0001761039857
0.0001752023964
0.0001724488211
0.0001724067425
0.0001690852125
0.0001630970646
0.0001566211406
0.0001526492674
0.0001525717543
0.0001557360446
0.0001669936334
0.0001879529674
0.0002137126885
0.0002347476477
0.0002490016571
0.0001087818797
0.0001272449736
0.0001257644062
0.0001336268791
0.0001536231389
0.0001788502001
0.0001983423168
0.000207160297
0.0002072434398
0.0002018462037
0.0001934857621
0.0001892031228
0.0001839022607
0.0001833893093
0.0001915821044
0.0001914209275
0.000184572639
0.0001764436014
0.0001723670902
0.0001744028059
0.0001776994484
0.0001818818238
0.0001964159969
0.0002232745724
0.0002478654696
0.0002520172927
0.0001193037922
0.0001475634899
0.0001482038134
0.0001609595365
0.0001883975204
0.0002184458618
0.0002387452791
0.0002476279782
0.0002486930927
0.0002416179417
0.0002191099834
0.0001976971251
0.0001841662269
0.0001917355288
0.0002162924837
0.000221112525
0.000212517586
0.0002004700065
0.0001950992671
0.0002021319954
0.000216959586
0.0002177050276
0.0002218582814
0.0002395705818
0.0002685935244
0.0002664650414
0.0001253754685
0.000167526487
0.0001755768832
0.0001960338863
0.0002286200181
0.0002604648069
0.0002814846698
0.0002939581582
0.0003032570437
0.0002956407045
0.0002463332504
0.0002002700756
0.0001770610457
0.0001977439525
0.000243634941
0.0002557486749
0.0002476109915
0.0002295182205
0.0002195205646
0.000230367675
0.0002630483311
0.0002672962017
0.0002665477739
0.0002727539752
0.0002911487988
0.0002967227654
0.0001292248873
0.0001907685682
0.0002093201753
0.0002347259536
0.0002679890944
0.0003013702587
0.0003258490142
0.00034736736
0.0003716203751
0.0003531367491
0.0002779850125
0.000220279877
0.000188978348
0.000211530393
0.0002741340107
0.0002974725084
0.0002911364933
0.0002675232392
0.0002490475336
0.0002602870476
0.0003125033647
0.0003260164003
0.0003221479104
0.0003274308119
0.0003222410125
0.0003303300801
0.0001319431628
0.0002159945021
0.0002438111414
0.000267739296
0.0003012805079
0.0003395117379
0.0003713861062
0.0004053856581
0.0004352158007
0.0004007767834
0.0003204625654
0.0002730722115
0.00022954896
0.0002392422078
0.0003041604403
0.0003419297608
0.0003408886793
0.0003173540387
0.0002892962922
0.000303834383
0.0003961903486
0.0004231537193
0.0003916345732
0.0003931094684
0.0003625604613
0.000353578801
0.0001336647051
0.0002386780678
0.000274550593
0.0002996049653
0.0003357314623
0.0003780894317
0.0004163972205
0.0004563104783
0.0004757432558
0.0004324391096
0.0003646235765
0.0003308695591
0.0002821064225
0.000280300955
0.0003327568639
0.0003803399456
0.0003875899613
0.0003733236236
0.0003406143774
0.0003743170266
0.0005409498823
0.0005738132477
0.0005043932947
0.000457593867
0.0004022958636
0.0003758095288
0.0001339633798
0.0002537085716
0.0003005838506
0.0003314932022
0.000368831249
0.0004114739441
0.0004550364167
0.0004868766922
0.0004928953316
0.000452181812
0.0003903168509
0.0003611212982
0.0003273404703
0.0003216565968
0.0003579671866
0.0004075346867
0.0004223669809
0.0004172788649
0.0003870304142
0.000453751952
0.0006758005518
0.0007208654404
0.0006535857362
0.0005230594535
0.0004309295053
0.0003918901685
0.0001322753861
0.0002551240689
0.0003170706374
0.0003582100594
0.0003982691792
0.0004385984223
0.0004767521429
0.0004955940802
0.0004953069753
0.000462412389
0.0003978011909
0.0003651911085
0.0003568281673
0.0003500724902
0.0003751448966
0.0004259518515
0.0004459102035
0.0004428333456
0.0004026757786
0.0004588335208
0.0006978796648
0.0007958873092
0.0007572059182
0.000576664551
0.000441198936
0.0003953999143
0.0001286263618
0.0002409004886
0.0003144047117
0.0003766903491
0.0004243379787
0.0004612674362
0.0004811371508
0.000483034206
0.0004703894597
0.0004434799321
0.0004078120911
0.000378435338
0.0003746859917
0.0003772258439
0.0004013874324
0.000440529752
0.0004608290305
0.0004590107826
0.0004199723419
0.0003519237385
0.0005373797937
0.0007471493936
0.0007471182445
0.000556807007
0.0004246745622
0.0003829642726
0.0001248754325
0.0002193275692
0.0002948942093
0.0003701547982
0.0004238827094
0.0004424515982
0.0004351329659
0.0004209552201
0.0004071682391
0.0003917409036
0.0003714411719
0.0003574118026
0.0003654399729
0.0003837114386
0.0004141850779
0.000445623529
0.0004681054715
0.000467203776
0.00043085529
0.0003089598094
0.0002926149413
0.0004101645596
0.0005637047033
0.0004907416439
0.0004030250849
0.0003627941221
0.0001256244223
0.0002045574429
0.0002749524469
0.0003398667882
0.0003644308477
0.0003498135702
0.0003266848394
0.0003119700574
0.0003052655979
0.000302084549
0.000301161796
0.0003092853583
0.0003340543424
0.000363748016
0.0003965781197
0.0004355179925
0.0004698349249
0.0004732417612
0.0004553346304
0.0003459922225
0.000277939626
0.0003207224253
0.0003875685474
0.0004227383759
0.0003760473037
0.0003372742881
0.0001339121697
0.0002029322103
0.0002782377197
0.0003412324185
0.0003488525712
0.0003115446064
0.000266010066
0.000242732957
0.000236164612
0.0002350941194
0.0002394870008
0.0002543643485
0.0002813781041
0.0003127454936
0.000345986013
0.0003883436216
0.0004289693021
0.0004528768858
0.0004611992588
0.0004475943396
0.0004466819146
0.0004941199363
0.000402285486
0.0003992723004
0.0003486260344
0.0003054795026
0.0001451857609
0.0002069916004
0.0002740997804
0.000305642914
0.0003006831584
0.0002801062896
0.0002586030657
0.0002342593131
0.0002189632877
0.0002100286166
0.0002032955531
0.0002059490964
0.0002257898822
0.0002568541143
0.0002846511381
0.0003249191474
0.0003706274797
0.00041228755
0.0004466395684
0.00048718872
0.0005819331642
0.0005897427635
0.0004491257555
0.0003507613879
0.0003076587046
0.0002687890277
0.0001532729501
0.0002098149477
0.0002467368253
0.0002573398552
0.0002848672175
0.0003189417803
0.0003231768566
0.0002845266978
0.0002350981043
0.0002202228638
0.0002096578926
0.000195691758
0.0001880208971
0.0002048659347
0.0002336134087
0.0002665289827
0.0003115437491
0.000357989244
0.0004021013149
0.0004546003622
0.000531013174
0.0005214137143
0.0003791229031
0.0003001952428
0.0002350979231
0.0002066927313
0.0001543300192
0.0002122012903
0.0002545589841
0.0002627047372
0.0003073617212
0.0003699024181
0.0003971974614
0.0003774128805
0.0002729367502
0.0002323101982
0.0002318396878
0.0002240693101
0.0001986686462
0.0001800695591
0.0001935672635
0.0002201616403
0.0002558240924
0.0002995839936
0.0003410569485
0.0003770938973
0.0003841470314
0.0003524751944
0.0002877931048
0.0002390380478
0.0001780579137
0.000148586218
0.000152324903
0.0002099438118
0.0002688802218
0.0003140698759
0.0003349925708
0.0003872687435
0.000426937828
0.0004068602561
0.000316247762
0.0002452705105
0.0002436476278
0.0002527398357
0.000237809054
0.0002021580964
0.0001715088502
0.0001840353726
0.0002102093026
0.0002432660991
0.0002816316224
0.0003024583448
0.0002670250785
0.0002407856244
0.0002344381515
0.0001919131706
0.0001362898353
0.0001101754018
0.0001620596303
0.0002059376707
0.000269514162
0.0003186759656
0.0003343775547
0.0003326826799
0.0003258595652
0.0003020647722
0.0002832066031
0.0002900761631
0.0002856196387
0.0002708354095
0.0002593874751
0.0002434982265
0.0001980938302
0.0001710699557
0.0001783598495
0.0002038354597
0.0002351966758
0.0002458606036
0.000209595888
0.0001905556764
0.000202252307
0.0001673138748
0.0001187652847
9.538365574e-05
0.0001835023598
0.0001906648767
0.0002482343041
0.0003031122436
0.0003275680088
0.000306219768
0.0002909157073
0.0002919247386
0.0003255651429
0.0003659682225
0.0003559008493
0.000315192364
0.0002741838581
0.0002530736432
0.0002346177493
0.0001844583515
0.0001646623101
0.0001748647798
0.0001985670203
0.0002061357632
0.0001799526481
0.0001658442557
0.0001716829851
0.0001478198587
0.0001153203187
0.0001018806336
0.000222483365
0.0002188518404
0.000220610408
0.0002502378907
0.0002735369169
0.0002844935521
0.0002928688482
0.0003174922842
0.0003603080105
0.0003793943169
0.000355117415
0.0003161445819
0.0002762960325
0.0002437511171
0.0002172157147
0.0001926220783
0.0001655635281
0.0001594598431
0.0001718482333
0.000178257794
0.0001617780056
0.0001522502493
0.0001467041396
0.0001311252853
0.0001275754356
0.0002761259035
0.0003142361225
0.0002231435897
0.0002169952378
0.0002224528726
0.0002326850986
0.0002444430905
0.0002653662341
0.0003055736756
0.0003428923933
0.0003132450419
0.0002681472998
0.0002286599006
0.0001873210271
0.0001543823048
0.0001465325025
0.0001568110886
0.0001530139461
0.0001558771958
0.0001588859016
0.00014885168
0.0001444736284
0.0001096130944
0.0001214985332
0.0001167231406
0.0003031553279
0.000336811578
0.0002392249159
0.0002049812312
0.0002008675196
0.0002068378427
0.0002197127817
0.0002457009147
0.0002803101282
0.0003048926145
0.0002912207936
0.0002668551841
0.0002402055743
0.0001913881866
0.0001477320712
0.0001256245772
0.0001338327621
0.0001444455953
0.0001501864533
0.00014608334
0.0001372058936
0.000116477315
7.741712457e-05
8.464773557e-05
0.0001038835927
0.0001887802575
0.0002245094689
0.0002191461199
0.0002120897195
0.0002028894153
0.0002053616746
0.00021610576
0.0002443792234
0.0002863150896
0.0003206062286
0.0003324501565
0.0003195414073
0.0002718384642
0.0002037718241
0.0001563768738
0.0001348450263
0.0001307229407
0.000145863312
0.0001322625442
0.0001374389818
0.0001268029463
0.0001007916584
8.747504805e-05
7.758850267e-05
9.284567103e-05
0.0001658130511
0.0002268109942
0.000224376224
0.0002212587405
0.0002185454752
0.0002163870182
0.0002186311476
0.0002414086469
0.0002656867671
0.0002980874815
0.0003269391745
0.0003089189279
0.0002416773662
0.0001843924076
0.0001673455156
0.0001216848045
0.000127937499
0.0001367115286
0.0001292773775
0.0001277345133
0.0001588981471
0.000201239783
0.0001191235047
0.0001285517335
8.473353218e-05
8.176596875e-05
0.0001570278612
0.0002555861789
0.0002620524366
0.0002616306481
0.0002640127606
0.0002669876367
0.000262776061
0.0002408378957
0.0002356567642
0.0002522399604
0.0002557851421
0.0002331372886
0.000188702307
0.0001653616096
0.0001761773773
0.0001471546976
0.0001362311713
0.0001317432221
0.0001240837421
0.000140546728
0.0003409636005
0.0005098398549
0.0002337779395
0.0001094917874
9.131809658e-05
8.831684389e-05
3.700031024e-07
8.786507488e-07
1.558483721e-06
5.458597573e-06
2.359706012e-05
7.037257621e-05
0.0001415874925
0.0002131142185
0.0002688046533
0.0003096298036
0.0003413531591
8.739132643e-05
9.068683527e-05
9.465551279e-05
0.0001004651368
0.000108559847
0.0001175351971
0.0001253550875
0.0001315012676
0.0001366192684
0.0001410967444
0.0001446374549
0.00014661925
0.0001463668708
0.0001433699236
0.0001377846496
1.246763688e-06
6.593395277e-06
1.18778031e-05
1.275992485e-05
2.419536009e-05
5.425473632e-05
8.820164693e-05
0.0001017692545
9.731325558e-05
0.0001007497943
0.0001096834784
0.0001181372542
0.0001237106233
0.0001283722295
0.0001320128346
0.0001357928271
0.0001412151801
0.0001504283249
0.0001664230025
0.0001910958303
0.0002211550866
0.000248212821
0.0002642359612
0.0002658933084
0.0002571824028
0.0002494907679
8.429425229e-06
1.014013017e-05
1.829124418e-05
2.278103181e-05
3.268541252e-05
5.60338066e-05
8.086326161e-05
8.959552289e-05
9.29178863e-05
0.0001011571877
0.0001133529708
0.0001252908647
0.0001344674858
0.0001400597913
0.0001424882585
0.0001425571766
0.0001414531755
0.0001424877003
0.0001532283114
0.0001796263013
0.0002156732963
0.0002477432073
0.000266183439
0.0002703441622
0.0002699352128
0.0002784623247
4.585816555e-05
2.548165618e-05
3.300932166e-05
3.85416482e-05
4.461033906e-05
5.464926098e-05
7.103267045e-05
8.788710764e-05
0.0001012474585
0.0001128152556
0.0001245488461
0.0001354219462
0.000143128854
0.0001468929905
0.0001472547636
0.000144789902
0.0001400535228
0.000135603918
0.0001399715593
0.0001628682742
0.0001984501899
0.0002311284144
0.000252452775
0.0002637747408
0.0002747377532
0.0002943493942
0.000149628439
5.355618551e-05
5.13722197e-05
5.278563228e-05
5.732244819e-05
6.849818751e-05
8.68115335e-05
0.0001056993272
0.0001189987978
0.0001270972271
0.0001336102812
0.0001402708113
0.0001450216929
0.0001473876475
0.0001482185476
0.0001470188758
0.0001428445914
0.0001360956676
0.0001326964254
0.0001439846819
0.0001717824825
0.0002032045619
0.0002306534455
0.0002546720545
0.0002789032729
0.0003058692917
0.0003114220753
8.173412381e-05
6.87907917e-05
6.911703843e-05
7.817477544e-05
9.605467879e-05
0.0001192745484
0.0001386483447
0.0001476979895
0.0001468783253
0.0001412791834
0.0001387732572
0.0001397189115
0.0001438088636
0.0001507512051
0.0001557960202
0.0001562392889
0.0001506004093
0.0001416590055
0.0001363152381
0.0001459058023
0.0001714190902
0.0002063390846
0.0002457326898
0.0002826707553
0.0003139562959
0.0001000539106
0.0001039650095
8.725234071e-05
8.47360787e-05
9.813529736e-05
0.0001245984821
0.0001560676813
0.000179401436
0.0001865595614
0.0001769350322
0.0001538140143
0.0001332961635
0.0001281051737
0.0001396685585
0.0001608731977
0.0001761823323
0.0001836473937
0.000181788977
0.0001741320948
0.0001627483589
0.0001528762037
0.0001589911569
0.0001882739118
0.000237134216
0.0002860744557
0.0003174840674
0.0001130001665
0.0001245833576
0.0001036017471
9.74661099e-05
0.0001149008454
0.000152398064
0.0001956582407
0.0002256381537
0.000233748789
0.0002183240785
0.0001769381407
0.0001283948096
0.0001118065946
0.0001373282098
0.0001795232479
0.0002063436845
0.0002209563909
0.000222883756
0.0002190066776
0.0002127606784
0.0001982815083
0.0001855341993
0.0001919608997
0.0002309531982
0.0002894210013
0.0003229993235
0.0001199837435
0.0001434674032
0.0001210357238
0.0001122264122
0.0001346093894
0.0001854193398
0.000240004863
0.0002758927146
0.0002872050795
0.0002687564538
0.0002105133003
0.0001382905957
0.0001096014533
0.000141714658
0.0002015519781
0.0002406423294
0.0002627411439
0.0002690661176
0.0002682268406
0.0002694375943
0.0002632629517
0.0002423544926
0.0002258931174
0.0002403829544
0.0002933268144
0.0003359345108
0.0001240214912
0.0001647177597
0.0001468023811
0.0001416245776
0.0001742635129
0.0002332095448
0.0002892390785
0.0003276807474
0.0003441368989
0.0003241713162
0.0002551794328
0.0001819207481
0.0001355640903
0.0001558045961
0.0002208537024
0.0002750624421
0.0003050408799
0.0003192348809
0.0003218394064
0.0003294178123
0.0003386832832
0.0003161012839
0.0002794511378
0.000279156999
0.0003072222689
0.000351210503
0.0001268793254
0.0001922992281
0.0001876864466
0.0001976701351
0.0002400262283
0.0002902416686
0.0003369922248
0.0003763135961
0.0003980311073
0.0003775770843
0.0003108429738
0.0002541373149
0.0001870382185
0.000189892948
0.0002474066127
0.0003122805115
0.0003467368058
0.000369501312
0.0003809921408
0.0004029163829
0.0004407014224
0.0004214063306
0.0003563595515
0.0003427725092
0.0003410625672
0.0003647925154
0.0001289435063
0.0002238549862
0.0002384198692
0.0002620930332
0.0002953911142
0.0003337172189