/*--------------------------------*- C++ -*----------------------------------*\
  =========                 |
  \\      /  F ield         | OpenFOAM: The Open Source CFD Toolbox
   \\    /   O peration     | Website:  https://openfoam.org
    \\  /    A nd           | Version:  8
     \\/     M anipulation  |
\*---------------------------------------------------------------------------*/
FoamFile
{
    version     2.0;
    format      ascii;
    class       volScalarField;
    location    "0.6";
    object      epsilon;
}
// * * * * * * * * * * * * * * * * * * * * * * * * * * * * * * * * * * * * * //

dimensions      [0 2 -3 0 0 0 0];

internalField   nonuniform List<scalar> 
67410
(
1.029921732e-05
1.371193311e-05
4.357804557e-05
0.0002178197536
0.000814125074
0.001942470333
0.003254861321
0.004369499227
0.01350699685
0.02654071534
0.03031135447
0.0334904093
0.03646465424
0.04027895368
0.04636268796
0.05511388598
0.0648672156
0.07343215886
0.07995252369
0.08451815067
0.08732984139
0.08846153618
0.08797444582
0.08601998648
0.0826633933
0.07878711544
7.91298536e-05
0.000100002694
0.0001782609101
0.0003594337235
0.0008941024952
0.001947794859
0.003277773444
0.01915138893
0.02680304215
0.03468085596
0.04153067032
0.04668004237
0.04980852922
0.05136107134
0.0524584308
0.05405559664
0.05681447624
0.06053448012
0.06472141203
0.06894310031
0.07289827172
0.07642857116
0.07965568148
0.08290143499
0.08602270797
0.09048674472
0.0005893805262
0.0006704738531
0.00100210521
0.001377786049
0.001972174414
0.00297026681
0.004332540743
0.02754786011
0.03845328099
0.04888738113
0.05757341915
0.06333049508
0.06572874783
0.06528855956
0.06324246377
0.05996074539
0.05707532503
0.05569488212
0.05625874603
0.05850466268
0.06210467287
0.06711221216
0.07399152184
0.08299290034
0.09297080691
0.1063412598
0.002386977392
0.002453618461
0.003218270845
0.003980858579
0.02093652911
0.02753816549
0.03626814821
0.04612990074
0.05583371376
0.06544883128
0.07372455079
0.07896352838
0.08015332965
0.07822029032
0.07543281784
0.06974105369
0.06297834372
0.05703010573
0.05373046616
0.05333490637
0.05548641161
0.06042808684
0.06886427445
0.08118048765
0.09545301351
0.1132163075
0.01391859209
0.02534827694
0.03305789678
0.04110138249
0.04965065982
0.05808614404
0.06516718256
0.07039665399
0.07585938885
0.08345826999
0.09151021798
0.09633615281
0.09493303296
0.08999566779
0.08833003479
0.08249366556
0.0739580014
0.0643259618
0.05746246009
0.05461772698
0.0550535521
0.05863775479
0.06571918299
0.07779728577
0.09282161983
0.1072967427
0.04942837028
0.05095735703
0.06041342288
0.06968015182
0.07887003457
0.08658352821
0.09109028544
0.09301837655
0.09717921319
0.1067375971
0.1179642517
0.122725223
0.1148217627
0.1015155395
0.1011290513
0.0963459488
0.08816001126
0.0757502601
0.06565947051
0.06113083361
0.06078121778
0.06298242282
0.06614460253
0.07544748386
0.08970497019
0.1031277956
0.07575457273
0.0744436061
0.08265251072
0.09089917206
0.09950489752
0.1067748901
0.1108577544
0.1143234422
0.1247238592
0.1441161483
0.1627206759
0.1656160421
0.1453298231
0.1157402915
0.1141676603
0.109932405
0.1040381947
0.08999020139
0.0773488113
0.07297556775
0.0749654187
0.07738857518
0.07173923035
0.07683923602
0.0886675005
0.09915233458
0.094664164
0.09100063696
0.097824351
0.1051538345
0.1136272976
0.1215726914
0.1282547009
0.1402177188
0.1668564293
0.2036306654
0.2295473373
0.2263135444
0.1906238592
0.1380865994
0.129200394
0.1227489813
0.1201512869
0.1059972593
0.09291777049
0.09360284388
0.1058654867
0.1129503465
0.08518565547
0.08411539083
0.09238703787
0.09804906914
0.1067368488
0.1021370306
0.1083629335
0.1154393061
0.1244566556
0.1343091409
0.1475326129
0.176358167
0.2279366005
0.2846804415
0.31501888
0.3066252141
0.2568699315
0.177841796
0.149750106
0.1355779026
0.1352078994
0.1228956248
0.1149679408
0.1327739249
0.1712958499
0.1905522048
0.1108800862
0.09925886444
0.1009483072
0.1025701658
0.1141077856
0.1101083137
0.1166249066
0.1240377862
0.1340966671
0.1469421449
0.1706712856
0.2227260818
0.3027197536
0.3787511992
0.4150991279
0.4063439433
0.3474342446
0.2440409158
0.1816431156
0.1501016372
0.1485209578
0.1407130117
0.1495068356
0.2079201158
0.2965641946
0.3390834267
0.1594803501
0.1246807454
0.1135279088
0.1109151711
0.1183848566
0.1163521309
0.1239993696
0.1322189394
0.1435426401
0.159398368
0.1944999402
0.2696553386
0.3759692853
0.46906344
0.5158408337
0.5165698692
0.4512812679
0.3306757529
0.2299367758
0.1654640271
0.1604241693
0.1609459191
0.2042150844
0.335130255
0.5027131172
0.5909233895
0.2577181365
0.1694507479
0.1320867837
0.1210043792
0.1203035887
0.1213402584
0.1310334256
0.1409039094
0.1527868832
0.1689139605
0.208561859
0.2961492876
0.4190476162
0.5262237161
0.5906385834
0.6083202741
0.53851445
0.4131714602
0.2757848273
0.1806538014
0.1724322668
0.1846558505
0.2794339043
0.5079324846
0.795353843
0.9557228029
0.4586045667
0.2538059709
0.1606196397
0.1320796522
0.1197957985
0.1247096288
0.1373413069
0.1491621301
0.1605910541
0.1717639427
0.1975845754
0.269324623
0.3894391077
0.5124302975
0.5986763518
0.6312183851
0.5704223659
0.4526016352
0.2738636315
0.1867248115
0.1858428566
0.2056887405
0.3481971891
0.6735816879
1.101780576
1.317714574
0.7849945544
0.3872299378
0.1989917708
0.1427081405
0.1162716619
0.1257321634
0.1416968699
0.1554474874
0.1658968151
0.1691643086
0.165440278
0.1722471524
0.2128707998
0.3001601117
0.396476582
0.4625444918
0.462652813
0.3583586407
0.226836324
0.1968541526
0.1978498246
0.2030244158
0.3176318638
0.6607954819
1.200138662
1.480978318
0.9905564165
0.4472008771
0.2049889036
0.1425981527
0.1103882069
0.1264114397
0.1471230795
0.1615376014
0.1688453713
0.1656062534
0.1585054647
0.1584440239
0.1729901637
0.2071932437
0.2535851035
0.2805357431
0.2602731817
0.2140115596
0.2038093167
0.2035779712
0.2069322782
0.1977577356
0.1648961007
0.1792644738
0.3840024453
0.7603490295
0.6075882593
0.1979324414
0.1422112853
0.1280102864
0.1096128559
0.1379954001
0.1694036154
0.1880530883
0.1897751185
0.1737854851
0.1526067522
0.1422067634
0.1433386007
0.1539404508
0.1716916093
0.1822778298
0.1785094098
0.1765304054
0.1902002758
0.2013995998
0.2072503882
0.2013875175
0.1723101232
0.1386204893
0.1724485949
0.2583985222
0.1527504564
0.1288338824
0.1283629554
0.1189804181
0.1309932692
0.178933057
0.2282776568
0.25779748
0.2613224921
0.2340318887
0.1866081632
0.1474147485
0.128680255
0.1239768336
0.1284786499
0.1383430286
0.147230828
0.1585318185
0.1744107343
0.1895132278
0.2001791151
0.1993140428
0.1844737622
0.1620840594
0.2367354918
0.3581563892
0.1237895698
0.1166782164
0.1188663343
0.109820428
0.1795053519
0.2435900013
0.3054752588
0.3453987662
0.3601999202
0.3436916135
0.2916019765
0.2127749905
0.1537865201
0.1280859291
0.1143380841
0.1106443962
0.117884005
0.130573701
0.1457795065
0.1634918375
0.1801608061
0.1913203008
0.1973064854
0.2337450315
0.4412974904
0.6833870456
0.1869449269
0.1222502737
0.1113321717
0.1033213216
0.2305706492
0.2990628433
0.361191614
0.4048128076
0.4288039253
0.4306139482
0.4001670804
0.3046361604
0.2011948566
0.1668624109
0.1404615534
0.1110520312
0.09754418269
0.1050603769
0.1182169792
0.1351237934
0.15708089
0.1944266329
0.2922789429
0.5107844219
0.8201901063
0.9472618249
0.5712631778
0.3049083973
0.1399126904
0.09114235007
0.2568051659
0.3255685687
0.3817772371
0.423765078
0.4662652203
0.5031135869
0.4885218929
0.3749235627
0.2341338592
0.2062223765
0.1919133423
0.154534146
0.1037954469
0.08450369007
0.0952797724
0.1102678061
0.1293470708
0.1551342238
0.2031455238
0.3214951021
0.5525637848
0.7248497828
0.2720476983
0.138618992
0.08766840699
0.08005964304
0.2375504313
0.3133355755
0.3795522068
0.4289280681
0.4942204971
0.5545845612
0.5406970386
0.4193789871
0.2538951173
0.2304885063
0.2280426847
0.2107041421
0.1590658321
0.09687984614
0.07640449205
0.08901540999
0.1051073292
0.125115023
0.1530755578
0.2009802276
0.3148558595
0.419549515
0.1421687842
0.09324166588
0.06964266185
0.062967464
0.2036583679
0.2434129398
0.316190226
0.3747495329
0.409750852
0.4268606884
0.4055070252
0.3506064552
0.2755863957
0.2528069257
0.248950769
0.2368359758
0.2066935352
0.1607283601
0.07493322413
0.07131370424
0.08386639462
0.09981630976
0.1221156847
0.1433336041
0.1849354381
0.2343342877
0.09164257524
0.0726912544
0.0573716297
0.05159678473
0.2687521249
0.2044590314
0.2344297023
0.2558243373
0.2599104755
0.2501233632
0.249059947
0.261583193
0.2748641895
0.2896624551
0.283527305
0.2570248727
0.2234293655
0.1892033208
0.1481568736
0.08848765686
0.07029068903
0.08048890878
0.09992155438
0.1150109827
0.1220551919
0.132274456
0.0701956363
0.06146216053
0.04984827666
0.04485355126
0.4489480276
0.2161720477
0.2056647713
0.2198554146
0.2292663213
0.2373810475
0.2500152592
0.2718528067
0.3040409668
0.3328840001
0.3199872902
0.2770055434
0.2303095913
0.1931940748
0.1628001873
0.1270287402
0.08534179681
0.07307050121
0.08337406125
0.09696825693
0.09389665462
0.0842874214
0.05972543911
0.05493342793
0.045914062
0.04224613353
0.7176073872
0.3549448802
0.198323227
0.2011939139
0.2161248407
0.231679661
0.2525078396
0.281182247
0.3125132563
0.3200992039
0.2940864158
0.2502969316
0.2151234699
0.1792161416
0.1507596604
0.1304577343
0.1013690546
0.07808705772
0.07494099393
0.08377678228
0.07997249336
0.06337063251
0.05120650194
0.05041870281
0.04382467562
1.044579526
0.7864348914
0.2464561323
0.1755066539
0.1791246751
0.1863549657
0.2000782422
0.2211804587
0.250800526
0.2753137248
0.240084399
0.1852112213
0.1590436162
0.1311165439
0.1072384475
0.09408666284
0.08696543983
0.07569937739
0.06960643616
0.0735913602
0.06763344955
0.04719825374
0.03411592101
0.04316074977
0.03808735768
1.483953237
1.452684898
0.9432428459
0.2722729392
0.1703076731
0.1759377149
0.1835848457
0.1978147903
0.2155290027
0.2273647404
0.2125212713
0.186029145
0.1710569287
0.144943835
0.1193730639
0.1017380353
0.0908708081
0.07819166547
0.06754015075
0.06586854367
0.05693827604
0.03295549741
0.02071309079
0.03417986928
0.03870523234
0.7744555824
0.4059573404
0.2371617057
0.1714350512
0.1656286105
0.1698460063
0.1754686721
0.1896530042
0.2110676463
0.2305376847
0.2354330882
0.2194668418
0.1935091021
0.1607042613
0.1335397284
0.1140835336
0.09950995906
0.08237316567
0.06379357586
0.06004813936
0.04784303494
0.02326873533
0.004223367631
0.02532995958
0.03308939871
0.4869793431
0.176450013
0.1557580187
0.1603586902
0.1647909039
0.1654521184
0.1687645639
0.1781682271
0.1909949853
0.2080786008
0.2237875688
0.2104094245
0.1814077741
0.1563160628
0.1362163527
0.1006159917
0.09728404851
0.08580639565
0.06849571852
0.0553340742
0.03739272681
0.0231388959
0.003769238768
0.004166059368
0.02263475757
0.02498534923
0.2517584546
0.1640062193
0.1847219384
0.2092235609
0.2322350044
0.2414207577
0.2224501913
0.181513317
0.1712589765
0.1794647668
0.1849483006
0.1745022394
0.1576194559
0.1444931397
0.1302199329
0.1115795026
0.09971159362
0.08357791016
0.06517718341
0.04678711395
0.04763936877
0.09187253787
0.02622227866
0.003212069977
0.003015791831
0.003232878915
9.441174082e-06
1.355133767e-05
3.21526789e-05
0.0001533761513
0.0006234269127
0.001636128693
0.002947449435
0.004118238208
0.004979657829
0.005617529523
0.02645132028
0.02941205297
0.03256989892
0.03668680281
0.04330738391
0.05327140963
0.06522174682
0.07657570025
0.08614037196
0.09418276489
0.1008703965
0.1055044801
0.1069142507
0.1042236711
0.09743248074
0.08788332659
5.382071852e-05
8.365102283e-05
0.0001308448304
0.0002853625964
0.0009067470679
0.002516887463
0.005422353281
0.01018977705
0.01788775018
0.02357800807
0.02879904765
0.03292090925
0.03610410144
0.03880260759
0.04155139518
0.04479573981
0.04868458966
0.05277932367
0.05672896712
0.06082590438
0.06552230756
0.07056961047
0.07501807734
0.07777367933
0.07826313989
0.0776635394
0.0004071140585
0.0005977346316
0.0007967924117
0.001076440977
0.001896413669
0.004016638932
0.008358408481
0.01689674002
0.02512079879
0.03246827251
0.03863354425
0.04312642075
0.04568634156
0.04656737192
0.04640267296
0.04540091946
0.04410834002
0.043099892
0.04354295707
0.04643977639
0.05157792287
0.05764169224
0.06359316298
0.06944580059
0.07503616293
0.07998676211
0.001860734041
0.003114938638
0.003862578216
0.004869658006
0.007613782811
0.01316203808
0.02098978294
0.02956694605
0.03717257021
0.04357663103
0.04856807655
0.05153659021
0.05194715058
0.05052556984
0.04861100962
0.04572941867
0.04224647441
0.0384077721
0.03596806009
0.03694075555
0.04156136098
0.04797841458
0.05523844641
0.06425868128
0.07396760757
0.08197656654
0.004999064128
0.01234683999
0.01500014242
0.01876821374
0.02466811235
0.03277313774
0.04171761701
0.04879469792
0.05314958174
0.05589689079
0.05750086675
0.05761589191
0.05522725019
0.05189550267
0.05015142306
0.04785318484
0.04490834053
0.04006611607
0.03503484925
0.03249161972
0.03433097244
0.03965081609
0.04760723679
0.05967404774
0.07339371646
0.08384469459
0.04007192948
0.02934139563
0.03088987788
0.03539129511
0.04358815883
0.05407593994
0.06351490481
0.06918234063
0.07109960823
0.07054946506
0.06775939342
0.06390217227
0.05811800351
0.0531619442
0.05259663681
0.0519408811
0.05130932636
0.04681513212
0.0401436021
0.0342126574
0.03219295766
0.03499466823
0.04133942578
0.05437811353
0.07166737291
0.08551261329
0.06716729134
0.04672272314
0.04522422634
0.04895487845
0.05815610245
0.0701350422
0.08078813232
0.08812687447
0.09171138616
0.09084030681
0.08338737746
0.07478543772
0.06499544234
0.05779679066
0.05768834523
0.05798866031
0.06041537371
0.05719067818
0.05007502322
0.04230881501
0.03698991948
0.037250267
0.04006013288
0.04975950528
0.06799648284
0.08491283637
0.08873873669
0.05931874987
0.05488358363
0.05762483453
0.06742688694
0.08110083248
0.09520774977
0.1084560933
0.1187362557
0.1217151199
0.1119723918
0.1007932276
0.08262176794
0.07051930459
0.06746939091
0.06630854397
0.07091729821
0.06940988148
0.06317020833
0.05582720315
0.0492917266
0.0481433416
0.04576116215
0.0499388145
0.06376106372
0.08229229222
0.1030661848
0.06700252449
0.06049418292
0.06306690432
0.07370438446
0.0898073448
0.1099188799
0.1328832062
0.1549079869
0.1697687501
0.1675094338
0.1519316005
0.1190580213
0.09787936537
0.08538261366
0.07854422833
0.08226014794
0.08230381302
0.07858135175
0.07503425295
0.0725794431
0.07290367242
0.06157621705
0.05855255963
0.06351639355
0.07868513804
0.1128975152
0.07233882681
0.06457317175
0.06769006382
0.0792299048
0.09828643561
0.1257381048
0.1600140922
0.1970688401
0.2352268174
0.2486581493
0.239188851
0.1919814655
0.1481289137
0.1144022646
0.09586772789
0.0950088232
0.09605480639
0.09707528636
0.1034934817
0.1221122402
0.1307645992
0.09607781716
0.0784090891
0.06922982363
0.07569827744
0.1202033504
0.0774306142
0.06965540815
0.07404004176
0.08563081528
0.1067647941
0.1406827624
0.1839830407
0.2342845469
0.2907207119
0.3314946256
0.3564090307
0.2982751093
0.2245435365
0.1556760379
0.1178244659
0.1098514675
0.1120393837
0.1209578207
0.1509078537
0.2392877548
0.2639813722
0.1744190605
0.111664924
0.08008353124
0.07777667361
0.1249982117
0.08295366052
0.07747001557
0.08266473013
0.09544119066
0.1167754344
0.1520682984
0.1975718053
0.2478037509
0.3087311749
0.386026564
0.4541353983
0.4016441776
0.3168016755
0.2105132935
0.1394790657
0.1263533552
0.1310064207
0.1523215443
0.2362469619
0.4539484035
0.4870108341
0.3375752409
0.1636515222
0.09405683643
0.08225819407
0.1258629089
0.08827913195
0.08755850894
0.09469492117
0.1082962785
0.1294475018
0.1624643885
0.2028550374
0.2392095208
0.2873861838
0.3755022227
0.4710982762
0.4571052179
0.3809805064
0.2659032511
0.1551493585
0.1409088912
0.1517694461
0.1888326347
0.3419018197
0.6776419919
0.7190862482
0.5810641893
0.2439525475
0.1099173061
0.08687428491
0.1211746414
0.0924265063
0.09896921683
0.1097340305
0.1251863176
0.1459348552
0.1753258823
0.210416966
0.2388264204
0.256869338
0.3007865262
0.3970111708
0.4509062088
0.3764428335
0.2607280875
0.160616796
0.1497560094
0.1663895375
0.2091252578
0.3591850182
0.7457922329
0.8757991758
0.7724813246
0.3288624058
0.125056638
0.08884907865
0.1113830023
0.09597803101
0.1135580613
0.1312619191
0.1521572384
0.1760525841
0.2026380038
0.2281056118
0.2450122689
0.2438180969
0.2247677269
0.2220878404
0.2583809513
0.2596898828
0.1920156648
0.1535569473
0.1496479373
0.1557707917
0.1702525585
0.2146017226
0.5087952356
0.907083425
0.7661106154
0.3014902217
0.1190324004
0.08491655576
0.1017751348
0.102034159
0.132940734
0.1632700255
0.1909918512
0.2105519998
0.2159174523
0.2114406255
0.2035438041
0.1916972426
0.1704339454
0.1445446671
0.1319144704
0.1365141048
0.1422355255
0.1452807615
0.1494604223
0.1525454788
0.1577623002
0.1444254319
0.1651209522
0.2753793034
0.3319912036
0.1619551123
0.09224961504
0.07890665076
0.1033463668
0.1154277243
0.1585746192
0.198189647
0.2152210078
0.2029588909
0.1794170395
0.16029803
0.1472435944
0.1356923885
0.124322555
0.1136777152
0.1085540927
0.1134293345
0.1253854636
0.1396896058
0.157011561
0.1539987905
0.1654690165
0.1582526352
0.1507958468
0.1708780686
0.1429518784
0.1239864227
0.08734142731
0.07633216742
0.125004668
0.1357751448
0.1867150831
0.2268801159
0.2284959543
0.2025147314
0.1790591131
0.1544549665
0.1323147403
0.1155813627
0.103014418
0.09359928079
0.08854038829
0.09129625496
0.1029641597
0.1188086819
0.1358986228
0.1527733809
0.181549344
0.2295823643
0.3325385596
0.4897332776
0.1818247527
0.1274705664
0.08651964978
0.07439939449
0.1594436415
0.1582469522
0.2298463043
0.2931489575
0.3003550017
0.2832087218
0.2534837687
0.207633321
0.1590561241
0.1325780732
0.1126929144
0.09393074553
0.08098444081
0.0764727682
0.08280850663
0.09704340184
0.1173055719
0.1502394741
0.2064044281
0.3054875908
0.5139655438
0.5292243712
0.3358856518
0.1373071542
0.08966791621
0.07803211292
0.1878834764
0.1783936684
0.2324755537
0.2812119059
0.3384001337
0.3987288511
0.4095127431
0.338622435
0.2057955185
0.1582588898
0.1436911645
0.1213096126
0.09069691467
0.07564460497
0.07236627133
0.08088604466
0.09683470304
0.1239335306
0.1748456069
0.2714316926
0.4486966332
0.5082114378
0.2329990369
0.1026437354
0.06389793928
0.06249582254
0.1919259482
0.181926336
0.2250332028
0.267739621
0.3610443262
0.4639219084
0.5355910085
0.5532389795
0.2994338244
0.1615326378
0.156615113
0.1596163025
0.1302881724
0.08926381841
0.07339168157
0.07205167705
0.08062526296
0.09813035797
0.1304335854
0.189771959
0.2692755916
0.279840149
0.1290422903
0.07091154692
0.0478058956
0.0424463411
0.1841721591
0.1728490808
0.2112767808
0.2680773115
0.3552035948
0.4989126061
0.6151051585
0.5761070416
0.3719790415
0.1821673154
0.1578294164
0.167956743
0.1638366418
0.1374327004
0.07838113729
0.06986524639
0.06964689026
0.07760745821
0.09618808348
0.1267950059
0.1491815876
0.1409041349
0.07667861521
0.04964013793
0.03524197774
0.02871843371
0.2210583028
0.1930994214
0.2061143337
0.2464872601
0.2682527558
0.2760140422
0.2770076262
0.266192002
0.2364658988
0.213960336
0.1988054417
0.1841584901
0.1533499645
0.1539427932
0.130599474
0.08195854154
0.06710454107
0.06511928719
0.07479805895
0.0916207483
0.09509017253
0.08385503876
0.05114731979
0.03807666053
0.02843162151
0.02272832472
0.3203592782
0.2814855454
0.1817672856
0.178913183
0.1784672105
0.1693673878
0.1740081487
0.1972811411
0.2421013977
0.2830149405
0.2603343032
0.2293810106
0.169851382
0.1358515695
0.1380302347
0.1031846283
0.07211245881
0.06157528927
0.06383264672
0.07402261106
0.07154399598
0.05875585431
0.04004588659
0.03084928168
0.02573330737
0.02274473367
0.5727628883
0.570097894
0.2102243504
0.1503020178
0.1385622232
0.1485523006
0.1665633351
0.2015077643
0.2497048211
0.2566853973
0.2207614861
0.1962467822
0.1680046693
0.130397574
0.1089743755
0.09833727998
0.07712955848
0.06152140347
0.05904065358
0.06485380846
0.06115319255
0.04997805211
0.03963854518
0.03049440809
0.03481347656
1.103519152
1.193030948
0.3579167681
0.1501288897
0.1133664345
0.1170442386
0.1296168954
0.1512543003
0.1931733513
0.2335191904
0.170999542
0.1317967488
0.1119712348
0.0860200355
0.0656595245
0.06269626437
0.06970221522
0.06049958038
0.05623167673
0.0587955853
0.0546878713
0.0474108143
0.02480053039
0.03343330593
0.0257383981
1.470437213
1.250411571
0.6140442123
0.1937430331
0.1180159944
0.1033260736
0.110513422
0.1295031179
0.1563795142
0.1740876168
0.1509932326
0.1349962884
0.1272322958
0.0944493914
0.06526896423
0.05083930999
0.05359601806
0.05651649909
0.05716907003
0.05383037407
0.04824505808
0.03211539015
0.01302436221
0.01595372705
0.02483449892
0.3519913508
0.3408356178
0.1792096453
0.1403813589
0.1152401816
0.09974449237
0.1006532532
0.1201353325
0.152241045
0.177994446
0.1817352723
0.1745124349
0.1484074149
0.1010520037
0.07041806747
0.05819537659
0.05273812555
0.06118729125
0.04327926241
0.04917556321
0.04149502197
0.02288782642
0.009856587675
0.01178905268
0.02087054305
0.2381382774
0.1645384012
0.1464401531
0.1465920333
0.1467419729
0.1395870431
0.1217866646
0.1131516856
0.1240240419
0.144453438
0.1674949374
0.1548172095
0.1123066667
0.08284689232
0.07956235256
0.04954661187
0.0467548973
0.05284935496
0.04256419569
0.04255656945
0.0588181581
0.0339086663
0.008819329865
0.005243297798
0.01238025655
0.01250387904
0.2022034206
0.1529501246
0.1518488751
0.162750194
0.1804799968
0.1963423501
0.199670879
0.1667446157
0.1177709809
0.106856729
0.105403516
0.09078484557
0.06987643054
0.06502813992
0.09303272045
0.06399385791
0.05297139806
0.0486837641
0.04098909839
0.04650841719
0.08494430361
0.06591920865
0.02260070373
0.00378215992
0.003772719852
0.003602680193
8.271302167e-06
1.386460292e-05
2.455317363e-05
8.583737313e-05
0.0003713163881
0.001108739444
0.002233112332
0.003363553846
0.004244033002
0.004889310744
0.005390597261
0.02460398669
0.02749010725
0.03125078868
0.03735997852
0.04715383838
0.05989229482
0.07271790601
0.08398832899
0.09420787906
0.1038040328
0.1118511745
0.1165520717
0.115985644
0.109017836
0.09674430115
2.77511067e-05
4.716542683e-05
7.441673204e-05
0.0001484575247
0.0004943726514
0.001536260919
0.003639328159
0.006874006961
0.0111103617
0.01489888826
0.0182545713
0.02132291941
0.02435751186
0.0270570519
0.02995368077
0.03348857451
0.03787590627
0.04306622984
0.04910636841
0.05636697326
0.06476982933
0.07312265346
0.07954063528
0.08173418235
0.07818805472
0.07174564583
0.0001873536468
0.0002672633178
0.0003491703506
0.000454975768
0.0008617512932
0.002062477272
0.00472107165
0.009218798673
0.01450450766
0.01942949433
0.02373995227
0.02730433525
0.03001104569
0.03189485149
0.03308062561
0.03359623314
0.03370576131
0.03443491623
0.03806050278
0.04584102207
0.05583170959
0.06510264104
0.07164207654
0.0738150643
0.07167265235
0.06828557598
0.001020689482
0.001447543194
0.00164353271
0.001969811255
0.002932249187
0.005307104591
0.009822254328
0.01570958357
0.02132718197
0.02594555591
0.0295993859
0.0323488789
0.03402737459
0.03473556553
0.03468617445
0.03370836417
0.03187086543
0.03016008779
0.03185068662
0.03937013565
0.04972312121
0.05890682582
0.06533232631
0.06850249029
0.0695664161
0.06998634242
0.003336240328
0.005752728007
0.006003261849
0.007166550103
0.00995565184
0.01468714834
0.02125853926
0.02761966548
0.03172583533
0.0335142556
0.03404088549
0.03443111192
0.03457087646
0.03454780453
0.03456696652
0.03407176147
0.03257392244
0.03000538139
0.02896876669
0.03305894563
0.04102696494
0.04891098158
0.05572931549
0.06233175291
0.06955236977
0.07601790848
0.006953796311
0.01537104545
0.01393704713
0.0150865576
0.01961298084
0.02703980515
0.0357480765
0.042455571
0.04482966254
0.04276534308
0.03778734625
0.03398802603
0.03255587108
0.03302517349
0.03445050997
0.03586157743
0.03616758143
0.03402488447
0.03055943905
0.0288134875
0.03128937295
0.03687516956
0.04478284714
0.0560183718
0.06973912669
0.08189322168
0.05219240835
0.02864199108
0.02223942221
0.02197309412
0.02736652432
0.03697369586
0.04802038895
0.05647269676
0.05922884133
0.05503551652
0.04407548478
0.03410613882
0.03129362304
0.03427652274
0.03732030072
0.0409007773
0.04338231781
0.04254546025
0.03866600842
0.03328595812
0.02944235357
0.0303610504
0.03679780564
0.05067792803
0.06899959762
0.08469904498
0.07534448282
0.03946591049
0.02841404883
0.02579151008
0.03110701954
0.04272734709
0.05689994443
0.06866073047
0.07424480029
0.07114140386
0.05753255688
0.0424818587
0.0381905252
0.04450218991
0.04522060597
0.04934499243
0.05331443897
0.05401199681
0.05126360029
0.0461523857
0.03999160709
0.03618975337
0.03550637247
0.04610198271
0.06699976512
0.08468604556
0.09029422839
0.0465480866
0.03239924565
0.0277694923
0.03311447252
0.04710359661
0.06422033882
0.07953058892
0.08994740409
0.09220697899
0.08456699168
0.0767303521
0.0701744481
0.07142085036
0.05965014662
0.06032393868
0.06476170151
0.06762828739
0.06802448255
0.06772353773
0.0662712865
0.05922560033
0.04507637472
0.04504918216
0.06344876454
0.08373237853
0.09976715184
0.05183762116
0.03692324049
0.03280415485
0.04028801396
0.05523102206
0.07179027605
0.08911373604
0.1054304852
0.1181209001
0.1344345487
0.1610926847
0.1415858259
0.1190673442
0.08495224049
0.07329581564
0.07713421523
0.08382771861
0.09142828125
0.1049531763
0.1231947013
0.1138740324
0.07497657375
0.053447641
0.06155652523
0.08122748184
0.1068470947
0.05816443698
0.04582766182
0.04615599398
0.05601196486
0.06704432374
0.0793912967
0.09699350333
0.117995433
0.1452639343
0.2099131598
0.2939928904
0.2504667311
0.1958809002
0.1358803734
0.09127883089
0.09108956245
0.1029406704
0.125519225
0.1711423337
0.2378203102
0.2284813571
0.1516275193
0.07962053919
0.06592918631
0.07720727179
0.1121665384
0.06612013339
0.05879200009
0.06282917362
0.06919474587
0.07688860992
0.0883174086
0.1055200355
0.1284565636
0.1677471478
0.2805808134
0.419432303
0.3683977048
0.2986059616
0.2200769769
0.1160608923
0.1073227545
0.125871529
0.1723153825
0.2743115749
0.4228203224
0.417695869
0.3130810522
0.1400756907
0.07739558185
0.07551262071
0.1140728051
0.07346335909
0.071001924
0.07563986634
0.08162015004
0.08927896321
0.1009668635
0.1181316127
0.1401597184
0.1780119291
0.2982620065
0.4582351473
0.4384972974
0.3713751549
0.2974871228
0.1448155411
0.1247136143
0.150027138
0.2227492083
0.3867612779
0.6257434965
0.6359006378
0.5438293363
0.2513603481
0.09560922292
0.07601885061
0.1106016834
0.07787366431
0.08050909921
0.08745468858
0.09512137088
0.1042823478
0.1176113774
0.1355937475
0.1567704258
0.184686979
0.2638445775
0.4229785099
0.4801151694
0.385102203
0.2834764268
0.16062819
0.1379020571
0.1662854755
0.2502200928
0.4447570669
0.753474693
0.8261791739
0.7125841544
0.3641161439
0.1162971804
0.0756489379
0.1017668978
0.07898380646
0.08770403698
0.09916377743
0.1118224365
0.126565314
0.1454112667
0.1661995658
0.1854387313
0.2006228221
0.2207470514
0.2768608796
0.370064175
0.3341206136
0.2127396448
0.1473278164
0.1390628758
0.161326421
0.2262768189
0.3896052347
0.7371949367
0.9754058044
0.7215272483
0.3363322711
0.1155428329
0.07105826954
0.09084819803
0.07870150528
0.09472970675
0.1132862972
0.1355771568
0.1614504427
0.1888729562
0.2100716221
0.2204963574
0.2187892834
0.2057812746
0.1766591745
0.1552625366
0.1513460042
0.144523832
0.1361327871
0.1471695318
0.1536498714
0.1904061251
0.2416671812
0.3188701216
0.5679009392
0.483171403
0.1843469394
0.08067009463
0.06303840715
0.08412222814
0.07990110901
0.1033103853
0.1348036138
0.1717077646
0.2068668093
0.2255904234
0.2287505528
0.2258705591
0.2126514188
0.1846170806
0.1430875997
0.1160933206
0.1108529106
0.1190126687
0.1431319925
0.2392163462
0.1609681421
0.1855901761
0.2395396499
0.2546623039
0.2986132327
0.2019674611
0.1150308246
0.07055319079
0.05990467045
0.0882880605
0.08391703262
0.1098766198
0.145336636
0.1682550485
0.1715478981
0.1666827804
0.1578778355
0.1509795339
0.1432890708
0.1297539686
0.1078475232
0.09079188251
0.08946511692
0.09985079778
0.1170087419
0.1512585371
0.1743890133
0.2083479153
0.3334941204
0.5360172139
0.644748832
0.299102696
0.1301346003
0.07159523351
0.05865771118
0.1049845761
0.08996897926
0.1159629626
0.1637257551
0.1891759183
0.198028864
0.198125129
0.1671739819
0.128794573
0.110175054
0.09953379293
0.08715242396
0.07482155023
0.07020604683
0.07766833696
0.09043716457
0.1082163627
0.1400277308
0.2065003662
0.3327678208
0.4735311956
0.4688718062
0.3663400833
0.1397025526
0.06592724609
0.05556367369
0.1291135401
0.1064454223
0.1073307077
0.1590713332
0.2964321319
0.4177658121
0.459864955
0.3788794985
0.1939941979
0.1142304603
0.09871650083
0.08656937347
0.07218398194
0.06389679304
0.06395331431
0.07358429511
0.08733682076
0.1145519655
0.1730455487
0.2905993047
0.4520372693
0.4871125901
0.2745044887
0.09059463852
0.05174395289
0.04860731924
0.1466639618
0.1234592332
0.1192719155
0.169714995
0.3098893551
0.4269769357
0.497323761
0.5664854884
0.4693515929
0.1453611811
0.1098877375
0.1078048037
0.08926371608
0.0703496047
0.06314895625
0.06434216154
0.07436485807
0.09212732301
0.1301833614
0.2117492476
0.3333992854
0.3450948712
0.1484873165
0.05842806108
0.04076414588
0.03530096134
0.1579435199
0.1310308431
0.1240291792
0.1151392781
0.2052291752
0.4234467415
0.5473891186
0.491759083
0.4463748775
0.178508732
0.1264833903
0.1311430131
0.123529395
0.09608979814
0.06536841632
0.06094637577
0.06260012385
0.07354101473
0.09596542647
0.1435172843
0.2044675043
0.2003249895
0.08368866717
0.04139137129
0.02916116121
0.02271047885
0.1940802972
0.1838796822
0.1488490935
0.1396432497
0.1453694349
0.2192989202
0.2883967121
0.2888637645
0.2359174215
0.1905297587
0.1775325534
0.1656998547
0.1462491109
0.1384173895
0.09792149235
0.06339316281
0.05532547369
0.05768711629
0.07274812366
0.09942783514
0.1211206072
0.1118268482
0.05532728217
0.03352772208
0.02361074485
0.01687678629
0.283687751
0.3664624531
0.2227608758
0.1262600515
0.09852778029
0.12233116
0.1583372595
0.1807528788
0.2339905757
0.2985737544
0.2668227627
0.2414474906
0.1736687404
0.1540346127
0.146401021
0.07707758317
0.0537672317
0.04912328271
0.05747560378
0.07191998491
0.07723700247
0.06764914891
0.04083411514
0.0270476257
0.01742406324
0.01301156286
0.5242332371
0.809193933
0.4933377859
0.1378854554
0.0923148448
0.1069044573
0.138913999
0.1869127543
0.2375212985