/*--------------------------------*- C++ -*----------------------------------*\
  =========                 |
  \\      /  F ield         | OpenFOAM: The Open Source CFD Toolbox
   \\    /   O peration     | Website:  https://openfoam.org
    \\  /    A nd           | Version:  8
     \\/     M anipulation  |
\*---------------------------------------------------------------------------*/
FoamFile
{
    version     2.0;
    format      ascii;
    class       volScalarField;
    location    "0.6";
    object      htcConv;
}
// * * * * * * * * * * * * * * * * * * * * * * * * * * * * * * * * * * * * * //

dimensions      [1 0 -1 1 0 0 0];

internalField   uniform 0;

boundaryField
{
    walls
    {
        type            calculated;
        value           uniform 0;
    }
    region0_to_wallFilmRegion_wallFilmFace
    {
        type            convectiveHeatTransfer;
        L               1;
        value           nonuniform List<scalar> 
776
(
0.7638113735
1.03061098
1.366198914
1.72246611
2.06596388
2.345643104
2.526822146
2.619192097
2.648035763
2.622258877
2.549801634
2.441459038
2.317423114
2.218987485
2.22592943
2.406706954
2.641174813
2.733398349
2.670716882
2.554536663
2.586248193
3.054793865
3.594665705
4.068469903
4.300697254
4.151154285
4.121571193
4.001935843
3.461970147
2.727310303
0.8495862046
1.0448083
1.335116217
1.65915365
1.977430131
2.244812902
2.440808379
2.567862459
2.631094434
2.637183549
2.593733752
2.510408546
2.403898846
2.307423957
2.293983407
2.432160885
2.617532243
2.715064217
2.725962578
2.654885837
2.445879202
2.33609287
2.481470557
2.415368086
2.652046322
2.745932814
3.532533503
1.915249428
2.332479684
2.156196824
1.007229329
1.125970006
1.393032387
1.710820153
2.030098392
2.304264454
2.502083378
2.631093945
2.699035983
2.71180976
2.674080562
2.594358268
2.490682631
2.400548902
2.405852198
2.564746234
2.772032544
2.928748269
2.979210571
2.936162133
2.838879005
2.66091656
2.715470912
2.626945456
2.634766853
2.270759447
2.529025132
2.642235167
2.612498921
2.347976237
1.213927744
1.231028903
1.445329778
1.759169535
2.090478241
2.364049441
2.555326273
2.678808906
2.741046325
2.745278142
2.692820237
2.599370975
2.477858338
2.373319586
2.391256101
2.559521797
2.776016914
2.948184436
2.990961075
2.937948955
2.891728218
2.792459837
2.713075543
2.621728311
2.490353645
2.56314451
1.962689122
2.679775511
2.40240232
2.418138878
1.460808292
1.399336567
1.5499867
1.843704197
2.182844276
2.455550673
2.644117354
2.763112525
2.820019507
2.81736127
2.753980871
2.633573329
2.469352303
2.328743266
2.343684971
2.500771661
2.712985397
2.904060789
2.968927607
2.897744672
2.851973413
2.762137186
2.732347668
2.796649732
2.776885169
2.920689189
2.61645202
2.880092324
2.533604328
2.495359027
1.69545295
1.602778335
1.697821992
1.959300765
2.294529027
2.564941592
2.756622376
2.88078419
2.945841863
2.950522341
2.88517879
2.734968216
2.493026058
2.280593094
2.325534298
2.457397075
2.618577424
2.783387749
2.889859896
2.812854439
2.695563056
2.536689897
2.667315815
2.797960734
2.84863313
2.957636405
2.832643056
2.904345306
2.534153698
2.364334451
1.883032741
1.815655021
1.898599843
2.13118919
2.442444375
2.707056171
2.908054333
3.052755737
3.143993723
3.170110838
3.113557743
2.948255202
2.630481489
2.307707069
2.440690759
2.551944869
2.631125771
2.620598495
2.774366886
2.73140734
2.485254607
2.236503104
2.630825694
2.827318171
2.939014458
2.967848614
2.880155081
2.877392304
2.564511559
2.095818798
2.025842615
2.00805415
2.118414807
2.342055138
2.618498383
2.87416056
3.090163122
3.264258867
3.383082898
3.43013493
3.391696939
3.230534083
2.864123158
2.427481394
2.646740096
2.719844902
2.759157577
2.631981121
2.709611161
2.733562214
2.491311747
2.254358999
2.600072764
2.834632689
2.960789895
2.9004173
2.814552153
2.816592297
2.599600194
1.993239853
2.129357996
2.165522605
2.326769722
2.545255615
2.796324897
3.042672371
3.271868178
3.465521596
3.602787051
3.670039645
3.635105983
3.475668419
3.138616889
2.618929519
2.820478138
2.845981745
2.84809687
2.748092073
2.79121368
2.862925853
2.817997516
2.606318678
2.688302485
2.784112762
2.685953582
2.759609726
2.676219282
2.730777125
2.662265045
2.348698707
2.183878832
2.274892135
2.488485742
2.709502696
2.943527616
3.181499227
3.4137761
3.615395765
3.757580495
3.808966245
3.766112448
3.610262256
3.365701664
2.888182798
2.918715566
2.921643023
2.86250276
2.721902581
2.725125951
2.862648468
2.941259795
2.8722242
2.831611422
2.757607877
2.557950292
2.579326855
2.509248583
2.620661805
2.676606198
2.517286967
2.198995372
2.348065179
2.599796134
2.819476674
3.039317343
3.264243713
3.487826973
3.674569738
3.791416317
3.830033476
3.769188271
3.609548901
3.449793323
3.080449825
2.965488903
2.929646442
2.856060333
2.697036702
2.579139783
2.703869507
2.911459187
2.927071569
2.869204973
2.741674512
2.536601506
2.467304284
2.415697333
2.55255901
2.66995153
2.603107394
2.194235164
2.391918597
2.661396704
2.871964631
3.069286185
3.265588716
3.45686291
3.603742057
3.701693915
3.722714748
3.648424421
3.485244255
3.359940437
3.073532068
2.908309146
2.84860051
2.822786299
2.685692516
2.483908674
2.423371795
2.68390309
2.856773439
2.857976714
2.744229901
2.534664616
2.395626713
2.407586864
2.551008624
2.67645116
2.668166091
2.186733996
2.406591928
2.678565997
2.870216575
3.028460685
3.168075499
3.296391926
3.401020791
3.489201016
3.541896
3.512834887
3.356531976
3.160375687
2.833210328
2.684024138
2.69918436
2.76105374
2.674775265
2.484492349
2.209788059
2.263698954
2.600066314
2.777740131
2.740293785
2.56554188
2.404978291
2.50337001
2.637637552
2.726566681
2.729992097
2.192618894
2.401212481
2.66857393
2.846595107
2.975303734
3.06287923
3.125696615
3.158622547
3.161336648
3.158804329
3.14162031
3.018581833
2.764621661
2.372017551
2.421822562
2.54889063
2.676577982
2.633982307
2.529563423
2.222798862
1.931230574
2.10175833
2.453675945
2.649133038
2.575874015
2.494453604
2.623554038
2.736838515
2.765135226
2.750873773
2.222671582
2.387389374
2.647471046
2.83170068
2.975865162
3.08359835
3.168784873
3.218624607
3.19669024
3.081193609
2.892016256
2.636180713
2.164962549
1.974158485
2.28242093
2.409313589
2.542598784
2.53370759
2.511287713
2.329634229
2.039042779
1.959690471
2.009513304
2.39849766
2.498961489
2.521316393
2.654384868
2.721650768
2.628491515
2.66027122
2.270514834
2.369976758
2.603274093
2.776493349
2.912338643
3.00215382
3.063525514
3.099517167
3.094367305
3.029192382
2.872516992
2.594111396
2.227361614
2.073199382
2.127808051
2.230063896
2.336921241
2.352515707
2.417691056
2.362172206
2.2377336
2.042028982
1.913758441
2.054172648
2.372399992
2.496228417
2.650735846
2.643069497
2.657786504
2.872575807
2.314645411
2.361180459
2.561164421
2.72574944
2.869868519
2.971449166
3.043800897
3.091765011
3.107023346
3.063885271
2.930312819
2.684941779
2.361703632
2.097137018
2.00718591
2.010610808
2.02343838
2.072156076
2.233302078
2.284190239
2.29966052
2.238950073
2.168286727
2.108690866
2.140237941
2.388362383
2.638723679
2.711763542
2.905021358
2.841688046
2.336752605
2.354092192
2.51728065
2.663287419
2.807368917
2.918855942
3.009424257
3.082150684
3.126703849
3.117386244
3.023181212
2.816300387
2.477925533
1.96527803
1.754281472
1.723815833
1.583552286
1.710097698
2.020011898
2.165251536
2.292215318
2.343994188
2.359617554
2.327910235
2.269734168
2.293195024
2.469013301
2.427095365
2.691056121
2.663946182
2.33500629
2.340881992
2.473379204
2.597061863
2.734306779
2.849799162
2.95650405
3.059872683
3.150278708
3.200111664
3.176959308
3.058907201
2.809647243
2.173630189
1.491996321
1.512638249
1.254944891
1.382885168
2.021955712
2.12193284
2.323375161
2.437487737
2.468117467
2.454382135
2.381522598
2.355575345
2.225286831
2.273574949
2.593733473
2.560548963
2.313540471
2.316735155
2.429448083
2.532914563
2.661862907
2.780482867
2.906863585
3.051513445
3.203706549
3.334455585
3.416678611
3.406060037
3.245998411
2.72920758
1.666141918
1.9048001
1.658917092
1.673645908
2.458162358
2.304057092
2.481799227
2.60971453
2.62645819
2.592067334
2.52199345
2.47219977
2.38677812
2.413822346
2.288046702
2.29259513
2.275536405
2.285065837
2.393137149
2.480122184
2.59837378
2.715792526
2.858213939
3.040860231
3.242010773
3.419704124
3.523749331
3.510242685
3.34242816
3.105961675
2.295281346
2.161179543
2.033569894
2.338907468
2.842365912
2.626581603
2.71025628
2.754568043
2.717468923
2.641226491
2.523467747
2.42714621
2.308520698
2.106709036
1.562185063
2.040473297
2.222356801
2.260381967
2.38571599
2.456499701
2.550410328
2.645886747
2.767162038
2.932903112
3.126499839
3.313277648
3.450233433
3.501396671
3.402659528
3.2850886
2.227542173
1.631787374
2.136180145
2.692246255
3.122972412
2.879882033
2.860863079
2.871535048
2.784708194
2.649313651
2.402380601
2.187678494
1.771656982
1.529904568
2.260556571
3.261527078
2.15823616
2.266921077
2.431520056
2.48095701
2.522691746
2.554637469
2.579396039
2.608064756
2.636666327
2.666183711
2.718640246
2.819787332
2.854846937
2.580016895
1.549938756
1.255577819
1.434927618
1.455069503
2.610628501
2.117101082
2.243493097
2.406240511
2.410031841
2.352667352
1.945022756
1.773297617
1.798528089
1.711721553
1.737299219
2.543843655
2.101554074
2.319450897
2.526253719
2.558999534
2.555816202
2.549620372
2.555582234
2.566812107
2.579982915
2.591261492
2.584551498
2.546636437
2.47522266
2.066357355
0.6183420613
1.39514413
1.554701542
1.595135223
1.902927202
1.86003117
2.217467947
2.37473996
2.386620832
2.351162243
1.953146549
2.611307335
2.262024941
1.96535302
1.744128424
2.043562427
2.101732918
2.406832735
2.630267441
2.641977789
2.595322364
2.54484459
2.506790864
2.505284257
2.508576157
2.510378389
2.500314803
2.45583085
2.318873909
1.907665125
1.32383633
1.217330342
1.162421932
1.20529174
1.141028183
1.75866808
2.08473961
2.236069007
2.22070719
2.215777904
1.728842117
2.028681925
2.406685653
2.132395128
1.903914853
1.856177643
2.227614577
2.532879839
2.74885522
2.72565473
2.632317439
2.581617009
2.503242862
2.453561134
2.449189657
2.447450772
2.425742725
2.373353259
2.253346071
1.997815318
1.712568303
1.508643347
1.293915788
1.367729891
1.119331136
1.935184298
2.173123535
2.248726273
2.231884245
2.207021929
1.825619783
1.685608253
)
;
    }
    region0_to_wallFilmRegion_mirrorFace
    {
        type            convectiveHeatTransfer;
        L               1;
        value           nonuniform List<scalar> 
703
(
4.023030057
4.286616012
4.439268247
4.503796292
4.532616171
4.552873007
4.564657551
4.562968255
4.550257881
4.535634117
3.890965589
4.032930311
4.144752481
4.220589909
4.278139296
4.323937898
4.351661559
4.358289019
4.347697418
4.327051881
3.90789849
3.931942694
3.825792788
3.830751464
3.877189593
3.93813343
3.987631609
3.999425942
3.997636126
3.970795735
1.999576813
2.426793718
1.655814794
1.483053874
1.313167117
1.316189098
1.177711858
1.165342755
1.199023313
1.401768912
1.288808613
1.443131898
1.684687239
1.587151098
1.653448486
1.464891645
1.615786307
1.524465575
1.914843201
2.900362707
2.370314666
2.736791335
3.062895901
3.389318741
2.375363291
3.314827958
2.848377115
3.381689364
2.363347113
3.541539473
3.214881851
3.612998919
3.452060451
3.495324838
1.823649512
1.790255786
1.68056031
1.641822194
1.438505668
1.764644138
1.474217631
2.094407529
1.822867104
1.002970376
1.381239342
0.6923965705
1.059713859
1.071602871
1.192323831
1.068051997
1.195593917
1.221582635
1.183937839
1.267311996
1.320965515
1.294865744
1.371145712
1.412248924
1.370766531
1.444009172
1.467906312
1.411152521
1.485511374
1.497929531
1.431241096
1.506815114
1.51481941
1.420719475
1.412588155
1.330426436
2.238858729
1.365853882
1.915847158
2.142020074
2.201151882
1.945441068
1.164276945
1.1421539
1.085536809
0.9279126765
1.032066518
1.030445887
0.9912457654
1.036014824
1.021952263
1.107283771
1.040228327
1.086077738
1.231175528
1.143740189
1.197382386
1.306203609
1.239310826
1.269166662
1.344629616
1.289383285
1.302604672
1.191401219
1.38699232
1.154941634
1.543317153
1.201742186
1.46853417
1.375799905
1.942662411
1.760683657
1.001723068
0.5441561152
1.04402588
1.010553988
1.032862296
0.9895511688
0.9386954844
0.9328322085
0.8888445484
0.9787019822
0.884255379
0.9397601806
1.116279469
1.024668302
1.108201318
1.211952
1.175274606
1.174302294
1.454383754
1.23644084
1.364426933
1.216241753
1.318806135
2.145087187
1.640964539
1.597781649
0.8655261054
0.9447861761
0.7902459388
0.8541561887
0.6961287593
0.683098873
0.7843115685
0.6900026698
0.7535516275
0.9335015689
0.8618584412
0.9838844595
1.141096283
1.09687308
1.193056068
1.304325982
1.54287827
1.409944629
1.552781245
1.29949406
1.451297788
1.177463629
2.065271368
2.033760908
0.9346009194
1.091416831
1.140989045
0.8008216868
1.096898847
1.071457492
0.879838391
1.051576239
1.05649111
1.058101525
1.080875653
1.134798381
4.021096196
3.96233327
4.175371322
4.393969659
4.35147714
4.494070072
4.412641935
4.559754251
4.550013621
4.285697819
4.512439695
4.477628097
4.24422436
4.455073223
4.444071094
4.23989165
4.440049003
4.439593271
4.239424409
4.440299104
4.440376951
4.238750572
4.439589901
4.437055089
4.239220523
4.433461112
4.430390298
4.239167728
4.427696135
4.423508089
4.236358267
4.417641206
4.408527395
1.430058157
1.68548289
1.467213258
1.397229848
1.472795788
1.490269044
1.540539541
1.515203354
1.562228496
1.677588787
1.615675311
1.647341191
1.618924296
1.642163663
1.618660195
4.222073008
4.487268188
4.563551219
4.534267892
4.516273886
4.516625642
4.516899228
4.510756711
4.498906759
4.484530006
4.00244501
4.470594416
4.485079273
4.491080129
4.494895363
4.506342885
4.503312368
4.497602175
4.491109797
1.508568149
2.429705394
1.872087336
1.519629673
1.539792155
1.513292273
1.543255202
1.520409095
1.503676596
1.584870557
1.500670349
1.509559586
1.581183971
1.521163889
1.523104063
4.16592261
3.938196067
4.03803688
4.376361854
4.143423939
4.219973307
4.478931913
4.520009304
4.54346009
4.560175803
4.439807862
4.452085758
4.565842224
4.459639734
4.557222949
4.542703162
4.448437552
4.440363194
4.53105319
4.43353214
4.430286058
1.579175789
2.386959044
1.938013863
1.40651895
1.635203064
1.384586591
1.363701743
1.229074705
1.226568931
1.374353071
1.239326482
1.204983529
3.86335445
3.853953687
4.095149088
3.929184921
3.958686119
4.185501541
3.985319209
4.250816378
4.163189855
4.357369461
4.179474294
4.183903936
4.17379543
4.312015623
4.156234379
4.129878347
1.829776781
2.81111128
2.526903334
0.9338235154
2.128260601
1.884665962
1.304477735
1.90296907
2.169484618
2.557820979
3.881550156
3.668676471
3.731533228
3.803311441
2.31266296
2.27168736
3.308189995
1.781727195
3.68722924
1.709388665
3.986679756
1.187959409
3.69228876
1.651750538
3.62981867
1.607643538
3.640792425
1.462115157
3.641724171
1.491709148
3.639618251
1.545215553
3.642298216
1.576277441
3.652635568
1.566079226
3.666874189
1.481048642
1.941724581
1.60287038
1.753949945
1.12525794
1.059257695
1.044047362
1.120626098
1.24356723
1.337404456
1.395124371
1.421540456
1.228137712
1.500080102
1.391755432
2.445151541
1.585013866
0.8003739138
0.9722259293
1.040344307
1.174556577
1.274488852
1.328882288
1.244486385
1.368809426
1.268327704
1.823962811
0.7993200569
1.030978396
0.9782677915
0.9351691378
1.047371679
1.171764465
1.581004003
1.429380153
1.138184282
1.979900609
1.161499058
0.8539431362
0.7910988726
0.8320132949
1.043897671
1.617626594
1.516967245
1.300809378
1.818585329
0.7982719493
0.817424699
0.8287687353
0.9624878677
2.595916702
3.798091045
4.211157927
4.458776711
4.33906762
4.256453875
4.240538602
4.239903783
4.238993867
4.238752302
4.239531324
4.238248563
1.430025758
1.36898483
1.447966676
1.631447844
1.66086052
3.462547204
4.028957702
4.372250305
4.275050653
4.550891633
4.437638159
4.551378938
4.52188431
4.515358715
4.503177555
4.517487227
4.507234398
4.514833256
4.505217648
4.492030612
4.477648602
2.029858936
1.490127375
1.532301174
1.563926774
1.590036352
2.880794241
1.91071947
1.492336798
1.372138848
1.372881439
2.924421747
1.994011047
1.384638348
0.7906407717
1.78680734
3.74946082
4.007978367
4.048699539
4.034284506
3.1572078
3.5946053
3.230985931
3.29707148
3.358344267
3.405952093
3.780884697
3.414255323
3.800304454
3.478394181
3.509056487
3.502130854
3.822844279
3.142698694
2.762989069
2.700967083
2.658399918
2.568530486
2.418048504
2.351804058
2.443366359
3.461095145
3.74958725
3.241419075
2.982273042
2.807547158
2.645451304
2.447043448
2.197859294
2.007740286
1.994901637
3.572782093
3.690068198
2.220611435
3.539080869
2.500666067
2.408467268
3.573278651
3.780834884
1.994105711
3.922705407
2.299538998
1.923923887
3.955942964
4.191432139
1.298765228
3.829317681
1.909328069
1.532351463
4.252485497
4.155446047
1.456262482
3.638780674
1.414217078
1.365487503
4.042448799
3.978585528
1.701263887
3.636129117
1.470015919
1.528353894
3.952214922
3.946331238
1.498807805
3.642370567
1.56040031
1.58152769
3.946457557
3.947287145
1.468010308
3.640514916
1.603098107
1.628361366
3.947285121
3.946565307
1.519738763
3.639985554
1.654795975
1.679706332
3.945782383
3.945972073
1.565100315
3.646822001
1.701272231
1.718386282
3.947684548
3.951044336
1.577702458
3.659242465
1.730754499
1.73945544
3.955084919
3.958888202
1.5512844
3.681252305
1.746196673
1.754811905
3.962133176
3.967515284
4.148306116
4.372594894
4.498912781
4.506400234
4.484792105
4.471020537
4.278622896
4.322127165
4.355328937
4.381974178
4.404296223
4.423655768
4.461745456
4.460157262
4.455756066
3.941177618
4.302858366
4.340616959
4.354483837
4.338529383
4.010645779
4.035566955
4.061703392
4.088912202
4.115887523
4.141297811
4.188119551
4.190731054
4.18929055
3.884914764
3.847380818
3.902364733
3.650172952
3.820902188
3.607763587
3.589217678
3.850949485
3.612823609
3.907176832
3.638088931
3.966064021
3.700938972
3.995917646
3.757370514
3.769045443
4.000108787
3.792141255
3.991370872
3.938446434
3.778708648
3.731949601
4.157608104
3.857216438
3.52651525
3.052858802
3.137737626
2.804691268
3.191191457
2.819525308
2.859244039
3.26534666
2.898089134
2.926189743
3.328378148
2.943510018
2.950878697
3.386305631
2.947477049
2.935182215
3.401071192
2.914809166
2.911367043
3.442246225
2.93981977
2.995860427
3.517942648
3.069542689
3.159635501
3.447661147
3.197508783
3.093185298
3.464181583
3.774996197
3.409863063
2.848355537
3.212685219
3.008499898
2.721105511
2.876540953
2.777996666
2.683379233
2.699879921
2.630284109
2.621226387
2.558994189
2.477950162
2.499427526
2.379885454
2.259424497
2.359996307
2.117437532
1.975250231
2.379540091
1.861117554
1.772879219
2.537222051
1.732520216
1.764066344
3.389377264
3.717411759
3.386204578
3.093566514
3.278740107
3.177328623
2.889780263
3.100388307
3.033600887
2.728502815
2.970885279
2.907079533
2.553158857
2.8369821
2.757842256
2.326131754
2.668142581
2.571545279
2.08302298
2.482023838
2.425336553
1.978493601
2.412570554
2.434617631
2.052278986
2.475325387
2.520657054
3.409360559
)
;
    }
    procBoundary2to0
    {
        type            processor;
        value           uniform 0;
    }
    procBoundary2to1
    {
        type            processor;
        value           uniform 0;
    }
    procBoundary2to3
    {
        type            processor;
        value           uniform 0;
    }
}


// ************************************************************************* //
