/*--------------------------------*- C++ -*----------------------------------*\
  =========                 |
  \\      /  F ield         | OpenFOAM: The Open Source CFD Toolbox
   \\    /   O peration     | Website:  https://openfoam.org
    \\  /    A nd           | Version:  8
     \\/     M anipulation  |
\*---------------------------------------------------------------------------*/
FoamFile
{
    version     2.0;
    format      ascii;
    class       volScalarField;
    location    "0.6";
    object      k;
}
// * * * * * * * * * * * * * * * * * * * * * * * * * * * * * * * * * * * * * //

dimensions      [0 2 -2 0 0 0 0];

internalField   nonuniform List<scalar> 
67410
(
7.415414718e-06
1.142017653e-05
3.631039213e-05
0.0001814222869
0.0006776638547
0.001616005701
0.002706874355
0.003633188042
0.004337676994
0.004889639962
0.005342478768
0.005709761688
0.006042939703
0.006457179176
0.007091586532
0.007957084605
0.008868961406
0.00963244294
0.01019388079
0.01057793502
0.01081096194
0.01090396864
0.01086386179
0.01070254346
0.01042282907
0.01009615635
5.992746622e-05
8.910418339e-05
0.0001587858984
0.0003200329044
0.0007956299883
0.00173239981
0.002914307939
0.00402174995
0.005031926741
0.005974563421
0.006736889432
0.00728224363
0.0076034698
0.00776011422
0.00786973887
0.008028008455
0.008298122373
0.00865578268
0.009049894602
0.009438901919
0.009796317391
0.01011009443
0.0103930485
0.01067415926
0.01094157101
0.01132012557
0.0004460907342
0.0005970621415
0.0008921091841
0.001226347511
0.001754916312
0.00264242509
0.0038532316
0.005125986393
0.00640131065
0.007511250167
0.008375436428
0.00892391669
0.009146967672
0.009105494819
0.008913960886
0.008602509526
0.00832384218
0.008188581691
0.008243321022
0.008460971245
0.008804460186
0.009271700916
0.009895342553
0.01068302063
0.01152423965
0.01260885039
0.001805052426
0.002183286087
0.002863011123
0.003540890327
0.00426984217
0.005125528818
0.006157491794
0.007227314244
0.008207239179
0.009123395921
0.009876266621
0.01033782264
0.01044021045
0.01027085448
0.01002527613
0.00951430716
0.008888770527
0.008319672094
0.007995377373
0.007955944662
0.008168414113
0.008646435691
0.009433492221
0.01052717583
0.01172812102
0.01314485335
0.004315192756
0.004849838225
0.005788063542
0.006691677198
0.007589669149
0.008425960602
0.009096931309
0.009577165099
0.01006690506
0.01072899961
0.01140840637
0.01180480216
0.01168768235
0.01127736018
0.01113756079
0.0106413077
0.009894132454
0.009015322114
0.008362148003
0.008083995658
0.008127082835
0.008475891031
0.009144515351
0.01023256721
0.01151048806
0.0126788463
0.007180872092
0.007721640451
0.008648437127
0.009510831769
0.01032907165
0.01099153388
0.01136972129
0.01153099683
0.01187531375
0.01264434801
0.01351611327
0.0138745194
0.0132686969
0.01222094119
0.01218904473
0.01180127094
0.01112316799
0.01005345346
0.0091400722
0.00871559067
0.008683103009
0.008891245426
0.009184485382
0.01002572249
0.01125117088
0.01234706811
0.009542086148
0.009938605281
0.01065570521
0.01135274916
0.01205810814
0.01263837883
0.01295953441
0.0132321051
0.01402869228
0.01545018109
0.0167497693
0.01694193954
0.01552485219
0.01333892973
0.01321576262
0.01288596492
0.01242112709
0.01127670069
0.010195722
0.009809982611
0.00998959015
0.01020322824
0.009696162026
0.01014920641
0.0111644091
0.01202761296
0.01106814267
0.01136057239
0.01192130217
0.01250946327
0.01317274751
0.01378030829
0.0142835839
0.01516558064
0.01703642198
0.01945382957
0.02106273886
0.02085697591
0.01859978172
0.01500667501
0.01435254078
0.01386896787
0.0136719908
0.01257692458
0.01152350701
0.01158569473
0.01258002064
0.01313255707
0.01087410684
0.01078105602
0.01147474078
0.01193829797
0.01198890809
0.01226844303
0.01276205684
0.01331192547
0.01399669794
0.01472733466
0.01568427362
0.01767473753
0.02097365648
0.02431550286
0.02600197302
0.02552985192
0.02268637907
0.01776434779
0.01583772201
0.01481920556
0.01479087739
0.01388068398
0.01328538804
0.01463408835
0.01734319117
0.01861085178
0.01296599388
0.01204017102
0.01217357198
0.0123025303
0.01253389584
0.01289814273
0.01340233814
0.01396472664
0.01471041987
0.01563804778
0.01728700427
0.0206511705
0.02533459351
0.02940280774
0.03124162357
0.030791782
0.02773786377
0.02193205782
0.01801356946
0.01585893568
0.01574596795
0.0151932952
0.01583465329
0.01973908137
0.02500066826
0.02731962385
0.01652586226
0.01401938494
0.01316601111
0.01296111427
0.01284465615
0.01338083188
0.01396117595
0.01457192647
0.0153931717
0.01651035064
0.01886131128
0.02345455268
0.02926237435
0.03389647028
0.03610017094
0.03612440074
0.03301062596
0.02684572259
0.02107589619
0.0169220912
0.01657625048
0.0166197905
0.01949877359
0.02712870138
0.03552588257
0.03954455199
0.02276187061
0.01720640995
0.01456676733
0.01373610586
0.0129826826
0.01376022206
0.01448392273
0.01520272122
0.01604640385
0.01715989657
0.01975697941
0.02496049769
0.03144734831
0.03658753928
0.03950209872
0.04027610668
0.03713129775
0.0311324255
0.0237834474
0.01794052411
0.01739359231
0.01821713285
0.02403073741
0.03577599521
0.04821054923
0.05445916477
0.03341818969
0.022529335
0.0165996282
0.0145631685
0.0129458211
0.01401349282
0.01494471886
0.01579045118
0.01658702701
0.01734916505
0.01905207908
0.02342475346
0.02994485824
0.035943072
0.03985716963
0.04127875208
0.03858363181
0.03307520915
0.02366923946
0.01834051919
0.01828424109
0.01957459595
0.02781691781
0.04316054929
0.05988027696
0.0674396559
0.04778906945
0.02985087738
0.01915024388
0.01533547271
0.01269065537
0.01409014198
0.01525909294
0.01623071003
0.01694935733
0.01717023104
0.0169184532
0.0173858887
0.02002910903
0.02518368362
0.03030366003
0.03357007414
0.03356796011
0.02831353454
0.02088225834
0.01899896838
0.01906272426
0.01939903539
0.02615302766
0.04260041714
0.06338247278
0.0728991288
0.05578476329
0.03284820541
0.01952945618
0.01532612506
0.01226017355
0.01414271036
0.01564808344
0.016653131
0.01714981161
0.01692847044
0.01644218152
0.01644119599
0.01743682716
0.01966747578
0.02249872735
0.02405827035
0.02288298833
0.02008953555
0.01944509026
0.01942944217
0.01964157674
0.01905555844
0.01688121808
0.01786252771
0.02968660763
0.04678101534
0.04030001037
0.01907897721
0.01529750867
0.01425895341
0.01220740433
0.01499883152
0.01719458994
0.01843201903
0.01854179472
0.01748351242
0.01603268985
0.0152965937
0.01537879132
0.01612945389
0.0173467
0.01804993824
0.01779896663
0.01766853392
0.01856925238
0.01929100404
0.01966289395
0.01928857177
0.01738148912
0.01503948466
0.01740649869
0.02278547008
0.01604953616
0.01432065163
0.01428526279
0.01357970666
0.0137530048
0.01783797298
0.02097755268
0.0227446056
0.02294818383
0.02132035791
0.01833463341
0.01566930795
0.01431124206
0.01396021898
0.01429612975
0.01501864438
0.01565513587
0.01644693754
0.0175279891
0.01852652459
0.01921803216
0.01915772835
0.01819267374
0.01669436393
0.0214980179
0.02831591853
0.01394706491
0.01340455672
0.01357133711
0.01287354399
0.01696582184
0.02190565849
0.02546753021
0.02763585215
0.02841654234
0.02754079331
0.02468449516
0.02001030249
0.01611661643
0.01426741926
0.01322710229
0.01294047241
0.01349922087
0.01445190561
0.01555363668
0.01678937213
0.01791234562
0.01864433019
0.01903095362
0.02131523459
0.03255087267
0.0435425936
0.01836152951
0.01382994803
0.01299248879
0.01236097661
0.0200405014
0.02510898572
0.02847031076
0.03071448566
0.03191377414
0.03200345672
0.03047752703
0.02541359246
0.019276207
0.01701743765
0.01517193077
0.01297250132
0.01189808694
0.01250220711
0.01352614047
0.01478756155
0.01635023901
0.01885098997
0.02473816534
0.03587690061
0.04917119651
0.0541101858
0.03863733892
0.02543459202
0.01513557521
0.01137075287
0.02152666648
0.02656609934
0.02953779997
0.03166218865
0.03374427717
0.03549911416
0.03480964602
0.02918332009
0.02132551906
0.0195964807
0.01867941963
0.01616821121
0.01240127168
0.01081317865
0.01171455311
0.01291357337
0.01436387509
0.01621630714
0.01941408261
0.02636806974
0.03781858468
0.04529045046
0.02358573606
0.01504472304
0.01108165088
0.01043342728
0.02043471773
0.02589453053
0.02942232256
0.03191907511
0.03507947707
0.037878578
0.03724480315
0.03144849803
0.02251097654
0.02110454733
0.02095432241
0.01987845681
0.01648258817
0.01184434412
0.0101113857
0.01119592093
0.01250785638
0.0140491777
0.01607304563
0.01927975832
0.02600781252
0.03147292644
0.01530568861
0.01154850887
0.009504675588
0.008888548323
0.01845817552
0.02188798097
0.02605453294
0.02917596611
0.03096294759
0.03181898977
0.03075379731
0.02791642316
0.02377692886
0.02244582498
0.02221574309
0.02148877857
0.01962534813
0.01659717139
0.009980097874
0.009657420206
0.01076010626
0.01208463291
0.01382311644
0.01538513494
0.01824356973
0.02135508013
0.01141932092
0.009781138129
0.00835247706
0.007782961704
0.02223137357
0.01948602376
0.02134210508
0.02261962079
0.02285840207
0.02228271217
0.02222203564
0.02296222657
0.02373295789
0.02457644314
0.0242268683
0.02269233133
0.02067002712
0.01850230435
0.01572011921
0.01115016237
0.009564689187
0.01046904851
0.01209217645
0.01328153964
0.01382576052
0.01458916563
0.009557389257
0.008745233683
0.007605085862
0.007088741405
0.03129631202
0.02023382533
0.01955899499
0.02044747496
0.02102711035
0.02152105656
0.02227878732
0.02355837869
0.02538311369
0.02696287482
0.02626034726
0.0238524815
0.02109142352
0.01876100038
0.01673883358
0.01418787283
0.0108841521
0.009814742034
0.01071684692
0.01185203969
0.0116031912
0.01080105958
0.008580179376
0.008114101388
0.007199444045
0.006810860875
0.04274412528
0.02817476393
0.01909443313
0.0192740563
0.02021683888
0.02117604296
0.02242722473
0.02409478004
0.02585258976
0.02626841503
0.02482362219
0.02229352486
0.02015313732
0.01784431821
0.01590275458
0.01444193322
0.01220701091
0.01025835011
0.009981006176
0.01075067614
0.01042326357
0.008927495445
0.007743058834
0.007662648226
0.00697882182
0.05485307554
0.04784606927
0.02207806399
0.01759798375
0.01783878127
0.01831624485
0.01920537735
0.02053328646
0.022327611
0.02375819793
0.02168332668
0.01823893386
0.01647802015
0.01448840905
0.01267223995
0.0116148405
0.01102173295
0.01004829143
0.009501514889
0.009860529343
0.009321081407
0.007334383599
0.005908512332
0.006908987705
0.006355091419
0.0692484379
0.07191032211
0.05397950003
0.02359058054
0.01724847247
0.01762650853
0.01813386796
0.01905924057
0.0201806455
0.02091252931
0.01999098577
0.01829266856
0.01729742885
0.01548938738
0.01361009512
0.01223550107
0.01134908995
0.0102677941
0.009312804479
0.009158213537
0.008311110702
0.005773085511
0.004236541933
0.005913990954
0.006423979882
0.04492850217
0.03078035962
0.02151934949
0.01732755711
0.0169308921
0.01721720184
0.01759544668
0.01853139245
0.01990119682
0.02110661599
0.02140341372
0.02042399504
0.01878001944
0.01659307435
0.01466680522
0.01320609591
0.01205723326
0.01063078585
0.008965523772
0.008610585963
0.007401351785
0.004577892137
0.003753357041
0.004843498103
0.005787413737
0.03301182945
0.01766335209
0.01625412352
0.01657223081
0.01687548386
0.01691980619
0.01714438638
0.01777563493
0.01861924558
0.01971376933
0.02069353222
0.01985978373
0.01799008677
0.01629059864
0.01486268629
0.0121444833
0.01187440124
0.01092341815
0.009400771139
0.00815486135
0.006280442051
0.004564324502
0.003350946194
0.003702260431
0.004493871965
0.004799744019
0.02127455876
0.01682348656
0.01821136781
0.0197881799
0.02121326093
0.02176807752
0.02061118832
0.01799699778
0.01731332936
0.01786254778
0.01822497295
0.01753168899
0.01638165503
0.01545922485
0.01442436111
0.01301166351
0.01207331247
0.01073495481
0.009095932988
0.007293327242
0.007384196929
0.01144879753
0.004966437561
0.002858184977
0.002681455117
0.002873831489
6.201658509e-06
1.059476613e-05
2.516173424e-05
0.0001200397835
0.0004876493417
0.001279032381
0.002303132278
0.003217156205
0.003889654513
0.004387764547
0.004776411559
0.005126621508
0.005487337909
0.005940599408
0.006635236841
0.007616756903
0.008715824098
0.009698907768
0.01048980963
0.01113243454
0.01165288761
0.01200656969
0.01211279563
0.01190848987
0.01138566759
0.01062994376
3.54306909e-05
6.164621658e-05
9.929626171e-05
0.0002080922446
0.0006071969886
0.001485713706
0.002623042546
0.003585606791
0.004299786048
0.005025892857
0.00571556169
0.006278384188
0.006719419618
0.007078762472
0.007427269413
0.007830845688
0.008326375096
0.008899620371
0.009556903546
0.01033860705
0.01121121125
0.01200220076
0.01250604153
0.01264093725
0.01251838279
0.01240504682
0.000267942208
0.0003226880371
0.0004546699063
0.0006261994862
0.001042889744
0.001884770158
0.003045124114
0.004142873727
0.005147764363
0.006111554674
0.00696255138
0.007603422751
0.007987113765
0.008136545624
0.008132660794
0.008020842603
0.007883123843
0.007818715647
0.008018838062
0.008639092383
0.009586125913
0.01053985789
0.01126901567
0.0118538188
0.01249514466
0.01328453182
0.001223599813
0.001267390217
0.001564142512
0.001907747607
0.002436893529
0.003262290984
0.004426687205
0.005631696411
0.006651668422
0.007513894356
0.00822816553
0.008709132229
0.008852396228
0.008720196888
0.008474996964
0.008099759169
0.007658654481
0.007210665126
0.006996800185
0.007302605488
0.00814941329
0.009199793796
0.01021717426
0.01133311887
0.01257007999
0.01380724397
0.003284577852
0.003131071957
0.003421144651
0.003906632065
0.004690358914
0.005798037589
0.007039727094
0.008026713699
0.008638729269
0.009050769864
0.009372712378
0.00955455976
0.009396667967
0.009042636787
0.008798682445
0.008458999249
0.008037023278
0.007447463062
0.006896303694
0.006701369123
0.007115984772
0.008049686372
0.00930371187
0.01095182751
0.01268544416
0.01413046966
0.005948320528
0.005421996265
0.005534541503
0.006096223304
0.007180618754
0.008604752061
0.009897952362
0.01066409845
0.0109123351
0.0108628467
0.01064782104
0.01041251047
0.009904633561
0.00939817577
0.009346932279
0.009198572103
0.008979127447
0.008404874218
0.007683665757
0.007091587297
0.00695005145
0.007503500544
0.008652066078
0.01058132844
0.01273134446
0.01432283699
0.008390152527
0.00756827947
0.007402480256
0.007938852769
0.009277668036
0.01099322538
0.01242494226
0.01326234696
0.01353209478
0.01329115345
0.01246774156
0.01167577732
0.0107311956
0.01010536372
0.010318927
0.01034139734
0.01036502396
0.009860035212
0.009119072398
0.008431505602
0.007957886605
0.008079274778
0.008706781789
0.01034595726
0.01274278015
0.01435868579
0.01009942148
0.009183290627
0.008852457126
0.00945314135
0.0110628524
0.01306464338
0.01479846108
0.01608569691
0.01686695398
0.01683255485
0.01537445578
0.01385571811
0.01210780489
0.01141348898
0.01185733693
0.01188514315
0.01204998339
0.01157839123
0.01089674649
0.01042685682
0.01015054689
0.01004882711
0.009890070335
0.01073615788
0.01284513113
0.01453491785
0.01115776492
0.01039920845
0.0101158755
0.01091388506
0.01274139133
0.015012172
0.01726539875
0.01939951846
0.02127431402
0.02198994863
0.01993858661
0.01712163727
0.01425128533
0.01365558486
0.01415688034
0.01391159213
0.01400853185
0.01349060463
0.01289170022
0.0129048652
0.0135624321
0.01370200457
0.01257497234
0.01240427811
0.0133479146
0.01499804713
0.01185572574
0.01153060685
0.01141155106
0.01237246223
0.01430264173
0.01689312998
0.01986803029
0.02314125097
0.02656268569
0.02828968402
0.02580627089
0.02253051228
0.01869600634
0.01737478454
0.01738248263
0.01657572813
0.01632462453
0.01573450739
0.01526188909
0.01611000537
0.01917431684
0.0202664553
0.01726840322
0.0157273639
0.01466054088
0.01552136822
0.01236131386
0.01269377412
0.01279137742
0.01381982504
0.01576571675
0.01868764572
0.02243605283
0.02680626593
0.03134277084
0.03350444833
0.03199190393
0.03062148489
0.02568380055
0.02275004542
0.0213587211
0.01970149228
0.01899424783
0.01850845641
0.01836120722
0.02101780047
0.03022213037
0.03280564975
0.0256537212
0.02056496809
0.01672533231
0.01627723807
0.01268741628
0.01381138136
0.01431499329
0.0154471297
0.01757021629
0.02062463035
0.0246994015
0.02947174953
0.03370182877
0.03586459317
0.0368251161
0.03804820495
0.033040017
0.02924954016
0.0259786276
0.02260754219
0.02172163339
0.02170710101
0.02235758816
0.02918876627
0.04864011333
0.05188806136
0.04050258504
0.0268604302
0.01909329344
0.01725783745
0.01274544044
0.01468959004
0.01592374179
0.01739056961
0.01961705294
0.02265328231
0.02668795526
0.03084718594
0.03370386966
0.03538365324
0.03757751589
0.04048511619
0.03796827998
0.03436058432
0.03028281627
0.02468141623
0.02394566727
0.02470120385
0.02653528908
0.03866096852
0.06642356361
0.07066923339
0.06048895194
0.03506234764
0.02136234825
0.01811092665
0.01242677082
0.01507256058
0.01738766169
0.01946044113
0.02191693887
0.02483282565
0.02837804075
0.03169687792
0.03375914847
0.0338285955
0.03395277969
0.03737442449
0.03937183229
0.03563209577
0.0306977248
0.02567370007
0.02536462919
0.02664378091
0.02848352161
0.03984734845
0.07081283726
0.08194847503
0.07506953076
0.04274462141
0.02305597
0.01839744824
0.01174863211
0.01492511764
0.01854669666
0.02182602854
0.02494108505
0.02797117097
0.03064840645
0.03258141217
0.03332235556
0.03227624329
0.02971735034
0.02845583081
0.03054055446
0.03072140376
0.02724977684
0.02552907167
0.0257761382
0.026246241
0.02624640329
0.02697450374
0.05132450816
0.0808053341
0.07425968664
0.0402162587
0.02206853442
0.01770060621
0.01106552756
0.01468359337
0.01943458041
0.02413003665
0.02792822368
0.02995887905
0.03008623202
0.02928364107
0.02825717942
0.026898022
0.02469653654
0.02230994355
0.02155098818
0.0224648743
0.02382396341
0.02497472735
0.02596255619
0.02620387227
0.02559056899
0.0207341098
0.02157555138
0.03298810592
0.04246213104
0.02767174248
0.0189260988
0.01660732751
0.01118400534
0.01508257983
0.0204955052
0.02547462994
0.02748925204
0.02615383338
0.02376343694
0.02194994439
0.02080990078
0.01987260954
0.01899274928
0.01840476591
0.01869151818
0.01993773474
0.02188772388
0.02421015375
0.02665939881
0.02649798138
0.0269423969
0.02296789928
0.02009474844
0.02297844371
0.02310372059
0.02247168679
0.01778869863
0.01574919133
0.01269947779
0.01629290806
0.02237230368
0.02731092408
0.02771234426
0.02465479979
0.02142201328
0.01900545507
0.01735099648
0.0161799685
0.01541710663
0.01514527992
0.01549276031
0.01658574247
0.01852614882
0.02108360842
0.02369917953
0.02581823911
0.02840235371
0.03146474718
0.03782969985
0.0482846134
0.02654644845
0.0221438092
0.01704708421
0.01479750889
0.01493407621
0.01776466698
0.02463690393
0.02938085442
0.02949749224
0.02764571916
0.02513072914
0.02164761646
0.0183178236
0.01637902492
0.01485679556
0.01365201372
0.0132729043
0.01375655247
0.01506977694
0.01742944075
0.02046636946
0.02442895371
0.02980237155
0.03786676112
0.05368047252
0.05483579626
0.03812348062
0.0215409746
0.01630294333
0.01421527889
0.01665673223
0.01898982663
0.02350816443
0.02640483896
0.03047541498
0.03500319482
0.0357081222
0.03046720215
0.02159015029
0.01832434054
0.01703662899
0.01512330737
0.0128177608
0.01221903108
0.01276232864
0.01441192268
0.01704856703
0.02067484317
0.02602602842
0.03447926082
0.04791172756
0.05052732632
0.02917292059
0.01722983099
0.01203041932
0.0111558095
0.01689292209
0.01928567794
0.02349257908
0.02603175785
0.03269778914
0.040661112
0.04527235199
0.04485159906
0.02806044926
0.01901417479
0.01870354383
0.01856277438
0.01579174339
0.01244430728
0.01169909682
0.01236248723
0.01409675835
0.01682960544
0.02070241815
0.02625751739
0.03156894822
0.03082707014
0.0189155581
0.01277923877
0.009055957931
0.007795114017
0.01644031433
0.01869812754
0.02339475215
0.02848107394
0.0338586322
0.04314510763
0.05030023882
0.04752118905
0.0336655779
0.02074775313
0.01924811757
0.02022314818
0.01937460216
0.01636076219
0.01138051509
0.01112997659
0.01187653811
0.01348669564
0.01615527476
0.01922192264
0.01959054703
0.01807965552
0.01316025434
0.009580362514
0.006802600201
0.005521229559
0.01857820058
0.01957362973
0.02313438492
0.02750964891
0.02939705337
0.02974362118
0.02948996523
0.02783304261
0.02540089875
0.02445320806
0.02338952304
0.02192107269
0.01957625075
0.0190038105
0.01578771008
0.01162242916
0.01073834933
0.0113085718
0.0130188855
0.01473175178
0.01385709301
0.01240762199
0.009983233846
0.00783445003
0.005703726336
0.004570185236
0.02379866532
0.0227392653
0.02084979995
0.02285789137
0.02373248513
0.02235346057
0.02208419662
0.02355545075
0.02755692395
0.03158926249
0.02987743623
0.02639245072
0.02118208338
0.01819989918
0.01766365944
0.01354159128
0.01069584866
0.01018515053
0.01105065516
0.01212472429
0.01113726724
0.009689219773
0.008138711224
0.00662829813
0.005347044493
0.004724972895
0.03503881316
0.03467072388
0.02113818099
0.01903584802
0.01910925333
0.02017851648
0.0216790177
0.02482708441
0.02944174313
0.03063084928
0.0274827807
0.02444878115
0.02114760203
0.01749932324
0.01510153287
0.01350906505
0.01109189692
0.00972191492
0.00988692228
0.01055370557
0.009762975555
0.008562126691
0.007485021605
0.00620678018
0.006541392972
0.05418216235
0.06009896016
0.02773933946
0.01771619409
0.01558742964
0.01619841641
0.01747160946
0.01966481548
0.02384760058
0.02777494681
0.02271708355
0.01845236737
0.01570584614
0.0124596614
0.009882363961
0.009408080002
0.01026182903
0.009443972705
0.009189561138
0.009486979515
0.008855951393
0.008123551858
0.005117698973
0.006255876619
0.005379997701
0.06553436721
0.06369916432
0.03761977765
0.01956064623
0.01511257588
0.01434938326
0.01529496295
0.01750881324
0.02055050285
0.02261363729
0.02058272732
0.01862995309
0.01715944832
0.01319685072
0.009638377492
0.007844229456
0.008313053642
0.008868553812
0.009095129345
0.008704160971
0.007985932121
0.006003301887
0.003116806034
0.003607046251
0.004985562004
0.02530215234
0.02715207166
0.01945183559
0.01693665445
0.01500876104
0.01404809513
0.01447639318
0.01681824879
0.02049279448
0.0234478115
0.02412659188
0.02317874357
0.01971498455
0.01408502904
0.01030010164
0.00869510503
0.008149882088
0.009272922236
0.007426278639
0.008069423712
0.007119924935
0.004714410884
0.002882161137
0.002968595376
0.004320763784
0.01950461404
0.0189617617
0.01779227024
0.0176773974
0.0175776603
0.01705890895
0.01601655442
0.01622259099
0.01781768164
0.02036803116
0.02296928774
0.02146570149
0.01617089246
0.01213173346
0.01132593267
0.007621460997
0.00759146525
0.008343253265
0.007281089961
0.007236861434
0.009489162271
0.008108213476
0.003181480677
0.002548320015
0.003179107292
0.003138494598
0.01749023196
0.01940691739
0.0195800065
0.02025433759
0.0214259439
0.02247323282
0.02248346654
0.01966986591
0.01635205513
0.01611466057
0.01611678786
0.01427992162
0.01127112387
0.01017844087
0.01256626093
0.009525096593
0.008338195306
0.007860844192
0.007000104241
0.007935766318
0.01670451585
0.01799433785
0.007134697286
0.001997438648
0.001821873992
0.001750843216
5.4300354e-06
1.083365202e-05
1.920073959e-05
6.718800139e-05
0.0002905453535
0.0008670204737
0.001745342202
0.002627957127
0.003315283424
0.003819074395
0.00421049681
0.00455145072
0.004900870849
0.005338464047
0.006013451602
0.007022729099
0.008235353023
0.009371399901
0.01031542904
0.01113557108
0.01187896341
0.01248457036
0.01283123374
0.0127889943
0.01227130194
0.0113325049
1.825766519e-05
5.473680459e-05
9.228186027e-05
0.0001350946424
0.000339473746
0.0008961159779
0.001758578856
0.002596128478
0.003227476006
0.003802874238
0.004392071423
0.004926400833
0.005388066285
0.005784805116
0.006172286908
0.006619110838
0.007178523221
0.007900346749
0.008873368974
0.0101871094
0.011747566
0.01322364387
0.0142299555
0.0144700017
0.0139188648
0.01313221553
0.0001233511
0.0001615862523
0.0002480580089
0.0003160048601
0.0005209317952
0.001055194543
0.001917824238
0.002820935831
0.003603413213
0.00435153082
0.005091776665
0.005741012611
0.006235369703
0.006560395611
0.006738905852
0.006792862477
0.006777529339
0.006875451094
0.007495830985
0.008906871109
0.01077089394
0.01246560316
0.01355463099
0.01386577231
0.01365273159
0.0135350781
0.0006715340837
0.0005961321086
0.0007229701982
0.000855244644
0.001122615657
0.001671605714
0.002592671709
0.003647185108
0.004561122315
0.005310413834
0.005959697368
0.006496615684
0.006850004735
0.007011336116
0.007014972062
0.006857266747
0.006557782609
0.006277193158
0.006553787954
0.007859860097
0.009750302615
0.01145308909
0.01260570906
0.01319419483
0.01356975715
0.01408806424
0.002193050235
0.001722878418
0.001723735875
0.001909087595
0.002344823329
0.003113301494
0.004216657476
0.005303447111
0.006031020211
0.006406131319
0.006619625452
0.006821380387
0.006949999892
0.007004125262
0.007025788143
0.006946994864
0.006695454447
0.006272416012
0.00608566088
0.006771981936
0.008240191446
0.00978550178
0.01112845833
0.01236683203
0.01367086158
0.01496714633
0.004567710015
0.003479095204
0.003039229404
0.003169571891
0.003843422192
0.005002349295
0.006409338614
0.007530740849
0.007986988834
0.007779253492
0.007171754368
0.006741072829
0.006619961237
0.006764389206
0.007073615168
0.007336789607
0.007378499194
0.007026265756
0.006458147418
0.006151532148
0.006632051795
0.007803866291
0.009435389105
0.0115162185
0.01378135227
0.01573880233
0.007093059465
0.005356217079
0.004323777145
0.004235384374
0.00508669264
0.006662172582
0.008497328725
0.009879736018
0.01031783357
0.00968593623
0.008081829703
0.006618176238
0.006214762227
0.006791425999
0.007605498219
0.008332209551
0.008761166863
0.008632241072
0.008054104576
0.007224404316
0.006585207057
0.006819587824
0.008169947912
0.01076018571
0.01379037244
0.01609582831
0.009056872359
0.006882625436
0.005325534318
0.004921282829
0.005868187197
0.007920559565
0.01035662358
0.01221725654
0.01293066713
0.01223278291
0.009903320267
0.007249178222
0.006413939307
0.007673330155
0.008843859224
0.009904450195
0.0106534162
0.01076954814
0.01040031241
0.009726485453
0.00874054974
0.008042999439
0.008103503119
0.01012826489
0.01366831168
0.01623378756
0.01021654968
0.008021224586
0.006146634738
0.005479547817
0.006553296878
0.009173135851
0.01218595605
0.0145395347
0.01577624578
0.01545164189
0.01309644778
0.01011098011
0.008608173737
0.009874911929
0.01076248549
0.01182616918
0.01280372507
0.01324057444
0.01325857501
0.01325903885
0.01296494682
0.011759625
0.009904652085
0.0102142984
0.01339062054
0.01646217364
0.01091830871
0.009069972264
0.007226528313
0.006690322365
0.008224405253
0.01113981712
0.01414407843
0.01677301505
0.01869657494
0.01920719684
0.01817990515
0.01680321472
0.01359864317
0.01336902641
0.01344475893
0.01393697235
0.01505621108
0.01605691402
0.01683731925
0.01825090471
0.02004961299
0.0186225272
0.01420786807
0.01198951844
0.0134982236
0.01657862148
0.01142851854
0.01038079955
0.009103190421
0.00937557602
0.01138107167
0.01369223346
0.01605498045
0.01875252052
0.02127181045
0.02298767488
0.02507284903
0.02682970772
0.02124484161
0.0189305718
0.01799687998
0.01657183598
0.01744405201
0.01914319969
0.02146476482
0.02577502987
0.03177676745
0.03045712986
0.02281635793
0.01621543833
0.01471868701
0.01647271685
0.0118044177
0.01194162834
0.01162100526
0.01259568578
0.01403294058
0.0157229386
0.0178639963
0.02055180384
0.02336619041
0.02612602421
0.03146390002
0.03624730623
0.02988382843
0.02641889026
0.02461217864
0.01980037388
0.02003987348
0.02243181589
0.02705682865
0.03616554757
0.04855027314
0.04794131392
0.03843227138
0.02394433496
0.0169334721
0.01660021366
0.01193740519
0.01331877196
0.0138875189
0.01498878062
0.01633035043
0.0179396512
0.02005598159
0.02271095196
0.02546918145
0.02826677958
0.03423042102
0.04018517299
0.03615196469
0.0323762324
0.03025006428
0.02315872596
0.02265982624
0.02562953137
0.03248054555
0.04648599238
0.06557718666
0.06703258379
0.05907762757
0.03586840332
0.01969897598
0.01691082417
0.01169371357
0.01407601762
0.0154916768
0.01695274219
0.01850619734
0.02027176469
0.02255688299
0.02529251919
0.02801516902
0.03028573303
0.03401998518
0.04032516637
0.04097405634
0.03500191241
0.03037687643
0.02510084211
0.02464817616
0.02787175389
0.03549646235
0.05149741048
0.07530187621
0.08203044701
0.0738659969
0.04653945743
0.02216400765
0.01687114647
0.01106251501
0.01406876683
0.01636958022
0.01853698208
0.02075338669
0.02320230098
0.02611231275
0.02913160459
0.03169066176
0.03323691802
0.03396143067
0.03536317406
0.0382494833
0.03394477367
0.02719275891
0.02459329748
0.02521151906
0.02787529725
0.03378773913
0.04696546943
0.07259869924
0.08995453902
0.07491925566
0.04386532375
0.02167360526
0.01599122821
0.01025745194
0.01351713494
0.01665687102
0.01987963145
0.0233328152
0.02704388409
0.03077619722
0.03364501103
0.03516845633
0.03509751321
0.03320687764
0.02882214104
0.02481322415
0.02372758064
0.02378476302
0.02425768711
0.02640868598
0.02756586432
0.03126257925
0.03533681011
0.0411170562
0.06219477189
0.05663126952
0.03025256129
0.01765906878
0.01451305169
0.009747419795
0.01290412954
0.01658292451
0.02117252877
0.02612856031
0.03041578051
0.032658133
0.03335500579
0.03344577647
0.03236407956
0.02938167653
0.02450474964
0.02084462076
0.0199995666
0.02142326572
0.02488489171
0.03285700605
0.02846030293
0.03099461439
0.03560891274
0.03508991811
0.03879383015
0.03238540828
0.02262206042
0.01585955987
0.01343566699
0.01007024564
0.01261847985
0.01620774892
0.0208091024
0.02385566282
0.02452122955
0.02407755827
0.02335473868
0.02303416069
0.02265090565
0.02146578504
0.01909910089
0.01694501168
0.01669628798
0.01835628989
0.02114258562
0.02526167584
0.02807218879
0.03227885359
0.04290084563
0.05729081152
0.06234192549
0.03896404412
0.02301722233
0.01523685366
0.01251527372
0.0113047208
0.01257114232
0.01564723271
0.02007796622
0.0225609755
0.0234341435
0.02315010189
0.02056150689
0.01777373343
0.01644744432
0.0156846445
0.01471182925
0.01359764939
0.01316310913
0.01444966919
0.01678125925
0.01980235026
0.02400883266
0.03104049568
0.042556782
0.05398724179
0.05293365119
0.04248385195
0.02245024663
0.01326062448
0.01094875379
0.01297524863
0.01350973775
0.01398349947
0.0175228833
0.02729708547
0.03590166954
0.03881140824
0.03306582256
0.02098569467
0.01523768757
0.01378827607
0.01277922807
0.01169191793
0.01115584987
0.01154463025
0.01340804089
0.0160507879
0.0200136969
0.02656272657
0.03768616378
0.05074278871
0.05138399782