/*--------------------------------*- C++ -*----------------------------------*\
  =========                 |
  \\      /  F ield         | OpenFOAM: The Open Source CFD Toolbox
   \\    /   O peration     | Website:  https://openfoam.org
    \\  /    A nd           | Version:  8
     \\/     M anipulation  |
\*---------------------------------------------------------------------------*/
FoamFile
{
    version     2.0;
    format      ascii;
    class       volScalarField;
    location    "0.6";
    object      N2;
}
// * * * * * * * * * * * * * * * * * * * * * * * * * * * * * * * * * * * * * //

dimensions      [0 0 0 0 0 0 0];

internalField   nonuniform List<scalar> 
67410
(
0.7899927639
0.7899927629
0.7899927571
0.7899927784
0.7899929007
0.7899931387
0.7899933803
0.7899935487
0.7899936608
0.7899937433
0.7899938097
0.7899938649
0.7899939163
0.7899939902
0.7899941235
0.7899943098
0.7899944787
0.7899945764
0.7899946186
0.7899946462
0.7899946885
0.7899947622
0.7899948781
0.7899950347
0.7899951851
0.7899952033
0.7899927609
0.7899927756
0.7899927863
0.7899928154
0.7899929249
0.7899931347
0.7899933731
0.7899936013
0.78999385
0.7899940963
0.7899942924
0.7899944315
0.7899945195
0.789994569
0.7899945942
0.7899946035
0.7899945977
0.7899945822
0.7899945739
0.7899945933
0.7899946586
0.7899947851
0.7899949774
0.7899951945
0.7899953141
0.7899952347
0.789992815
0.7899928818
0.789992949
0.7899930059
0.7899931003
0.7899932843
0.78999356
0.7899939085
0.7899942866
0.7899945841
0.7899947697
0.7899948684
0.789994913
0.7899949117
0.7899948642
0.7899947863
0.789994701
0.7899946389
0.7899946185
0.7899946468
0.7899947315
0.789994884
0.7899951001
0.789995309
0.7899953735
0.7899952479
0.7899930795
0.7899932225
0.7899933607
0.7899934619
0.7899935756
0.7899937614
0.7899940461
0.7899943934
0.7899947039
0.789994903
0.7899949932
0.7899950357
0.7899950733
0.7899950834
0.7899950347
0.7899949458
0.7899948345
0.7899947457
0.7899947105
0.7899947351
0.7899948175
0.7899949646
0.7899951712
0.7899953709
0.7899954469
0.7899953686
0.789993565
0.789993747
0.7899939111
0.7899940348
0.7899941674
0.7899943346
0.7899945345
0.7899947491
0.7899949209
0.7899949934
0.7899950002
0.7899950296
0.7899951185
0.7899951889
0.7899951795
0.7899951222
0.7899950164
0.7899949091
0.7899948515
0.7899948599
0.7899949258
0.7899950514
0.7899952349
0.7899954261
0.789995542
0.7899955294
0.7899940743
0.7899942377
0.7899943554
0.7899944498
0.7899945466
0.7899946504
0.7899947659
0.7899948855
0.7899949467
0.7899949165
0.7899948845
0.7899949546
0.7899951239
0.789995254
0.7899952992
0.7899952922
0.7899952185
0.7899951074
0.7899950305
0.7899950222
0.789995072
0.7899951771
0.7899953369
0.7899955004
0.7899956313
0.7899956419
0.7899944258
0.7899945181
0.7899945801
0.7899946376
0.7899946984
0.7899947634
0.7899948344
0.7899948846
0.7899948499
0.7899947707
0.7899947859
0.7899949447
0.7899951616
0.7899952815
0.7899953909
0.7899954312
0.789995405
0.7899953045
0.7899952183
0.7899951975
0.7899952406
0.7899953434
0.789995495
0.7899956226
0.7899957402
0.7899957555
0.7899946011
0.7899946408
0.7899946765
0.7899947166
0.7899947631
0.78999481
0.7899948422
0.7899948201
0.7899947382
0.7899947257
0.7899948762
0.7899951171
0.7899952944
0.7899952852
0.789995473
0.7899955432
0.7899955589
0.7899954686
0.789995376
0.7899953367
0.7899953778
0.7899955186
0.7899956999
0.7899958009
0.7899958777
0.7899958871
0.7899946877
0.789994697
0.7899947263
0.7899947672
0.7899948152
0.7899948488
0.7899948387
0.7899947782
0.7899947605
0.7899949115
0.7899951862
0.7899954489
0.7899955258
0.7899953163
0.7899955722
0.7899956576
0.7899956908
0.789995588
0.789995476
0.7899954105
0.789995474
0.7899957137
0.7899959042
0.7899960051
0.789996036
0.7899960299
0.789994735
0.7899947305
0.7899947686
0.7899948235
0.7899948811
0.7899949034
0.7899948701
0.7899948486
0.7899949767
0.7899952623
0.7899955713
0.7899957984
0.7899957985
0.7899954541
0.7899956991
0.7899958057
0.789995826
0.7899956791
0.7899955313
0.7899954757
0.7899956517
0.7899960316
0.7899960766
0.7899961703
0.7899961905
0.7899961648
0.7899947611
0.7899947566
0.7899948141
0.7899948902
0.789994965
0.7899949885
0.7899949725
0.7899950416
0.7899952922
0.7899956157
0.7899958879
0.7899960723
0.7899960729
0.7899957329
0.7899958348
0.7899959746
0.7899959775
0.7899957752
0.7899956076
0.789995658
0.7899960205
0.7899965075
0.7899962341
0.7899962752
0.7899963037
0.789996278
0.7899947673
0.7899947716
0.7899948532
0.7899949613
0.7899950613
0.7899951074
0.7899951398
0.7899952866
0.7899955726
0.7899958718
0.7899961012
0.7899962749
0.7899963093
0.7899960393
0.789996009
0.7899961492
0.7899961401
0.7899959054
0.7899957665
0.7899959852
0.7899964981
0.7899970187
0.7899964213
0.7899963648
0.7899963758
0.7899963622
0.7899947401
0.7899947548
0.7899948604
0.7899950012
0.7899951389
0.7899952348
0.7899953241
0.7899954911
0.7899957181
0.78999592
0.7899960942
0.7899962628
0.7899963511
0.7899962316
0.7899961837
0.7899963469
0.789996295
0.7899960683
0.7899959749
0.7899963165
0.7899968855
0.7899973515
0.7899966656
0.7899964564
0.7899964268
0.789996413
0.7899946497
0.7899946693
0.7899947914
0.7899949561
0.789995132
0.7899952795
0.7899954
0.7899955021
0.7899955328
0.7899955357
0.7899956445
0.7899958616
0.7899960963
0.7899962323
0.7899962783
0.7899964456
0.7899964234
0.789996247
0.789996121
0.7899964432
0.7899969061
0.7899971818
0.7899966794
0.789996446
0.7899964547
0.7899964336
0.7899944611
0.7899944896
0.7899946225
0.7899948086
0.7899950137
0.7899952077
0.7899953892
0.7899955386
0.7899956074
0.789995636
0.7899957369
0.7899959157
0.7899960772
0.7899962189
0.7899964061
0.7899965167
0.7899965413
0.7899964952
0.7899962009
0.7899959644
0.7899960763
0.7899963542
0.7899964156
0.7899963461
0.7899964744
0.7899963936
0.7899942061
0.7899943119
0.7899945039
0.789994734
0.7899949449
0.7899951269
0.7899953123
0.7899955019
0.7899956468
0.789995744
0.7899958423
0.7899959923
0.7899961562
0.7899962867
0.7899964155
0.789996527
0.7899965477
0.7899965756
0.7899962829
0.7899959486
0.7899958562
0.7899960806
0.7899959971
0.7899961804
0.7899963489
0.7899962986
0.7899940871
0.7899943969
0.7899947084
0.7899949647
0.7899951192
0.7899951777
0.7899951953
0.7899952848
0.7899954496
0.7899956185
0.7899958037
0.7899959783
0.7899961116
0.7899962028
0.7899963069
0.7899963836
0.7899963109
0.7899966113
0.7899963586
0.7899960082
0.7899959224
0.7899962828
0.7899957673
0.7899959707
0.7899962081
0.7899961917
0.7899942514
0.7899947173
0.7899950276
0.7899951883
0.7899952536
0.789995246
0.7899951686
0.7899951775
0.7899953276
0.7899954042
0.7899955342
0.7899957386
0.7899959612
0.7899961406
0.7899963203
0.789996524
0.78999666
0.7899966949
0.789996441
0.7899960921
0.7899962396
0.7899967041
0.7899957115
0.7899958559
0.7899961277
0.7899960897
0.7899945381
0.7899949587
0.7899950959
0.7899950897
0.7899950927
0.7899951076
0.7899951054
0.7899952138
0.7899954762
0.7899954937
0.7899954892
0.7899955422
0.7899957336
0.7899960009
0.7899962059
0.7899964195
0.7899965519
0.7899965425
0.7899963354
0.7899963361
0.7899967052
0.7899970101
0.7899963804
0.7899960152
0.7899960442
0.7899959342
0.7899947558
0.7899950573
0.7899950355
0.7899949457
0.7899949604
0.7899950329
0.7899950613
0.7899952397
0.7899956329
0.7899957049
0.789995714
0.7899956419
0.7899955231
0.7899957129
0.789996018
0.7899962553
0.7899964546
0.7899965063
0.7899962938
0.7899959788
0.7899960478
0.7899962967
0.7899956693
0.7899958351
0.7899961072
0.789995602
0.7899947491
0.789995041
0.7899950167
0.7899949099
0.7899949383
0.7899950567
0.7899951686
0.7899953553
0.7899956862
0.7899958472
0.789995939
0.7899959751
0.7899957556
0.7899954342
0.7899956466
0.7899959421
0.7899961837
0.7899963179
0.7899962299
0.7899958769
0.7899957022
0.7899957985
0.789995481
0.7899958046
0.7899960035
0.7899954335
0.7899943809
0.7899947715
0.7899948867
0.7899949442
0.7899949755
0.7899951249
0.789995395
0.7899956087
0.7899957565
0.7899959476
0.7899961009
0.7899961799
0.7899961499
0.7899958719
0.7899952414
0.7899955205
0.7899957991
0.7899959785
0.7899960194
0.7899957968
0.7899955166
0.7899954681
0.7899953364
0.7899956119
0.7899956974
0.789995172
0.7899941486
0.789994995
0.7899952085
0.7899954451
0.789995643
0.7899958135
0.7899958842
0.7899958842
0.7899960279
0.7899962652
0.7899964615
0.7899964198
0.7899963594
0.789996217
0.7899958721
0.7899953206
0.7899953546
0.7899956062
0.7899957308
0.7899956547
0.7899953834
0.789995197
0.7899951646
0.7899953381
0.7899953444
0.7899949127
0.7899944799
0.7899951089
0.7899952962
0.7899954817
0.7899956214
0.789995733
0.7899958673
0.7899960657
0.7899963715
0.7899967394
0.7899969936
0.7899968545
0.7899966162
0.7899963857
0.7899961623
0.7899957344
0.7899952792
0.7899952565
0.7899954022
0.7899954441
0.7899952561
0.7899949888
0.7899949693
0.7899950413
0.7899949941
0.7899946759
0.7899961908
0.7899952971
0.7899954689
0.7899956301
0.7899957199
0.7899958421
0.7899960232
0.7899963142
0.7899967018
0.7899971385
0.7899974236
0.7899972955
0.7899969664
0.7899965915
0.7899962274
0.7899959783
0.7899955278
0.7899951868
0.7899951463
0.78999521
0.7899951059
0.7899948108
0.7899947485
0.789994779
0.7899946679
0.7899985578
0.7899958461
0.7899955978
0.7899955915
0.789995754
0.7899959148
0.7899961655
0.7899964879
0.7899968685
0.789997313
0.7899976554
0.7899975916
0.7899972807
0.7899969036
0.7899964839
0.7899960866
0.7899956948
0.7899952604
0.7899950326
0.7899949986
0.7899948981
0.789994573
0.7899944598
0.7899945248
0.7899943002
0.790001542
0.7899976251
0.7899975487
0.789996213
0.7899960794
0.7899962124
0.7899963315
0.7899965449
0.7899968038
0.789997083
0.7899973151
0.7899972525
0.7899969916
0.7899966879
0.7899963559
0.7899960232
0.7899956905
0.7899953014
0.7899949788
0.7899948417
0.7899946692
0.7899942818
0.7899940843
0.7899942099
0.7899941817
0.7899984756
0.7899960659
0.7899960786
0.7899960232
0.7899961188
0.7899962242
0.7899963205
0.7899964946
0.7899967265
0.7899969744
0.7899971743
0.7899970946
0.7899968382
0.7899965612
0.7899962717
0.7899959646
0.7899956519
0.7899952713
0.789994988
0.7899946789
0.7899944877
0.7899939932
0.7899938734
0.7899940238
0.7899941113
0.7899964398
0.7899961455
0.7899961276
0.7899961925
0.7899962435
0.7899963033
0.7899963664
0.7899964597
0.7899965367
0.7899966746
0.7899968091
0.789996742
0.7899965512
0.7899963513
0.7899961428
0.7899956749
0.7899953764
0.7899951665
0.789994817
0.7899945339
0.7899942372
0.7899934392
0.789993571
0.7899936915
0.7899938146
0.789993826
0.7899957766
0.7899962434
0.7899962711
0.7899963816
0.7899964718
0.7899965289
0.7899964965
0.7899964299
0.789996428
0.789996472
0.7899964976
0.7899964341
0.7899962919
0.789996124
0.7899959279
0.789995545
0.7899953321
0.7899950663
0.7899946567
0.7899943438
0.7899938636
0.7899940176
0.789993472
0.7899933821
0.7899933873
0.789993402
0.789992928
0.7899929086
0.7899928739
0.7899928327
0.7899928577
0.7899930263
0.7899932672
0.7899934603
0.78999358
0.7899936468
0.7899936776
0.7899936874
0.7899936943
0.7899937277
0.7899938343
0.7899940225
0.7899942164
0.7899943291
0.7899943598
0.7899943654
0.7899943941
0.7899944702
0.7899946036
0.7899947909
0.7899949939
0.7899951067
0.7899928782
0.7899928743
0.7899928562
0.7899928359
0.7899928666
0.7899930028
0.7899932061
0.7899934102
0.7899935991
0.7899937731
0.789993919
0.7899940316
0.7899941153
0.7899941809
0.789994237
0.7899942812
0.7899942994
0.7899942795
0.7899942404
0.7899942296
0.7899942889
0.7899944346
0.7899946605
0.7899949273
0.7899951356
0.7899951763
0.7899928226
0.7899928554
0.7899928744
0.78999288
0.789992918
0.7899930456
0.7899932697
0.7899935545
0.7899938645
0.7899941359
0.78999433
0.7899944534
0.7899945258
0.7899945566
0.7899945493
0.7899945053
0.7899944307
0.7899943414
0.7899942684
0.7899942577
0.7899943431
0.7899945275
0.7899947897
0.7899950627
0.7899952246
0.7899952144
0.7899929182
0.7899929859
0.7899930618
0.7899931061
0.7899931696
0.7899933213
0.7899935988
0.7899939497
0.7899942808
0.7899945208
0.7899946568
0.7899947238
0.7899947504
0.7899947434
0.7899947054
0.7899946355
0.7899945384
0.78999443
0.7899943419
0.7899943243
0.7899944139
0.7899946067
0.7899948725
0.789995135
0.7899952801
0.7899952767
0.7899932989
0.789993348
0.7899934356
0.789993501
0.7899936078
0.7899938091
0.7899940908
0.7899943828
0.7899946203
0.7899947635
0.7899948171
0.7899948293
0.7899948285
0.7899948149
0.7899947879
0.7899947386
0.7899946632
0.7899945653
0.7899944718
0.7899944355
0.7899945045
0.7899946777
0.7899949255
0.7899951767
0.7899953298
0.789995353
0.789993797
0.7899938026
0.7899938312
0.7899938794
0.7899940023
0.7899942075
0.7899944381
0.7899946467
0.7899948052
0.789994878
0.7899948705
0.7899948487
0.7899948476
0.7899948586
0.7899948655
0.7899948564
0.7899948252
0.7899947571
0.7899946734
0.7899946261
0.7899946689
0.7899948055
0.7899950089
0.7899952298
0.7899953855
0.7899954348
0.789994198
0.7899941395
0.7899940879
0.7899941038
0.7899942204
0.7899944072
0.7899945982
0.7899947697
0.789994897
0.7899949295
0.7899948753
0.7899948363
0.7899948583
0.7899949157
0.7899949616
0.789994992
0.7899950086
0.7899949793
0.7899949227
0.7899948887
0.7899949216
0.7899950381
0.7899951946
0.7899953527
0.7899954661
0.7899955192
0.7899944089
0.789994296
0.7899942121
0.7899942221
0.7899943407
0.789994516
0.7899946908
0.7899948494
0.7899949529
0.7899949387
0.7899948373
0.7899948062
0.7899948637
0.7899949896
0.7899950746
0.7899951398
0.7899951905
0.7899951931
0.7899951693
0.7899951669
0.7899952212
0.7899953527
0.7899954865
0.789995569
0.7899956019
0.7899956115
0.7899944909
0.7899943534
0.7899942921
0.7899943333
0.7899944649
0.7899946316
0.7899947944
0.7899949337
0.7899949842
0.7899948986
0.7899947539
0.7899947346
0.7899948467
0.7899950839
0.7899952119
0.7899953062
0.7899953659
0.7899953781
0.7899953745
0.7899954003
0.7899954836
0.7899956602
0.7899958255
0.7899958714
0.7899958043
0.7899957316
0.7899945217
0.7899943884
0.7899943856
0.7899944786
0.7899946264
0.7899947856
0.7899949307
0.7899950377
0.789995005
0.7899948492
0.7899946648
0.789994674
0.7899948778
0.7899952227
0.7899953867
0.789995506
0.7899955498
0.7899955429
0.7899955282
0.789995554
0.7899956562
0.789995893
0.7899961201
0.7899961775
0.7899960535
0.7899958987
0.7899945346
0.7899944271
0.7899944926
0.7899946413
0.7899948074
0.7899949678
0.7899950962
0.7899951602
0.7899950668
0.7899948825
0.7899947012
0.7899947708
0.7899950496
0.7899954054
0.7899955846
0.789995744
0.7899957608
0.7899957126
0.7899956441
0.7899956266
0.7899957719
0.789996089
0.7899963454
0.78999641
0.7899962867
0.7899960733
0.7899945346
0.7899944608
0.789994592
0.7899947881
0.7899949919
0.7899951588
0.7899952692
0.7899953015
0.7899951942
0.7899950348
0.7899949049
0.7899950353
0.7899953323
0.7899956112
0.7899957845
0.7899959912
0.7899959973
0.7899959017
0.7899957453
0.7899956796
0.7899959655
0.7899963598
0.789996558
0.7899965571
0.7899964647
0.7899962276
0.7899945122
0.7899944708
0.7899946567
0.7899949026
0.7899951403
0.7899953172
0.7899954208
0.7899954457
0.7899953637
0.7899952289
0.7899951287
0.7899952725
0.7899955939
0.7899958281
0.7899959998
0.7899962081
0.789996219
0.7899960874
0.7899958576
0.7899957944
0.7899962318
0.7899966499
0.789996808
0.7899966233
0.7899965718
0.7899963399
0.7899944513
0.7899944385
0.7899946564
0.78999494
0.7899952018
0.7899953863
0.789995485
0.7899955187
0.7899954938
0.7899954059
0.789995334
0.7899954446
0.7899957203
0.7899959751
0.7899962049
0.7899963802
0.789996394
0.7899962594
0.789995998
0.789995892
0.7899962524
0.7899966813
0.7899969724
0.7899966457
0.7899966121
0.7899963977
0.7899943355
0.7899943564
0.7899945821
0.7899948772
0.789995143
0.7899953254
0.7899954259
0.7899954804
0.789995499
0.7899954673
0.7899954204
0.7899954561
0.789995638
0.7899959623
0.7899962869
0.7899964855
0.7899964898
0.7899964229
0.7899960757
0.789995835
0.7899959981
0.7899964486
0.7899968236
0.7899965622
0.7899965912
0.789996386
0.7899941682
0.7899942447
0.7899944509
0.7899947198
0.7899949598
0.7899951307
0.7899952537
0.7899953568
0.7899954299
0.7899954638
0.7899954924
0.7899955768
0.789995753
0.7899960284
0.7899963211
0.78999655
0.7899965348
0.7899965709
0.7899961778
0.7899958286
0.7899957432
0.7899958358
0.7899960898
0.7899962881
0.789996493
0.7899963207
0.7899940208
0.7899941735
0.7899943248
0.7899945111
0.7899947146
0.7899949096
0.7899950632
0.7899951723
0.7899952672
0.7899953502
0.7899954346
0.7899955419
0.7899956894
0.7899958901
0.7899961295
0.7899963077
0.7899959255
0.7899966607
0.7899962464
0.78999588
0.7899956753
0.7899955875
0.7899957602
0.7899960727
0.7899964037
0.7899962237
0.7899939883
0.7899941361
0.7899941342
0.7899942425
0.7899944556
0.7899946666
0.7899948297
0.7899949438
0.7899950478
0.7899951278
0.7899952233
0.7899953567
0.7899955476
0.7899958094
0.7899961588
0.7899965241
0.7899967292
0.7899967752
0.789996482
0.7899960607
0.7899958731
0.7899959218
0.7899956498
0.7899959249
0.789996331
0.7899961306
0.789994085
0.7899940477
0.7899938719
0.7899939924
0.7899942069
0.7899944055
0.789994559
0.7899947355
0.789994919
0.7899950187
0.7899951006
0.7899951959
0.789995362
0.7899956155
0.7899959635
0.789996343
0.7899965914
0.7899967504
0.7899965944
0.789996331
0.7899965096
0.7899964851
0.7899959333
0.7899959706
0.7899963257
0.7899959133
0.7899942826
0.7899941365
0.7899939138
0.7899940038
0.7899942595
0.7899944974
0.789994618
0.7899946537
0.7899947614
0.7899949046
0.7899950488
0.7899951319
0.7899951747
0.7899953808
0.7899957056
0.7899961232
0.7899964625
0.7899966187
0.7899965039
0.7899962478
0.7899962474
0.7899962056
0.7899958254
0.7899960731
0.7899962621
0.7899955952
0.7899944549
0.7899943693
0.7899941297
0.7899941621
0.7899943871
0.7899947101
0.7899949091
0.789994865
0.789994647
0.7899947299
0.7899949645
0.7899951493
0.7899951415
0.789995074
0.7899952998
0.7899956825
0.7899960863
0.7899963029
0.7899962455
0.7899959458
0.7899956958
0.7899955083
0.7899955784
0.7899959511
0.7899959325
0.789995108
0.7899944643
0.7899944969
0.7899943127
0.789994146
0.7899941996
0.7899945012
0.7899949641
0.7899951808
0.7899949341
0.7899947921
0.7899950793
0.7899952336
0.7899952606
0.7899951443
0.7899949615
0.7899951991
0.7899955418
0.7899958068
0.7899958557
0.7899956415
0.7899953944
0.7899951843
0.7899953012
0.7899955817
0.7899953688
0.7899945957
0.7899945363
0.7899946794
0.7899945833
0.7899945314
0.7899945579
0.7899945942
0.7899945396
0.7899946039
0.7899948479
0.7899952149
0.7899955083
0.78999547
0.789995422
0.7899952557
0.7899951167
0.7899949342
0.7899950895
0.7899953301
0.7899954611
0.7899953837
0.7899952178
0.7899949964
0.7899950044
0.7899951746
0.7899949338
0.7899943244
0.7899945823
0.7899948242
0.7899946547
0.7899944584
0.789994348
0.7899944461
0.7899946429
0.7899949682
0.7899954745
0.7899961265
0.789996455
0.7899961775
0.7899957289
0.7899954016
0.7899951456
0.7899949703
0.7899948605
0.7899949792
0.7899951354
0.7899951644
0.7899950595
0.7899948134
0.7899947182
0.7899947605
0.7899945424
0.7899941478
0.7899947184
0.7899949604
0.7899947856
0.789994615
0.7899945186
0.78999469
0.7899950168
0.789995449
0.7899961202
0.7899967735
0.7899971126
0.7899969076
0.7899963768
0.7899958146
0.7899952955
0.7899949191
0.7899948017
0.7899947805
0.7899948899
0.7899949714
0.7899948995
0.7899946284
0.7899944435
0.7899943717
0.7899941284
0.7899953163
0.7899952207
0.7899948841
0.7899947368
0.789994601
0.7899947611
0.789995087
0.7899955585
0.7899961939
0.7899970097
0.7899974585
0.789997327
0.7899968579
0.789996299
0.7899956798
0.7899950816
0.7899947366
0.7899946657
0.7899947135
0.7899947936
0.7899947077
0.7899943927
0.7899941851
0.7899939484
0.7899939366
0.7899959941
0.7899952703
0.7899955302
0.789995434
0.7899951884
0.789995204
0.7899954006
0.7899957652
0.7899962488
0.7899967621
0.7899970986
0.7899969964
0.7899965157
0.7899959949
0.7899955292
0.7899951111
0.7899947325
0.789994595
0.7899945666
0.7899946291
0.7899944711
0.7899940159
0.7899938185
0.7899937632
0.789993799
0.7899954709
0.7899956823
0.7899955775
0.7899955087
0.789995404
0.7899953505
0.7899955063
0.7899958297
0.7899962887
0.7899967258
0.7899969976
0.7899968342
0.7899963168
0.7899958195
0.7899954207
0.7899950376
0.7899946966
0.7899945046
0.7899942707
0.7899944295
0.78999427
0.7899937773
0.7899935632
0.789993601
0.7899937653
0.7899958775
0.7899959839
0.7899958464
0.7899958549
0.7899958165
0.7899957631
0.7899956654
0.7899956756
0.7899958608
0.7899961183
0.7899963625
0.7899962566
0.7899958589
0.789995497
0.7899951762
0.7899944635
0.7899944819
0.7899944496
0.7899942399
0.7899942848
0.7899938463
0.7899936686
0.7899933445
0.7899933794
0.78999349
0.7899934515
0.7899960556
0.7899960055
0.7899959481
0.7899959725
0.7899960111
0.7899960453
0.7899960196
0.7899959135
0.7899957608
0.7899957694
0.7899958717
0.789995817
0.7899955514
0.7899952196
0.7899949268
0.7899946462
0.7899945616
0.7899944228
0.7899942989
0.7899940497
0.7899937264
0.789993517
0.7899932626
0.7899931602
0.7899931486
0.7899931414
0.7899931548
0.7899931243
0.7899930782
0.7899930013
0.7899929338
0.7899929819
0.7899931663
0.7899933719
0.7899935182
0.7899936007
0.7899936335
0.7899936279
0.7899935924
0.7899935624
0.7899935988
0.7899937443
0.7899939495
0.7899941
0.7899941573
0.7899941715
0.7899941972
0.7899942618
0.7899943778
0.7899945497
0.7899947569
0.7899949157
0.7899930907
0.789993072
0.7899930403
0.7899929895
0.7899929485
0.7899929837
0.7899931122
0.7899932805
0.7899934427
0.789993583
0.7899936931
0.7899937713
0.7899938248
0.7899938617
0.7899938977
0.7899939414
0.7899939845
0.7899940059
0.789994003
0.7899940125
0.7899940749
0.7899942033
0.7899943973
0.7899946429
0.7899948754
0.7899949738
0.7899929805
0.7899929956
0.7899929906
0.7899929637
0.7899929397
0.7899929787
0.7899931055
0.789993299
0.7899935279
0.7899937501
0.7899939291
0.7899940577
0.7899941446
0.7899941972
0.7899942177
0.7899942036
0.7899941541
0.7899940794
0.7899940156
0.7899940172
0.7899941061
0.78999427
0.7899944996
0.7899947671
0.7899949784
0.7899950284
0.7899929081
0.7899929616
0.7899930038
0.7899930101
0.7899930091
0.789993069
0.7899932462
0.7899935219
0.7899938184
0.789994062
0.7899942265
0.7899943326
0.7899944001
0.7899944312
0.7899944245
0.7899943758
0.789994286
0.789994167
0.7899940641
0.7899940536
0.7899941587
0.7899943472
0.7899945969
0.7899948652
0.7899950531
0.789995095
0.7899930841
0.7899930995
0.7899931663
0.7899931982
0.7899932383
0.7899933618
0.7899936066
0.7899939095
0.7899941743
0.7899943495
0.7899944433
0.789994499
0.7899945374
0.7899945505
0.7899945343
0.7899944823
0.7899943958
0.7899942773
0.7899941588
0.789994124
0.7899942248
0.7899944219
0.7899946753
0.789994932
0.7899951046
0.7899951584
0.7899935014
0.7899934297
0.7899934409
0.7899934643
0.7899935403
0.7899937237
0.789993991
0.7899942502
0.7899944363
0.7899945288
0.7899945477
0.7899945575
0.7899945842
0.7899946044
0.7899946077
0.7899945825
0.7899945336
0.7899944527
0.7899943527
0.7899942964
0.7899943591
0.7899945253
0.7899947503
0.7899949789
0.7899951427
0.7899952196
0.7899939305
0.7899937917
0.789993702
0.7899936843
0.7899937723
0.7899939791
0.789994233
0.7899944464
0.7899945832
0.7899946285
0.7899945939
0.7899945611
0.7899945899
0.7899946447
0.7899946939
0.7899947128
0.7899947167
0.7899946893
0.7899946378
0.7899946058
0.7899946524
0.7899947621
0.7899949147
0.789995064
0.7899951883
0.789995274
0.7899942176
0.7899940311
0.7899938812
0.7899938287
0.7899939197
0.7899941334
0.789994374
0.7899945641
0.7899946809
0.7899947072
0.7899946414
0.7899945624
0.7899945936
0.7899947118
0.7899948207
0.7899948845
0.7899949322
0.7899949455
0.7899949368
0.7899949498
0.7899950276
0.7899951481
0.7899952388
0.7899952842
0.7899952839
0.7899953251
0.7899943373
0.7899941446
0.789994003
0.7899939574
0.7899940657
0.7899942844
0.7899945122
0.7899946835
0.7899947823
0.7899947936
0.7899946999
0.7899945831
0.7899946171
0.7899948199
0.7899949919
0.7899951
0.7899951678
0.789995195
0.7899952031
0.7899952461
0.789995379
0.7899955818
0.7899956907
0.7899956477
0.7899954931
0.789995397
0.7899943751
0.7899942019
0.789994124
0.7899941433
0.7899942961
0.7899945132
0.7899947113
0.7899948493
0.7899949159
0.7899948983
0.7899947621
0.7899946061
0.789994659
0.7899949535
0.7899951916
0.7899953522
0.7899954265
0.7899954425
0.7899954356
0.7899954814
0.7899956598
0.7899959474
0.7899961092
0.7899960702
0.7899957919
0.7899955308
0.7899943857
0.789994252
0.7899942704
0.7899943965
0.7899946107
0.7899948203
0.7899949777
0.789995072
0.7899950951
0.7899950348
0.7899948378
0.7899947053
0.7899948289
0.789995145
0.7899954309
0.7899956463
0.7899957218
0.7899957135
0.7899956678
0.7899957002
0.7899959336
0.7899962749
0.7899964471
0.7899964158
0.7899961233
0.7899957478
0.7899943848
0.7899943018
0.7899944234
0.7899946559
0.7899949079
0.7899951247
0.7899952709
0.7899953399
0.7899953274
0.7899952181
0.7899950002
0.7899949372
0.7899951239
0.7899954055
0.7899957094
0.7899959556
0.7899960377
0.7899960099
0.7899959302
0.7899959626
0.7899962675
0.7899966257
0.7899967722
0.7899966641
0.7899963969
0.7899959649
0.7899943688
0.7899943354
0.7899945376
0.7899948428
0.7899951495
0.7899953905
0.7899955435
0.7899956064
0.7899955769
0.7899954388
0.7899952147
0.7899952005
0.7899954928
0.7899957636
0.7899960175
0.7899962206
0.7899963169
0.7899962851
0.7899961754
0.7899962123
0.7899965849
0.78999697
0.7899970974
0.7899968362
0.7899965902
0.7899961541
0.7899943274
0.7899943307
0.7899945731
0.7899949259
0.7899952737
0.7899955392
0.7899957052
0.7899957767
0.7899957563
0.7899956294
0.7899954258
0.7899953667
0.7899956018
0.7899959349
0.7899962536
0.7899964233
0.7899965043
0.7899965108
0.7899963413
0.7899963089
0.7899966639
0.7899971086
0.7899972778
0.7899969389
0.7899967061
0.7899962845
0.7899942498
0.7899942771
0.7899945123
0.7899948669
0.7899952284
0.7899955074
0.7899956878
0.789995784
0.7899958025
0.7899957198
0.7899955136
0.789995305
0.7899954189
0.7899958602
0.7899962917
0.7899965262
0.7899964992
0.7899966911
0.7899964172
0.7899962532
0.7899964408
0.7899968904
0.7899971292
0.7899968972
0.7899967367
0.7899963296
0.7899941346
0.7899941886
0.78999438
0.7899946778
0.7899950095
0.7899952777
0.7899954601
0.7899955752
0.7899956394
0.7899956252
0.789995498
0.7899953199
0.789995402
0.7899958098
0.7899962649
0.7899966207
0.7899964448
0.789996893
0.7899965013
0.789996126
0.7899958976
0.7899961411
0.7899966029
0.7899966449
0.7899966635
0.7899962887
0.789994004
0.7899941001
0.7899942355
0.7899944509
0.7899947001
0.789994918
0.7899950732
0.7899951843
0.789995262
0.7899952901
0.7899952532
0.7899951841
0.7899952543
0.7899955571
0.7899958677
0.7899961142
0.7899945323
0.7899970633
0.789996396
0.7899962571
0.7899958441
0.7899958055
0.7899960663
0.7899964372
0.7899966051
0.7899962099
0.7899939113
0.7899940407
0.7899941168
0.7899942611
0.789994439
0.7899946164
0.7899947605
0.7899948535
0.7899949222
0.7899949704
0.7899949963
0.789995023
0.7899951534
0.7899955216
0.7899960469
0.7899966013
0.7899968825
0.7899970904
0.7899969298
0.7899966529
0.7899965116
0.7899965424
0.7899960985
0.7899963301
0.7899965469
0.7899961104
0.7899939359
0.7899940154
0.7899940244
0.7899941417
0.7899943048
0.7899944583
0.7899945598
0.7899946373
0.7899947143
0.789994776
0.7899948217
0.7899948679
0.7899949791
0.7899952731
0.7899957591
0.7899962918
0.7899966084
0.7899970688
0.7899970657
0.7899970207
0.7899971259
0.7899969957
0.7899965199
0.7899964467
0.7899964797
0.7899958087
0.7899941276
0.789994124
0.7899940532
0.7899941546
0.7899942987
0.7899945064
0.7899946459
0.789994622
0.7899945737
0.7899946362
0.7899947101
0.7899947686
0.7899948324
0.7899950387
0.7899954762
0.7899960578
0.7899965388
0.7899968714
0.789996935
0.7899968935
0.7899969675
0.7899968491
0.7899963997
0.7899964568
0.7899963144
0.7899955049
0.7899943674
0.7899943646
0.7899942059
0.7899942206
0.7899944261
0.7899949153
0.7899951803
0.7899950182
0.7899946077
0.7899944651
0.7899945803
0.7899947015
0.7899947279
0.7899947557
0.7899950295
0.7899955458
0.7899960753
0.7899964304
0.78999652
0.789996398
0.7899962782
0.7899960983
0.7899960132
0.7899961951
0.7899958095
0.789994831
0.7899944832
0.789994505
0.7899943601
0.7899942068
0.7899941857
0.7899946868
0.7899953562
0.7899954806
0.7899950999
0.7899943082
0.7899944412
0.7899945963
0.7899947342
0.7899946988
0.7899946728
0.7899949545
0.7899953889
0.7899957502
0.7899959246
0.7899958545
0.7899956778
0.7899954997
0.7899955581
0.7899956081
0.7899949997
0.7899941456
0.7899945932
0.7899945796
0.7899944621
0.7899943141
0.7899942149
0.7899942754
0.7899944842
0.7899946696
0.7899946643
0.7899945968
0.7899947937
0.7899947081
0.7899946793
0.7899946852
0.7899946792
0.7899946346
0.789994876
0.7899951794
0.7899953859
0.7899953957
0.7899952569
0.7899950741
0.7899951364
0.7899951005
0.7899945228
0.7899938266
0.7899946643
0.7899946167
0.7899945184
0.7899943678
0.7899942077
0.7899941908
0.7899943149
0.7899945739
0.7899950726
0.7899958718
0.7899961638
0.7899957135
0.7899950435
0.7899947213
0.7899946365
0.7899945413
0.789994582
0.7899947734
0.7899949765
0.7899950451
0.7899949633
0.7899947654
0.7899947346
0.7899946224
0.7899941666
0.7899936667
0.7899947122
0.7899945964
0.7899946464
0.7899944232
0.7899942152
0.7899942064
0.7899944405
0.7899949812
0.7899958453
0.7899966503
0.7899969607
0.789996661
0.7899960592
0.7899954028
0.7899947818
0.7899944044
0.7899944339
0.7899945241
0.7899946851
0.7899947768
0.7899947208
0.7899944861
0.7899943162
0.7899941439
0.7899938416
0.7899950012
0.7899948902
0.7899950302
0.7899946135
0.7899943491
0.7899942279
0.7899944226
0.7899948845
0.7899957028
0.7899969068
0.7899973943
0.7899971849
0.7899966396
0.7899959329
0.7899951403
0.789994408
0.7899943073
0.7899943609
0.7899944735
0.7899945565
0.7899944792
0.7899941691
0.7899941218
0.7899937314
0.789993751
0.7899955579
0.7899949875
0.7899953034
0.7899950899
0.7899947993
0.78999467
0.7899948211
0.7899952199
0.7899959122
0.7899966503
0.7899970679
0.7899969059
0.7899962709
0.7899954561
0.7899948756
0.7899944307
0.7899941877
0.7899942315
0.7899942799
0.7899943554
0.7899942243
0.7899937766
0.789993734
0.7899935991
0.7899936091
0.7899957411
0.7899955034
0.7899953959
0.7899952538
0.7899951309
0.7899950435
0.7899951166
0.7899954545
0.7899961123
0.7899966852
0.7899969785
0.7899967298
0.789995974
0.7899951347
0.7899946534
0.7899942401
0.7899940782
0.7899940822
0.7899938933
0.789994121
0.7899939521
0.7899934812
0.7899933633