/*--------------------------------*- C++ -*----------------------------------*\
  =========                 |
  \\      /  F ield         | OpenFOAM: The Open Source CFD Toolbox
   \\    /   O peration     | Website:  https://openfoam.org
    \\  /    A nd           | Version:  8
     \\/     M anipulation  |
\*---------------------------------------------------------------------------*/
FoamFile
{
    version     2.0;
    format      ascii;
    class       volScalarField;
    location    "0.6";
    object      nut;
}
// * * * * * * * * * * * * * * * * * * * * * * * * * * * * * * * * * * * * * //

dimensions      [0 2 -1 0 0 0 0];

internalField   nonuniform List<scalar> 
67410
(
4.805174643e-07
8.560309309e-07
2.722931016e-06
1.359961209e-05
5.076682725e-05
0.000120996802
0.0002026031603
0.0002718858431
0.0001253712999
8.107438247e-05
8.474669606e-05
8.761087517e-05
9.012949365e-05
9.316440273e-05
9.762492552e-05
0.0001033925931
0.0001091346809
0.0001137179713
0.000116974025
0.0001191500732
0.0001204504744
0.0001209643009
0.0001207409068
0.0001198442327
0.0001182770576
0.000116439262
4.084641813e-06
7.145407452e-06
1.272946792e-05
2.564560526e-05
6.372025283e-05
0.0001386741617
0.0002332031734
7.601028545e-05
8.502116263e-05
9.263285572e-05
9.835408621e-05
0.0001022449052
0.0001044629876
0.0001055224006
0.0001062546288
0.0001073043891
0.0001090795085
0.0001113915842
0.0001138889446
0.0001163039987
0.0001184816168
0.000120364161
0.0001220426586
0.0001236937675
0.0001252531815
0.0001274559263
3.038737129e-05
4.785196012e-05
7.147681795e-05
9.823988251e-05
0.000140543256
0.0002115691864
0.0003084253601
8.584391948e-05
9.590625114e-05
0.0001038652307
0.0001096567526
0.00011317243
0.0001145622248
0.0001142911297
0.0001130772341
0.0001110774269
0.0001092551181
0.0001083539112
0.0001087068441
0.00011012666
0.0001123372269
0.0001152815436
0.000119102867
0.0001237626789
0.0001285643241
0.0001345524752
0.0001228496275
0.0001748464316
0.0002292271153
0.0002834593004
7.83720972e-05
8.585880969e-05
9.408595795e-05
0.0001019093111
0.000108577584
0.0001144599779
0.0001190737376
0.0001218075245
0.0001223881717
0.000121376955
0.0001199153735
0.0001168176165
0.0001129105866
0.0001092322179
0.0001070778974
0.0001068106308
0.0001082259394
0.00011134684
0.0001163036982
0.0001228611587
0.0001296909713
0.0001373551709
0.000120405854
8.351193958e-05
9.120819698e-05
9.805190703e-05
0.0001044150676
0.0001100040843
0.0001142887269
0.0001172639288
0.0001202333963
0.0001241342403
0.0001280038064
0.0001301879046
0.0001295036333
0.0001271849748
0.0001263904567
0.0001235412269
0.0001191277071
0.000113715252
0.000109520141
0.0001076864426
0.0001079758264
0.0001102645491
0.0001145174688
0.0001211287614
0.0001284638235
0.000134838976
9.389027261e-05
0.0001053063998
0.0001114254334
0.0001168343161
0.0001217455394
0.0001255809709
0.0001277232862
0.0001286493094
0.0001306048535
0.0001348087149
0.0001393784844
0.0001411707028
0.0001379986528
0.0001324095443
0.0001322226686
0.0001300967998
0.0001263071294
0.0001200850448
0.0001145102561
0.0001118345107
0.0001116408202
0.0001129661539
0.0001147777621
0.0001199027398
0.0001270051831
0.0001330437455
0.0001081733608
0.0001194169548
0.0001236376817
0.0001276099875
0.0001315092804
0.0001346344234
0.0001363500278
0.0001378367742
0.0001420127532
0.0001490723203
0.0001551734547
0.0001559790831
0.000149259751
0.0001383566083
0.0001376841244
0.0001359410656
0.0001334663282
0.0001271778246
0.0001209552814
0.000118686549
0.0001198055341
0.0001210712042
0.0001179466267
0.0001206489763
0.0001265171871
0.0001313101972
0.0001164679424
0.0001276434413
0.00013075037
0.0001339352054
0.0001374398165
0.0001405802611
0.0001431672219
0.0001476242478
0.0001565511786
0.0001672667208
0.0001739401886
0.0001729954346
0.0001633356357
0.0001467776499
0.0001434948287
0.0001410304518
0.0001400159779
0.0001343064243
0.0001286213518
0.0001290617733
0.0001345398126
0.0001374211365
0.0001249289908
0.0001243625584
0.0001282676781
0.0001308229273
0.000121195751
0.0001326289047
0.0001352705031
0.0001381562564
0.0001416692399
0.0001453400313
0.0001500663419
0.0001594236982
0.0001736907713
0.0001869181137
0.0001931605944
0.0001913071653
0.0001803265228
0.0001597008429
0.0001507512086
0.0001457818451
0.0001456224447
0.0001411002624
0.0001381701549
0.0001451647135
0.0001580351492
0.0001635916121
0.0001364584956
0.0001314433196
0.0001321233342
0.00013280375
0.0001239080136
0.0001359805381
0.0001386156744
0.0001414990031
0.0001452361282
0.0001497825452
0.0001575874138
0.0001723299561
0.000190822521
0.0002054310572
0.0002116205697
0.0002099995506
0.0001993039513
0.000177393878
0.000160776705
0.0001508013243
0.0001502427396
0.0001476427763
0.0001509379953
0.0001686552542
0.0001896823967
0.0001981004112
0.0001541216274
0.0001418734209
0.0001374194814
0.0001363126733
0.0001254270831
0.0001384950962
0.0001414708728
0.0001445382468
0.0001485654446
0.0001539115573
0.000164614013
0.0001836063918
0.000204978951
0.0002204549619
0.0002273763593
0.0002273603564
0.000217321514
0.0001961509224
0.0001738626015
0.0001557567877
0.0001541506327
0.0001544591463
0.0001675595882
0.0001976454782
0.000225949843
0.0002381686793
0.000180931185
0.00015724598
0.0001445804296
0.0001403358663
0.0001260935308
0.0001404392426
0.0001440896589
0.0001476257544
0.0001516742563
0.0001568939857
0.0001684413505
0.0001893382236
0.0002123964222
0.0002289488654
0.0002377721778
0.0002399966522
0.0002304227762
0.000211124245
0.0001845957728
0.0001603487791
0.0001579074225
0.0001617482118
0.0001859934311
0.0002267879462
0.0002630063801
0.0002792881531
0.0002191643815
0.0001799854592
0.0001543976137
0.0001445168017
0.0001259099713
0.0001417213607
0.0001463581235
0.0001504433554
0.00015419073
0.000157713063
0.0001653385872
0.0001833650268
0.0002072275396
0.0002269018808
0.0002388159428
0.0002429494882
0.0002348833179
0.0002175362257
0.0001841097353
0.0001621301301
0.0001619013668
0.000167655422
0.0002000024258
0.0002489007263
0.0002928970506
0.0003106360475
0.000261838204
0.0002071036648
0.0001658654803
0.0001483160317
0.000124662758
0.0001421107265
0.0001478902997
0.0001525224737
0.0001558514805
0.0001568505513
0.0001557121735
0.0001579371326
0.0001696093066
0.0001901638847
0.0002084563547
0.0002192772604
0.0002191983109
0.0002013319988
0.0001730154303
0.0001650281262
0.0001653014913
0.0001668224559
0.0001938038467
0.0002471742061
0.0003012655275
0.0003229523769
0.0002827447066
0.0002171516623
0.0001674528166
0.0001482495351
0.0001225499297
0.00014240375
0.0001497904099
0.0001545114528
0.0001567732846
0.0001557403751
0.0001535030985
0.0001535442151
0.0001581816222
0.0001680212332
0.0001796530841
0.0001856876878
0.0001810666916
0.0001697247082
0.0001669699831
0.0001668907981
0.0001677903449
0.000165254156
0.0001555391368
0.0001601895235
0.0002065521236
0.0002590411746
0.0002405710989
0.0001655143704
0.0001480982286
0.000142946307
0.0001223566773
0.0001467211605
0.0001570737025
0.000162595252
0.0001630447335
0.0001583019927
0.0001515938358
0.0001480852217
0.0001484990777
0.0001520999538
0.0001577346743
0.0001608644582
0.0001597242926
0.0001591563681
0.0001631624451
0.0001663005059
0.0001678966498
0.0001662685479
0.0001577995202
0.0001468523808
0.0001581268768
0.0001808291619
0.0001517696609
0.0001432642976
0.0001430801115
0.0001394915166
0.0001299537205
0.0001600453023
0.0001734957115
0.0001806012128
0.0001813687078
0.0001748060478
0.0001621273684
0.0001498998524
0.0001432469062
0.0001414771918
0.0001431688404
0.0001467393863
0.0001498157378
0.0001535663826
0.0001585380411
0.0001630012351
0.0001660510308
0.0001657267573
0.0001614733913
0.0001547540266
0.0001757017054
0.0002014796161
0.0001414243203
0.0001385982162
0.0001394533388
0.000135817465
0.0001443161426
0.0001772946691
0.0001910909537
0.0001990065857
0.0002017629238
0.0001986215955
0.0001880617812
0.0001693671725
0.0001520099372
0.0001430315792
0.0001377149292
0.0001362113661
0.000139124954
0.0001439584057
0.0001493516185
0.0001551727101
0.0001602828713
0.0001635215616
0.0001652046436
0.0001749364685
0.0002160908234
0.0002496918434
0.00016231047
0.0001408100866
0.0001364603654
0.0001330938923
0.0001567673631
0.0001897310416
0.0002019711164
0.0002097368587
0.0002137667189
0.0002140662469
0.0002089106599
0.000190806506
0.0001662144581
0.0001561968717
0.0001474914167
0.0001363840083
0.0001306157087
0.0001338988766
0.0001392869531
0.0001456477605
0.0001531677623
0.0001644959005
0.0001884429772
0.0002267956398
0.0002653075053
0.0002781829604
0.0002351909969
0.0001909513248
0.0001473612384
0.0001276734896
0.0001624023533
0.0001950992607
0.0002056784397
0.0002129115442
0.0002197909201
0.000225429888
0.0002232326384
0.0002044415531
0.000174814522
0.0001675957073
0.0001636304398
0.0001522446363
0.0001333511146
0.0001245298864
0.0001296263373
0.0001361089377
0.0001435585789
0.0001525593449
0.0001669817463
0.0001946367417
0.0002329542485
0.0002546875858
0.0001840332611
0.000146956286
0.0001260690042
0.0001223722222
0.0001582063723
0.0001925967198
0.0002052697216
0.0002137758492
0.0002240928386
0.0002328424003
0.0002308978479
0.0002122441163
0.0001796291568
0.0001739183148
0.0001732900424
0.0001687853579
0.0001537150615
0.0001303260109
0.0001204328519
0.0001267351135
0.0001339600437
0.0001419825136
0.0001518913402
0.0001664532759
0.00019334742
0.0002124875746
0.0001483009752
0.000128731346
0.0001167459285
0.0001129244496
0.0001505628383
0.0001771373946
0.0001932238152
0.0002044334232
0.0002105752085
0.0002134662019
0.0002099141054
0.0002000516543
0.0001846274415
0.0001793596247
0.0001784229543
0.000175476231
0.0001677066775
0.0001542475069
0.0001196293357
0.0001177041488
0.0001242474994
0.000131676394
0.0001408260483
0.0001486267932
0.0001619727706
0.0001751495722
0.0001280636222
0.0001184511087
0.000109439955
0.0001056597691
0.0001655096025
0.0001671408729
0.0001748655995
0.000179999497
0.000180929949
0.0001786587746
0.0001784457864
0.0001814097682
0.0001844285216
0.000187667194
0.0001863125785
0.0001803123979
0.0001721013789
0.0001628416131
0.0001501178635
0.0001264509794
0.0001171349327
0.0001225521385
0.0001317019725
0.0001380384394
0.0001409497507
0.0001448196305
0.0001171145741
0.0001119895564
0.0001044240671
0.0001008286478
0.0001963508418
0.0001704507695
0.000167407794
0.0001711530779
0.0001735647131
0.0001755996498
0.0001786730655
0.0001837382118
0.0001907217374
0.0001965540418
0.0001939593457
0.0001848507363
0.0001738370206
0.000163968601
0.0001548952117
0.0001426182466
0.000124930918
0.0001186473935
0.00012397828
0.0001303764391
0.0001290468142
0.0001245697133
0.0001109368659
0.0001078665203
0.0001016002355
9.882334734e-05
0.0002291439931
0.0002012807143
0.00016545598
0.0001661781488
0.0001702018684
0.000174198423
0.0001792745797
0.0001858234609
0.0001924784774
0.0001940106872
0.0001885809636
0.0001787081938
0.0001699182566
0.0001599062006
0.0001509739691
0.0001438875913
0.0001322987616
0.0001212881814
0.0001196387066
0.0001241624838
0.0001222670158
0.0001131914809
0.0001053761965
0.0001048114234
0.0001000202693
0.0002592405689
0.0002619824899
0.0001780019894
0.0001588088672
0.0001598885835
0.0001620221611
0.0001659160255
0.0001715586764
0.0001788951557
0.0001845192326
0.0001762505153
0.0001616494051
0.0001536513311
0.0001440875358
0.0001347717187
0.0001290449297
0.0001257174547
0.0001200423936
0.0001167290141
0.0001189093866
0.0001156148374
0.0001025755418
9.209619804e-05
9.953650069e-05
9.543447083e-05
0.0002908320444
0.0003203712649
0.0002780204263
0.0001839565631
0.0001572206451
0.0001589337583
0.0001612079959
0.0001652703447
0.0001700618491
0.0001731141307
0.0001692421463
0.0001618883701
0.0001574218258
0.0001489742624
0.0001396556433
0.0001324349711
0.0001275675442
0.000121349041
0.0001155690262
0.0001146003592
0.0001091833285
9.101869806e-05
7.798671361e-05
9.209444265e-05
9.59579972e-05
0.0002345794023
0.0002100436178
0.0001757341731
0.0001576222657
0.0001557639081
0.0001570768964
0.0001587974459
0.000162966707
0.0001688803934
0.0001739153037
0.000175122159
0.0001710625683
0.0001640337399
0.0001541944828
0.0001449783222
0.0001375841609
0.0001314835096
0.0001234774046
0.000113401003
0.0001111241285
0.0001030494982
8.105892524e-05
0.0003002087736
8.335396833e-05
9.110090593e-05
0.0002014054208
0.0001591354977
0.0001526578728
0.0001541387936
0.0001555327109
0.0001557259345
0.0001567491301
0.0001596108814
0.0001633596164
0.0001680948592
0.0001722169155
0.000168704377
0.0001605658309
0.0001527963533
0.000145951272
0.0001319269681
0.0001304440617
0.0001251526263
0.000116119737
0.0001081640709
9.493706435e-05
8.103131812e-05
0.0002681166405
0.000296108576
8.029861446e-05
8.298378459e-05
0.0001618003916
0.000155315287
0.0001615880217
0.0001684393746
0.0001743932601
0.0001766477262
0.0001718762179
0.0001605957849
0.0001575253115
0.0001600111025
0.0001616314798
0.0001585218091
0.0001532315652
0.000148857496
0.0001437997778
0.0001365600716
0.0001315678365
0.0001240941885
0.0001142461109
0.0001023216779
0.0001030108692
0.0001284034067
8.465683755e-05
0.0002288959855
0.0002145765276
0.0002299194273
3.666335472e-07
7.454921786e-07
1.77217452e-06
8.455417968e-06
3.432987702e-05
8.998873097e-05
0.0001619697493
0.0002261910111
0.0002734419006
0.0003084492903
7.762446798e-05
8.042289092e-05
8.320501597e-05
8.657513537e-05
9.149416928e-05
9.801408956e-05
0.0001048255131
0.0001105597865
0.0001149664125
0.0001184271761
0.0001211562708
0.000122972924
0.0001235081715
0.0001224586666
0.0001197445482
0.0001157172103
2.099192473e-06
4.088689296e-06
6.781905562e-06
1.365706106e-05
3.659447892e-05
7.893124842e-05
0.000114199807
0.0001135541867
9.302088796e-05
9.641882826e-05
0.0001020897679
0.0001077622035
0.0001125510354
0.0001162241229
0.0001194855134
0.0001232035234
0.0001281630809
0.0001350584159
0.0001449012189
0.0001581532033
0.0001726467459
0.0001837158232
0.0001876360637
0.0001849134132
0.0001802111659
0.0001783290704
1.587116013e-05
1.567833072e-05
2.335015351e-05
3.278518974e-05
5.161622336e-05
7.959696524e-05
9.984559623e-05
9.142037119e-05
9.493937809e-05
0.0001035348908
0.0001129314185
0.000120647234
0.0001256712306
0.0001279501822
0.000128281736
0.000127531612
0.0001267997783
0.0001276548046
0.0001329068841
0.0001446400709
0.0001603485065
0.0001734503967
0.0001797231612
0.0001821013179
0.0001872640745
0.0001985714923
7.24164132e-05
4.641022934e-05
5.700564481e-05
6.726449444e-05
7.019644763e-05
7.277207497e-05
8.402184865e-05
9.654160415e-05
0.0001071225995
0.0001166054979
0.0001254577935
0.0001324575132
0.0001357695779
0.0001354515161
0.0001329801967
0.0001291192638
0.0001249559646
0.0001218355553
0.0001224967136
0.0001299249068
0.0001438154138
0.0001587642817
0.0001700836846
0.0001798910633
0.000192254724
0.0002092988211
0.0001942284846
7.146160839e-05
7.022471758e-05
7.318542336e-05
8.026362043e-05
9.231803234e-05
0.000106914021
0.0001188352874
0.0001263695345
0.000131894262
0.0001374987336
0.0001426006754
0.0001438920673
0.0001418087277
0.0001389295203
0.0001345766257
0.0001294511624
0.0001245896542
0.0001221729366
0.0001243936549
0.0001327475224
0.0001470781975
0.0001636371996
0.0001808965158
0.0001973308496
0.0002143285945
7.946776162e-05
9.017375817e-05
8.924617571e-05
9.450782913e-05
0.0001064627605
0.0001232296328
0.0001388217697
0.0001479433845
0.0001507338146
0.0001505345144
0.0001505894289
0.0001526995616
0.0001519177949
0.000149530154
0.0001494936435
0.0001466135234
0.0001414211838
0.0001358059172
0.0001323619325
0.0001322947494
0.0001350385202
0.0001447999679
0.0001629737748
0.0001853099599
0.000203549276
0.0002159088426
9.432447286e-05
0.0001103338274
0.0001090500525
0.0001158676045
0.0001332063335
0.0001550806849
0.0001719822791
0.0001796283633
0.0001797005118
0.0001750206376
0.0001677713414
0.000164057873
0.0001594614935
0.0001590166811
0.0001661206064
0.0001659808118
0.0001600426242
0.0001529939279
0.0001494592083
0.0001512244151
0.0001540829612
0.0001577095081
0.0001703120766
0.0001936010979
0.0002149237656
0.0002185237
0.0001034480389
0.0001279520291
0.0001285072744
0.0001395677643
0.0001633592146
0.000189414105
0.0002070157164
0.0002147179321
0.0002156415674
0.000209506767
0.0001899901379
0.0001714230569
0.0001596904165
0.0001662537063
0.0001875469652
0.0001917263708
0.000184273644
0.000173827165
0.0001691702126
0.0001752683341
0.0001881253679
0.0001887717607
0.0001923730473
0.0002077313579
0.0002328970781
0.0002310513515
0.0001087128107
0.0001452619637
0.0001522424785
0.0001699807522
0.0001982361683
0.0002258487631
0.0002440750806
0.0002548908885
0.0002629540294
0.0002563499208
0.0002135954401
0.0001736540757
0.0001535295297
0.0001714636148
0.0002112555789
0.0002217593321
0.0002147030761
0.0001990148036
0.000190345849
0.0001997514272
0.0002280888374
0.0002317721876
0.0002311232214
0.0002365046118
0.0002524547332
0.0002572878197
0.0001120506587
0.0001654151859
0.0001815013025
0.0002035306685
0.0002323731232
0.0002613179072
0.0002825434384
0.0003012020631
0.0003222318879
0.0003062047125
0.0002410406646
0.0001910045486
0.0001638629995
0.0001834178198
0.0002377012666
0.0002579379862
0.0002524439535
0.0002319688717
0.0002159486113
0.0002256944513
0.0002709711844
0.0002826883511
0.0002793339635
0.0002839147606
0.0002794147132
0.0002864286897
0.0001144076865
0.0001872885974
0.0002114084271
0.0002321565514
0.000261240117
0.0002943903886
0.000322028664
0.0003515097379
0.0003773754466
0.0003475133386
0.0002778728987
0.0002367807015
0.0001990417005
0.0002074466792
0.0002637371017
0.0002964867403
0.0002955839489
0.0002751770425
0.000250848218
0.0002634542425
0.0003435359441
0.0003669158858
0.0003395856327
0.0003408645325
0.000314375581
0.0003065875926
0.000115900441
0.0002069575091
0.0002380625952
0.0002597872563
0.0002911125149
0.000327841075
0.0003610577595
0.0003956665867
0.0004125167324
0.0003749676848
0.0003161648373
0.0002868966645
0.0002446141401
0.0002430486008
0.0002885329342
0.000329792048
0.0003360784688
0.0003237081117
0.0002953459903
0.0003245695363
0.0004690565152
0.000497552344
0.0004373583356
0.0003967787349
0.000348830007
0.0003258637772
0.0001161594215
0.0002199904392
0.0002606360023
0.0002874375064
0.0003198132881
0.0003567887161
0.0003945617042
0.0004221704342
0.0004273892375
0.0003920865679
0.0003384434641
0.0003131279064
0.0002838364572
0.0002789079129
0.0003103926189
0.0003533724415
0.0003662334424
0.0003618215251
0.0003355931623
0.0003934472883
0.0005859850585
0.000625060833
0.0005667225818
0.0004535436957
0.0003736581117
0.0003398072259
0.0001146957549
0.0002212177896
0.0002749316505
0.0003106036392
0.0003453388493
0.0003803082586
0.0004133912617
0.0004297290661
0.0004294801612
0.0004009573483
0.000344933045
0.000316656794
0.0003094051563
0.000303547185
0.0003252872696
0.0003693418137
0.0003866475711
0.0003839796448
0.0003491591167
0.0003978534706
0.000605129945
0.0006901122394
0.0006565713426
0.000500024437
0.000382562641
0.0003428504787
0.0001115316684
0.0002088844923
0.0002726199777
0.0003266278387
0.0003679430286
0.0003999644588
0.0004171933794
0.0004188382607
0.000407874041
0.0003845408952
0.0003536134086
0.0003281408271
0.0003248896313
0.0003270917506
0.000348042075
0.0003819821641
0.0003995834366
0.0003980069967
0.0003641568284
0.0003051520084
0.0004659604609
0.0006478513063
0.0006478243291
0.0004828059462
0.0003682343535
0.0003320675359
0.0001082792082
0.000190178588
0.0002557023826
0.0003209608136
0.0003675481995
0.0003836491656
0.0003773030909
0.0003650095478
0.0003530548979
0.0003396779318
0.0003220761123
0.0003099112765
0.0003168724258
0.0003327154512
0.0003591389051
0.0003863989284
0.0004058926651
0.0004051110756
0.0003735933734
0.0002678980934
0.0002537255085
0.0003556525878
0.0004887868407
0.0004255208675
0.0003494621565
0.0003145780386
0.0001089286266
0.0001773714193
0.0002384108894
0.0002946980845
0.0003159975352
0.0003033228542
0.0002832678788
0.0002705086599
0.0002646952316
0.0002619369833
0.0002611369051
0.0002681808539
0.0002896579565
0.0003154051302
0.0003438717684
0.0003776361078
0.0004073911414
0.0004103465444
0.0003948192172
0.0003000088795
0.0002410006847
0.0002780977053
0.0003360597427
0.0003665554878
0.0003260698019
0.0002924498705
0.0001161149138
0.0001759622264
0.0002412595528
0.0002958822169
0.0003024896542
0.0002701399713
0.0002306570052
0.000210473381
0.0002047779186
0.0002038496841
0.0002076587561
0.0002205589101
0.0002439825078
0.0002711810775
0.0003000037801
0.0003367318643
0.000371958147
0.0003926883859
0.0003999046819
0.0003881078961
0.0003873167591
0.0004284502603
0.0003488207867
0.0003462081245
0.0003022929157
0.0002648807073
0.0001258902313
0.0001794821635
0.0002376715751
0.0002650226535
0.000260722092
0.0002428799525
0.0002242345518
0.0002031260525
0.0001898627902
0.000182115493
0.0001762772202
0.0001785780894
0.0001957820392
0.0002227177938
0.0002468204869
0.0002817366861
0.0003213701145
0.0003574935313
0.0003872800708
0.0004224402159
0.000504592934
0.0005113649794
0.0003894360447
0.0003041445512
0.0002667702957
0.0002330665308
0.0001329026163
0.0001819303155
0.0002139452547
0.0002231391898
0.0002470081253
0.0002765541746
0.0002802264426
0.0002467129404
0.000203853385
0.0001909550301
0.0001817940966
0.0001696839837
0.0001630325498
0.0001776389058
0.0002025658174
0.0002311068178
0.0002701389748
0.0003104117377
0.0003486611705
0.0003941829613
0.0004604403334
0.0004521168679
0.0003287367091
0.0002602987579
0.0002038530375
0.0001792229825
0.0001338191826
0.0001839995482
0.0002207279364
0.000227791155
0.0002665132238
0.0003207422196
0.0003444096782
0.0003272544797
0.0002366632872
0.0002014360461
0.0002010280429
0.0001942902626
0.000172265248
0.0001561379603
0.0001678418821
0.0001909018458
0.000221824686
0.000259768804
0.0002957298952
0.0003269774422
0.0003330931843
0.0003056307078
0.0002495449389
0.0002072695572
0.0001543937954
0.0001288389549
0.0001320805179
0.0001820420304
0.0002331458211
0.0002723298035
0.0002904718004
0.0003358003507
0.0003701972893
0.0003527880969
0.0002742181435
0.0002126738998
0.0002112667172
0.0002191505643
0.0002062039873
0.0001752909494
0.0001487150039
0.0001595768236
0.0001822722325
0.0002109357362
0.0002442024041
0.0002622611801
0.0002315370047
0.0002087848945
0.0002032810119
0.000166407699
0.0001181767744
9.55329895e-05
0.0001405215634
0.000178568263
0.0002336954352
0.0002763236951
0.0002899385209
0.0002884689106
0.0002825525979
0.000261920129
0.000245568217
0.0002515248649
0.0002476606299
0.0002348412419
0.000224914714
0.0002111370889
0.0001717668561
0.0001483344765
0.0001546556018
0.0001767455104
0.0002039387703
0.0002131854007
0.000181740257
0.0001652305899
0.0001753727519
0.0001450777084
0.0001029812693
8.270708031e-05
0.0001591147373
0.0001653252806
0.0002152437612
0.0002628285241
0.0002840341169
0.0002655230651
0.0002522528799
0.0002531277604
0.0002822972763
0.0003173307219
0.0003086013123
0.000273303055
0.0002377446599
0.0002194400097
0.0002034368621
0.0001599436154
0.0001427784636
0.0001516250485
0.0001721772277
0.0001787400408
0.0001560366426
0.0001438033415
0.0001488661219
0.0001281744674
9.999412809e-05
8.834059023e-05
0.0001929151848
0.0001897662132
0.0001912910779
0.0002169812247
0.0002371838433
0.0002466843482
0.0002539465407
0.0002752974358
0.0003124227283
0.0003289723699
0.0003079218768
0.000274128627
0.0002395760583
0.0002113564494
0.000188347641
0.0001670224708
0.0001435599552
0.0001382674353
0.0001490093751
0.0001545670694
0.0001402774229
0.0001320159737
0.0001272069733
0.0001136985774
0.0001106204942
0.0002394282002
0.0002724737793
0.0001934874027
0.0001881564437
0.00019288881
0.0002017611696
0.000211956491
0.0002300988933
0.0002649626589
0.0002973215616
0.0002716143511
0.0002325101934
0.0001982707818
0.0001624259338
0.0001338648222
0.0001270582437
0.0001359707454
0.0001326782069
0.0001351608825
0.0001377697014
0.0001290689981
0.0001252728648
9.504538058e-05
0.0001053512121
0.000101210408
0.0002628658961
0.0002920498551
0.0002074317903
0.0001777390326
0.000174172116
0.0001793490388
0.0001905128796
0.0002130471384
0.0002430566769
0.0002643720103
0.0002525171432
0.0002313897964
0.0002082820233
0.0001659525591
0.0001280983843
0.0001089289808
0.0001160462606
0.0001252485967
0.0001302264318
0.000126668591
0.0001189709432
0.000100997279
6.712829182e-05
7.339792357e-05
9.007729816e-05
0.0001636912443
0.0001946719947
0.0001900213107
0.0001839027913
0.0001759252845
0.000178069059
0.0001873852632
0.0002119011433
0.0002482636419
0.0002779973695
0.0002882672061
0.0002770740883
0.0002357109679
0.0001766904488
0.0001355942982
0.0001169240072
0.0001133497249
0.0001264778625
0.0001146846093
0.0001191730919
0.0001099505334
8.739625432e-05
7.584944997e-05
6.727684463e-05
8.050628903e-05
0.0001437765384
0.0001966675036
0.0001945561966
0.0001918530869
0.0001895004694
0.0001876289742
0.0001895749545
0.0002093253948
0.000230376947
0.0002584715389
0.0002834887842
0.000267863442
0.0002095583402
0.000159886578
0.0001451051561
0.0001055127666
0.0001109344971
0.0001185423882
0.0001120961953
0.0001107583334
0.0001377802079
0.0001744946636
0.0001032917184
0.000111466898
7.347223237e-05
7.089906644e-05
0.0001361586227
0.0002216183866
0.0002272252521
0.0002268595589
0.0002289250732
0.0002315046009
0.0002278527761
0.0002088302886
0.0002043378889
0.0002187172103
0.0002217912406
0.0002021532826
0.0001636237126
0.000143384991
0.0001527632662
0.0001275977434
0.0001181259192
0.0001142343558
0.0001075927873
0.0001218677215
0.0002956487416
0.0004420814221
0.0002027083554
9.494006367e-05
7.918166399e-05
7.657928604e-05
3.208292414e-07
7.618769544e-07
1.35135916e-06
4.733142021e-06
2.0460972e-05
6.101993174e-05
0.0001227702441
0.0001847909408
0.0002330800388
0.000268479485
0.0002959867762
7.577687926e-05
7.863440245e-05
8.207561994e-05
8.711311261e-05
9.413200095e-05
0.0001019145045
0.00010869513
0.0001140244959
0.0001184623304
0.0001223447598
0.0001254149078
0.0001271333072
0.000126914446
0.0001243157737
0.0001194727742
1.081067172e-06
5.717124132e-06
1.02992262e-05
1.106411157e-05
2.097975717e-05
4.704418712e-05
7.647949051e-05
8.824394272e-05
8.438016229e-05
8.735998954e-05
9.510638165e-05
0.0001024366421
0.0001072693
0.0001113113628
0.0001144681129
0.0001177457268
0.000122447436
0.000130436147
0.000144305131
0.0001656989418
0.0001917633218
0.0002152250692
0.0002291187008
0.0002305557464
0.000223002501
0.000216333095
7.309142208e-06
8.792491773e-06
1.586030947e-05
1.975339584e-05
2.834146506e-05
4.858681283e-05
7.011638614e-05
7.768811667e-05
8.05689402e-05
8.771323709e-05
9.828819528e-05
0.0001086395363
0.0001165965764
0.0001214456556
0.0001235513722
0.0001236111275
0.0001226538489
0.0001235508885
0.0001328640723
0.0001557537647
0.0001870101085
0.0002148179147
0.000230807407
0.000234415128
0.0002340605047
0.0002414543671
3.976353538e-05
2.209510176e-05
2.862232762e-05
3.341939789e-05
3.86815461e-05
4.738627352e-05
6.159229571e-05
7.620675136e-05
8.779150065e-05
9.782193783e-05
0.0001079961373
0.0001174242048
0.0001241068666
0.0001273707511
0.0001276844462
0.0001255471678
0.0001214402588
0.0001175820137
0.0001213691979
0.0001412229339
0.0001720760059
0.0002004112817
0.0002189016048
0.0002287188377
0.0002382248326
0.0002552300813
0.0001297425238
4.643847292e-05
4.45447641e-05
4.577033375e-05
4.970419697e-05
5.939465828e-05
7.527412888e-05
9.165171155e-05
0.0001031836797
0.0001102058392
0.000115853323
0.0001216286812
0.000125748182
0.0001277997089
0.0001285201844
0.0001274799482
0.0001238604264
0.0001180084396
0.0001150609616
0.0001248490072
0.0001489524747
0.0001761985505
0.0001999994532
0.0002208259429
0.0002418367789
0.0002652189812
0.0002700334675
7.087151704e-05
5.964838721e-05
5.993128197e-05
6.778523286e-05
8.328887171e-05
0.0001034227935
0.0001202218007
0.000128068757
0.0001273580485
0.0001225030579
0.0001203301909
0.0001211501852
0.0001246965901
0.0001307162896
0.0001350906375
0.0001354749845
0.0001305855115
0.000122832429
0.0001181988574
0.0001265148393
0.0001486374079
0.0001789165181
0.0002130746679
0.0002451035902
0.0002722312107
8.675657007e-05
9.014790621e-05
7.565638963e-05
7.347455316e-05
8.509300468e-05
0.0001080392107
0.000135326134
0.0001555588283
0.0001617656509
0.0001534202455
0.0001333720423
0.0001155810432
0.0001110799556
0.0001211065682
0.0001394930958
0.0001527676209
0.0001592405473
0.0001576291029
0.0001509898302
0.0001411190142
0.000132558889
0.0001378611732
0.0001632522455
0.0002056189762
0.0002480549753
0.0002752901406
9.798228148e-05
0.000108026089
8.98329708e-05
8.451278014e-05
9.963043498e-05
0.0001321442619
0.0001696551514
0.0001956507319
0.0002026834694
0.0001893087186
0.000153423004
0.0001113311137
9.694749023e-05
0.0001190772774
0.000155664569
0.0001789205266
0.0001915911543
0.000193262343
0.0001899005296
0.0001844846502
0.0001719297967
0.000160876631
0.0001664492383
0.0002002594451
0.0002509568049
0.0002800724383
0.0001040377667
0.0001244004721
0.0001049499952
9.731146526e-05
0.0001167197513
0.000160777063
0.0002081081707
0.0002392265227
0.000249035467
0.0002330386657
0.0001825360544
0.0001199117746
9.503543153e-05
0.0001228807787
0.0001747656803
0.0002086608608
0.000227822671
0.0002333070029
0.0002325792484
0.0002336291125
0.000228275124
0.0002101454464
0.000195871829
0.0002084359762
0.0002543435602
0.0002912885663
0.000107538921
0.0001428266875
0.0001272922953
0.0001228026517
0.0001511038932
0.0002022160168
0.0002507992295
0.0002841319888
0.0002984010957
0.0002810889261
0.0002212660801
0.0001577434897
0.0001175476326
0.0001350981511
0.0001915021752
0.0002385064916
0.0002645007046
0.0002768082479
0.0002790665907
0.0002856378255
0.0002936719513
0.0002740911697
0.0002423119041
0.0002420568893
0.0002663922887
0.0003045343961
0.0001100169665
0.0001667426082
0.0001627429052
0.0001713998038
0.0002081268055
0.0002516686306
0.0002922060316
0.0003263015691
0.0003451327882
0.0003273970784
0.0002695319259
0.000220362436
0.0001621808068
0.000164656122
0.0002145261399
0.0002707781976
0.0003006551443
0.0003203941492
0.0003303577727
0.0003493682339
0.0003821316413
0.0003654009649
0.0003089990342
0.0002972177763
0.0002957351419
0.0003163113456
0.0001118068288
0.0001941046276
0.0002067338867
0.0002272609394
0.0002561337237
0.0002893662904