/*--------------------------------*- C++ -*----------------------------------*\
  =========                 |
  \\      /  F ield         | OpenFOAM: The Open Source CFD Toolbox
   \\    /   O peration     | Website:  https://openfoam.org
    \\  /    A nd           | Version:  8
     \\/     M anipulation  |
\*---------------------------------------------------------------------------*/
FoamFile
{
    version     2.0;
    format      ascii;
    class       volScalarField;
    location    "0.6";
    object      O2;
}
// * * * * * * * * * * * * * * * * * * * * * * * * * * * * * * * * * * * * * //

dimensions      [0 0 0 0 0 0 0];

internalField   nonuniform List<scalar> 
67410
(
0.2100072361
0.2100072371
0.2100072429
0.2100072216
0.2100070993
0.2100068613
0.2100066197
0.2100064513
0.2100063392
0.2100062567
0.2100061903
0.2100061351
0.2100060837
0.2100060098
0.2100058765
0.2100056902
0.2100055213
0.2100054236
0.2100053814
0.2100053538
0.2100053115
0.2100052378
0.2100051219
0.2100049653
0.2100048149
0.2100047967
0.2100072391
0.2100072244
0.2100072137
0.2100071846
0.2100070751
0.2100068653
0.2100066269
0.2100063987
0.21000615
0.2100059037
0.2100057076
0.2100055685
0.2100054805
0.210005431
0.2100054058
0.2100053965
0.2100054023
0.2100054178
0.2100054261
0.2100054067
0.2100053414
0.2100052149
0.2100050226
0.2100048055
0.2100046859
0.2100047653
0.210007185
0.2100071182
0.210007051
0.2100069941
0.2100068997
0.2100067157
0.21000644
0.2100060915
0.2100057134
0.2100054159
0.2100052303
0.2100051316
0.210005087
0.2100050883
0.2100051358
0.2100052137
0.210005299
0.2100053611
0.2100053815
0.2100053532
0.2100052685
0.210005116
0.2100048999
0.210004691
0.2100046265
0.2100047521
0.2100069205
0.2100067775
0.2100066393
0.2100065381
0.2100064244
0.2100062386
0.2100059539
0.2100056066
0.2100052961
0.210005097
0.2100050068
0.2100049643
0.2100049267
0.2100049166
0.2100049653
0.2100050542
0.2100051655
0.2100052543
0.2100052895
0.2100052649
0.2100051825
0.2100050354
0.2100048288
0.2100046291
0.2100045531
0.2100046314
0.210006435
0.210006253
0.2100060889
0.2100059652
0.2100058326
0.2100056654
0.2100054655
0.2100052509
0.2100050791
0.2100050066
0.2100049998
0.2100049704
0.2100048815
0.2100048111
0.2100048205
0.2100048778
0.2100049836
0.2100050909
0.2100051485
0.2100051401
0.2100050742
0.2100049486
0.2100047651
0.2100045739
0.210004458
0.2100044706
0.2100059257
0.2100057623
0.2100056446
0.2100055502
0.2100054534
0.2100053496
0.2100052341
0.2100051145
0.2100050533
0.2100050835
0.2100051155
0.2100050454
0.2100048761
0.210004746
0.2100047008
0.2100047078
0.2100047815
0.2100048926
0.2100049695
0.2100049778
0.210004928
0.2100048229
0.2100046631
0.2100044996
0.2100043687
0.2100043581
0.2100055742
0.2100054819
0.2100054199
0.2100053624
0.2100053016
0.2100052366
0.2100051656
0.2100051154
0.2100051501
0.2100052293
0.2100052141
0.2100050553
0.2100048384
0.2100047185
0.2100046091
0.2100045688
0.210004595
0.2100046955
0.2100047817
0.2100048025
0.2100047594
0.2100046566
0.210004505
0.2100043774
0.2100042598
0.2100042445
0.2100053989
0.2100053592
0.2100053235
0.2100052834
0.2100052369
0.21000519
0.2100051578
0.2100051799
0.2100052618
0.2100052743
0.2100051238
0.2100048829
0.2100047056
0.2100047148
0.210004527
0.2100044568
0.2100044411
0.2100045314
0.210004624
0.2100046633
0.2100046222
0.2100044814
0.2100043001
0.2100041991
0.2100041223
0.2100041129
0.2100053123
0.210005303
0.2100052737
0.2100052328
0.2100051848
0.2100051512
0.2100051613
0.2100052218
0.2100052395
0.2100050885
0.2100048138
0.2100045511
0.2100044742
0.2100046837
0.2100044278
0.2100043424
0.2100043092
0.210004412
0.210004524
0.2100045895
0.210004526
0.2100042863
0.2100040958
0.2100039949
0.210003964
0.2100039701
0.210005265
0.2100052695
0.2100052314
0.2100051765
0.2100051189
0.2100050966
0.2100051299
0.2100051514
0.2100050233
0.2100047377
0.2100044287
0.2100042016
0.2100042015
0.2100045459
0.2100043009
0.2100041943
0.210004174
0.2100043209
0.2100044687
0.2100045243
0.2100043483
0.2100039684
0.2100039234
0.2100038297
0.2100038095
0.2100038352
0.2100052389
0.2100052434
0.2100051859
0.2100051098
0.210005035
0.2100050115
0.2100050275
0.2100049584
0.2100047078
0.2100043843
0.2100041121
0.2100039277
0.2100039271
0.2100042671
0.2100041652
0.2100040254
0.2100040225
0.2100042248
0.2100043924
0.210004342
0.2100039795
0.2100034925
0.2100037659
0.2100037248
0.2100036963
0.210003722
0.2100052327
0.2100052284
0.2100051468
0.2100050387
0.2100049387
0.2100048926
0.2100048602
0.2100047134
0.2100044274
0.2100041282
0.2100038988
0.2100037251
0.2100036907
0.2100039607
0.210003991
0.2100038508
0.2100038599
0.2100040946
0.2100042335
0.2100040148
0.2100035019
0.2100029813
0.2100035787
0.2100036352
0.2100036242
0.2100036378
0.2100052599
0.2100052452
0.2100051396
0.2100049988
0.2100048611
0.2100047652
0.2100046759
0.2100045089
0.2100042819
0.21000408
0.2100039058
0.2100037372
0.2100036489
0.2100037684
0.2100038163
0.2100036531
0.210003705
0.2100039317
0.2100040251
0.2100036835
0.2100031145
0.2100026485
0.2100033344
0.2100035436
0.2100035732
0.210003587
0.2100053503
0.2100053307
0.2100052086
0.2100050439
0.210004868
0.2100047205
0.2100046
0.2100044979
0.2100044672
0.2100044643
0.2100043555
0.2100041384
0.2100039037
0.2100037677
0.2100037217
0.2100035544
0.2100035766
0.210003753
0.210003879
0.2100035568
0.2100030939
0.2100028182
0.2100033206
0.210003554
0.2100035453
0.2100035664
0.2100055389
0.2100055104
0.2100053775
0.2100051914
0.2100049863
0.2100047923
0.2100046108
0.2100044614
0.2100043926
0.210004364
0.2100042631
0.2100040843
0.2100039228
0.2100037811
0.2100035939
0.2100034833
0.2100034587
0.2100035048
0.2100037991
0.2100040356
0.2100039237
0.2100036458
0.2100035844
0.2100036539
0.2100035256
0.2100036064
0.2100057939
0.2100056881
0.2100054961
0.210005266
0.2100050551
0.2100048731
0.2100046877
0.2100044981
0.2100043532
0.210004256
0.2100041577
0.2100040077
0.2100038438
0.2100037133
0.2100035845
0.210003473
0.2100034523
0.2100034244
0.2100037171
0.2100040514
0.2100041438
0.2100039194
0.2100040029
0.2100038196
0.2100036511
0.2100037014
0.2100059129
0.2100056031
0.2100052916
0.2100050353
0.2100048808
0.2100048223
0.2100048047
0.2100047152
0.2100045504
0.2100043815
0.2100041963
0.2100040217
0.2100038884
0.2100037972
0.2100036931
0.2100036164
0.2100036891
0.2100033887
0.2100036414
0.2100039918
0.2100040776
0.2100037172
0.2100042327
0.2100040293
0.2100037919
0.2100038083
0.2100057486
0.2100052827
0.2100049724
0.2100048117
0.2100047464
0.210004754
0.2100048314
0.2100048225
0.2100046724
0.2100045958
0.2100044658
0.2100042614
0.2100040388
0.2100038594
0.2100036797
0.210003476
0.21000334
0.2100033051
0.210003559
0.2100039079
0.2100037604
0.2100032959
0.2100042885
0.2100041441
0.2100038723
0.2100039103
0.2100054619
0.2100050413
0.2100049041
0.2100049103
0.2100049073
0.2100048924
0.2100048946
0.2100047862
0.2100045238
0.2100045063
0.2100045108
0.2100044578
0.2100042664
0.2100039991
0.2100037941
0.2100035805
0.2100034481
0.2100034575
0.2100036646
0.2100036639
0.2100032948
0.2100029899
0.2100036196
0.2100039848
0.2100039558
0.2100040658
0.2100052442
0.2100049427
0.2100049645
0.2100050543
0.2100050396
0.2100049671
0.2100049387
0.2100047603
0.2100043671
0.2100042951
0.210004286
0.2100043581
0.2100044769
0.2100042871
0.210003982
0.2100037447
0.2100035454
0.2100034937
0.2100037062
0.2100040212
0.2100039522
0.2100037033
0.2100043307
0.2100041649
0.2100038928
0.210004398
0.2100052509
0.210004959
0.2100049833
0.2100050901
0.2100050617
0.2100049433
0.2100048314
0.2100046447
0.2100043138
0.2100041528
0.210004061
0.2100040249
0.2100042444
0.2100045658
0.2100043534
0.2100040579
0.2100038163
0.2100036821
0.2100037701
0.2100041231
0.2100042978
0.2100042015
0.210004519
0.2100041954
0.2100039965
0.2100045665
0.2100056191
0.2100052285
0.2100051133
0.2100050558
0.2100050245
0.2100048751
0.210004605
0.2100043913
0.2100042435
0.2100040524
0.2100038991
0.2100038201
0.2100038501
0.2100041281
0.2100047586
0.2100044795
0.2100042009
0.2100040215
0.2100039806
0.2100042032
0.2100044834
0.2100045319
0.2100046636
0.2100043881
0.2100043026
0.210004828
0.2100058514
0.210005005
0.2100047915
0.2100045549
0.210004357
0.2100041865
0.2100041158
0.2100041158
0.2100039721
0.2100037348
0.2100035385
0.2100035802
0.2100036406
0.210003783
0.2100041279
0.2100046794
0.2100046454
0.2100043938
0.2100042692
0.2100043453
0.2100046166
0.210004803
0.2100048354
0.2100046619
0.2100046556
0.2100050873
0.2100055201
0.2100048911
0.2100047038
0.2100045183
0.2100043786
0.210004267
0.2100041327
0.2100039343
0.2100036285
0.2100032606
0.2100030064
0.2100031455
0.2100033838
0.2100036143
0.2100038377
0.2100042656
0.2100047208
0.2100047435
0.2100045978
0.2100045559
0.2100047439
0.2100050112
0.2100050307
0.2100049587
0.2100050059
0.2100053241
0.2100038092
0.2100047029
0.2100045311
0.2100043699
0.2100042801
0.2100041579
0.2100039768
0.2100036858
0.2100032982
0.2100028615
0.2100025764
0.2100027045
0.2100030336
0.2100034085
0.2100037726
0.2100040217
0.2100044722
0.2100048132
0.2100048537
0.21000479
0.2100048941
0.2100051892
0.2100052515
0.210005221
0.2100053321
0.2100014422
0.2100041539
0.2100044022
0.2100044085
0.210004246
0.2100040852
0.2100038345
0.2100035121
0.2100031315
0.210002687
0.2100023446
0.2100024084
0.2100027193
0.2100030964
0.2100035161
0.2100039134
0.2100043052
0.2100047396
0.2100049674
0.2100050014
0.2100051019
0.210005427
0.2100055402
0.2100054752
0.2100056998
0.209998458
0.2100023749
0.2100024513
0.210003787
0.2100039206
0.2100037876
0.2100036685
0.2100034551
0.2100031962
0.210002917
0.2100026849
0.2100027475
0.2100030084
0.2100033121
0.2100036441
0.2100039768
0.2100043095
0.2100046986
0.2100050212
0.2100051583
0.2100053308
0.2100057182
0.2100059157
0.2100057901
0.2100058183
0.2100015244
0.2100039341
0.2100039214
0.2100039768
0.2100038812
0.2100037758
0.2100036795
0.2100035054
0.2100032735
0.2100030256
0.2100028257
0.2100029054
0.2100031618
0.2100034388
0.2100037283
0.2100040354
0.2100043481
0.2100047287
0.210005012
0.2100053211
0.2100055123
0.2100060068
0.2100061266
0.2100059762
0.2100058887
0.2100035602
0.2100038545
0.2100038724
0.2100038075
0.2100037565
0.2100036967
0.2100036336
0.2100035403
0.2100034633
0.2100033254
0.2100031909
0.210003258
0.2100034488
0.2100036487
0.2100038572
0.2100043251
0.2100046236
0.2100048335
0.210005183
0.2100054661
0.2100057628
0.2100065608
0.210006429
0.2100063085
0.2100061854
0.210006174
0.2100042234
0.2100037566
0.2100037289
0.2100036184
0.2100035282
0.2100034711
0.2100035035
0.2100035701
0.210003572
0.210003528
0.2100035024
0.2100035659
0.2100037081
0.210003876
0.2100040721
0.210004455
0.2100046679
0.2100049337
0.2100053433
0.2100056562
0.2100061364
0.2100059824
0.210006528
0.2100066179
0.2100066127
0.210006598
0.210007072
0.2100070914
0.2100071261
0.2100071673
0.2100071423
0.2100069737
0.2100067328
0.2100065397
0.21000642
0.2100063532
0.2100063224
0.2100063126
0.2100063057
0.2100062723
0.2100061657
0.2100059775
0.2100057836
0.2100056709
0.2100056402
0.2100056346
0.2100056059
0.2100055298
0.2100053964
0.2100052091
0.2100050061
0.2100048933
0.2100071218
0.2100071257
0.2100071438
0.2100071641
0.2100071334
0.2100069972
0.2100067939
0.2100065898
0.2100064009
0.2100062269
0.210006081
0.2100059684
0.2100058847
0.2100058191
0.210005763
0.2100057188
0.2100057006
0.2100057205
0.2100057596
0.2100057704
0.2100057111
0.2100055654
0.2100053395
0.2100050727
0.2100048644
0.2100048237
0.2100071774
0.2100071446
0.2100071256
0.21000712
0.210007082
0.2100069544
0.2100067303
0.2100064455
0.2100061355
0.2100058641
0.21000567
0.2100055466
0.2100054742
0.2100054434
0.2100054507
0.2100054947
0.2100055693
0.2100056586
0.2100057316
0.2100057423
0.2100056569
0.2100054725
0.2100052103
0.2100049373
0.2100047754
0.2100047856
0.2100070818
0.2100070141
0.2100069382
0.2100068939
0.2100068304
0.2100066787
0.2100064012
0.2100060503
0.2100057192
0.2100054792
0.2100053432
0.2100052762
0.2100052496
0.2100052566
0.2100052946
0.2100053645
0.2100054616
0.21000557
0.2100056581
0.2100056757
0.2100055861
0.2100053933
0.2100051275
0.210004865
0.2100047199
0.2100047233
0.2100067011
0.210006652
0.2100065644
0.210006499
0.2100063922
0.2100061909
0.2100059092
0.2100056172
0.2100053797
0.2100052365
0.2100051829
0.2100051707
0.2100051715
0.2100051851
0.2100052121
0.2100052614
0.2100053368
0.2100054347
0.2100055282
0.2100055645
0.2100054955
0.2100053223
0.2100050745
0.2100048233
0.2100046702
0.210004647
0.210006203
0.2100061974
0.2100061688
0.2100061206
0.2100059977
0.2100057925
0.2100055619
0.2100053533
0.2100051948
0.210005122
0.2100051295
0.2100051513
0.2100051524
0.2100051414
0.2100051345
0.2100051436
0.2100051748
0.2100052429
0.2100053266
0.2100053739
0.2100053311
0.2100051945
0.2100049911
0.2100047702
0.2100046145
0.2100045652
0.210005802
0.2100058605
0.2100059121
0.2100058962
0.2100057796
0.2100055928
0.2100054018
0.2100052303
0.210005103
0.2100050705
0.2100051247
0.2100051637
0.2100051417
0.2100050843
0.2100050384
0.210005008
0.2100049914
0.2100050207
0.2100050773
0.2100051113
0.2100050784
0.2100049619
0.2100048054
0.2100046473
0.2100045339
0.2100044808
0.2100055911
0.210005704
0.2100057879
0.2100057779
0.2100056593
0.210005484
0.2100053092
0.2100051506
0.2100050471
0.2100050613
0.2100051627
0.2100051938
0.2100051363
0.2100050104
0.2100049254
0.2100048602
0.2100048095
0.2100048069
0.2100048307
0.2100048331
0.2100047788
0.2100046473
0.2100045135
0.210004431
0.2100043981
0.2100043885
0.2100055091
0.2100056466
0.2100057079
0.2100056667
0.2100055351
0.2100053684
0.2100052056
0.2100050663
0.2100050158
0.2100051014
0.2100052461
0.2100052654
0.2100051533
0.2100049161
0.2100047881
0.2100046938
0.2100046341
0.2100046219
0.2100046255
0.2100045997
0.2100045164
0.2100043398
0.2100041745
0.2100041286
0.2100041957
0.2100042684
0.2100054783
0.2100056116
0.2100056144
0.2100055214
0.2100053736
0.2100052144
0.2100050693
0.2100049623
0.210004995
0.2100051508
0.2100053352
0.210005326
0.2100051222
0.2100047773
0.2100046133
0.210004494
0.2100044502
0.2100044571
0.2100044718
0.210004446
0.2100043438
0.210004107
0.2100038799
0.2100038225
0.2100039465
0.2100041013
0.2100054654
0.2100055729
0.2100055074
0.2100053587
0.2100051926
0.2100050322
0.2100049038
0.2100048398
0.2100049332
0.2100051175
0.2100052988
0.2100052292
0.2100049504
0.2100045946
0.2100044154
0.210004256
0.2100042392
0.2100042874
0.2100043559
0.2100043734
0.2100042281
0.210003911
0.2100036546
0.21000359
0.2100037133
0.2100039267
0.2100054654
0.2100055392
0.210005408
0.2100052119
0.2100050081
0.2100048412
0.2100047308
0.2100046985
0.2100048058
0.2100049652
0.2100050951
0.2100049647
0.2100046677
0.2100043888
0.2100042155
0.2100040088
0.2100040027
0.2100040983
0.2100042547
0.2100043204
0.2100040345
0.2100036402
0.210003442
0.2100034429
0.2100035353
0.2100037724
0.2100054878
0.2100055292
0.2100053433
0.2100050974
0.2100048597
0.2100046828
0.2100045792
0.2100045543
0.2100046363
0.2100047711
0.2100048713
0.2100047275
0.2100044061
0.2100041719
0.2100040002
0.2100037919
0.210003781
0.2100039126
0.2100041424
0.2100042056
0.2100037682
0.2100033501
0.210003192
0.2100033767
0.2100034282
0.2100036601
0.2100055487
0.2100055615
0.2100053436
0.21000506
0.2100047982
0.2100046137
0.210004515
0.2100044813
0.2100045062
0.2100045941
0.210004666
0.2100045554
0.2100042797
0.2100040249
0.2100037951
0.2100036198
0.210003606
0.2100037406
0.210004002
0.210004108
0.2100037476
0.2100033187
0.2100030276
0.2100033543
0.2100033879
0.2100036023
0.2100056645
0.2100056436
0.2100054179
0.2100051228
0.210004857
0.2100046746
0.2100045741
0.2100045196
0.210004501
0.2100045327
0.2100045796
0.2100045439
0.210004362
0.2100040377
0.2100037131
0.2100035145
0.2100035102
0.2100035771
0.2100039243
0.210004165
0.2100040019
0.2100035514
0.2100031764
0.2100034378
0.2100034088
0.210003614
0.2100058318
0.2100057553
0.2100055491
0.2100052802
0.2100050402
0.2100048693
0.2100047463
0.2100046432
0.2100045701
0.2100045362
0.2100045076
0.2100044232
0.210004247
0.2100039716
0.2100036789
0.21000345
0.2100034652
0.2100034291
0.2100038222
0.2100041714
0.2100042568
0.2100041642
0.2100039102
0.2100037119
0.210003507
0.2100036793
0.2100059792
0.2100058265
0.2100056752
0.2100054889
0.2100052854
0.2100050904
0.2100049368
0.2100048277
0.2100047328
0.2100046498
0.2100045654
0.2100044581
0.2100043106
0.2100041099
0.2100038705
0.2100036923
0.2100040745
0.2100033393
0.2100037536
0.21000412
0.2100043247
0.2100044125
0.2100042398
0.2100039273
0.2100035963
0.2100037763
0.2100060117
0.2100058639
0.2100058658
0.2100057575
0.2100055444
0.2100053334
0.2100051703
0.2100050562
0.2100049522
0.2100048722
0.2100047767
0.2100046433
0.2100044524
0.2100041906
0.2100038412
0.2100034759
0.2100032708
0.2100032248
0.210003518
0.2100039393
0.2100041269
0.2100040782
0.2100043502
0.2100040751
0.210003669
0.2100038694
0.210005915
0.2100059523
0.2100061281
0.2100060076
0.2100057931
0.2100055945
0.210005441
0.2100052645
0.210005081
0.2100049813
0.2100048994
0.2100048041
0.210004638
0.2100043845
0.2100040365
0.210003657
0.2100034086
0.2100032496
0.2100034056
0.210003669
0.2100034904
0.2100035149
0.2100040667
0.2100040294
0.2100036743
0.2100040867
0.2100057174
0.2100058635
0.2100060862
0.2100059962
0.2100057405
0.2100055026
0.210005382
0.2100053463
0.2100052386
0.2100050954
0.2100049512
0.2100048681
0.2100048253
0.2100046192
0.2100042944
0.2100038768
0.2100035375
0.2100033813
0.2100034961
0.2100037522
0.2100037526
0.2100037944
0.2100041746
0.2100039269
0.2100037379
0.2100044048
0.2100055451
0.2100056307
0.2100058703
0.2100058379
0.2100056129
0.2100052899
0.2100050909
0.210005135
0.210005353
0.2100052701
0.2100050355
0.2100048507
0.2100048585
0.210004926
0.2100047002
0.2100043175
0.2100039137
0.2100036971
0.2100037545
0.2100040542
0.2100043042
0.2100044917
0.2100044216
0.2100040489
0.2100040675
0.210004892
0.2100055357
0.2100055031
0.2100056873
0.210005854
0.2100058004
0.2100054988
0.2100050359
0.2100048192
0.2100050659
0.2100052079
0.2100049207
0.2100047664
0.2100047394
0.2100048557
0.2100050385
0.2100048009
0.2100044582
0.2100041932
0.2100041443
0.2100043585
0.2100046056
0.2100048157
0.2100046988
0.2100044183
0.2100046312
0.2100054043
0.2100054637
0.2100053206
0.2100054167
0.2100054686
0.2100054421
0.2100054058
0.2100054604
0.2100053961
0.2100051521
0.2100047851
0.2100044917
0.21000453
0.210004578
0.2100047443
0.2100048833
0.2100050658
0.2100049105
0.2100046699
0.2100045389
0.2100046163
0.2100047822
0.2100050036
0.2100049956
0.2100048254
0.2100050662
0.2100056756
0.2100054177
0.2100051758
0.2100053453
0.2100055416
0.210005652
0.2100055539
0.2100053571
0.2100050318
0.2100045255
0.2100038735
0.210003545
0.2100038225
0.2100042711
0.2100045984
0.2100048544
0.2100050297
0.2100051395
0.2100050208
0.2100048646
0.2100048356
0.2100049405
0.2100051866
0.2100052818
0.2100052395
0.2100054576
0.2100058522
0.2100052816
0.2100050396
0.2100052144
0.210005385
0.2100054814
0.21000531
0.2100049832
0.210004551
0.2100038798
0.2100032265
0.2100028874
0.2100030924
0.2100036232
0.2100041854
0.2100047045
0.2100050809
0.2100051983
0.2100052195
0.2100051101
0.2100050286
0.2100051005
0.2100053716
0.2100055565
0.2100056283
0.2100058716
0.2100046837
0.2100047793
0.2100051159
0.2100052632
0.210005399
0.2100052389
0.210004913
0.2100044415
0.2100038061
0.2100029903
0.2100025415
0.210002673
0.2100031421
0.210003701
0.2100043202
0.2100049184
0.2100052634
0.2100053343
0.2100052865
0.2100052064
0.2100052923
0.2100056073
0.2100058149
0.2100060516
0.2100060634
0.2100040059
0.2100047297
0.2100044698
0.210004566
0.2100048116
0.210004796
0.2100045994
0.2100042348
0.2100037512
0.2100032379
0.2100029014
0.2100030036
0.2100034843
0.2100040051
0.2100044708
0.2100048889
0.2100052675
0.210005405
0.2100054334
0.2100053709
0.2100055289
0.2100059841
0.2100061815
0.2100062368
0.210006201
0.2100045291
0.2100043177
0.2100044225
0.2100044913
0.210004596
0.2100046495
0.2100044937
0.2100041703
0.2100037113
0.2100032742
0.2100030024
0.2100031658
0.2100036832
0.2100041805
0.2100045793
0.2100049624
0.2100053034
0.2100054954
0.2100057293
0.2100055705
0.21000573
0.2100062227
0.2100064368
0.210006399
0.2100062347
0.2100041225
0.2100040161
0.2100041536
0.2100041451
0.2100041835
0.2100042369
0.2100043346
0.2100043244
0.2100041392
0.2100038817
0.2100036375
0.2100037434
0.2100041411
0.210004503
0.2100048238
0.2100055365
0.2100055181
0.2100055504
0.2100057601
0.2100057152
0.2100061537
0.2100063314
0.2100066555
0.2100066206
0.21000651
0.2100065485
0.2100039444
0.2100039945
0.2100040519
0.2100040275
0.2100039889
0.2100039547
0.2100039804
0.2100040865
0.2100042392
0.2100042306
0.2100041283
0.210004183
0.2100044486
0.2100047804
0.2100050732
0.2100053538
0.2100054384
0.2100055772
0.2100057011
0.2100059503
0.2100062736
0.210006483
0.2100067374
0.2100068398
0.2100068514
0.2100068586
0.2100068452
0.2100068757
0.2100069218
0.2100069987
0.2100070662
0.2100070181
0.2100068337
0.2100066281
0.2100064818
0.2100063993
0.2100063665
0.2100063721
0.2100064076
0.2100064376
0.2100064012
0.2100062557
0.2100060505
0.2100059
0.2100058427
0.2100058285
0.2100058028
0.2100057382
0.2100056222
0.2100054503
0.2100052431
0.2100050843
0.2100069093
0.210006928
0.2100069597
0.2100070105
0.2100070515
0.2100070163
0.2100068878
0.2100067195
0.2100065573
0.210006417
0.2100063069
0.2100062287
0.2100061752
0.2100061383
0.2100061023
0.2100060586
0.2100060155
0.2100059941
0.210005997
0.2100059875
0.2100059251
0.2100057967
0.2100056027
0.2100053571
0.2100051246
0.2100050262
0.2100070195
0.2100070044
0.2100070094
0.2100070363
0.2100070603
0.2100070213
0.2100068945
0.210006701
0.2100064721
0.2100062499
0.2100060709
0.2100059423
0.2100058554
0.2100058028
0.2100057823
0.2100057964
0.2100058459
0.2100059206
0.2100059844
0.2100059828
0.2100058939
0.21000573
0.2100055004
0.2100052329
0.2100050216
0.2100049716
0.2100070919
0.2100070384
0.2100069962
0.2100069899
0.2100069909
0.210006931
0.2100067538
0.2100064781
0.2100061816
0.210005938
0.2100057735
0.2100056674
0.2100055999
0.2100055688
0.2100055755
0.2100056242
0.210005714
0.210005833
0.2100059359
0.2100059464
0.2100058413
0.2100056528
0.2100054031
0.2100051348
0.2100049469
0.210004905
0.2100069159
0.2100069005
0.2100068337
0.2100068018
0.2100067617
0.2100066382
0.2100063934
0.2100060905
0.2100058257
0.2100056505
0.2100055567
0.210005501
0.2100054626
0.2100054495
0.2100054657
0.2100055177
0.2100056042
0.2100057227
0.2100058412
0.210005876
0.2100057752
0.2100055781
0.2100053247
0.210005068
0.2100048954
0.2100048416
0.2100064986
0.2100065703
0.2100065591
0.2100065357
0.2100064597
0.2100062763
0.210006009
0.2100057498
0.2100055637
0.2100054712
0.2100054523
0.2100054425
0.2100054158
0.2100053956
0.2100053923
0.2100054175
0.2100054664
0.2100055473
0.2100056473
0.2100057036
0.2100056409
0.2100054747
0.2100052497
0.2100050211
0.2100048573
0.2100047804
0.2100060695
0.2100062083
0.210006298
0.2100063157
0.2100062277
0.2100060209
0.210005767
0.2100055536
0.2100054168
0.2100053715
0.2100054061
0.2100054389
0.2100054101
0.2100053553
0.2100053061
0.2100052872
0.2100052833
0.2100053107
0.2100053622
0.2100053942
0.2100053476
0.2100052379
0.2100050853
0.210004936
0.2100048117
0.210004726
0.2100057824
0.2100059689
0.2100061188
0.2100061713
0.2100060803
0.2100058666
0.210005626
0.2100054359
0.2100053191
0.2100052928
0.2100053586
0.2100054376
0.2100054064
0.2100052882
0.2100051793
0.2100051155
0.2100050678
0.2100050545
0.2100050632
0.2100050502
0.2100049724
0.2100048519
0.2100047612
0.2100047158
0.2100047161
0.2100046749
0.2100056627
0.2100058554
0.210005997
0.2100060426
0.2100059343
0.2100057156
0.2100054878
0.2100053165
0.2100052177
0.2100052064
0.2100053001
0.2100054169
0.2100053829
0.2100051801
0.2100050081
0.2100049
0.2100048322
0.210004805
0.2100047969
0.2100047539
0.210004621
0.2100044182
0.2100043093
0.2100043523
0.2100045069
0.210004603
0.2100056249
0.2100057981
0.210005876
0.2100058567
0.2100057039
0.2100054868
0.2100052887
0.2100051507
0.2100050841
0.2100051017
0.2100052379
0.2100053939
0.210005341
0.2100050465
0.2100048084
0.2100046478
0.2100045735
0.2100045575
0.2100045644
0.2100045186
0.2100043402
0.2100040526
0.2100038908
0.2100039298
0.2100042081
0.2100044692
0.2100056143
0.210005748
0.2100057296
0.2100056035
0.2100053893
0.2100051797
0.2100050223
0.210004928
0.2100049049
0.2100049652
0.2100051622
0.2100052947
0.2100051711
0.210004855
0.2100045691
0.2100043537
0.2100042782
0.2100042865
0.2100043322
0.2100042998
0.2100040664
0.2100037251
0.2100035529
0.2100035842
0.2100038767
0.2100042522
0.2100056152
0.2100056982
0.2100055766
0.2100053441
0.2100050921
0.2100048753
0.2100047291
0.2100046601
0.2100046726
0.2100047819
0.2100049998
0.2100050628
0.2100048761
0.2100045945
0.2100042906
0.2100040444
0.2100039623
0.2100039901
0.2100040698
0.2100040374
0.2100037325
0.2100033743
0.2100032278
0.2100033359
0.2100036031
0.2100040351
0.2100056312
0.2100056646
0.2100054624
0.2100051572
0.2100048505
0.2100046095
0.2100044565
0.2100043936
0.2100044231
0.2100045612
0.2100047853
0.2100047995
0.2100045072
0.2100042364
0.2100039825
0.2100037794
0.2100036831
0.2100037149
0.2100038246
0.2100037877
0.2100034151
0.21000303
0.2100029026
0.2100031638
0.2100034098
0.2100038459
0.2100056726
0.2100056693
0.2100054269
0.2100050741
0.2100047263
0.2100044608
0.2100042948
0.2100042233
0.2100042437
0.2100043706
0.2100045742
0.2100046333
0.2100043982
0.2100040651
0.2100037464
0.2100035767
0.2100034957
0.2100034892
0.2100036587
0.2100036911
0.2100033361
0.2100028914
0.2100027222
0.2100030611
0.2100032939
0.2100037155
0.2100057502
0.2100057229
0.2100054877
0.2100051331
0.2100047716
0.2100044926
0.2100043122
0.210004216
0.2100041975
0.2100042802
0.2100044864
0.210004695
0.2100045811
0.2100041398
0.2100037083
0.2100034738
0.2100035008
0.2100033089
0.2100035828
0.2100037468
0.2100035592
0.2100031096
0.2100028708
0.2100031028
0.2100032633
0.2100036704
0.2100058654
0.2100058114
0.21000562
0.2100053222
0.2100049905
0.2100047223
0.2100045399
0.2100044248
0.2100043606
0.2100043748
0.210004502
0.2100046801
0.210004598
0.2100041902
0.2100037351
0.2100033793
0.2100035552
0.210003107
0.2100034987
0.210003874
0.2100041024
0.2100038589
0.2100033971
0.2100033551
0.2100033365
0.2100037113
0.210005996
0.2100058999
0.2100057645
0.2100055491
0.2100052999
0.210005082
0.2100049268
0.2100048157
0.210004738
0.2100047099
0.2100047468
0.2100048159
0.2100047457
0.2100044429
0.2100041323
0.2100038858
0.2100054677
0.2100029367
0.210003604
0.2100037429
0.2100041559
0.2100041945
0.2100039337
0.2100035628
0.2100033949
0.2100037901
0.2100060887
0.2100059593
0.2100058832
0.2100057389
0.210005561
0.2100053836
0.2100052395
0.2100051465
0.2100050778
0.2100050296
0.2100050037
0.210004977
0.2100048466
0.2100044784
0.2100039531
0.2100033987
0.2100031175
0.2100029096
0.2100030702
0.2100033471
0.2100034884
0.2100034576
0.2100039015
0.2100036699
0.2100034531
0.2100038896
0.2100060641
0.2100059846
0.2100059756
0.2100058583
0.2100056952
0.2100055417
0.2100054402
0.2100053627
0.2100052857
0.210005224
0.2100051783
0.2100051321
0.2100050209
0.2100047269
0.2100042409
0.2100037082
0.2100033916
0.2100029312
0.2100029343
0.2100029793
0.2100028741
0.2100030043
0.2100034801
0.2100035533
0.2100035203
0.2100041913
0.2100058724
0.210005876
0.2100059468
0.2100058454
0.2100057013
0.2100054936
0.2100053541
0.210005378
0.2100054263
0.2100053638
0.2100052899
0.2100052314
0.2100051676
0.2100049613
0.2100045238
0.2100039422
0.2100034612
0.2100031286
0.210003065
0.2100031065
0.2100030325
0.2100031509
0.2100036003
0.2100035432
0.2100036856
0.2100044951
0.2100056326
0.2100056354
0.2100057941
0.2100057794
0.2100055739
0.2100050847
0.2100048197
0.2100049818
0.2100053923
0.2100055349
0.2100054197
0.2100052985
0.2100052721
0.2100052443
0.2100049705
0.2100044542
0.2100039247
0.2100035696
0.21000348
0.210003602
0.2100037218
0.2100039017
0.2100039868
0.2100038049
0.2100041905
0.210005169
0.2100055168
0.210005495
0.2100056399
0.2100057932
0.2100058143
0.2100053132
0.2100046438
0.2100045194
0.2100049001
0.2100056918
0.2100055588
0.2100054037
0.2100052658
0.2100053012
0.2100053272
0.2100050455
0.2100046111
0.2100042498
0.2100040754
0.2100041455
0.2100043222
0.2100045003
0.2100044419
0.2100043919
0.2100050003
0.2100058544
0.2100054068
0.2100054204
0.2100055379
0.2100056859
0.2100057851
0.2100057246
0.2100055158
0.2100053304
0.2100053357
0.2100054032
0.2100052063
0.2100052919
0.2100053207
0.2100053148
0.2100053208
0.2100053654
0.210005124
0.2100048206
0.2100046141
0.2100046043
0.2100047431
0.2100049259
0.2100048636
0.2100048995
0.2100054772
0.2100061734
0.2100053357
0.2100053833
0.2100054816
0.2100056322
0.2100057923
0.2100058092
0.2100056851
0.2100054261
0.2100049274
0.2100041282
0.2100038362
0.2100042865
0.2100049565
0.2100052787
0.2100053635
0.2100054587
0.210005418
0.2100052266
0.2100050235
0.2100049549
0.2100050367
0.2100052346
0.2100052654
0.2100053776
0.2100058334
0.2100063333
0.2100052878
0.2100054036
0.2100053536
0.2100055768
0.2100057848
0.2100057936
0.2100055595
0.2100050188
0.2100041547
0.2100033497
0.2100030393
0.210003339
0.2100039408
0.2100045972
0.2100052182
0.2100055956
0.2100055661
0.2100054759
0.2100053149
0.2100052232
0.2100052792
0.2100055139
0.2100056838
0.2100058561
0.2100061584
0.2100049988
0.2100051098
0.2100049698
0.2100053865
0.2100056509
0.2100057721
0.2100055774
0.2100051155
0.2100042972
0.2100030932
0.2100026057
0.2100028151
0.2100033604
0.2100040671
0.2100048597
0.210005592
0.2100056927
0.2100056391
0.2100055265
0.2100054435
0.2100055208
0.2100058309
0.2100058782
0.2100062686
0.210006249
0.2100044421
0.2100050125
0.2100046966
0.2100049101
0.2100052007
0.21000533
0.2100051789
0.2100047801
0.2100040878
0.2100033497
0.2100029321
0.2100030941
0.2100037291
0.2100045439
0.2100051244
0.2100055693
0.2100058123
0.2100057685
0.2100057201
0.2100056446
0.2100057757
0.2100062234
0.210006266
0.2100064009
0.2100063909
0.2100042589
0.2100044966
0.2100046041
0.2100047462
0.2100048691
0.2100049565
0.2100048834
0.2100045455
0.2100038877
0.2100033148
0.2100030215
0.2100032702
0.210004026
0.2100048653
0.2100053466
0.2100057599
0.2100059218
0.2100059178
0.2100061067
0.210005879
0.2100060479
0.2100065188
0.2100066367