/*--------------------------------*- C++ -*----------------------------------*\
  =========                 |
  \\      /  F ield         | OpenFOAM: The Open Source CFD Toolbox
   \\    /   O peration     | Website:  https://openfoam.org
    \\  /    A nd           | Version:  8
     \\/     M anipulation  |
\*---------------------------------------------------------------------------*/
FoamFile
{
    version     2.0;
    format      ascii;
    class       volScalarField;
    location    "0.6";
    object      p;
}
// * * * * * * * * * * * * * * * * * * * * * * * * * * * * * * * * * * * * * //

dimensions      [1 -1 -2 0 0 0 0];

internalField   nonuniform List<scalar> 
67410
(
100003.8129
100003.8125
100003.8141
100003.8159
100003.8185
100003.8217
100003.8261
100003.8319
100003.8412
100003.8527
100003.8631
100003.8706
100003.8755
100003.8784
100003.8798
100003.8796
100003.8784
100003.8767
100003.8755
100003.8762
100003.8804
100003.8891
100003.9022
100003.9175
100003.9305
100003.9408
100003.8122
100003.8111
100003.8123
100003.8131
100003.8144
100003.8155
100003.8173
100003.8221
100003.8286
100003.8333
100003.8365
100003.8391
100003.8413
100003.8437
100003.8462
100003.8474
100003.8474
100003.8465
100003.8457
100003.8462
100003.8491
100003.8552
100003.8644
100003.8751
100003.8823
100003.8849
100003.8117
100003.8089
100003.8099
100003.8099
100003.8116
100003.813
100003.8144
100003.8168
100003.8179
100003.8175
100003.8166
100003.8163
100003.8173
100003.8201
100003.8246
100003.8283
100003.8309
100003.8319
100003.8324
100003.8335
100003.8361
100003.841
100003.8487
100003.8586
100003.8655
100003.8662
100003.8082
100003.8035
100003.8036
100003.8021
100003.8037
100003.8048
100003.8053
100003.8041
100003.8006
100003.7957
100003.791
100003.7883
100003.7886
100003.7922
100003.7991
100003.805
100003.8103
100003.8132
100003.815
100003.8167
100003.819
100003.8229
100003.8289
100003.8386
100003.846
100003.8461
100003.8023
100003.7956
100003.7942
100003.791
100003.7909
100003.7906
100003.7897
100003.7859
100003.7795
100003.7718
100003.765
100003.7614
100003.7623
100003.7682
100003.778
100003.7867
100003.7956
100003.8011
100003.8046
100003.8074
100003.8097
100003.8124
100003.816
100003.8256
100003.8352
100003.8389
100003.7962
100003.7834
100003.78
100003.7742
100003.772
100003.7703
100003.7686
100003.7637
100003.7554
100003.7459
100003.7379
100003.7341
100003.7372
100003.7475
100003.761
100003.7727
100003.7854
100003.7937
100003.7989
100003.803
100003.8061
100003.8078
100003.8085
100003.8175
100003.8295
100003.8401
100003.7886
100003.7682
100003.7635
100003.7553
100003.7525
100003.7504
100003.7482
100003.7416
100003.7308
100003.7193
100003.7103
100003.7095
100003.7161
100003.732
100003.7497
100003.7642
100003.7802
100003.7915
100003.7978
100003.8031
100003.8068
100003.8086
100003.8077
100003.8146
100003.8267
100003.8444
100003.7811
100003.7546
100003.7484
100003.7388
100003.7361
100003.7344
100003.7316
100003.7225
100003.7082
100003.6939
100003.689
100003.7017
100003.7098
100003.7256
100003.7468
100003.7635
100003.781
100003.7948
100003.8015
100003.8065
100003.8103
100003.8141
100003.8152
100003.8191
100003.8276
100003.8487
100003.7757
100003.7443
100003.737
100003.727
100003.7254
100003.7246
100003.7207
100003.7084
100003.6897
100003.677
100003.6915
100003.726
100003.7299
100003.7366
100003.7567
100003.7753
100003.7906
100003.806
100003.8114
100003.8133
100003.8174
100003.8277
100003.8315
100003.8322
100003.8353
100003.8514
100003.773
100003.7381
100003.7302
100003.7207
100003.7207
100003.721
100003.716
100003.7001
100003.6788
100003.683
100003.7257
100003.7888
100003.7903
100003.7703
100003.78
100003.8031
100003.8135
100003.8286
100003.8309
100003.8257
100003.8375
100003.8611
100003.8595
100003.8535
100003.8509
100003.8571
100003.7727
100003.7355
100003.7277
100003.7193
100003.721
100003.7221
100003.7165
100003.6993
100003.6842
100003.7121
100003.7866
100003.8846
100003.8947
100003.8327
100003.8174
100003.8456
100003.851
100003.8635
100003.8612
100003.847
100003.8901
100003.9315
100003.9018
100003.8839
100003.8707
100003.8685
100003.7736
100003.7351
100003.7277
100003.7203
100003.7231
100003.726
100003.7212
100003.7073
100003.7067
100003.7549
100003.8546
100003.9807
100004.016
100003.921
100003.8684
100003.8916
100003.8969
100003.9053
100003.8975
100003.885
100003.9816
100004.0364
100003.9589
100003.9195
100003.8917
100003.8811
100003.7751
100003.7361
100003.7285
100003.7213
100003.724
100003.7282
100003.7263
100003.7135
100003.7029
100003.7296
100003.8197
100003.9554
100004.0355
100003.9793
100003.9217
100003.9343
100003.9375
100003.9421
100003.9304
100003.9346
100004.0858
100004.1541
100004.025
100003.9455
100003.9092
100003.8936
100003.7785
100003.7387
100003.7298
100003.7216
100003.7228
100003.7259
100003.7278
100003.725
100003.7198
100003.7218
100003.758
100003.8429
100003.9336
100003.963
100003.9576
100003.9683
100003.9761
100003.9706
100003.9601
100003.9399
100003.997
100004.0828
100004.0178
100003.9415
100003.9228
100003.9052
100003.7869
100003.7443
100003.7332
100003.7238
100003.7249
100003.7297
100003.7356
100003.7398
100003.7436
100003.7514
100003.7702
100003.8069
100003.8639
100003.9165
100003.9631
100004
100004.0213
100003.9776
100003.9641
100003.9471
100003.9491
100003.9704
100003.9708
100003.9262
100003.9267
100003.9106
100003.8024
100003.7514
100003.7373
100003.726
100003.727
100003.733
100003.7412
100003.7512
100003.7624
100003.7747
100003.7915
100003.8177
100003.859
100003.909
100003.9679
100004.0262
100004.0723
100004.0009
100003.9807
100003.9597
100003.9617
100003.9418
100003.9288
100003.9164
100003.9139
100003.9128
100003.8243
100003.7556
100003.7373
100003.7194
100003.7164
100003.7221
100003.7336
100003.7533
100003.7781
100003.7977
100003.8132
100003.8317
100003.8649
100003.9221
100004.0041
100004.1049
100004.2516
100004.0354
100004.0129
100003.9565
100003.9448
100003.9306
100003.9179
100003.906
100003.9134
100003.9117
100003.8482
100003.7566
100003.7312
100003.703
100003.6914
100003.6889
100003.6984
100003.7249
100003.7651
100003.7988
100003.8245
100003.8413
100003.8541
100003.8803
100003.9197
100003.9624
100004.002
100003.9828
100003.9628
100003.9336
100003.925
100003.9084
100003.8961
100003.8954
100003.9005
100003.9069
100003.8695
100003.756
100003.7242
100003.6951
100003.6878
100003.6812
100003.672
100003.6852
100003.7315
100003.775
100003.8158
100003.8505
100003.8659
100003.874
100003.8965
100003.936
100003.9757
100003.9652
100003.9592
100003.945
100003.987
100004.0218
100003.9039
100003.8919
100003.9085
100003.9108
100003.8925
100003.7609
100003.7321
100003.7207
100003.7429
100003.7508
100003.7243
100003.6901
100003.7067
100003.739
100003.7785
100003.8333
100003.8751
100003.8861
100003.8811
100003.8976
100003.9186
100003.9212
100003.9215
100003.9151
100003.9379
100003.9437
100003.8888
100003.882
100003.8942
100003.9051
100003.9175
100003.7688
100003.7249
100003.7173
100003.7708
100003.8146
100003.8183
100003.7751
100003.7248
100003.7246
100003.7371
100003.7792
100003.8412
100003.8913
100003.875
100003.865
100003.868
100003.8662
100003.8611
100003.8475
100003.8487
100003.8447
100003.8391
100003.8388
100003.8519
100003.8545
100003.9496
100003.7983
100003.7571
100003.7135
100003.7319
100003.7757
100003.8252
100003.8361
100003.7909
100003.7488
100003.7458
100003.748
100003.7826
100003.8578
100003.8814
100003.8545
100003.8347
100003.8203
100003.8081
100003.7974
100003.7963
100003.7875
100003.7965
100003.7953
100003.8095
100003.8033
100003.9569
100003.8092
100003.7911
100003.7322
100003.7285
100003.7331
100003.7518
100003.7752
100003.7892
100003.7942
100003.8007
100003.7788
100003.7616
100003.773
100003.8407
100003.8476
100003.8242
100003.7962
100003.7781
100003.7711
100003.7733
100003.7643
100003.7697
100003.7656
100003.78
100003.7739
100003.908
100003.7679
100003.7993
100003.7075
100003.7028
100003.7041
100003.7329
100003.7809
100003.8363
100003.8872
100003.9026
100003.8618
100003.8001
100003.7557
100003.749
100003.787
100003.8029
100003.7852
100003.7691
100003.7631
100003.7668
100003.7591
100003.7663
100003.7601
100003.7768
100003.7619
100003.8964
100003.7273
100003.8364
100003.7217
100003.7169
100003.7115
100003.7549
100003.8366
100003.9188
100003.9751
100003.9898
100003.9419
100003.8656
100003.7848
100003.7318
100003.7188
100003.7562
100003.7655
100003.763
100003.7614
100003.7656
100003.7606
100003.7596
100003.7561
100003.7686
100004.0699
100003.8484
100003.8766
100003.7571
100003.7231
100003.7095
100003.7393
100003.7955
100003.8785
100003.979
100004.0144
100003.9768
100003.9035
100003.814
100003.743
100003.7002
100003.7151
100003.7429
100003.7615
100003.7668
100003.7745
100003.7758
100003.7832
100003.7823
100003.829
100004.1886
100003.6579
100003.7791
100003.8107
100003.7856
100003.742
100003.7553
100003.7994
100003.8662
100003.9415
100003.9666
100003.9288
100003.8591
100003.7835
100003.7353
100003.7093
100003.7072
100003.7267
100003.7541
100003.7649
100003.7688
100003.7763
100003.76
100003.7591
100003.7317
100003.7483
100003.6745
100003.7927
100003.7539
100003.7475
100003.7269
100003.7389
100003.7739
100003.8283
100003.8865
100003.9052
100003.8698
100003.8058
100003.7434
100003.7103
100003.7067
100003.7083
100003.7352
100003.78
100003.7561
100003.7704
100003.7734
100003.7732
100003.7722
100003.7701
100003.8465
100003.7213
100003.8413
100003.7982
100003.8088
100003.7912
100003.7786
100003.767
100003.7687
100003.7895
100003.7989
100003.7769
100003.7418
100003.7132
100003.7201
100003.7654
100003.6831
100003.7233
100003.7652
100003.7797
100003.7913
100003.9256
100003.7788
100003.7858
100003.7803
100003.78
100003.9598
100003.7993
100003.8359
100003.7918
100003.8045
100003.8106
100003.8222
100003.8296
100003.774
100003.7524
100003.7362
100003.7169
100003.6976
100003.6823
100003.7013
100003.6783
100003.6913
100003.746
100003.8381
100003.8278
100003.7946
100003.8382
100003.7798
100003.7763
100003.7902
100003.7898
100003.6877
100003.6872
100003.6885
100003.6902
100003.6929
100003.6963
100003.7013
100003.7079
100003.7138
100003.7181
100003.7222
100003.7272
100003.7321
100003.7367
100003.7403
100003.7419
100003.7412
100003.7394
100003.7381
100003.7388
100003.7431
100003.7522
100003.7659
100003.7815
100003.7931
100003.7977
100003.6872
100003.6858
100003.6867
100003.6872
100003.6887
100003.6906
100003.6937
100003.6977
100003.7006
100003.7021
100003.7025
100003.7023
100003.704
100003.7074
100003.7111
100003.7131
100003.7133
100003.7121
100003.7107
100003.7107
100003.7134
100003.7199
100003.7301
100003.741
100003.7459
100003.7391
100003.6872
100003.6841
100003.6847
100003.6845
100003.6861
100003.688
100003.6904
100003.6913
100003.6893
100003.685
100003.6799
100003.6774
100003.6788
100003.6836
100003.6897
100003.6949
100003.6981
100003.699
100003.6987
100003.6989
100003.7009
100003.7057
100003.7138
100003.723
100003.7259
100003.7157
100003.6853
100003.6796
100003.6792
100003.6767
100003.6772
100003.6776
100003.6778
100003.675
100003.6682
100003.6585
100003.6492
100003.6447
100003.6468
100003.6542
100003.6629
100003.6712
100003.678
100003.6813
100003.6825
100003.683
100003.6839
100003.6866
100003.6925
100003.7007
100003.7044
100003.6949
100003.6796
100003.6702
100003.6672
100003.6622
100003.6614
100003.6605
100003.659
100003.653
100003.6414
100003.6264
100003.614
100003.6101
100003.6157
100003.628
100003.64
100003.6517
100003.6635
100003.6705
100003.6735
100003.6742
100003.6739
100003.6748
100003.6784
100003.6863
100003.6946
100003.6955
100003.6681
100003.6537
100003.6486
100003.6417
100003.6398
100003.6377
100003.6346
100003.6252
100003.607
100003.5858
100003.5728
100003.5741
100003.5861
100003.6051
100003.6212
100003.6356
100003.6525
100003.6637
100003.6683
100003.6684
100003.6666
100003.6666
100003.6687
100003.6757
100003.6867
100003.698
100003.6533
100003.6327
100003.6284
100003.6207
100003.6185
100003.6151
100003.6093
100003.5932
100003.5651
100003.5395
100003.5348
100003.5487
100003.5649
100003.5884
100003.6094
100003.6248
100003.6454
100003.6607
100003.6668
100003.6649
100003.6625
100003.6626
100003.6651
100003.6702
100003.6806
100003.6995
100003.6388
100003.6147
100003.6111
100003.6031
100003.6005
100003.5952
100003.5844
100003.5576
100003.5194
100003.503
100003.5207
100003.5415
100003.5554
100003.5813
100003.6073
100003.6213
100003.6426
100003.6603
100003.6662
100003.659
100003.6553
100003.6579
100003.6658
100003.6717
100003.6783
100003.6989
100003.6293
100003.6021
100003.5983
100003.5897
100003.5868
100003.5794
100003.561
100003.5222
100003.4867
100003.4967
100003.5267
100003.5483
100003.5598
100003.5821
100003.6142
100003.6272
100003.6465
100003.6627
100003.6652
100003.6487
100003.6475
100003.6545
100003.6711
100003.6798
100003.6844
100003.6997
100003.6248
100003.5949
100003.5905
100003.5815
100003.5782
100003.5692
100003.5435
100003.4962
100003.4827
100003.5104
100003.5394
100003.5642
100003.5758
100003.5891
100003.6262
100003.6435
100003.6584
100003.6693
100003.664
100003.6388
100003.648
100003.6588
100003.6813
100003.6927
100003.6961
100003.7056
100003.6238
100003.592
100003.5873
100003.5782
100003.5749
100003.5652
100003.5354
100003.4931
100003.4949
100003.5244
100003.5535
100003.5865
100003.6053
100003.6113
100003.6453
100003.6704
100003.6809
100003.6827
100003.6681
100003.6433
100003.6654
100003.6759
100003.698
100003.706
100003.7102
100003.7152
100003.6246
100003.5924
100003.5877
100003.5795
100003.5771
100003.5691
100003.5437
100003.5106
100003.5136
100003.5372
100003.5698
100003.6147
100003.6488
100003.6535
100003.6789
100003.7072
100003.7138
100003.7063
100003.6858
100003.6698
100003.6927
100003.7036
100003.7198
100003.7177
100003.7228
100003.7252
100003.6267
100003.595
100003.5904
100003.5832
100003.5831
100003.5801
100003.5648
100003.5366
100003.5241
100003.5357
100003.566
100003.6167
100003.672
100003.6972
100003.7304
100003.7496
100003.7551
100003.7392
100003.7147
100003.7013
100003.7237
100003.734
100003.7403
100003.7283
100003.7336
100003.7347
100003.6311
100003.5994
100003.5943
100003.5874
100003.5896
100003.5929
100003.5932
100003.5827
100003.5656
100003.5605
100003.5755
100003.6147
100003.6753
100003.7285
100003.7712
100003.7901
100003.8052
100003.7771
100003.7489
100003.7083
100003.7012
100003.7148
100003.7472
100003.7408
100003.7449
100003.7431
100003.6391
100003.6042
100003.5962
100003.5876
100003.5915
100003.5997
100003.6081
100003.6099
100003.6024
100003.5937
100003.5965
100003.6235
100003.6758
100003.7391
100003.7907
100003.8297
100003.8769
100003.8049
100003.7927
100003.7858
100003.7582
100003.7423
100003.7545
100003.7593
100003.7528
100003.7481
100003.648
100003.6016
100003.5884
100003.5768
100003.5826
100003.5973
100003.6125
100003.622
100003.6256
100003.626
100003.6295
100003.6447
100003.6803
100003.7298
100003.7881
100003.8407
100003.9262
100003.8198
100003.8103
100003.8001
100003.7768
100003.745
100003.7678
100003.7595
100003.7517
100003.7473
100003.6426
100003.5733
100003.5559
100003.5419
100003.5413
100003.552
100003.5792
100003.609
100003.6294
100003.6392
100003.6467
100003.6608
100003.6962
100003.7637
100003.862
100003.9656
100004.3106
100003.8424
100003.8633
100003.7819
100003.748
100003.7031
100003.7415
100003.7367
100003.7421
100003.7382
100003.6195
100003.5353
100003.5413
100003.5348
100003.5285
100003.5193
100003.525
100003.5603
100003.6035
100003.6319
100003.6509
100003.6632
100003.6777
100003.7033
100003.7361
100003.7672
100003.8072
100003.7801
100003.7686
100003.7428
100003.7102
100003.6953
100003.7249
100003.7267
100003.7288
100003.726
100003.603
100003.5226
100003.5478
100003.5318
100003.5198
100003.5042
100003.4905
100003.5057
100003.551
100003.5909
100003.6282
100003.6617
100003.6763
100003.6919
100003.7202
100003.7621
100003.8135
100003.764
100003.7466
100003.7113
100003.7021
100003.692
100003.684
100003.6836
100003.709
100003.7083
100003.6032
100003.5177
100003.5398
100003.5215
100003.5208
100003.5174
100003.5102
100003.4992
100003.5139
100003.5439
100003.573
100003.6267
100003.6769
100003.6881
100003.6943
100003.7116
100003.7296
100003.7226
100003.7174
100003.7015
100003.6905
100003.678
100003.6866
100003.6894
100003.692
100003.6851
100003.6216
100003.5068
100003.5093
100003.5152
100003.5319
100003.5485
100003.5578
100003.5403
100003.5129
100003.5185
100003.5323
100003.5639
100003.6223
100003.6789
100003.6743
100003.6751
100003.6792
100003.6751
100003.6693
100003.6572
100003.6461
100003.6364
100003.6568
100003.6561
100003.6617
100003.6491
100003.6525
100003.5431
100003.5198
100003.5045
100003.533
100003.5635
100003.5978
100003.6006
100003.5761
100003.5454
100003.547
100003.54
100003.5644
100003.6192
100003.6697
100003.6546
100003.6471
100003.6394
100003.6312
100003.624
100003.6219
100003.6091
100003.6349
100003.628
100003.6368
100003.6244
100003.5788
100003.5689
100003.5512
100003.5127
100003.5191
100003.5226
100003.5354
100003.5584
100003.5725
100003.5567
100003.5547
100003.5456
100003.5449
100003.5533
100003.6015
100003.641
100003.6346
100003.6184
100003.6091
100003.6043
100003.6146
100003.5952
100003.6176
100003.6097
100003.6204
100003.6118
100003.439
100003.5376
100003.5342
100003.4894
100003.5013
100003.515
100003.5391
100003.5635
100003.586
100003.602
100003.6028
100003.5808
100003.5492
100003.5369
100003.538
100003.5714
100003.6125
100003.6089
100003.6054
100003.6
100003.6172
100003.5977
100003.6152
100003.6017
100003.6175
100003.6059
100003.4649
100003.5011
100003.5403
100003.4844
100003.4932
100003.5032
100003.5236
100003.5599
100003.6162
100003.6467
100003.651
100003.6252
100003.5859
100003.5502
100003.534
100003.5307
100003.5662
100003.591
100003.6034
100003.6029
100003.6226
100003.6081
100003.6161
100003.6132
100003.6159
100003.6682
100003.5526
100003.6225
100003.5179
100003.5074
100003.5153
100003.5372
100003.565
100003.6038
100003.652
100003.6654
100003.6435
100003.6032
100003.5644
100003.5341
100003.5284
100003.5445
100003.5704
100003.6001
100003.6063
100003.6302
100003.6064
100003.617
100003.6267
100003.6177
100003.5988
100003.3817
100003.4114
100003.4991
100003.5249
100003.5159
100003.5348
100003.5606
100003.5996
100003.6384
100003.6485
100003.6263
100003.5895
100003.5569
100003.5435
100003.537
100003.5408
100003.5603
100003.5961
100003.6083
100003.6254
100003.6118
100003.605
100003.5992
100003.5945
100003.48
100003.4741
100003.5607
100003.5588
100003.5455
100003.525
100003.532
100003.5513
100003.5805
100003.6114
100003.6154
100003.595
100003.5603
100003.5343
100003.53
100003.5452
100003.5444
100003.5775
100003.6075
100003.5857
100003.6246
100003.5843
100003.6072
100003.5953
100003.6183
100003.3303
100003.5425
100003.6229
100003.6077
100003.5979
100003.5675
100003.5478
100003.5345
100003.5385
100003.5549
100003.5595
100003.5509
100003.5397
100003.5297
100003.5552
100003.5717
100003.5212
100003.5537
100003.5868
100003.5961
100003.6157
100003.5105
100003.6048
100003.6178
100003.6358
100003.6446
100003.5619
100003.6304
100003.6418
100003.6169
100003.6133
100003.6025
100003.5974
100003.5857
100003.545
100003.5382
100003.5314
100003.5279
100003.5273
100003.5184
100003.5427
100003.5185
100003.5294
100003.5729
100003.5892
100003.6357
100003.6146
100003.5681
100003.5911
100003.5914
100003.642
100003.6508
100003.5518
100003.5511
100003.5517
100003.5524
100003.5536
100003.5547
100003.5559
100003.5578
100003.5605
100003.5626
100003.5638
100003.5655
100003.5682
100003.5719
100003.5754
100003.5784
100003.5805
100003.5822
100003.5839
100003.5867
100003.5919
100003.6008
100003.6129
100003.625
100003.6313
100003.6301
100003.5507
100003.5492
100003.5493
100003.5488
100003.5491
100003.5489
100003.549
100003.5497
100003.5507
100003.5515
100003.5524
100003.5533
100003.5546
100003.5567
100003.5597
100003.5623
100003.5642
100003.5654
100003.5664
100003.5678
100003.5709
100003.577
100003.5856
100003.5943
100003.5981
100003.5953
100003.5492
100003.5462
100003.546
100003.5447
100003.5447
100003.5444
100003.5442
100003.5441
100003.543
100003.5412
100003.5392
100003.5382
100003.5392
100003.5424
100003.5468
100003.5509
100003.5543
100003.5566
100003.5581
100003.5598
100003.5627
100003.5678
100003.5751
100003.583
100003.5869
100003.5861
100003.5449
100003.54
100003.5392
100003.5361
100003.5354
100003.5341
100003.5328
100003.5305
100003.5271
100003.5232
100003.5202
100003.5191
100003.5204
100003.5243
100003.5298
100003.5353
100003.5401
100003.5437
100003.5465
100003.5488
100003.5514
100003.5552
100003.5612
100003.5688
100003.5734
100003.5738
100003.5365
100003.5303
100003.5291
100003.5249
100003.5233
100003.5206
100003.5179
100003.5141
100003.5095
100003.5057
100003.5031
100003.5025
100003.5046
100003.51
100003.5176
100003.5253
100003.5326
100003.5385
100003.5435
100003.5469
100003.5485
100003.5497
100003.5531
100003.56
100003.5669
100003.5714
100003.5238
100003.5167
100003.5145
100003.5092
100003.5066
100003.5025
100003.4986
100003.4941
100003.4899
100003.4875
100003.4868
100003.4876
100003.491
100003.4987
100003.5086
100003.5188
100003.5287
100003.5367
100003.5432
100003.5478
100003.5494
100003.5484
100003.548
100003.5528
100003.5614
100003.5708
100003.5092
100003.4991
100003.4982
100003.4923
100003.4892
100003.4838
100003.4793
100003.4749
100003.4716
100003.4713
100003.4732
100003.4759
100003.4814
100003.4922
100003.5043
100003.5163
100003.5283
100003.538
100003.5451
100003.5494
100003.5498
100003.5479
100003.5458
100003.5491
100003.5572
100003.5708
100003.4948
100003.4825
100003.4826
100003.476
100003.4731
100003.4673
100003.4624
100003.4582
100003.4562
100003.4584
100003.4615
100003.4666
100003.4743
100003.4883
100003.5028
100003.5168
100003.5304
100003.5417
100003.5493
100003.5525
100003.552
100003.5498
100003.5469
100003.5488
100003.5556
100003.5709
100003.4837
100003.4704
100003.4697
100003.4634
100003.4613
100003.4557
100003.4505
100003.4461
100003.4455
100003.4484
100003.4516
100003.4574
100003.4661
100003.4834
100003.5035
100003.5213
100003.5366
100003.5492
100003.5573
100003.5591
100003.5571
100003.5547
100003.5527
100003.5533
100003.5582
100003.573
100003.478
100003.4626
100003.4613
100003.4558
100003.4545
100003.4491
100003.444
100003.4399
100003.4401
100003.4416
100003.4435
100003.4526
100003.466
100003.4881
100003.514
100003.5346
100003.5508
100003.5631
100003.5705
100003.5701
100003.5657
100003.5632
100003.5619
100003.5633
100003.5654
100003.5784
100003.4762
100003.4589
100003.4574
100003.4526
100003.4507
100003.4467
100003.4435
100003.4415
100003.4427
100003.4427
100003.4498
100003.4707
100003.4931
100003.5109
100003.5361
100003.5573
100003.5733
100003.584
100003.5908
100003.5894
100003.5803
100003.578
100003.5736
100003.5763
100003.5761
100003.5872
100003.4768
100003.4586
100003.4572
100003.4517
100003.4501
100003.4488
100003.4486
100003.4489
100003.4514
100003.456
100003.4698
100003.5013
100003.5303
100003.5458
100003.5672
100003.5865
100003.6022
100003.6089
100003.6154
100003.6104
100003.6016
100003.602
100003.5883
100003.5915
100003.5884
100003.5971
100003.4791
100003.4609
100003.4591
100003.4539
100003.4539
100003.4554
100003.4581
100003.4608
100003.4643
100003.4704
100003.4858
100003.5187
100003.5547
100003.579
100003.6035
100003.6206
100003.6406
100003.6364
100003.6427
100003.6365
100003.6282
100003.63
100003.6053
100003.6068
100003.6007
100003.6084
100003.4826
100003.465
100003.4623
100003.4578
100003.4592
100003.4631
100003.469
100003.4749
100003.4799
100003.4854
100003.4958
100003.519
100003.5541
100003.593
100003.6307
100003.6581
100003.7035
100003.6634
100003.67
100003.6607
100003.6422
100003.6417
100003.6167
100003.6183
100003.6116
100003.6188
100003.4874
100003.4699
100003.466
100003.4614
100003.4637
100003.4697
100003.4785
100003.4875
100003.4954
100003.5029
100003.5136
100003.5296
100003.5582
100003.6026
100003.6558
100003.705
100003.8429
100003.6807
100003.6946
100003.6841
100003.6621
100003.6426
100003.6178
100003.6224
100003.6194
100003.6286
100003.4929
100003.4744
100003.4701
100003.4635
100003.4654
100003.4714
100003.4802
100003.489
100003.4964
100003.5034
100003.5136
100003.5301
100003.5519
100003.5871
100003.6401
100003.6819
100003.9135
100003.6707
100003.717
100003.6939
100003.6901
100003.6851
100003.6433
100003.6387
100003.629
100003.6378
100003.4969
100003.4779
100003.4763
100003.4645
100003.4639
100003.4677
100003.4745
100003.4832
100003.493
100003.5016
100003.5116
100003.53
100003.5688
100003.6552
100003.8066
100003.8817
100004.8987
100003.6375
100003.8858
100003.6858
100003.6773
100003.6562
100003.6357
100003.6315
100003.6288
100003.64
100003.5013
100003.4828
100003.4911
100003.4762
100003.4695
100003.4626
100003.4602
100003.465
100003.4756
100003.4857
100003.4959
100003.508
100003.5231
100003.5409
100003.556
100003.5648
100003.6181
100003.6152
100003.6286
100003.6306
100003.6317
100003.6177
100003.6172
100003.6175
100003.6199
100003.6353
100003.5033
100003.4822
100003.4898
100003.4584
100003.4523
100003.4429
100003.4368
100003.4374
100003.4539
100003.4695
100003.4838
100003.497
100003.5097
100003.5295
100003.5665
100003.6179
100003.7309
100003.6019
100003.617
100003.602
100003.5965
100003.5918
100003.592
100003.6011
100003.6053
100003.6154
100003.4999
100003.47
100003.4761
100003.4405
100003.4414
100003.4347
100003.4292
100003.4218
100003.4253
100003.4436
100003.4616
100003.4832
100003.501
100003.5113
100003.5249
100003.5412
100003.5632
100003.556
100003.5634
100003.5635
100003.5621
100003.5596
100003.5633
100003.5724
100003.5816
100003.5933
100003.4904
100003.4494
100003.4605
100003.4222
100003.443
100003.4413
100003.4471
100003.4314
100003.4305
100003.42
100003.4315
100003.4496
100003.4789
100003.4966
100003.4995
100003.505
100003.5132
100003.514
100003.518
100003.5194
100003.5234
100003.5251
100003.5315
100003.5401
100003.547
100003.552
100003.4854
100003.4388
100003.4383
100003.4116
100003.423
100003.435
100003.4516
100003.4505
100003.4299
100003.4197
100003.4262
100003.4302
100003.4484
100003.4772
100003.4877
100003.4844
100003.4845
100003.4849
100003.4864
100003.4883
100003.4962
100003.4998
100003.5059
100003.5112
100003.5197
100003.5262
100003.4858
100003.4435
100003.4493
100003.4155
100003.4248
100003.4239
100003.4397
100003.4506
100003.4559
100003.439
100003.4296
100003.4319
100003.432
100003.4464
100003.4703
100003.4756
100003.4731
100003.4696
100003.4683
100003.4703
100003.4788
100003.4828
100003.4906
100003.4949
100003.5057
100003.5139
100003.5097
100003.4607
100003.4555
100003.4004
100003.4204
100003.4157
100003.4328
100003.4491
100003.4609
100003.4647
100003.4576
100003.4461
100003.437
100003.4352
100003.4492
100003.4617
100003.4686
100003.4675
100003.4668
100003.4674
100003.4772
100003.4812
100003.4894
100003.4929
100003.4989
100003.5059
100003.5674
100003.5031
100003.494
100003.409
100003.4219
100003.4138
100003.428
100003.4473
100003.4744
100003.4872
100003.4865
100003.4717
100003.4535
100003.4419
100003.4372
100003.4483
100003.4621
100003.466
100003.4701
100003.4723
100003.4825
100003.4911
100003.4976
100003.5016
100003.5074
100003.6353
100003.52
100003.5508
100003.4286
100003.4241
100003.4166
100003.4281
100003.4426
100003.4641
100003.4925
100003.4976
100003.4843
100003.4653
100003.4479
100003.4377
100003.4407
100003.4553
100003.4662
100003.4765
100003.4795
100003.4906
100003.5106
100003.5066
100003.5239
100003.4893
100003.5918
100003.4844
100003.5388
100003.4727
100003.4398
100003.4307
100003.433
100003.4455
100003.4662
100003.4881
100003.4912
100003.4753
100003.4579
100003.44
100003.4439
100003.4401
100003.4532
100003.4606
100003.485
100003.4858
100003.4941
100003.5076
100003.493
100003.506
100003.4788
100003.5798
100003.51
100003.5085
100003.4702
100003.451
100003.4233
100003.4267
100003.4418
100003.4612
100003.478
100003.4749
100003.4573
100003.439
100003.4305
100003.4327
100003.4449
100003.4544
100003.4778
100003.4994
100003.4886
100003.5067
100003.5112
100003.507
100003.515
100003.4975
100003.5589
100003.4997
100003.5089
100003.4748
100003.465
100003.4443
100003.4348
100003.4333
100003.4453
100003.4597
100003.457
100003.4446
100003.4405
100003.4341
100003.4507
100003.471
100003.4423
100003.4551
100003.4636
100003.4909
100003.5431
100003.5084
100003.5205
100003.5162
100003.5186
100003.526
100003.5441
100003.5128
100003.5119
100003.4838
100003.4752
100003.4615
100003.4587
100003.4567
100003.452
100003.455
100003.4471
100003.4363
100003.4303
100003.4282
100003.4413
100003.4373
100003.4356
100003.4636
100003.4121
100003.491
100003.508
100003.5144
100003.5176
100003.5202
100003.5218
100003.5249
100003.4139
100003.4133
100003.4134
100003.4136
100003.4141
100003.4145
100003.4146
100003.4146
100003.4148
100003.4151
100003.4154
100003.4157
100003.4166
100003.4186
100003.4217
100003.4249
100003.427
100003.4287
100003.4306
100003.4335
100003.4385
100003.4468
100003.4577
100003.4679
100003.4721
100003.4681
100003.4125
100003.4113
100003.411
100003.4102
100003.4099
100003.4092
100003.4084
100003.4077
100003.407
100003.4064
100003.4061
100003.4067
100003.4082
100003.4102
100003.4123
100003.4141
100003.4158
100003.4174
100003.4192
100003.421
100003.4242
100003.43
100003.4378
100003.445
100003.447
100003.4418
100003.4105
100003.4082
100003.4077
100003.4061
100003.4056
100003.4047
100003.4037
100003.4024
100003.4006
100003.3985
100003.3964
100003.3953
100003.3958
100003.3979
100003.4012
100003.405
100003.4085
100003.4115
100003.4141
100003.4165
100003.4199
100003.4253
100003.4324
100003.4388
100003.4401
100003.4344
100003.4064
100003.4025
100003.4014
100003.3982
100003.3967
100003.3944
100003.3922
100003.3893
100003.3859
100003.3821
100003.3788
100003.3773
100003.3781
100003.3813
100003.3862
100003.3917
100003.3969
100003.4013
100003.4051
100003.4083
100003.412
100003.4172
100003.4239
100003.4301
100003.4311
100003.4248
100003.3992
100003.3937
100003.3923
100003.3882
100003.3858
100003.3822
100003.3785
100003.374
100003.369
100003.3642
100003.3604
100003.3589
100003.3609
100003.3664
100003.3741
100003.3827
100003.3909
100003.3975
100003.4027
100003.4064
100003.4094
100003.4132
100003.4186
100003.4251
100003.4285
100003.4263
100003.3874
100003.3815
100003.3791
100003.3743
100003.3708
100003.3652
100003.3596