/*--------------------------------*- C++ -*----------------------------------*\
  =========                 |
  \\      /  F ield         | OpenFOAM: The Open Source CFD Toolbox
   \\    /   O peration     | Website:  https://openfoam.org
    \\  /    A nd           | Version:  8
     \\/     M anipulation  |
\*---------------------------------------------------------------------------*/
FoamFile
{
    version     2.0;
    format      ascii;
    class       volVectorField;
    location    "0.6";
    object      U;
}
// * * * * * * * * * * * * * * * * * * * * * * * * * * * * * * * * * * * * * //

dimensions      [0 1 -1 0 0 0 0];

internalField   nonuniform List<vector> 
67410
(
(-0.007216442098 -0.01782815252 0.03161970711)
(-0.02581153314 -0.0161724165 0.03418786801)
(-0.05058091077 -0.01387360557 0.0373032187)
(-0.08275776704 -0.01132981255 0.04199617987)
(-0.1254552901 -0.01520937049 0.04857099158)
(-0.1711918686 -0.02655791136 0.0569450296)
(-0.210687525 -0.040279858 0.06767547262)
(-0.2415199622 -0.05059022403 0.08293851456)
(-0.2642372443 -0.06215821662 0.09502333928)
(-0.2737295954 -0.08036794813 0.1006158298)
(-0.271145828 -0.09647166248 0.1060282926)
(-0.2636939555 -0.1042162164 0.1134033502)
(-0.2577244861 -0.1050370722 0.1205512332)
(-0.2585655389 -0.1014439615 0.1258302166)
(-0.2695997093 -0.09693097192 0.1268706017)
(-0.2889290534 -0.09437947937 0.120418627)
(-0.3084413384 -0.09453362639 0.1065403516)
(-0.3207320313 -0.09454268547 0.08986163508)
(-0.324296955 -0.09311885409 0.07536425404)
(-0.3202824828 -0.09125861398 0.06540966301)
(-0.3097706064 -0.09067808425 0.06026189013)
(-0.2928478178 -0.09331087624 0.06023319611)
(-0.2692925559 -0.1010633765 0.06738828252)
(-0.2416087941 -0.1128607262 0.08587628106)
(-0.2232274443 -0.1195955106 0.1200620252)
(-0.2426489534 -0.1092666039 0.1684129518)
(-0.005533493566 -0.05638740392 0.03647469589)
(-0.02259997745 -0.05186762699 0.03992586908)
(-0.04631237368 -0.04899395143 0.04385063642)
(-0.07185705428 -0.04190688348 0.04818947309)
(-0.1051369813 -0.04091328966 0.05199830349)
(-0.1438200939 -0.0521743436 0.05615202992)
(-0.1828008397 -0.07792822121 0.06517161092)
(-0.2157378762 -0.1106851935 0.08146879934)
(-0.2420251104 -0.1490633639 0.08772144257)
(-0.2587866399 -0.1814926091 0.08860061943)
(-0.2683155046 -0.2051890978 0.09058057719)
(-0.2734213026 -0.2204062635 0.09136174433)
(-0.2754521642 -0.2252696918 0.09118599816)
(-0.2774963506 -0.2203678662 0.09033571926)
(-0.2805597524 -0.2104474908 0.08756348694)
(-0.2860443918 -0.1967200804 0.07980984136)
(-0.2940479347 -0.1845642701 0.06690550784)
(-0.3006068249 -0.1743603011 0.05225432254)
(-0.3024282824 -0.1662162769 0.04058897011)
(-0.2978242006 -0.1610365803 0.03462338555)
(-0.2873870604 -0.1606743779 0.03501464087)
(-0.2738214465 -0.1679931085 0.04232612959)
(-0.262517509 -0.1844614556 0.05741333098)
(-0.2624423705 -0.2034074254 0.07875383159)
(-0.285910865 -0.2077435656 0.1006361184)
(-0.3355204742 -0.1959852601 0.1210871075)
(-0.006794404463 -0.1079631575 0.04817101655)
(-0.02224523257 -0.09841835722 0.05104762584)
(-0.04999459738 -0.09793313434 0.05535189791)
(-0.07382503146 -0.09237344064 0.05983016314)
(-0.1018065326 -0.09340004814 0.06436603279)
(-0.1304869762 -0.1067785185 0.07085144006)
(-0.1612482899 -0.1392144084 0.08321123935)
(-0.1942265162 -0.1864026521 0.09272382863)
(-0.2279377474 -0.2394278047 0.09317694579)
(-0.255687256 -0.2848703923 0.08824163742)
(-0.2745454301 -0.3195329296 0.07953758401)
(-0.2836438842 -0.341116554 0.0707474388)
(-0.2859923709 -0.3478853296 0.06507064202)
(-0.2879318806 -0.3420534227 0.06374167807)
(-0.2882190571 -0.332052945 0.06528289524)
(-0.2880911485 -0.3124232357 0.06413854563)
(-0.2904445089 -0.2921858208 0.05759792524)
(-0.2911135963 -0.2732072875 0.04570635205)
(-0.2872962528 -0.2584550281 0.03402589382)
(-0.2772227348 -0.2499215817 0.02774321031)
(-0.2626554786 -0.2491580237 0.02887561129)
(-0.249136079 -0.258443933 0.03776487051)
(-0.2468340921 -0.2770955958 0.05376151884)
(-0.2671272297 -0.2952060849 0.07294101609)
(-0.3148235055 -0.2928806892 0.08730616173)
(-0.3822695012 -0.2737423377 0.09284476983)
(-0.01745934093 -0.1727914171 0.07257070307)
(-0.03613633104 -0.1556211283 0.07050642678)
(-0.07108390029 -0.1555552967 0.07226397247)
(-0.09462076163 -0.1544052294 0.07580672558)
(-0.1188311684 -0.1611315672 0.08014243727)
(-0.1395447366 -0.1801156104 0.08608155076)
(-0.1640057462 -0.2175599962 0.09392236691)
(-0.1959593351 -0.2700182842 0.0990617329)
(-0.2337727997 -0.3242947284 0.09543563319)
(-0.2676255454 -0.3724728266 0.08082547139)
(-0.2873332834 -0.4096438145 0.06237499594)
(-0.2907952787 -0.43233932 0.04680301946)
(-0.2852215424 -0.4359885183 0.03893324949)
(-0.2842736458 -0.4262051222 0.04007454779)
(-0.2825607929 -0.4201059456 0.04752190766)
(-0.2796500335 -0.3972776896 0.05449652471)
(-0.2830427175 -0.372337409 0.05709900864)
(-0.284142106 -0.3454077568 0.04796437538)
(-0.2784329076 -0.3230252538 0.03288900603)
(-0.2630136017 -0.3096808477 0.02137910682)
(-0.2411428623 -0.3060798818 0.0181814045)
(-0.2205552083 -0.3118650813 0.02342052954)
(-0.2156885423 -0.3232814988 0.03651242481)
(-0.2395451356 -0.3343665557 0.05710505794)
(-0.29350099 -0.3222373666 0.07694625581)
(-0.3662881402 -0.2849910867 0.0808322354)
(-0.03378507029 -0.24605775 0.1078031505)
(-0.06861180505 -0.2211777366 0.0888343307)
(-0.1109999062 -0.2235318517 0.07779059329)
(-0.1347493113 -0.2310518337 0.07279712718)
(-0.1564994819 -0.2486180715 0.07112548962)
(-0.1721150321 -0.275936405 0.07612134899)
(-0.1921866149 -0.3141868444 0.08715778506)
(-0.2238684455 -0.3602355841 0.09669929718)
(-0.2655487781 -0.4087606509 0.09221412795)
(-0.3000500064 -0.4549019704 0.07181055055)
(-0.3124134998 -0.4936725964 0.04503880817)
(-0.30080643 -0.5157883981 0.02166613357)
(-0.2790135961 -0.5101720917 0.01316502815)
(-0.2714324653 -0.4909792908 0.02067228376)
(-0.2677448133 -0.4927106524 0.03083361831)
(-0.260427054 -0.4687206443 0.04242940734)
(-0.2684679611 -0.4443413814 0.05750822214)
(-0.2761756242 -0.4130272015 0.05440535117)
(-0.2754007231 -0.3842411314 0.03648509899)
(-0.2585850851 -0.3670846768 0.01766849041)
(-0.2284419239 -0.3620914441 0.007250946196)
(-0.1935495106 -0.3642500679 0.005542568193)
(-0.1743855254 -0.3637477138 0.01200043363)
(-0.1857530981 -0.3687529452 0.03301101069)
(-0.228516577 -0.3551958802 0.06343251943)
(-0.2946515753 -0.3158380332 0.0803542057)
(-0.05943715841 -0.3192298892 0.1278074438)
(-0.1077662774 -0.2888921003 0.08411010323)
(-0.1540223537 -0.293516265 0.05942053013)
(-0.1734204743 -0.3054205663 0.04783685839)
(-0.1912420788 -0.3279917965 0.04601649209)
(-0.2053733155 -0.3587323565 0.05735402918)
(-0.2287502836 -0.3970450444 0.07842465491)
(-0.2681779155 -0.4399282451 0.0959869444)
(-0.317320622 -0.4857515484 0.09128136711)
(-0.3513870621 -0.534072746 0.06017501671)
(-0.3517599721 -0.5769221042 0.01534740143)
(-0.3185947181 -0.5961798944 -0.02193722129)
(-0.2745016599 -0.5737078662 -0.0246004559)
(-0.2528117342 -0.5385263755 0.005839067)
(-0.2482981471 -0.5492674395 0.01636169513)
(-0.2312529046 -0.5221004121 0.0252572417)
(-0.2438372439 -0.5009005893 0.05656233169)
(-0.2627323378 -0.4676486657 0.06504170993)
(-0.2750789548 -0.4327355227 0.04873955961)
(-0.2648335772 -0.4120205643 0.02326499071)
(-0.2293245468 -0.4077244279 0.003906719696)
(-0.1754619016 -0.4077946261 -0.007515677263)
(-0.135848131 -0.3907464233 -0.0117525132)
(-0.1275889025 -0.3919414455 0.004827751121)
(-0.1507654636 -0.3794597198 0.04377641462)
(-0.2220530557 -0.3494595069 0.08467742577)
(-0.08676558742 -0.3751953809 0.125034368)
(-0.1370926914 -0.3461973904 0.06397305939)
(-0.1864641231 -0.3489847861 0.03263418359)
(-0.2015148964 -0.3611818427 0.02061649145)
(-0.2175573124 -0.3856213377 0.02409833621)
(-0.233844273 -0.4189633586 0.04592010722)
(-0.2665151757 -0.4588061555 0.07919161341)
(-0.3218814622 -0.5031045386 0.1014652615)
(-0.3843220696 -0.5536407292 0.08374943999)
(-0.4182987444 -0.6091463593 0.02127029369)
(-0.4038735799 -0.6548604973 -0.05750210571)
(-0.3459110997 -0.6654710878 -0.1079288704)
(-0.2774724296 -0.6238975273 -0.09201616405)
(-0.2267053106 -0.5765547051 -0.01012092086)
(-0.2274728275 -0.5947115081 0.006215429464)
(-0.1962402218 -0.5619050111 0.003507272792)
(-0.2103965749 -0.5460843751 0.05262128429)
(-0.2430945017 -0.5147483958 0.07665508266)
(-0.2748474962 -0.4766001115 0.06841285509)
(-0.2803250194 -0.4552451689 0.03811672795)
(-0.2446085371 -0.4568100664 0.005809905144)
(-0.16840174 -0.4551496772 -0.0187555123)
(-0.1054103265 -0.4073863312 -0.0307642895)
(-0.07681998812 -0.4064894434 -0.01982942834)
(-0.06711135796 -0.3925892527 0.01261216911)
(-0.1284289154 -0.3679307583 0.07763881529)
(-0.1018604308 -0.4072227944 0.1140631641)
(-0.1565289923 -0.3854100432 0.04232001406)
(-0.2091666183 -0.3858351047 0.009322623848)
(-0.2221760926 -0.3971461586 0.0007808401519)
(-0.2383369522 -0.421301221 0.01224778651)
(-0.2598236975 -0.4555088101 0.04566523204)
(-0.3076623863 -0.4970593066 0.088240618)
(-0.3857316515 -0.5458876802 0.1008084466)
(-0.4628559457 -0.6035089769 0.04375881897)
(-0.4932625564 -0.6625475972 -0.07047287547)
(-0.4597956936 -0.7002204194 -0.1766923926)
(-0.37704708 -0.6975650432 -0.2214569474)
(-0.2839860545 -0.6498622 -0.1864557913)
(-0.1819448546 -0.6047266621 -0.0389527675)
(-0.1999579623 -0.6257077721 0.002444129056)
(-0.1593189506 -0.5878286064 -0.01655649209)
(-0.1721132395 -0.5794223145 0.04664596211)
(-0.2209335668 -0.5541445314 0.08447960441)
(-0.2749394647 -0.5189355571 0.08844954391)
(-0.3036802741 -0.503963676 0.05229484687)
(-0.2716268527 -0.5198702414 -0.00474505604)
(-0.1707812531 -0.5158673714 -0.04865695648)
(-0.08165131192 -0.4208956278 -0.04758928936)
(-0.03796605485 -0.41482764 -0.03246749574)
(0.004270195703 -0.3976475427 -0.01681419431)
(-0.02967195577 -0.3770840089 0.05158470616)
(-0.1104532525 -0.4187603257 0.1005250451)
(-0.1696857477 -0.4040703745 0.02466767204)
(-0.225710891 -0.4029749431 -0.00599053292)
(-0.2384336214 -0.4123741916 -0.009422743726)
(-0.2562866111 -0.4342520318 0.009779634745)
(-0.2863026474 -0.4671674169 0.05249829949)
(-0.3545401786 -0.5084550001 0.09468506745)
(-0.4569193564 -0.5592552043 0.07447805942)
(-0.5427640579 -0.6175918089 -0.04131031403)
(-0.5611543292 -0.6700299595 -0.1939687092)
(-0.5095845528 -0.6968263203 -0.291623625)
(-0.4049858516 -0.6979135579 -0.3211153356)
(-0.2825426683 -0.657430513 -0.2888698344)
(-0.107196517 -0.6174980481 -0.09410739973)
(-0.1507904939 -0.6300806593 0.004343650291)
(-0.1224266011 -0.5942944784 -0.02326109848)
(-0.1358395063 -0.5954812666 0.04202778345)
(-0.2035061029 -0.5795943705 0.08442075545)
(-0.2795448106 -0.5559931977 0.09499458314)
(-0.3351602922 -0.5567826996 0.03983923756)
(-0.304313248 -0.5896993319 -0.06384013531)
(-0.1791356727 -0.5788952125 -0.1304639093)
(-0.0544897772 -0.431557005 -0.07206465884)
(-0.002512791325 -0.4209647613 -0.03142695844)
(0.05618883592 -0.3940745152 -0.02861419636)
(0.04937069977 -0.3768528651 0.01562144)
(-0.1161737781 -0.4107690119 0.08852611256)
(-0.1796668056 -0.4024875033 0.01296291518)
(-0.2384401668 -0.4004558324 -0.01405300631)
(-0.2510437731 -0.4064172645 -0.0133873411)
(-0.2715645567 -0.4236902561 0.0110669936)
(-0.3124621828 -0.4515275057 0.05815807979)
(-0.4021696585 -0.4869249814 0.08678462116)
(-0.5230398298 -0.5319261894 0.01950047681)
(-0.6076636941 -0.582804035 -0.1433502654)
(-0.6082281206 -0.6255323937 -0.2907922743)
(-0.5516855195 -0.6544573742 -0.3627125501)
(-0.4239545038 -0.6651094477 -0.386098622)
(-0.2707753597 -0.6430720184 -0.3809795547)
(-0.01745227885 -0.6059037727 -0.1812894881)
(-0.06613355691 -0.5982538929 0.0003939682057)
(-0.08425681113 -0.5757152282 -0.006469199628)
(-0.1105575143 -0.5834713617 0.04161480083)
(-0.1977571603 -0.578785676 0.07604870765)
(-0.2954661364 -0.573622662 0.07487850348)
(-0.3777599077 -0.595061187 -0.02420585272)
(-0.3371264628 -0.6351849768 -0.1809440922)
(-0.1908407378 -0.6147147965 -0.2645538266)
(-0.006809875429 -0.435736499 -0.1156221803)
(0.04252139203 -0.4229999074 -0.02477225663)
(0.1007682372 -0.385686389 -0.02885368544)
(0.1042104219 -0.3652849286 -0.001070767055)
(-0.120412301 -0.3859346221 0.08037095242)
(-0.187235853 -0.3831871434 0.006265399285)
(-0.2472994857 -0.3795458477 -0.01833327616)
(-0.2586517333 -0.379775927 -0.01633872236)
(-0.2815485385 -0.3898221531 0.009608739664)
(-0.3315302989 -0.4070776547 0.05584454589)
(-0.4360004187 -0.4286814933 0.06490658394)
(-0.5647929136 -0.4600321618 -0.0400255035)
(-0.6376590751 -0.4988263035 -0.2152104996)
(-0.6368002471 -0.5359581079 -0.3395133489)
(-0.5802811876 -0.5626174549 -0.3962994743)
(-0.4376639637 -0.5785900764 -0.4300361376)
(-0.2573324343 -0.5819592777 -0.454237449)
(0.03484016779 -0.5584549838 -0.2799460304)
(0.04041990616 -0.5275272693 -0.03591752574)
(-0.05243240776 -0.5198530404 0.02785501159)
(-0.1034310662 -0.5330144601 0.04119870415)
(-0.2052637816 -0.5386549273 0.06082769033)
(-0.3259407219 -0.5504041929 0.02560427741)
(-0.4311021249 -0.5870710164 -0.1326203779)
(-0.3658924116 -0.6230050406 -0.3121258134)
(-0.1991961511 -0.6010384363 -0.4099752684)
(0.07557567133 -0.425927983 -0.1806648103)
(0.1077622577 -0.4082798381 -0.03422177125)
(0.148040202 -0.3670587656 -0.02342298491)
(0.1481956342 -0.3423842389 -0.007464243998)
(-0.1228796775 -0.3489562083 0.07712408392)
(-0.1917431187 -0.3505231767 0.003863618519)
(-0.2516170721 -0.3440561744 -0.02033663212)
(-0.2614579363 -0.3387165197 -0.02088339702)
(-0.2824498125 -0.3370923476 0.002418341774)
(-0.3313716834 -0.3364738444 0.04492499898)
(-0.4345133131 -0.3363421675 0.04448848874)
(-0.559142889 -0.3470147729 -0.06971390967)
(-0.627513528 -0.3687134112 -0.2379231811)
(-0.6388981999 -0.3860065727 -0.3535439217)
(-0.5922432996 -0.3965065039 -0.4164643007)
(-0.4543229451 -0.4096142715 -0.4669365735)
(-0.2576921365 -0.4371134306 -0.5018476587)
(0.01293905249 -0.45454524 -0.3559231977)
(0.09443980124 -0.4215628542 -0.08646809089)
(-0.04591918857 -0.4219110875 0.04462548349)
(-0.1144420799 -0.4415626596 0.03058774807)
(-0.2165886595 -0.4521199913 0.04142675715)
(-0.3611769657 -0.4696104984 -0.03527395746)
(-0.4774818562 -0.5071722516 -0.2360474652)
(-0.3863169581 -0.5381535647 -0.4131708099)
(-0.1965214328 -0.5267594114 -0.5357090686)
(0.1725953117 -0.3913730521 -0.2668910422)
(0.1940668066 -0.3546850238 -0.07565789286)
(0.2000388494 -0.3251035514 -0.0241720038)
(0.1856757638 -0.3049928646 -0.009788505294)
(-0.1223028489 -0.3073469184 0.08080196573)
(-0.1925258928 -0.3116071644 0.008322234783)
(-0.2521774788 -0.3013391916 -0.0170856079)
(-0.2592144287 -0.2895626476 -0.02225692156)
(-0.2711989519 -0.2754631103 -0.007170602264)
(-0.2994672265 -0.2545323937 0.02955192332)
(-0.371283959 -0.2296415801 0.04455817255)
(-0.4695727535 -0.2202212564 -0.03989635381)
(-0.5440723083 -0.2303715611 -0.2022809623)
(-0.5860887918 -0.2304244998 -0.3446778644)
(-0.5802938399 -0.2138538784 -0.4314023182)
(-0.4836516174 -0.2038804279 -0.4857915712)
(-0.3076596133 -0.2351113892 -0.5003046197)
(-0.09819507476 -0.2928455749 -0.3730048119)
(0.02105285065 -0.2843238654 -0.08412618072)
(-0.1048211994 -0.296337376 0.01641133779)
(-0.1303271725 -0.3289209548 -0.0007098274641)
(-0.2093123616 -0.3273245319 0.02672694184)
(-0.3698231071 -0.3312653703 -0.0645715189)
(-0.4918978303 -0.3523067358 -0.282475096)
(-0.3911439428 -0.3537809849 -0.4718534916)
(-0.1807291484 -0.3572550969 -0.6142174664)
(0.2154033944 -0.3044830597 -0.3572844862)
(0.2617320609 -0.2540925447 -0.1336715251)
(0.2311236846 -0.2479169224 -0.03730121251)
(0.2038645006 -0.2487857195 -0.01429993264)
(-0.1176233681 -0.2723672227 0.09740526684)
(-0.1916881396 -0.2764858791 0.02802611698)
(-0.254427308 -0.2622495238 0.00183568457)
(-0.2589405343 -0.245869679 -0.007493525435)
(-0.2589547245 -0.2262319786 -0.003701224583)
(-0.2608935077 -0.2007655364 0.02079074889)
(-0.2878755984 -0.1663844991 0.05976566243)
(-0.3473659524 -0.118063561 0.07181697267)
(-0.4333908776 -0.03808899268 0.009239958891)
(-0.5129721907 0.05585434772 -0.1169032976)
(-0.5472746374 0.1096844441 -0.224473143)
(-0.5140358733 0.1053776919 -0.2883480298)
(-0.4071924202 0.03239706371 -0.3032372185)
(-0.2677915136 -0.08512097968 -0.2197496174)
(-0.1815367788 -0.1552516306 -0.06436895617)
(-0.1804098663 -0.1982322407 -0.05045788353)
(-0.1422383146 -0.2354372608 -0.04674811917)
(-0.1434945854 -0.1970937769 0.0239937608)
(-0.2566080866 -0.1544830717 0.008151035776)
(-0.3854259252 -0.1719151049 -0.211448757)
(-0.3406828061 -0.1799897548 -0.4743424021)
(-0.1997032326 -0.1876905376 -0.6259059593)
(0.1350432402 -0.1740565539 -0.3597232961)
(0.2147072582 -0.1111558719 -0.1219179604)
(0.1818868787 -0.1379093259 -0.03401227771)
(0.1787587735 -0.1779581497 -0.02022521768)
(-0.1118793838 -0.2599190282 0.1368381565)
(-0.1994769798 -0.2577370412 0.07194285357)
(-0.2732645077 -0.2409734951 0.04481958444)
(-0.2848570656 -0.2214598039 0.03635851046)
(-0.2860189478 -0.1948339457 0.04008305727)
(-0.2956746863 -0.1629732448 0.06103307438)
(-0.3418334537 -0.134772959 0.08855514905)
(-0.4173762081 -0.1114815237 0.1042917131)
(-0.4917579821 -0.06547042088 0.09205208673)
(-0.5382673794 0.02015081937 0.04171686005)
(-0.5438087316 0.1184410771 -0.03538754353)
(-0.5052029312 0.1609669414 -0.0804870694)
(-0.4358484689 0.1184282926 -0.06865736212)
(-0.3700317296 0.006942742423 -0.03825084863)
(-0.3085410732 -0.0982771739 -0.06604972234)
(-0.2272044953 -0.150130569 -0.09152954297)
(-0.1421826622 -0.1870293375 -0.1007426509)
(-0.05997561563 -0.1756547926 -0.0602535927)
(-0.006278138352 -0.1318965318 0.05008488786)
(-0.1043748907 -0.01741130247 0.1406775471)
(-0.2615747978 0.2075320574 0.003055978619)
(-0.1935512335 0.1833186004 -0.1664194563)
(-0.05551721866 0.004426496415 -0.1418763211)
(0.02314904018 0.0004853034105 -0.007573882952)
(0.05463057524 -0.0849054357 -0.04638254523)
(0.1084333896 -0.1464356293 -0.03697634641)
(-0.1195458316 -0.2854571231 0.198178334)
(-0.2326414863 -0.2686539077 0.1203332407)
(-0.3205100388 -0.2567932276 0.07327616144)
(-0.3360799777 -0.2378913426 0.05530790721)
(-0.3337691883 -0.2035399233 0.0669542521)
(-0.336542892 -0.1517665328 0.1022470445)
(-0.3779001528 -0.1037406403 0.1309329659)
(-0.443233901 -0.08138861838 0.1309484446)
(-0.4983990424 -0.05013537997 0.11414452)
(-0.5334836847 0.006960863838 0.09170370258)
(-0.5367549767 0.06360671012 0.06381814006)
(-0.5060335974 0.08655069199 0.03515256532)
(-0.4585253193 0.05618943946 0.01154873012)
(-0.4113663553 -0.006905506403 -0.02443292482)
(-0.3568061276 -0.05158054184 -0.07526636675)
(-0.2783655655 -0.1002655835 -0.1098659067)
(-0.173074682 -0.1408384063 -0.1268000241)
(-0.07332365029 -0.1468025293 -0.09250754328)
(-0.01994680657 -0.1435892056 0.007530918763)
(-0.08092291193 -0.1267170038 0.174182541)
(-0.2048629288 -0.04918690369 0.2078082999)
(-0.1185506763 -0.0005467502596 0.1199271002)
(-0.03301272669 0.04661097825 0.08207921062)
(-0.09515616118 -0.04889817752 0.06136856932)
(0.02129363422 -0.07955702423 -0.04513219168)
(0.05234278579 -0.1313305923 -0.02870553934)
(-0.1605660734 -0.3340029737 0.2416723453)
(-0.2925548324 -0.3040912607 0.1034239336)
(-0.3810417225 -0.3036229294 0.003563251858)
(-0.3858281264 -0.2973386291 -0.03793620551)
(-0.3716781566 -0.2813846525 -0.02110844075)
(-0.3535456044 -0.2492583017 0.04399569037)
(-0.3647015438 -0.2103862549 0.1244690668)
(-0.4070264216 -0.1976998235 0.1683312562)
(-0.4530053552 -0.1774850311 0.1670394538)
(-0.4845928987 -0.1174034872 0.1462642393)
(-0.5018156846 -0.04967060919 0.1153552402)
(-0.4998111893 0.003058430539 0.07460403916)
(-0.4823796796 0.01965667967 0.02790707995)
(-0.4537012525 0.009707512601 -0.02564412912)
(-0.403059945 -0.007495932358 -0.076215376)
(-0.3245446349 -0.03135084878 -0.1182164214)
(-0.2000103235 -0.05620195214 -0.1560708023)
(-0.07998530601 -0.07915143467 -0.1117765119)
(-0.01353077063 -0.09351046999 -0.03206312471)
(-0.03221716586 -0.1256117202 0.1167200553)
(-0.172797452 -0.1906121187 0.04979211951)
(-0.09259842818 -0.2571179914 -0.09420741359)
(-0.03604747913 -0.03633689972 0.120095627)
(-0.1178726914 -0.04670605676 0.08603044383)
(-0.03012242425 -0.07657184912 -0.02369184047)
(-0.002376733555 -0.1045529132 -0.0179588362)
(-0.2172222725 -0.3550995322 0.2260316085)
(-0.3398980295 -0.3207062718 0.002795659756)
(-0.4140245018 -0.3239441674 -0.1389149787)
(-0.3984343655 -0.3314895595 -0.1867341752)
(-0.3641411252 -0.3482630763 -0.1785062616)
(-0.3090250148 -0.3596464247 -0.1277999419)
(-0.2630850145 -0.346134662 -0.02429276664)
(-0.25670127 -0.3416875594 0.1016705186)
(-0.3165560303 -0.3236577417 0.1561023654)
(-0.364010194 -0.2511861545 0.1585173193)
(-0.4079262403 -0.1607969975 0.1432087445)
(-0.4402779151 -0.08031517819 0.09452068915)
(-0.452243845 -0.0216732764 0.02976476039)
(-0.4390494131 0.01458933473 -0.02540976625)
(-0.3991368907 0.03140254106 -0.07401468935)
(-0.3299848011 0.0291464317 -0.1160755432)
(-0.230243807 0.01687148941 -0.1443910372)
(-0.1228877446 -0.02846587271 -0.1357468612)
(-0.05214288427 -0.08176838742 -0.0724286477)
(-0.08505277025 -0.1554398824 -0.01108992469)
(-0.1714960418 -0.2166544879 -0.2091597664)
(-0.0704417397 -0.2322267491 -0.3895485713)
(0.07567408615 -0.1092131611 -0.01850036949)
(-0.1091370825 -0.09877594215 0.06572524567)
(-0.04318552485 -0.0791960085 -0.01830309156)
(-0.08438331223 -0.0792117892 -0.02572835469)
(-0.2503498055 -0.3291399105 0.1827706334)
(-0.3563678613 -0.2941131725 -0.09127291426)
(-0.4243202631 -0.2958305919 -0.2210327424)
(-0.4031273358 -0.3161101326 -0.2428352051)
(-0.358308714 -0.3553717304 -0.2395393889)
(-0.2780123372 -0.3928246516 -0.2203229383)
(-0.1901820834 -0.4194819562 -0.1609891448)
(-0.1179318914 -0.4501614657 -0.01266947503)
(-0.1731787299 -0.4544854834 0.08647878918)
(-0.2193008475 -0.4032643127 0.104993433)
(-0.2579055989 -0.3022269461 0.1415903135)
(-0.3175931918 -0.1715142397 0.1509370388)
(-0.3790600803 -0.05155493291 0.08307763166)
(-0.4051201239 0.02328690046 -0.004782512548)
(-0.3884902095 0.07328590581 -0.06079705158)
(-0.3438160644 0.0943988639 -0.1016479196)
(-0.2750663237 0.1004859035 -0.1195469445)
(-0.2157652263 0.09845299293 -0.1033747439)
(-0.2102995606 0.09362576548 -0.1192708848)
(-0.2618491433 0.07713377512 -0.2685253441)
(-0.1992283534 0.03038117403 -0.4703358157)
(-0.0268590183 -0.0153981189 -0.6166689619)
(0.2001455774 0.03932562157 -0.3803969488)
(0.1689290754 0.05718155038 -0.1444274887)
(0.07449701197 0.03550313583 0.002061302821)
(0.008086573058 0.0396519899 0.06845477406)
(-0.2485899725 -0.2798245625 0.1761485081)
(-0.3616562622 -0.2363928781 -0.11326649)
(-0.4427686597 -0.2272224299 -0.2253371044)
(-0.4224251489 -0.2412272578 -0.250039024)
(-0.3648741884 -0.2788340944 -0.2688008365)
(-0.2617170706 -0.3302339283 -0.2717815011)
(-0.1467225992 -0.3876481396 -0.2275822422)
(-0.03998762657 -0.4646274462 -0.08332940495)
(-0.06653703143 -0.5152917924 0.01056751946)
(-0.1156484588 -0.5065388358 0.002263880158)
(-0.115991519 -0.4475104335 0.03367638773)
(-0.14474878 -0.3188635235 0.1264742687)
(-0.2252716845 -0.1302141667 0.1678365407)
(-0.3020711968 0.02478563371 0.07959918202)
(-0.323142106 0.1160595724 -0.02440787949)
(-0.3016782711 0.1633485069 -0.08695237576)
(-0.2424979046 0.1887329682 -0.1228716113)
(-0.1712118236 0.2101408689 -0.1222847496)
(-0.1183134594 0.2434976978 -0.09108440215)
(-0.1524228102 0.2758184423 -0.1186393855)
(-0.1517111861 0.2933280006 -0.2866949472)
(-0.05089450995 0.2944040405 -0.4322344464)
(0.07276948936 0.2211253976 -0.1630565577)
(-0.04085216615 0.2129711936 -0.03279756761)
(-0.03685792895 0.1866226807 -0.04762792556)
(-0.08456087832 0.2168226461 0.04791314813)
(-0.1887682918 -0.2783469735 0.2587073874)
(-0.3302445992 -0.1791675156 -0.05026288148)
(-0.445008163 -0.1439699036 -0.2050639861)
(-0.4388189083 -0.1159188489 -0.2734469037)
(-0.390964472 -0.1242361503 -0.312027087)
(-0.293044214 -0.1740147394 -0.3095520913)
(-0.1749215655 -0.2533765997 -0.2417438339)
(-0.05006436356 -0.3738608254 -0.1121217376)
(-0.02669044905 -0.5007229916 -0.04509895879)
(-0.06419191315 -0.5395448554 -0.07477798829)
(-0.02733311622 -0.5290812948 -0.09002128309)
(0.00243270432 -0.4564920689 -0.01089013848)
(-0.03676624593 -0.2984532028 0.1228064814)
(-0.1121158053 -0.06882945758 0.1965052757)
(-0.2203208875 0.1298738756 0.06432310881)
(-0.2336836059 0.2125198317 -0.03320864447)
(-0.1967588585 0.2558304394 -0.09137233258)
(-0.1304101162 0.2856759718 -0.1115708379)
(-0.05778693674 0.3274281681 -0.08182838456)
(-0.05050461065 0.3872703989 -0.01037991632)
(-0.1177069475 0.4368632305 -0.110838691)
(-0.07954662343 0.4546469679 -0.2368097578)
(-0.0409689008 0.3136099541 -0.04332078697)
(-0.1013093717 0.2939086668 -0.02412075649)
(-0.02757642856 0.2628791347 -0.07810010873)
(-0.01920934113 0.2986933821 0.01357165777)
(-0.09747455557 -0.4523104861 0.3696176203)
(-0.2863348023 -0.1333271059 0.1409855319)
(-0.4485396556 -0.009429074489 -0.0119709581)
(-0.477600566 0.09106002758 -0.08904388192)
(-0.4613794279 0.1086115088 -0.09596870094)
(-0.3956429117 0.05313492466 -0.08382007194)
(-0.2932755337 -0.09052119346 -0.07992571649)
(-0.1711769267 -0.2560546554 -0.09454722621)
(-0.088430145 -0.4070842004 -0.1090392926)
(-0.06352360692 -0.5015398972 -0.133916729)
(0.0110938155 -0.5178544249 -0.163358616)
(0.09705068889 -0.4947993596 -0.1156806768)
(0.1131105533 -0.4121446792 -0.03119241949)
(0.08171320446 -0.2427094743 0.1131400394)
(-0.06855288976 0.09488893972 0.2136015983)
(-0.1175491675 0.2270560602 0.06769358506)
(-0.120540778 0.2927438405 -0.02929624623)
(-0.08047194036 0.3295166862 -0.0798311988)
(-0.01619536272 0.3694429123 -0.07247052716)
(0.01458738032 0.4307025018 0.0297746941)
(-0.08313064887 0.4738449707 0.01338770682)
(-0.1025583005 0.5061178686 -0.08174762497)
(-0.08931169868 0.3560953397 -0.008879245384)
(-0.1091062953 0.3387255245 -0.0355414241)
(-0.01466119535 0.3057613201 -0.08269348425)
(0.009938807992 0.3203678369 -0.01331636962)
(-0.0325831112 -0.7700614782 0.2791267805)
(-0.2185963677 -0.2241484904 0.2330951841)
(-0.4232144439 -0.1440037431 0.1365232284)
(-0.4558368653 -0.07013088693 0.07090540353)
(-0.4666673961 -0.07360385661 0.02935821328)
(-0.4344181402 -0.1216191972 -0.001789916944)
(-0.3903477967 -0.1947181138 -0.04798552049)
(-0.3142526997 -0.2729419588 -0.1021045775)
(-0.2213366166 -0.3713494728 -0.1516354534)
(-0.1251179651 -0.4541740825 -0.1908542402)
(0.01124967386 -0.4704874177 -0.2254842498)
(0.1467626825 -0.459311725 -0.1885826987)
(0.221887454 -0.4188143476 -0.1206940607)
(0.2233728528 -0.3071743807 -0.03708604926)
(0.190197991 -0.1379231877 0.1015266723)
(0.0771576748 0.1084224948 0.1903490221)
(-0.002723429802 0.2870816771 0.08052879921)
(-0.00430032462 0.3522869838 -0.02366893672)
(0.02832437133 0.3830069177 -0.04195906488)
(0.04748514843 0.4331770774 0.03898036519)
(-0.05147326602 0.4586976994 0.0796849204)
(-0.1119339972 0.4781141813 0.02686154552)
(-0.09745943586 0.3552772021 0.00129919038)
(-0.09555554133 0.3466305999 -0.03465511328)
(-0.003321715443 0.304540416 -0.07110440155)
(0.02318884178 0.3141016919 -0.02518942764)
(-0.04936723489 -1.045480918 -0.07214679848)
(-0.07245938463 -0.2796959423 0.2309098889)
(-0.3720927743 -0.1872121347 0.1338991515)
(-0.4216580556 -0.1075602877 0.02266588341)
(-0.4798263174 -0.1203219479 -0.03468922733)
(-0.4655193266 -0.150935855 -0.08305808243)
(-0.443596135 -0.2067459212 -0.1317578284)
(-0.3885465842 -0.2716377366 -0.1863028745)
(-0.2973641385 -0.3272868485 -0.2142542222)
(-0.1772052103 -0.3679713619 -0.256082857)
(-0.01421669778 -0.3763408768 -0.2918998495)
(0.1631969233 -0.3690632753 -0.255015976)
(0.2630991213 -0.3498490969 -0.1869636605)
(0.312252379 -0.2926212 -0.1215728717)
(0.3161078462 -0.1762292916 -0.04474318339)
(0.2527921909 -0.004781502922 0.08730743887)
(0.1446262679 0.1992748897 0.137407229)
(0.09114138613 0.3248181675 0.06553081336)
(0.08199879548 0.3729199003 0.01236522077)
(0.07129195436 0.4165645608 0.05439925653)
(-0.02505643854 0.4287360407 0.1064957898)
(-0.1140458251 0.4230233819 0.07881109646)
(-0.09143259198 0.3385498281 0.01644629946)
(-0.08048243672 0.3409304372 -0.01368811577)
(0.01390818635 0.3069505979 -0.05014186936)
(0.04432886774 0.3044722657 -0.02763186322)
(-0.1585091814 -1.044162554 -0.5056646776)
(0.1177423957 -0.4029980476 0.1496526236)
(-0.3407250616 -0.1975941645 0.196290249)
(-0.3853492872 -0.07252651381 0.03014195295)
(-0.4843722802 -0.04318930141 -0.05108823582)
(-0.4979341909 -0.04548394125 -0.1214848119)
(-0.5018390152 -0.06725394318 -0.208676272)
(-0.4399267004 -0.09616121315 -0.3252075978)
(-0.3261544936 -0.1483269201 -0.2843730147)
(-0.2041528827 -0.2023639701 -0.299096635)
(-0.05943641076 -0.2194095726 -0.338662794)
(0.1333494836 -0.2236745207 -0.3130976536)
(0.2495128584 -0.2188838773 -0.2528016233)
(0.3202443133 -0.1885216158 -0.1970131198)
(0.3464814639 -0.1334842348 -0.1373237375)
(0.348256072 -0.04217456313 -0.06515368514)
(0.2631414099 0.1130190244 0.04817524273)
(0.183286277 0.255394296 0.08887816063)
(0.1369506913 0.3258308401 0.06673219509)
(0.09599827198 0.3829064285 0.08287493314)
(-0.003669911166 0.3844127386 0.1238383424)
(-0.09653748447 0.338073125 0.1019639408)
(-0.06447423525 0.2276408415 0.0406685665)
(-0.04594183298 0.237636128 -0.002321060188)
(0.02717946172 0.1844159803 -0.03458166447)
(-0.2664595024 -0.685370214 -0.8046698921)
(0.2763458295 -0.3234401582 -0.2168584355)
(-0.2098473302 -0.1729699003 0.1806368905)
(-0.4001374709 -0.1015439443 0.05550285027)
(-0.540149048 0.00361902923 -0.02608399556)
(-0.5451955443 0.05691743979 -0.08433681087)
(-0.5370181721 0.0842845244 -0.1279537802)
(-0.4957687262 0.09227671213 -0.1736425104)
(-0.4180330619 0.06238066705 -0.2333815758)
(-0.2853504399 0.01586019845 -0.3102107201)
(-0.1174698496 -0.003881775806 -0.3675832065)
(0.09571438497 -0.01692874221 -0.3505654095)
(0.2210077579 -0.01110253284 -0.2923240928)
(0.309127515 0.008322063097 -0.2448431228)
(0.3529403427 0.02551663921 -0.1928221932)
(0.3692501918 0.05368240908 -0.1296599503)
(0.3351917704 0.1267595671 -0.04838470767)