/*--------------------------------*- C++ -*----------------------------------*\
  =========                 |
  \\      /  F ield         | OpenFOAM: The Open Source CFD Toolbox
   \\    /   O peration     | Website:  https://openfoam.org
    \\  /    A nd           | Version:  8
     \\/     M anipulation  |
\*---------------------------------------------------------------------------*/
FoamFile
{
    version     2.0;
    format      ascii;
    class       volScalarField;
    location    "0.6/wallFilmRegion";
    object      mu;
}
// * * * * * * * * * * * * * * * * * * * * * * * * * * * * * * * * * * * * * //

dimensions      [1 -1 -1 0 0 0 0];

internalField   nonuniform List<scalar> 
1369
(
0.0008861473652
0.0008861472565
0.0008861472912
0.0008861473232
0.000886147346
0.0008861473636
0.0008861473765
0.0008861473658
0.0008861468469
0.0008861467212
0.0008861468714
0.0008861470915
0.0008861472246
0.0008861472968
0.0008861473297
0.0008861473337
0.0008861473287
0.0008861472936
0.0008861473654
0.0008861470548
0.0008861468225
0.0008861467256
0.000886147026
0.0008861472262
0.0008861473308
0.0008861473836
0.0008861474065
0.0008861474079
0.000886147387
0.0008861473735
0.0008861473728
0.0008861473645
0.0008861472302
0.0008861470456
0.000886146137
0.0008861463271
0.0008861469504
0.0008861472148
0.0008861473205
0.0008861473642
0.0008861473817
0.0008861473871
0.0008861473868
0.0008861473798
0.0008861312249
0.0008861255167
0.0008861206997
0.0008860926407
0.0008861473635
0.0008861473168
0.0008861472488
0.0008861465789
0.0008861459748
0.0008861468487
0.0008861472333
0.0008861473428
0.0008861473743
0.0008861473857
0.00088614739
0.0008861473898
0.0008861473817
0.0008861246387
0.0008861179144
0.0008860913346
0.0008860825403
0.0008860838575
0.0008860845193
0.0008861473629
0.0008861473459
0.0008861473297
0.0008861472343
0.0008861469318
0.0008861470915
0.0008861472962
0.0008861473598
0.0008861473799
0.0008861473881
0.0008861473911
0.00088614739
0.0008861473819
0.0008861316686
0.0008861294662
0.0008861053589
0.0008860852018
0.0008860861539
0.0008860867443
0.0008860875158
0.0008860841739
0.0008860837287
0.0008860839581
0.0008861473634
0.0008861473568
0.0008861473551
0.0008861473466
0.0008861473151
0.0008861472717
0.0008861473361
0.0008861473706
0.0008861473846
0.0008861473914
0.0008861473935
0.0008861473908
0.0008861473802
0.000886141114
0.0008861389286
0.0008861332321
0.0008861266754
0.0008861239181
0.0008861241647
0.000886107626
0.0008860893567
0.0008860927953
0.0008861242038
0.0008861473751
0.0008861473489
0.000886147364
0.0008861473563
0.0008861473581
0.0008861473587
0.0008861473583
0.0008861473594
0.0008861473668
0.0008861473799
0.000886147391
0.0008861473968
0.0008861473973
0.0008861473918
0.000886147378
0.0008861473655
0.0008861473675
0.0008861473729
0.0008861474073
0.0008861475271
0.0008861476172
0.0008861458456
0.0008861424654
0.0008861456948
0.0008861465032
0.000886147298
0.0008861472375
0.0008861473229
0.0008861473666
0.0008861473338
0.0008861473436
0.000886147356
0.0008861473682
0.0008861473792
0.0008861473887
0.0008861473966
0.000886147402
0.0008861474038
0.0008861474031
0.0008861474011
0.0008861473958
0.0008861473092
0.0008861473277
0.0008861475589
0.0008861476544
0.000886147679
0.0008861476825
0.0008861393493
0.0008861344662
0.0008861377984
0.0008861400927
0.0008861419442
0.0008861437085
0.0008861473905
0.0008861473702
0.0008861473119
0.0008861473278
0.0008861473492
0.0008861473673
0.0008861473818
0.0008861473937
0.0008861474016
0.0008861474037
0.0008861474034
0.0008861474024
0.0008861474006
0.0008861473953
0.000886147239
0.0008861473428
0.0008861475689
0.0008861476847
0.0008861476878
0.0008861476878
0.0008861404705
0.0008861364167
0.0008861385231
0.0008861400901
0.0008861412538
0.0008861429498
0.000886147648
0.0008861475133
0.000886147373
0.0008861472902
0.0008861472903
0.000886147281
0.0008861472684
0.0008861472623
0.0008861472822
0.0008861473359
0.0008861473718
0.0008861473846
0.0008861473855
0.0008861473745
0.0008861473229
0.0008861469015
0.0008861472734
0.0008861474808
0.0008861475905
0.0008861476228
0.0008861476028
0.0008861435601
0.0008861398411
0.0008861412815
0.0008861419717
0.0008861424775
0.0008861434005
0.0008861475592
0.0008861476903
0.0008861473753
0.0008861472954
0.0008861473022
0.0008861472987
0.0008861472872
0.000886147277
0.0008861472706
0.0008861472993
0.0008861473536
0.0008861473795
0.000886147385
0.000886147377
0.0008861473328
0.0008861467274
0.0008861469995
0.0008861471816
0.0008861473872
0.0008861474761
0.0008861474878
0.0008861453376
0.0008861428305
0.0008861432814
0.0008861433658
0.0008861433815
0.0008861436447
0.0008861475431
0.0008861474777
0.0008861473773
0.0008861473104
0.0008861473179
0.0008861473197
0.0008861473075
0.0008861472999
0.0008861472814
0.0008861472741
0.0008861473202
0.0008861473654
0.00088614738
0.0008861473754
0.0008861473359
0.0008861470017
0.0008861472288
0.0008861473785
0.0008861474694
0.0008861474962
0.0008861474847
0.0008861465109
0.0008861451464
0.0008861449425
0.0008861446271
0.0008861442999
0.0008861442153
0.0008861441183
0.0008861446095
0.0008861468832
0.00088614738
0.0008861473348
0.0008861473336
0.0008861473385
0.0008861473242
0.00088614732
0.0008861472988
0.0008861472638
0.0008861472743
0.0008861473355
0.0008861473667
0.0008861473705
0.0008861473419
0.0008861472151
0.0008861473612
0.0008861474479
0.0008861474929
0.0008861474979
0.0008861474724
0.0008861472172
0.0008861467546
0.000886146201
0.000886145593
0.0008861449646
0.000886144433
0.0008861440448
0.0008861446349
0.0008861468062
0.0008861471913
0.0008861473825
0.0008861473552
0.0008861473569
0.0008861473533
0.0008861473375
0.0008861473364
0.0008861473138
0.0008861472615
0.0008861472164
0.0008861472762
0.0008861473341
0.0008861473552
0.0008861473453
0.0008861473434
0.0008861474273
0.0008861474848
0.0008861475043
0.0008861474909
0.0008861474555
0.0008861475081
0.0008861458892
0.0008861454026
0.0008861450131
0.0008861448446
0.0008861452243
0.0008861465404
0.0008861472437
0.000886147279
0.0008861472947
0.0008861473855
0.0008861473776
0.0008861473769
0.0008861473652
0.0008861473486
0.0008861473513
0.000886147324
0.0008861472592
0.0008861471702
0.0008861471379
0.0008861472497
0.0008861473111
0.000886147332
0.0008861474212
0.0008861475025
0.0008861475137
0.0008861474965
0.000886147469
0.0008861474353
0.0008861474787
0.000886147202
0.0008861467533
0.0008861463914
0.0008861462122
0.0008861464235
0.0008861468795
0.0008861472763
0.0008861473205
0.0008861473778
0.0008861473802
0.0008861473907
0.0008861473876
0.0008861473753
0.0008861473573
0.0008861473652
0.0008861473305
0.0008861472479
0.0008861471631
0.0008861471507
0.0008861472236
0.0008861472766
0.0008861473573
0.0008861474502
0.0008861474586
0.0008861474487
0.0008861474381
0.0008861474294
0.0008861474166
0.0008861465011
0.0008861467462
0.0008861475578
0.0008861473444
0.0008861472456
0.0008861470913
0.0008861471074
0.0008861474252
0.0008861475908
0.0008861475282
0.0008861474716
0.000886147063
0.0008861060147
0.0008861427647
0.0008861475809
0.0008861473756
0.000886147397
0.0008861473952
0.000886147384
0.0008861473615
0.0008861473773
0.0008861473344
0.0008861472309
0.0008861471613
0.0008861472805
0.0008861473815
0.0008861474086
0.0008861474144
0.0008861474155
0.0008861474147
0.0008861474138
0.000886147413
0.0008861474123
0.0008861474115
0.0008861474119
0.000886147425
0.0008861474537
0.00088614747
0.0008861474673
0.0008861472125
0.0008861472699
0.0008861474577
0.0008861475083
0.0008861473723
0.0008861463789
0.000886095728
0.0008860895455
0.000886086635
0.0008860902582
0.0008861473747
0.0008861474023
0.0008861474019
0.0008861473912
0.0008861473728
0.0008861473872
0.0008861473341
0.0008861472134
0.0008861470816
0.0008861470695
0.0008861472245
0.0008861473679
0.0008861474055
0.0008861474132
0.0008861474153
0.0008861474157
0.0008861474153
0.0008861474144
0.0008861474132
0.0008861474491
0.0008861474095
0.0008861475226
0.0008861475287
0.000886147538
0.0008861464115
0.0008861473712
0.0008861474474
0.0008861474291
0.0008861470171
0.0008861081208
0.0008860926407
0.000886089863
0.0008860876223
0.0008861396609
0.0008861473892
0.0008861474053
0.0008861474048
0.0008861473966
0.0008861473802
0.0008861473924
0.0008861473246
0.0008861472015
0.0008861470314
0.0008861469621
0.0008861470649
0.0008861472348
0.000886147371
0.0008861474147
0.0008861474359
0.0008861474477
0.0008861474532
0.0008861474543
0.0008861474615
0.0008861475588
0.000886147107
0.0008861473304
0.0008861472649
0.0008861474795
0.0008861475278
0.0008861475449
0.0008861473534
0.0008861471578
0.0008861471554
0.0008861472628
0.0008861473287
0.0008861473768
0.0008861474205
0.0008861473913
0.000886147406
0.0008861474049
0.0008861473859
0.0008861473659
0.0008861473567
0.0008861472876
0.0008861471911
0.0008861469897
0.000886146839
0.0008861469363
0.0008861470785
0.0008861472517
0.0008861473657
0.0008861474377
0.0008861474752
0.0008861474982
0.0008861475076
0.0008861475116
0.0008861475368
0.000886145412
0.00088614673
0.0008861471303
0.0008861473003
0.0008861473839
0.0008861474746
0.0008861471937
0.0008861469881
0.0008861470336
0.0008861470937
0.0008861471469
0.0008861471976
0.0008861474037
0.0008861474074
0.0008861474063
0.0008861473885
0.0008861473823
0.0008861473828
0.0008861472848
0.0008861471811
0.0008861469854
0.0008861468513
0.0008861469338
0.0008861470026
0.0008861471172
0.0008861472324
0.0008861473687
0.0008861474241
0.0008861475161
0.0008861475451
0.0008861475508
0.0008861475186
0.0008861476684
0.0008861242951
0.0008861461978
0.0008861471219
0.0008861472425
0.0008861474013
0.0008861472935
0.0008861472143
0.0008861470728
0.0008861470538
0.0008861470983
0.0008861471475
0.0008861474004
0.0008861474096
0.0008861474097
0.0008861474055
0.0008861474049
0.0008861473993
0.0008861472822
0.0008861471571
0.0008861469684
0.0008861468973
0.0008861469612
0.0008861469996
0.000886147049
0.0008861470854
0.0008861472889
0.000886147406
0.0008861474448
0.0008861475039
0.0008861475087
0.0008861475253
0.0008861475253
0.0008861454077
0.0008860939473
0.0008861457978
0.0008861470228
0.0008861473736
0.0008861474199
0.0008861474583
0.0008861473971
0.0008861472098
0.0008861474469
0.0008861475059
0.0008861473918
0.0008861474077
0.0008861474065
0.0008861473992
0.0008861474001
0.0008861473973
0.0008861473401
0.0008861472896
0.0008861471379
0.0008861464254
0.0008861471164
0.0008861472927
0.0008861473372
0.0008861471311
0.0008861473482
0.0008861474085
0.000886147291
0.0008861473983
0.0008861474679
0.0008861474564
0.0008861475406
0.000886147638
0.0008861475739
0.0008861474559
0.0008861474445
0.0008861473675
0.0008861474764
0.0008861475391
0.0008861476287
0.0008861474547
0.0008861473741
0.000886147385
0.0008861474054
0.0008861474047
0.0008861474008
0.0008861474027
0.0008861473986
0.0008861473467
0.0008861472915
0.0008861472287
0.000886147282
0.000886147336
0.0008861473587
0.0008861473694
0.0008861473893
0.0008861474078
0.0008861474101
0.0008861474065
0.0008861473835
0.0008861474343
0.0008861474549
0.0008861475441
0.0008861475477
0.000886147479
0.0008861473793
0.0008861475266
0.0008861473848
0.0008861474465
0.0008861476131
0.0008861477921
0.0008861477257
0.0008861474952
0.0008861473796
0.0008861474026
0.0008861474035
0.0008861474037
0.000886147404
0.0008861473981
0.0008861473458
0.0008861473064
0.0008861472969
0.0008861473279
0.0008861473533
0.0008861473658
0.00088614737
0.0008861473798
0.0008861473951
0.0008861474059
0.0008861474027
0.000886147409
0.0008861474451
0.0008861475026
0.0008861474292
0.0008861474289
0.0008861474422
0.000886147459
0.0008861474731
0.0008861474752
0.0008861474517
0.0008861476827
0.0008861478728
0.0008861478294
0.0008861476236
0.0008861473778
0.0008861474036
0.0008861474064
0.000886147409
0.0008861474094
0.0008861474089
0.0008861473933
0.0008861473944
0.0008861473795
0.0008861473383
0.0008861473536
0.0008861473608
0.0008861473555
0.0008861473548
0.0008861473775
0.0008861473928
0.0008861473851
0.0008861473972
0.0008861474198
0.0008861474474
0.0008861474723
0.0008861475575
0.0008861475264
0.0008861474739
0.000886147494
0.0008861475128
0.0008861474137
0.0008861474987
0.0008861477946
0.0008861476541
0.0008861475232
0.0008861473737
0.0008861474022
0.0008861474058
0.0008861474077
0.0008861474084
0.0008861474081
0.0008861473916
0.0008861473878
0.0008861473526
0.0008861473312
0.0008861473452
0.0008861473463
0.0008861473335
0.0008861473136
0.0008861473338
0.000886147359
0.000886147375
0.0008861474026
0.0008861474134
0.0008861474255
0.0008861474691
0.0008861474466
0.0008861474268
0.0008861474837
0.0008861475112
0.0008861475483
0.0008861474965
0.0008861475131
0.0008861476116
0.0008861475497
0.0008861475992
0.0008861473697
0.000886147397
0.0008861474028
0.0008861474055
0.0008861474065
0.0008861474055
0.0008861473767
0.0008861473643
0.0008861473197
0.0008861473181
0.0008861473254
0.0008861473182
0.0008861473031
0.0008861473014
0.0008861473394
0.0008861473762
0.0008861473977
0.0008861474189
0.0008861474358
0.0008861474722
0.000886147508
0.000886147419
0.0008861474069
0.0008861474836
0.0008861475328
0.0008861476172
0.0008861474885
0.000886147508
0.0008861475504
0.0008861475282
0.0008861475941
0.0008861473654
0.0008861473841
0.0008861473956
0.0008861474014
0.0008861474032
0.0008861474006
0.000886147356
0.0008861473392
0.0008861472983
0.0008861472802
0.0008861472774
0.000886147258
0.000886147257
0.0008861472883
0.0008861473352
0.0008861473661
0.0008861473899
0.0008861474276
0.0008861474602
0.0008861475347
0.0008861474605
0.0008861471732
0.0008861473655
0.0008861474807
0.0008861476024
0.0008861477257
0.0008861475129
0.0008861475017
0.0008861475042
0.0008861475021
0.0008861475716
0.000886147359
0.0008861473574
0.0008861473748
0.000886147391
0.0008861473968
0.000886147393
0.0008861473478
0.0008861473391
0.000886147347
0.0008861473696
0.0008861473803
0.0008861473842
0.0008861473837
0.0008861473788
0.0008861473696
0.0008861473679
0.0008861473675
0.0008861474115
0.0008861474531
0.0008861475693
0.0008861475321
0.000886147473
0.0008861474249
0.0008861474074
0.0008861474214
0.0008861475403
0.0008861475266
0.0008861474863
0.0008861474775
0.0008861474691
0.0008861475074
0.0008861473569
0.0008861473487
0.0008861473585
0.0008861473746
0.0008861473848
0.0008861473824
0.0008861473533
0.0008861473513
0.0008861473615
0.000886147376
0.0008861473845
0.0008861473891
0.0008861473908
0.0008861473901
0.0008861473862
0.0008861473788
0.0008861473654
0.0008861473764
0.000886147423
0.0008861475671
0.0008861475111
0.000886147456
0.0008861474222
0.0008861474361
0.000886147399
0.0008861474072
0.0008861474596
0.0008861474834
0.000886147457
0.0008861474944
0.0008861475012
0.0008861473568
0.0008861473437
0.0008861473515
0.0008861473625
0.0008861473717
0.0008861473724
0.0008861473603
0.0008861473592
0.0008861473648
0.0008861473752
0.0008861473837
0.000886147389
0.0008861473919
0.0008861473927
0.0008861473907
0.0008861473838
0.0008861473697
0.0008861473556
0.0008861473964
0.0008861475254
0.0008861474657
0.0008861474262
0.000886147408
0.0008861474008
0.0008861473749
0.0008861473109
0.0008861472944
0.0008861473851
0.0008861474621
0.000886147518
0.0008861474952
0.0008861473572
0.0008861473371
0.0008861473475
0.0008861473568
0.0008861473641
0.0008861473672
0.0008861473649
0.0008861473644
0.000886147366
0.0008861473724
0.0008861473804
0.0008861473866
0.0008861473905
0.0008861473923
0.0008861473916
0.0008861473859
0.000886147373
0.0008861473515
0.0008861473744
0.0008861474525
0.0008861474187
0.0008861474006
0.0008861473918
0.0008861473812
0.0008861473601
0.0008861473208
0.0008861473674
0.0008861474251
0.000886147269
0.0008861475173
0.0008861474992
0.000886147358
0.0008861473282
0.0008861473435
0.0008861473537
0.0008861473607
0.0008861473653
0.0008861473671
0.0008861473678
0.000886147368
0.0008861473705
0.0008861473763
0.0008861473828
0.0008861473877
0.0008861473906
0.0008861473909
0.0008861473866
0.0008861473752
0.0008861473538
0.0008861473589
0.0008861473936
0.0008861473864
0.00088614738
0.0008861473733
0.0008861473604
0.0008861473415
0.0008861473285
0.0008861471772
0.0008861474008
0.0008861472134
0.00088614741
0.0008861474615
0.0008861473593
0.0008861473162
0.0008861473376
0.0008861473504
0.0008861473582
0.0008861473639
0.0008861473677
0.00088614737
0.0008861473706
0.0008861473709
0.0008861473734
0.0008861473785
0.0008861473838
0.0008861473877
0.0008861473893
0.0008861473865
0.0008861473771
0.0008861473586
0.0008861473481
0.0008861473644
0.0008861473639
0.0008861473989
0.0008861473787
0.0008861473485
0.0008861473241
0.0008861473578
0.0008861472064
0.0008861458421
0.0008861455078
0.0008861473717
0.000886147418
0.0008861473611
0.0008861473031
0.0008861473301
0.0008861473461
0.0008861473553
0.000886147362
0.0008861473671
0.0008861473709
0.0008861473731
0.0008861473733
0.0008861473731
0.0008861473752
0.0008861473794
0.0008861473838
0.0008861473866
0.0008861473857
0.0008861473787
0.0008861473633
0.0008861473356
0.0008861473446
0.0008861473441
0.000886147399
0.0008861473577
0.0008861473221
0.0008861473081
0.0008861473656
0.000886147279
0.0008861471864
0.0008861471776
0.0008861473262
0.0008861473745
0.0008861473631
0.000886147289
0.0008861473211
0.0008861473404
0.0008861473511
0.0008861473588
0.0008861473648
0.0008861473699
0.0008861473737
0.0008861473755
0.0008861473746
0.0008861473735
0.000886147375
0.0008861473784
0.0008861473817
0.0008861473823
0.0008861473769
0.0008861473606
0.0008861473234
0.0008861473241
0.0008861473234
0.0008861473723
0.000886147315
0.000886147298
0.000886147327
0.0008861473656
0.0008861473364
0.0008861473382
0.0008861473363
0.0008861473498
0.0008861473658
0.0008861473653
0.0008861472653
0.000886147305
0.0008861473301
0.0008861473438
0.0008861473538
0.0008861473616
0.000886147368
0.000886147373
0.000886147376
0.0008861473759
0.0008861473729
0.0008861473706
0.0008861473711
0.0008861473727
0.0008861473723
0.0008861473667
0.0008861473555
0.0008861473435
0.0008861473409
0.0008861473363
0.0008861473622
0.0008861473804
0.000886147411
0.0008861473688
0.0008861473886
0.0008861473647
0.0008861473695
0.0008861473695
0.0008861473723
0.0008861473772
0.0008861473675
0.0008861472248
0.0008861472737
0.0008861473091
0.0008861473296
0.0008861473452
0.0008861473568
0.0008861473652
0.0008861473712
0.0008861473751
0.0008861473759
0.0008861473726
0.0008861473673
0.0008861473644
0.0008861473638
0.0008861473628
0.0008861473586
0.0008861473522
0.000886147348
0.0008861473478
0.0008861473471
0.0008861473695
0.0008861474172
0.0008861474392
0.0008861473725
0.0008861473858
0.0008861473724
0.000886147377
0.0008861473778
0.0008861473794
0.0008861473826
0.0008861473694
0.0008861471749
0.0008861472231
0.0008861472656
0.0008861472966
0.0008861473253
0.0008861473469
0.0008861473602
0.0008861473681
0.0008861473729
0.0008861473745
0.0008861473718
0.0008861473651
0.0008861473591
0.0008861473571
0.0008861473553
0.0008861473518
0.0008861473471
0.0008861473461
0.0008861473478
0.0008861473485
0.000886147363
0.0008861474135
0.0008861474361
0.0008861474096
0.0008861474135
0.0008861473707
0.0008861473756
0.0008861473772
0.0008861473787
0.000886147381
0.0008861473709
0.0008861471352
0.0008861471644
0.0008861471907
0.0008861472248
0.0008861472763
0.0008861473234
0.0008861473498
0.0008861473627
0.0008861473693
0.0008861473719
0.0008861473704
0.0008861473637
0.0008861473545
0.000886147349
0.000886147346
0.0008861473419
0.000886147338
0.0008861473409
0.0008861473453
0.0008861473469
0.0008861473513
0.0008861473896
0.00088614742
0.0008861474179
0.0008861474193
0.0008861473634
0.0008861473684
0.0008861473708
0.000886147373
0.0008861473752
0.0008861473719
0.0008861471179
0.0008861471175
0.0008861471009
0.0008861471168
0.0008861471874
0.000886147276
0.0008861473289
0.0008861473527
0.0008861473633
0.0008861473678
0.0008861473678
0.0008861473626
0.0008861473511
0.0008861473384
0.0008861473309
0.0008861473242
0.000886147322
0.0008861473318
0.0008861473419
0.0008861473672
0.0008861474164
0.0008861473611
0.0008861473969
0.0008861474099
0.0008861474164
0.0008861473904
0.0008861473554
0.0008861473589
0.000886147363
0.0008861473668
0.0008861473725
0.0008861471222
0.0008861470944
0.0008861470314
0.0008861470134
0.0008861470791
0.0008861472033
0.0008861472912
0.000886147334
0.000886147353
0.0008861473613
0.0008861473636
0.0008861473606
0.0008861473491
0.0008861473259
0.0008861473077
0.0008861472954
0.0008861472919
0.000886147316
0.0008861473318
0.0008861473439
0.0008861473891
0.0008861473452
0.0008861473729
0.000886147391
0.0008861473988
0.0008861473816
0.0008861473361
0.0008861473406
0.0008861473486
0.000886147356
0.0008861473725
0.0008861471433
0.0008861470966
0.0008861470092
0.0008861469584
0.0008861469895
0.0008861471171
0.0008861472347
0.0008861473025
0.000886147336
0.0008861473514
0.0008861473574
0.000886147357
0.0008861473473
0.000886147315
0.000886147281
0.0008861472558
0.0008861472465
0.0008861472863
0.0008861473175
0.0008861473329
0.0008861473477
0.0008861473359
0.0008861473527
0.0008861473678
0.0008861473698
0.000886147352
0.0008861473091
0.0008861473154
0.0008861473295
0.0008861473426
0.0008861473742
0.0008861473317
0.0008861472232
0.0008861470684
0.0008861470118
0.0008861469974
0.0008861470632
0.0008861471672
0.0008861472525
0.0008861473065
0.0008861473354
0.0008861473483
0.0008861473517
0.0008861473446
0.0008861473087
0.0008861472598
0.0008861472142
0.0008861471948
0.0008861472401
0.0008861472899
0.0008861473233
0.000886147338
0.0008861473326
0.0008861473454
0.000886147375
0.0008861473993
0.0008861473073
0.0008861472741
0.0008861472835
0.0008861473018
0.000886147321
0.0008861473734
0.0008861473617
0.0008861472406
0.0008861471323
0.0008861470873
0.0008861470593
0.0008861470754
0.0008861471351
0.0008861472098
0.000886147274
0.000886147316
0.0008861473373
0.0008861473448
0.0008861473405
0.0008861473075
0.0008861472516
0.0008861471882
0.0008861471581
0.0008861471885
0.0008861472449
0.0008861473146
0.0008861473376
0.0008861473459
0.0008861473715
0.0008861473942
0.000886147392
0.0008861473264
0.0008861473644
0.0008861472591
0.0008861473017
0.0008861473642
0.0008861473739
0.0008861473762
0.0008861473791
0.000886147381
0.0008861473811
0.0008861473805
0.0008861473794
0.000886147378
0.0008861473761
0.000886147374
0.0008861473716
0.0008861473691
0.0008861473667
0.0008861473649
0.0008861473635
0.0008861473622
0.0008861473601
0.0008861473558
0.0008861473482
0.0008861473402
0.0008861473427
0.000886147354
0.0008861473655
0.000886147375
0.0008861473824
0.0008861473753
0.0008861473805
0.0008861473999
0.0008861473788
0.0008861473869
0.0008861473884
)
;

boundaryField
{
    walls
    {
        type            zeroGradient;
    }
    wallFilmFace_top
    {
        type            zeroGradient;
    }
    region0_to_wallFilmRegion_wallFilmFace
    {
        type            zeroGradient;
    }
    mirrorFace_top
    {
        type            zeroGradient;
    }
    region0_to_wallFilmRegion_mirrorFace
    {
        type            zeroGradient;
    }
    procBoundary1to0
    {
        type            processor;
        value           nonuniform List<scalar> 
52
(
0.000886147365
0.0008861473214
0.0008861473491
0.0008861473666
0.0008861473774
0.0008861473852
0.0008861473908
0.0008861473847
0.0008861473847
0.0008861473888
0.0008861473892
0.0008861473839
0.0008861472993
0.0008861472993
0.0008861473434
0.0008861356025
0.0008861356025
0.0008861342968
0.0008861396667
0.0008861092819
0.0008860855324
0.0008860855324
0.0008860851754
0.0008860837311
0.0008860837311
0.0008860834325
0.0008860833602
0.0008860842443
0.000886147379
0.000886147379
0.0008861473612
0.0008861474198
0.0008861474198
0.0008861473934
0.0008861474023
0.0008861474023
0.000886147453
0.0008861475925
0.0008861472407
0.0008861472407
0.000886147263
0.000886147263
0.0008861472768
0.0008861473085
0.0008861473388
0.0008861473388
0.000886147419
0.0008861475028
0.0008861475336
0.0008861475782
0.0008861475735
0.0008861476186
)
;
    }
    procBoundary1to2
    {
        type            processor;
        value           nonuniform List<scalar> 
33
(
0.0008861476466
0.0008861474629
0.0008861474629
0.0008861472594
0.0008861472594
0.0008861472044
0.0008861475087
0.0008861474072
0.0008861474072
0.0008861471927
0.0008861474594
0.0008861474318
0.0008861475659
0.0008861475407
0.0008861474889
0.0008861474994
0.0008861474975
0.0008861474379
0.0008861474375
0.0008861474386
0.0008861474243
0.0008861473894
0.0008861473836
0.0008861473888
0.0008861473917
0.0008861473888
0.0008861473826
0.0008861473742
0.0008861473647
0.0008861473547
0.0008861473406
0.0008861473672
0.000886147382
)
;
    }
}


// ************************************************************************* //
