/*--------------------------------*- C++ -*----------------------------------*\
  =========                 |
  \\      /  F ield         | OpenFOAM: The Open Source CFD Toolbox
   \\    /   O peration     | Website:  https://openfoam.org
    \\  /    A nd           | Version:  8
     \\/     M anipulation  |
\*---------------------------------------------------------------------------*/
FoamFile
{
    version     2.0;
    format      ascii;
    class       volScalarField;
    location    "0.6/wallFilmRegion";
    object      sigma;
}
// * * * * * * * * * * * * * * * * * * * * * * * * * * * * * * * * * * * * * //

dimensions      [1 0 -2 0 0 0 0];

internalField   nonuniform List<scalar> 
1369
(
0.07244713435
0.07244713323
0.07244713359
0.07244713392
0.07244713416
0.07244713434
0.07244713447
0.07244713436
0.07244712897
0.07244712767
0.07244712923
0.07244713151
0.07244713289
0.07244713364
0.07244713399
0.07244713403
0.07244713398
0.07244713361
0.07244713436
0.07244713113
0.07244712872
0.07244712771
0.07244713083
0.07244713291
0.072447134
0.07244713455
0.07244713478
0.0724471348
0.07244713458
0.07244713444
0.07244713443
0.07244713435
0.07244713295
0.07244713104
0.0724471216
0.07244712358
0.07244713005
0.07244713279
0.07244713389
0.07244713434
0.07244713453
0.07244713458
0.07244713458
0.07244713451
0.07244696676
0.07244690749
0.07244685747
0.0724465661
0.07244713434
0.07244713385
0.07244713315
0.07244712619
0.07244711992
0.07244712899
0.07244713299
0.07244713412
0.07244713445
0.07244713457
0.07244713461
0.07244713461
0.07244713453
0.07244689837
0.07244682854
0.07244655253
0.07244646121
0.07244647489
0.07244648176
0.07244713433
0.07244713415
0.07244713399
0.072447133
0.07244712985
0.07244713151
0.07244713364
0.0724471343
0.07244713451
0.07244713459
0.07244713462
0.07244713461
0.07244713453
0.07244697137
0.0724469485
0.07244669817
0.07244648885
0.07244649873
0.07244650487
0.07244651288
0.07244647817
0.07244647355
0.07244647593
0.07244713434
0.07244713427
0.07244713425
0.07244713416
0.07244713383
0.07244713338
0.07244713405
0.07244713441
0.07244713456
0.07244713463
0.07244713465
0.07244713462
0.07244713451
0.07244706945
0.07244704675
0.0724469876
0.07244691952
0.07244689089
0.07244689345
0.07244672171
0.07244653199
0.0724465677
0.07244689385
0.07244713446
0.07244713419
0.07244713434
0.07244713426
0.07244713428
0.07244713429
0.07244713428
0.07244713429
0.07244713437
0.07244713451
0.07244713462
0.07244713468
0.07244713469
0.07244713463
0.07244713449
0.07244713436
0.07244713438
0.07244713444
0.07244713479
0.07244713604
0.07244713697
0.07244711858
0.07244708348
0.07244711701
0.0724471254
0.07244713366
0.07244713303
0.07244713392
0.07244713437
0.07244713403
0.07244713413
0.07244713426
0.07244713439
0.0724471345
0.0724471346
0.07244713468
0.07244713474
0.07244713476
0.07244713475
0.07244713473
0.07244713467
0.07244713377
0.07244713397
0.07244713637
0.07244713736
0.07244713761
0.07244713765
0.07244705112
0.07244700042
0.07244703502
0.07244705884
0.07244707807
0.07244709638
0.07244713462
0.07244713441
0.0724471338
0.07244713397
0.07244713419
0.07244713438
0.07244713453
0.07244713465
0.07244713473
0.07244713476
0.07244713475
0.07244713474
0.07244713472
0.07244713467
0.07244713304
0.07244713412
0.07244713647
0.07244713767
0.0724471377
0.0724471377
0.07244706276
0.07244702067
0.07244704254
0.07244705881
0.0724470709
0.07244708851
0.07244713729
0.07244713589
0.07244713444
0.07244713358
0.07244713358
0.07244713348
0.07244713335
0.07244713329
0.07244713349
0.07244713405
0.07244713442
0.07244713456
0.07244713457
0.07244713445
0.07244713392
0.07244712954
0.0724471334
0.07244713555
0.07244713669
0.07244713703
0.07244713682
0.07244709484
0.07244705623
0.07244707118
0.07244707835
0.0724470836
0.07244709319
0.07244713637
0.07244713773
0.07244713446
0.07244713363
0.0724471337
0.07244713366
0.07244713355
0.07244713344
0.07244713337
0.07244713367
0.07244713423
0.0724471345
0.07244713456
0.07244713448
0.07244713402
0.07244712773
0.07244713056
0.07244713245
0.07244713458
0.07244713551
0.07244713563
0.0724471133
0.07244708727
0.07244709195
0.07244709283
0.07244709299
0.07244709572
0.0724471362
0.07244713552
0.07244713448
0.07244713379
0.07244713386
0.07244713388
0.07244713376
0.07244713368
0.07244713348
0.07244713341
0.07244713389
0.07244713436
0.07244713451
0.07244713446
0.07244713405
0.07244713058
0.07244713294
0.07244713449
0.07244713544
0.07244713571
0.0724471356
0.07244712548
0.07244711132
0.0724471092
0.07244710592
0.07244710253
0.07244710165
0.07244710064
0.07244710574
0.07244712935
0.07244713451
0.07244713404
0.07244713403
0.07244713408
0.07244713393
0.07244713389
0.07244713367
0.0724471333
0.07244713341
0.07244713405
0.07244713437
0.07244713441
0.07244713411
0.0724471328
0.07244713431
0.07244713521
0.07244713568
0.07244713573
0.07244713547
0.07244713282
0.07244712801
0.07244712227
0.07244711595
0.07244710943
0.07244710391
0.07244709988
0.072447106
0.07244712855
0.07244713255
0.07244713453
0.07244713425
0.07244713427
0.07244713423
0.07244713407
0.07244713406
0.07244713382
0.07244713328
0.07244713281
0.07244713343
0.07244713403
0.07244713425
0.07244713415
0.07244713413
0.072447135
0.0724471356
0.0724471358
0.07244713566
0.07244713529
0.07244713584
0.07244711903
0.07244711398
0.07244710993
0.07244710818
0.07244711212
0.07244712579
0.07244713309
0.07244713346
0.07244713362
0.07244713457
0.07244713448
0.07244713448
0.07244713436
0.07244713418
0.07244713421
0.07244713393
0.07244713325
0.07244713233
0.07244713199
0.07244713316
0.07244713379
0.07244713401
0.07244713494
0.07244713578
0.0724471359
0.07244713572
0.07244713543
0.07244713508
0.07244713553
0.07244713266
0.072447128
0.07244712424
0.07244712238
0.07244712458
0.07244712931
0.07244713343
0.07244713389
0.07244713449
0.07244713451
0.07244713462
0.07244713459
0.07244713446
0.07244713427
0.07244713435
0.07244713399
0.07244713314
0.07244713226
0.07244713213
0.07244713288
0.07244713343
0.07244713427
0.07244713524
0.07244713532
0.07244713522
0.07244713511
0.07244713502
0.07244713489
0.07244712538
0.07244712793
0.07244713635
0.07244713414
0.07244713311
0.07244713151
0.07244713168
0.07244713498
0.0724471367
0.07244713605
0.07244713546
0.07244713122
0.07244670498
0.07244708658
0.07244713659
0.07244713446
0.07244713469
0.07244713467
0.07244713455
0.07244713432
0.07244713448
0.07244713403
0.07244713296
0.07244713224
0.07244713348
0.07244713452
0.07244713481
0.07244713487
0.07244713488
0.07244713487
0.07244713486
0.07244713485
0.07244713484
0.07244713484
0.07244713484
0.07244713498
0.07244713527
0.07244713544
0.07244713541
0.07244713277
0.07244713336
0.07244713532
0.07244713584
0.07244713443
0.07244712411
0.07244659816
0.07244653395
0.07244650373
0.07244654136
0.07244713445
0.07244713474
0.07244713474
0.07244713462
0.07244713443
0.07244713458
0.07244713403
0.07244713278
0.07244713141
0.07244713128
0.07244713289
0.07244713438
0.07244713477
0.07244713485
0.07244713487
0.07244713488
0.07244713487
0.07244713487
0.07244713485
0.07244713523
0.07244713481
0.07244713599
0.07244713605
0.07244713615
0.07244712445
0.07244713442
0.07244713521
0.07244713502
0.07244713074
0.07244672685
0.0724465661
0.07244653725
0.07244651398
0.07244705436
0.0724471346
0.07244713477
0.07244713477
0.07244713468
0.07244713451
0.07244713464
0.07244713393
0.07244713265
0.07244713089
0.07244713017
0.07244713124
0.072447133
0.07244713442
0.07244713487
0.07244713509
0.07244713521
0.07244713527
0.07244713528
0.07244713535
0.07244713637
0.07244713167
0.07244713399
0.07244713331
0.07244713554
0.07244713604
0.07244713622
0.07244713423
0.0724471322
0.07244713218
0.07244713329
0.07244713398
0.07244713448
0.07244713493
0.07244713463
0.07244713478
0.07244713477
0.07244713457
0.07244713436
0.07244713427
0.07244713355
0.07244713255
0.07244713046
0.07244712889
0.0724471299
0.07244713138
0.07244713318
0.07244713436
0.07244713511
0.0724471355
0.07244713574
0.07244713583
0.07244713588
0.07244713614
0.07244711407
0.07244712776
0.07244713192
0.07244713368
0.07244713455
0.07244713549
0.07244713257
0.07244713044
0.07244713091
0.07244713154
0.07244713209
0.07244713261
0.07244713475
0.07244713479
0.07244713478
0.0724471346
0.07244713453
0.07244713454
0.07244713352
0.07244713244
0.07244713041
0.07244712902
0.07244712988
0.07244713059
0.07244713178
0.07244713298
0.07244713439
0.07244713497
0.07244713592
0.07244713622
0.07244713628
0.07244713595
0.0724471375
0.0724468948
0.07244712223
0.07244713183
0.07244713308
0.07244713473
0.07244713361
0.07244713279
0.07244713132
0.07244713112
0.07244713158
0.07244713209
0.07244713472
0.07244713482
0.07244713482
0.07244713477
0.07244713477
0.07244713471
0.07244713349
0.07244713219
0.07244713023
0.0724471295
0.07244713016
0.07244713056
0.07244713107
0.07244713145
0.07244713356
0.07244713478
0.07244713518
0.07244713579
0.07244713584
0.07244713602
0.07244713602
0.07244711403
0.07244657966
0.07244711808
0.0724471308
0.07244713444
0.07244713492
0.07244713532
0.07244713469
0.07244713274
0.0724471352
0.07244713582
0.07244713463
0.0724471348
0.07244713478
0.07244713471
0.07244713472
0.07244713469
0.07244713409
0.07244713357
0.07244713199
0.0724471246
0.07244713177
0.0724471336
0.07244713406
0.07244713192
0.07244713418
0.0724471348
0.07244713358
0.0724471347
0.07244713542
0.0724471353
0.07244713618
0.07244713719
0.07244713652
0.0724471353
0.07244713518
0.07244713438
0.07244713551
0.07244713616
0.07244713709
0.07244713528
0.07244713445
0.07244713456
0.07244713477
0.07244713476
0.07244713472
0.07244713474
0.0724471347
0.07244713416
0.07244713359
0.07244713294
0.07244713349
0.07244713405
0.07244713429
0.0724471344
0.0724471346
0.0724471348
0.07244713482
0.07244713478
0.07244713455
0.07244713507
0.07244713529
0.07244713621
0.07244713625
0.07244713554
0.0724471345
0.07244713603
0.07244713456
0.0724471352
0.07244713693
0.07244713879
0.0724471381
0.0724471357
0.0724471345
0.07244713474
0.07244713475
0.07244713475
0.07244713476
0.0724471347
0.07244713415
0.07244713374
0.07244713365
0.07244713397
0.07244713423
0.07244713436
0.0724471344
0.07244713451
0.07244713467
0.07244713478
0.07244713474
0.07244713481
0.07244713518
0.07244713578
0.07244713502
0.07244713502
0.07244713515
0.07244713533
0.07244713548
0.0724471355
0.07244713525
0.07244713765
0.07244713963
0.07244713917
0.07244713704
0.07244713449
0.07244713475
0.07244713478
0.07244713481
0.07244713481
0.07244713481
0.07244713465
0.07244713466
0.0724471345
0.07244713408
0.07244713423
0.07244713431
0.07244713425
0.07244713425
0.07244713448
0.07244713464
0.07244713456
0.07244713469
0.07244713492
0.07244713521
0.07244713547
0.07244713635
0.07244713603
0.07244713548
0.07244713569
0.07244713589
0.07244713486
0.07244713574
0.07244713881
0.07244713735
0.072447136
0.07244713444
0.07244713474
0.07244713478
0.0724471348
0.0724471348
0.0724471348
0.07244713463
0.07244713459
0.07244713422
0.072447134
0.07244713415
0.07244713416
0.07244713403
0.07244713382
0.07244713403
0.07244713429
0.07244713446
0.07244713474
0.07244713486
0.07244713498
0.07244713543
0.0724471352
0.07244713499
0.07244713559
0.07244713587
0.07244713626
0.07244713572
0.07244713589
0.07244713691
0.07244713627
0.07244713678
0.0724471344
0.07244713468
0.07244713474
0.07244713477
0.07244713478
0.07244713477
0.07244713447
0.07244713435
0.07244713388
0.07244713387
0.07244713394
0.07244713387
0.07244713371
0.07244713369
0.07244713409
0.07244713447
0.07244713469
0.07244713491
0.07244713509
0.07244713547
0.07244713584
0.07244713491
0.07244713479
0.07244713558
0.07244713609
0.07244713697
0.07244713563
0.07244713584
0.07244713628
0.07244713605
0.07244713673
0.07244713436
0.07244713455
0.07244713467
0.07244713473
0.07244713475
0.07244713472
0.07244713426
0.07244713409
0.07244713366
0.07244713347
0.07244713344
0.07244713324
0.07244713323
0.07244713356
0.07244713404
0.07244713436
0.07244713461
0.072447135
0.07244713534
0.07244713611
0.07244713534
0.07244713236
0.07244713436
0.07244713555
0.07244713682
0.0724471381
0.07244713589
0.07244713577
0.0724471358
0.07244713578
0.0724471365
0.07244713429
0.07244713427
0.07244713445
0.07244713462
0.07244713468
0.07244713464
0.07244713417
0.07244713408
0.07244713417
0.0724471344
0.07244713451
0.07244713455
0.07244713455
0.0724471345
0.0724471344
0.07244713438
0.07244713438
0.07244713484
0.07244713527
0.07244713647
0.07244713609
0.07244713547
0.07244713498
0.07244713479
0.07244713494
0.07244713617
0.07244713603
0.07244713561
0.07244713552
0.07244713543
0.07244713583
0.07244713427
0.07244713418
0.07244713429
0.07244713445
0.07244713456
0.07244713453
0.07244713423
0.07244713421
0.07244713432
0.07244713447
0.07244713456
0.0724471346
0.07244713462
0.07244713461
0.07244713457
0.0724471345
0.07244713436
0.07244713447
0.07244713495
0.07244713645
0.07244713587
0.0724471353
0.07244713495
0.07244713509
0.07244713471
0.07244713479
0.07244713533
0.07244713558
0.07244713531
0.0724471357
0.07244713577
0.07244713427
0.07244713413
0.07244713421
0.07244713433
0.07244713442
0.07244713443
0.0724471343
0.07244713429
0.07244713435
0.07244713446
0.07244713455
0.0724471346
0.07244713463
0.07244713464
0.07244713462
0.07244713455
0.0724471344
0.07244713425
0.07244713468
0.07244713602
0.0724471354
0.07244713499
0.0724471348
0.07244713472
0.07244713446
0.07244713379
0.07244713362
0.07244713456
0.07244713536
0.07244713594
0.0724471357
0.07244713427
0.07244713406
0.07244713417
0.07244713427
0.07244713434
0.07244713438
0.07244713435
0.07244713435
0.07244713436
0.07244713443
0.07244713451
0.07244713458
0.07244713462
0.07244713464
0.07244713463
0.07244713457
0.07244713444
0.07244713421
0.07244713445
0.07244713526
0.07244713491
0.07244713472
0.07244713463
0.07244713452
0.0724471343
0.07244713389
0.07244713438
0.07244713498
0.07244713336
0.07244713593
0.07244713575
0.07244713428
0.07244713397
0.07244713413
0.07244713424
0.07244713431
0.07244713436
0.07244713438
0.07244713438
0.07244713438
0.07244713441
0.07244713447
0.07244713454
0.07244713459
0.07244713462
0.07244713462
0.07244713458
0.07244713446
0.07244713424
0.07244713429
0.07244713465
0.07244713458
0.07244713451
0.07244713444
0.0724471343
0.07244713411
0.07244713397
0.0724471324
0.07244713472
0.07244713278
0.07244713482
0.07244713535
0.07244713429
0.07244713385
0.07244713407
0.0724471342
0.07244713428
0.07244713434
0.07244713438
0.0724471344
0.07244713441
0.07244713441
0.07244713444
0.07244713449
0.07244713455
0.07244713459
0.0724471346
0.07244713458
0.07244713448
0.07244713429
0.07244713418
0.07244713435
0.07244713434
0.0724471347
0.07244713449
0.07244713418
0.07244713393
0.07244713428
0.07244713271
0.07244711854
0.07244711507
0.07244713442
0.0724471349
0.07244713431
0.07244713371
0.07244713399
0.07244713416
0.07244713425
0.07244713432
0.07244713437
0.07244713441
0.07244713444
0.07244713444
0.07244713444
0.07244713446
0.0724471345
0.07244713455
0.07244713458
0.07244713457
0.0724471345
0.07244713433
0.07244713405
0.07244713414
0.07244713414
0.07244713471
0.07244713428
0.07244713391
0.07244713376
0.07244713436
0.07244713346
0.0724471325
0.07244713241
0.07244713395
0.07244713445
0.07244713433
0.07244713356
0.0724471339
0.0724471341
0.07244713421
0.07244713429
0.07244713435
0.0724471344
0.07244713444
0.07244713446
0.07244713445
0.07244713444
0.07244713446
0.07244713449
0.07244713453
0.07244713453
0.07244713448
0.07244713431
0.07244713392
0.07244713393
0.07244713392
0.07244713443
0.07244713383
0.07244713366
0.07244713396
0.07244713436
0.07244713406
0.07244713407
0.07244713406
0.07244713419
0.07244713436
0.07244713436
0.07244713332
0.07244713373
0.07244713399
0.07244713413
0.07244713424
0.07244713432
0.07244713438
0.07244713444
0.07244713447
0.07244713447
0.07244713443
0.07244713441
0.07244713442
0.07244713443
0.07244713443
0.07244713437
0.07244713425
0.07244713413
0.0724471341
0.07244713405
0.07244713432
0.07244713451
0.07244713483
0.07244713439
0.0724471346
0.07244713435
0.0724471344
0.0724471344
0.07244713443
0.07244713448
0.07244713438
0.0724471329
0.0724471334
0.07244713377
0.07244713399
0.07244713415
0.07244713427
0.07244713435
0.07244713442
0.07244713446
0.07244713447
0.07244713443
0.07244713438
0.07244713435
0.07244713434
0.07244713433
0.07244713429
0.07244713422
0.07244713418
0.07244713417
0.07244713417
0.0724471344
0.07244713489
0.07244713512
0.07244713443
0.07244713457
0.07244713443
0.07244713448
0.07244713449
0.0724471345
0.07244713454
0.0724471344
0.07244713238
0.07244713288
0.07244713332
0.07244713364
0.07244713394
0.07244713416
0.0724471343
0.07244713439
0.07244713443
0.07244713445
0.07244713442
0.07244713435
0.07244713429
0.07244713427
0.07244713425
0.07244713422
0.07244713417
0.07244713416
0.07244713417
0.07244713418
0.07244713433
0.07244713486
0.07244713509
0.07244713482
0.07244713486
0.07244713441
0.07244713446
0.07244713448
0.0724471345
0.07244713452
0.07244713441
0.07244713197
0.07244713227
0.07244713254
0.0724471329
0.07244713343
0.07244713392
0.0724471342
0.07244713433
0.0724471344
0.07244713442
0.07244713441
0.07244713434
0.07244713424
0.07244713419
0.07244713416
0.07244713411
0.07244713407
0.0724471341
0.07244713415
0.07244713416
0.07244713421
0.07244713461
0.07244713492
0.0724471349
0.07244713492
0.07244713434
0.07244713439
0.07244713441
0.07244713444
0.07244713446
0.07244713442
0.07244713179
0.07244713178
0.07244713161
0.07244713178
0.07244713251
0.07244713343
0.07244713398
0.07244713422
0.07244713433
0.07244713438
0.07244713438
0.07244713433
0.07244713421
0.07244713408
0.072447134
0.07244713393
0.07244713391
0.07244713401
0.07244713411
0.07244713438
0.07244713489
0.07244713431
0.07244713468
0.07244713482
0.07244713489
0.07244713462
0.07244713425
0.07244713429
0.07244713433
0.07244713437
0.07244713443
0.07244713183
0.07244713154
0.07244713089
0.0724471307
0.07244713138
0.07244713267
0.07244713359
0.07244713403
0.07244713423
0.07244713431
0.07244713434
0.07244713431
0.07244713419
0.07244713395
0.07244713376
0.07244713363
0.07244713359
0.07244713384
0.07244713401
0.07244713413
0.0724471346
0.07244713415
0.07244713443
0.07244713462
0.0724471347
0.07244713452
0.07244713405
0.0724471341
0.07244713418
0.07244713426
0.07244713443
0.07244713205
0.07244713157
0.07244713066
0.07244713013
0.07244713045
0.07244713178
0.072447133
0.0724471337
0.07244713405
0.07244713421
0.07244713427
0.07244713427
0.07244713417
0.07244713383
0.07244713348
0.07244713322
0.07244713312
0.07244713354
0.07244713386
0.07244713402
0.07244713417
0.07244713405
0.07244713423
0.07244713438
0.0724471344
0.07244713422
0.07244713377
0.07244713384
0.07244713398
0.07244713412
0.07244713445
0.07244713401
0.07244713288
0.07244713127
0.07244713069
0.07244713054
0.07244713122
0.0724471323
0.07244713318
0.07244713374
0.07244713404
0.07244713418
0.07244713421
0.07244713414
0.07244713377
0.07244713326
0.07244713279
0.07244713259
0.07244713306
0.07244713357
0.07244713392
0.07244713407
0.07244713402
0.07244713415
0.07244713446
0.07244713471
0.07244713375
0.07244713341
0.07244713351
0.0724471337
0.0724471339
0.07244713444
0.07244713432
0.07244713306
0.07244713194
0.07244713147
0.07244713118
0.07244713135
0.07244713197
0.07244713274
0.07244713341
0.07244713384
0.07244713406
0.07244713414
0.0724471341
0.07244713376
0.07244713317
0.07244713252
0.0724471322
0.07244713252
0.07244713311
0.07244713383
0.07244713407
0.07244713415
0.07244713442
0.07244713466
0.07244713463
0.07244713395
0.07244713435
0.07244713325
0.0724471337
0.07244713434
0.07244713445
0.07244713447
0.0724471345
0.07244713452
0.07244713452
0.07244713451
0.0724471345
0.07244713449
0.07244713447
0.07244713445
0.07244713442
0.07244713439
0.07244713437
0.07244713435
0.07244713434
0.07244713432
0.0724471343
0.07244713426
0.07244713418
0.0724471341
0.07244713412
0.07244713424
0.07244713436
0.07244713446
0.07244713453
0.07244713446
0.07244713451
0.07244713471
0.0724471345
0.07244713458
0.0724471346
)
;

boundaryField
{
    walls
    {
        type            zeroGradient;
    }
    wallFilmFace_top
    {
        type            zeroGradient;
    }
    region0_to_wallFilmRegion_wallFilmFace
    {
        type            zeroGradient;
    }
    mirrorFace_top
    {
        type            zeroGradient;
    }
    region0_to_wallFilmRegion_mirrorFace
    {
        type            zeroGradient;
    }
    procBoundary1to0
    {
        type            processor;
        value           nonuniform List<scalar> 
52
(
0.07244713435
0.0724471339
0.07244713419
0.07244713437
0.07244713448
0.07244713456
0.07244713462
0.07244713456
0.07244713456
0.0724471346
0.0724471346
0.07244713455
0.07244713367
0.07244713367
0.07244713413
0.07244701222
0.07244701222
0.07244699866
0.07244705442
0.0724467389
0.07244649228
0.07244649228
0.07244648857
0.07244647358
0.07244647358
0.07244647047
0.07244646972
0.0724464789
0.0724471345
0.0724471345
0.07244713431
0.07244713492
0.07244713492
0.07244713465
0.07244713474
0.07244713474
0.07244713527
0.07244713672
0.07244713306
0.07244713306
0.07244713329
0.07244713329
0.07244713344
0.07244713377
0.07244713408
0.07244713408
0.07244713491
0.07244713578
0.0724471361
0.07244713657
0.07244713652
0.07244713699
)
;
    }
    procBoundary1to2
    {
        type            processor;
        value           nonuniform List<scalar> 
33
(
0.07244713728
0.07244713537
0.07244713537
0.07244713326
0.07244713326
0.07244713269
0.07244713585
0.07244713479
0.07244713479
0.07244713256
0.07244713533
0.07244713505
0.07244713644
0.07244713618
0.07244713564
0.07244713575
0.07244713573
0.07244713511
0.07244713511
0.07244713512
0.07244713497
0.07244713461
0.07244713455
0.0724471346
0.07244713463
0.0724471346
0.07244713454
0.07244713445
0.07244713435
0.07244713425
0.0724471341
0.07244713438
0.07244713453
)
;
    }
}


// ************************************************************************* //
