/*--------------------------------*- C++ -*----------------------------------*\
  =========                 |
  \\      /  F ield         | OpenFOAM: The Open Source CFD Toolbox
   \\    /   O peration     | Website:  https://openfoam.org
    \\  /    A nd           | Version:  8
     \\/     M anipulation  |
\*---------------------------------------------------------------------------*/
FoamFile
{
    version     2.0;
    format      ascii;
    class       volScalarField;
    location    "0.6/wallFilmRegion";
    object      T;
}
// * * * * * * * * * * * * * * * * * * * * * * * * * * * * * * * * * * * * * //

dimensions      [0 0 0 1 0 0 0];

internalField   nonuniform List<scalar> 
1369
(
300.0000023
300.000008
300.0000062
300.0000045
300.0000033
300.0000024
300.0000018
300.0000023
300.0000293
300.0000359
300.000028
300.0000166
300.0000097
300.0000059
300.0000042
300.000004
300.0000042
300.0000061
300.0000023
300.0000185
300.0000306
300.0000356
300.00002
300.0000096
300.0000041
300.0000014
300.0000002
300.0000001
300.0000012
300.0000019
300.000002
300.0000024
300.0000094
300.000019
300.0000663
300.0000564
300.0000239
300.0000102
300.0000047
300.0000024
300.0000015
300.0000012
300.0000012
300.0000016
300.0008423
300.0011394
300.0013901
300.0028504
300.0000024
300.0000049
300.0000084
300.0000433
300.0000747
300.0000292
300.0000092
300.0000035
300.0000019
300.0000013
300.0000011
300.0000011
300.0000015
300.0011851
300.001535
300.0029183
300.0033761
300.0033075
300.003273
300.0000025
300.0000034
300.0000042
300.0000092
300.0000249
300.0000166
300.0000059
300.0000026
300.0000016
300.0000012
300.000001
300.0000011
300.0000015
300.0008192
300.0009338
300.0021885
300.0032375
300.003188
300.0031572
300.0031171
300.003291
300.0033142
300.0033023
300.0000024
300.0000028
300.0000029
300.0000033
300.000005
300.0000072
300.0000039
300.0000021
300.0000013
300.000001
300.0000009
300.000001
300.0000016
300.0003277
300.0004414
300.0007379
300.0010791
300.0012226
300.0012097
300.0020705
300.0030213
300.0028423
300.0012077
300.0000018
300.0000032
300.0000024
300.0000028
300.0000027
300.0000027
300.0000027
300.0000026
300.0000023
300.0000016
300.000001
300.0000007
300.0000007
300.000001
300.0000017
300.0000023
300.0000022
300.0000019
300.0000002
299.9999939
299.9999892
300.0000814
300.0002573
300.0000893
300.0000472
300.0000058
300.000009
300.0000045
300.0000023
300.000004
300.0000035
300.0000028
300.0000022
300.0000016
300.0000011
300.0000007
300.0000004
300.0000003
300.0000004
300.0000005
300.0000008
300.0000053
300.0000043
299.9999923
299.9999873
299.999986
299.9999858
300.0004195
300.0006736
300.0005002
300.0003808
300.0002845
300.0001926
300.000001
300.0000021
300.0000051
300.0000043
300.0000032
300.0000022
300.0000015
300.0000009
300.0000005
300.0000003
300.0000004
300.0000004
300.0000005
300.0000008
300.0000089
300.0000035
299.9999917
299.9999857
299.9999856
299.9999856
300.0003612
300.0005721
300.0004625
300.000381
300.0003204
300.0002321
299.9999876
299.9999946
300.0000019
300.0000063
300.0000062
300.0000067
300.0000074
300.0000077
300.0000067
300.0000039
300.000002
300.0000013
300.0000013
300.0000019
300.0000046
300.0000265
300.0000071
299.9999963
299.9999906
299.9999889
299.99999
300.0002004
300.0003939
300.0003189
300.000283
300.0002567
300.0002087
299.9999923
299.9999854
300.0000018
300.000006
300.0000056
300.0000058
300.0000064
300.0000069
300.0000073
300.0000058
300.000003
300.0000016
300.0000013
300.0000017
300.000004
300.0000355
300.0000214
300.0000119
300.0000012
299.9999966
299.999996
300.0001079
300.0002383
300.0002149
300.0002105
300.0002097
300.000196
299.9999931
299.9999965
300.0000017
300.0000052
300.0000048
300.0000047
300.0000054
300.0000057
300.0000067
300.0000071
300.0000047
300.0000023
300.0000016
300.0000018
300.0000039
300.0000213
300.0000094
300.0000017
299.9999969
299.9999955
299.9999961
300.0000468
300.0001178
300.0001284
300.0001448
300.0001619
300.0001663
300.0001713
300.0001458
300.0000274
300.0000016
300.0000039
300.000004
300.0000037
300.0000045
300.0000047
300.0000058
300.0000076
300.0000071
300.0000039
300.0000023
300.0000021
300.0000036
300.0000102
300.0000026
299.999998
299.9999957
299.9999954
299.9999968
300.00001
300.0000341
300.0000629
300.0000946
300.0001273
300.0001549
300.0001751
300.0001444
300.0000314
300.0000114
300.0000015
300.0000029
300.0000028
300.000003
300.0000038
300.0000038
300.000005
300.0000077
300.0000101
300.000007
300.000004
300.0000029
300.0000034
300.0000035
299.9999991
299.9999961
299.9999951
299.9999958
299.9999976
299.9999949
300.0000792
300.0001045
300.0001248
300.0001335
300.0001138
300.0000453
300.0000087
300.0000068
300.000006
300.0000013
300.0000017
300.0000017
300.0000023
300.0000032
300.0000031
300.0000045
300.0000079
300.0000125
300.0000142
300.0000084
300.0000052
300.0000041
299.9999994
299.9999952
299.9999946
299.9999955
299.9999969
299.9999987
299.9999964
300.0000108
300.0000342
300.000053
300.0000624
300.0000514
300.0000276
300.000007
300.0000047
300.0000017
300.0000016
300.000001
300.0000012
300.0000018
300.0000028
300.0000024
300.0000042
300.0000085
300.0000129
300.0000135
300.0000097
300.000007
300.0000028
299.9999979
299.9999975
299.999998
299.9999986
299.999999
299.9999997
300.0000473
300.0000346
299.9999923
300.0000034
300.0000086
300.0000166
300.0000158
299.9999992
299.9999906
299.9999939
299.9999968
300.0000181
300.0021543
300.0002418
299.9999911
300.0000018
300.0000007
300.0000008
300.0000014
300.0000025
300.0000017
300.000004
300.0000093
300.000013
300.0000068
300.0000015
300.0000001
299.9999998
299.9999997
299.9999998
299.9999998
299.9999999
299.9999999
299.9999999
299.9999999
299.9999992
299.9999977
299.9999969
299.999997
300.0000103
300.0000073
299.9999975
299.9999949
300.000002
300.0000537
300.0026897
300.0030115
300.0031629
300.0029744
300.0000019
300.0000004
300.0000004
300.000001
300.000002
300.0000012
300.000004
300.0000102
300.0000171
300.0000177
300.0000097
300.0000022
300.0000003
299.9999999
299.9999997
299.9999997
299.9999997
299.9999998
299.9999999
299.999998
300
299.9999942
299.9999938
299.9999934
300.000052
300.000002
299.9999981
299.999999
300.0000205
300.0020447
300.0028504
300.0029949
300.0031116
300.0004033
300.0000011
300.0000003
300.0000003
300.0000007
300.0000016
300.0000009
300.0000045
300.0000109
300.0000197
300.0000233
300.000018
300.0000091
300.000002
299.9999998
299.9999987
299.9999981
299.9999978
299.9999977
299.9999973
299.9999923
300.0000158
300.0000042
300.0000076
299.9999964
299.9999939
299.999993
300.000003
300.0000131
300.0000133
300.0000077
300.0000043
300.0000017
299.9999995
300.000001
300.0000002
300.0000003
300.0000013
300.0000023
300.0000028
300.0000064
300.0000114
300.0000219
300.0000297
300.0000247
300.0000173
300.0000083
300.0000023
299.9999986
299.9999966
299.9999954
299.9999949
299.9999947
299.9999934
300.000104
300.0000354
300.0000146
300.0000057
300.0000014
299.9999967
300.0000113
300.000022
300.0000196
300.0000165
300.0000137
300.0000111
300.0000003
300.0000002
300.0000002
300.0000011
300.0000015
300.0000014
300.0000065
300.0000119
300.0000221
300.0000291
300.0000248
300.0000212
300.0000153
300.0000093
300.0000022
299.9999993
299.9999945
299.999993
299.9999927
299.9999944
299.9999866
300.0012029
300.0000631
300.000015
300.0000087
300.0000005
300.0000061
300.0000102
300.0000176
300.0000186
300.0000162
300.0000137
300.0000005
300
300
300.0000003
300.0000003
300.0000006
300.0000067
300.0000132
300.000023
300.0000267
300.0000234
300.0000214
300.0000188
300.0000169
300.0000063
300.0000002
299.9999982
299.9999951
299.9999949
299.999994
299.999994
300.0001042
300.0027824
300.0000839
300.0000202
300.0000019
299.9999995
299.9999975
300.0000007
300.0000104
299.9999981
299.999995
300.000001
300.0000001
300.0000002
300.0000006
300.0000005
300.0000007
300.0000037
300.0000063
300.0000142
300.0000513
300.0000153
300.0000061
300.0000038
300.0000145
300.0000032
300.0000001
300.0000062
300.0000006
299.999997
299.9999976
299.9999932
299.9999882
299.9999915
299.9999976
299.9999982
300.0000022
299.9999966
299.9999933
299.9999886
299.9999977
300.0000019
300.0000013
300.0000003
300.0000003
300.0000005
300.0000004
300.0000006
300.0000033
300.0000062
300.0000095
300.0000067
300.0000039
300.0000027
300.0000021
300.0000011
300.0000001
300
300.0000002
300.0000014
299.9999988
299.9999977
299.999993
299.9999929
299.9999964
300.0000016
299.999994
300.0000013
299.9999981
299.9999894
299.9999801
299.9999836
299.9999956
300.0000016
300.0000004
300.0000004
300.0000003
300.0000003
300.0000006
300.0000034
300.0000054
300.0000059
300.0000043
300.000003
300.0000023
300.0000021
300.0000016
300.0000008
300.0000002
300.0000004
300.0000001
299.9999982
299.9999952
299.999999
299.999999
299.9999983
299.9999975
299.9999967
299.9999966
299.9999978
299.9999858
299.9999759
299.9999782
299.9999889
300.0000017
300.0000004
300.0000002
300.0000001
300
300.0000001
300.0000009
300.0000008
300.0000016
300.0000037
300.000003
300.0000026
300.0000029
300.0000029
300.0000017
300.0000009
300.0000013
300.0000007
299.9999995
299.9999981
299.9999968
299.9999923
299.999994
299.9999967
299.9999956
299.9999947
299.9999998
299.9999954
299.99998
299.9999873
299.9999941
300.0000019
300.0000004
300.0000002
300.0000001
300.0000001
300.0000001
300.000001
300.0000012
300.000003
300.0000041
300.0000034
300.0000033
300.000004
300.000005
300.000004
300.0000027
300.0000018
300.0000004
299.9999998
299.9999992
299.9999969
299.9999981
299.9999991
299.9999962
299.9999947
299.9999928
299.9999955
299.9999947
299.9999895
299.9999927
299.9999902
300.0000021
300.0000007
300.0000004
300.0000003
300.0000002
300.0000003
300.0000018
300.0000024
300.0000047
300.0000048
300.0000044
300.0000048
300.0000056
300.0000057
300.0000037
300.0000018
300.0000007
299.9999996
299.9999987
299.9999968
299.9999949
299.9999996
300.0000002
299.9999962
299.9999936
299.9999892
299.9999959
299.9999949
299.9999927
299.9999939
299.9999904
300.0000023
300.0000014
300.0000008
300.0000005
300.0000004
300.0000005
300.0000028
300.0000037
300.0000058
300.0000068
300.0000069
300.0000079
300.000008
300.0000064
300.0000039
300.0000023
300.0000011
299.9999991
299.9999974
299.9999935
299.9999974
300.0000123
300.0000023
299.9999963
299.99999
299.9999836
299.9999947
299.9999952
299.9999951
299.9999952
299.9999916
300.0000027
300.0000028
300.0000019
300.000001
300.0000007
300.0000009
300.0000033
300.0000037
300.0000033
300.0000021
300.0000016
300.0000014
300.0000014
300.0000016
300.0000021
300.0000022
300.0000022
299.9999999
299.9999978
299.9999917
299.9999937
299.9999967
299.9999992
300.0000002
299.9999994
299.9999932
299.999994
299.999996
299.9999965
299.9999969
299.9999949
300.0000028
300.0000032
300.0000027
300.0000019
300.0000013
300.0000015
300.000003
300.0000031
300.0000025
300.0000018
300.0000013
300.0000011
300.000001
300.0000011
300.0000013
300.0000016
300.0000023
300.0000018
299.9999993
299.9999918
299.9999948
299.9999976
299.9999994
299.9999987
300.0000006
300.0000002
299.9999974
299.9999962
299.9999976
299.9999956
299.9999953
300.0000028
300.0000035
300.0000031
300.0000025
300.000002
300.000002
300.0000026
300.0000027
300.0000024
300.0000018
300.0000014
300.0000011
300.000001
300.0000009
300.000001
300.0000014
300.0000021
300.0000029
300.0000007
299.999994
299.9999971
299.9999992
300.0000001
300.0000005
300.0000018
300.0000052
300.000006
300.0000013
299.9999973
299.9999944
299.9999956
300.0000028
300.0000038
300.0000033
300.0000028
300.0000024
300.0000022
300.0000024
300.0000024
300.0000023
300.000002
300.0000016
300.0000012
300.000001
300.0000009
300.000001
300.0000013
300.0000019
300.0000031
300.0000019
299.9999978
299.9999996
300.0000005
300.000001
300.0000015
300.0000026
300.0000047
300.0000022
299.9999992
300.0000074
299.9999944
299.9999954
300.0000027
300.0000043
300.0000035
300.0000029
300.0000026
300.0000023
300.0000022
300.0000022
300.0000022
300.0000021
300.0000018
300.0000014
300.0000012
300.000001
300.000001
300.0000012
300.0000018
300.0000029
300.0000027
300.0000009
300.0000012
300.0000016
300.0000019
300.0000026
300.0000036
300.0000043
300.0000121
300.0000005
300.0000102
300
299.9999973
300.0000027
300.0000049
300.0000038
300.0000031
300.0000027
300.0000024
300.0000022
300.0000021
300.0000021
300.0000021
300.0000019
300.0000017
300.0000014
300.0000012
300.0000011
300.0000012
300.0000017
300.0000027
300.0000032
300.0000024
300.0000024
300.0000006
300.0000016
300.0000032
300.0000045
300.0000027
300.0000106
300.0000816
300.000099
300.000002
299.9999996
300.0000026
300.0000056
300.0000042
300.0000033
300.0000029
300.0000025
300.0000022
300.0000021
300.0000019
300.0000019
300.0000019
300.0000018
300.0000016
300.0000014
300.0000012
300.0000013
300.0000016
300.0000024
300.0000039
300.0000034
300.0000034
300.0000006
300.0000027
300.0000046
300.0000053
300.0000023
300.0000068
300.0000117
300.0000121
300.0000044
300.0000019
300.0000025
300.0000063
300.0000046
300.0000036
300.0000031
300.0000027
300.0000024
300.0000021
300.0000019
300.0000018
300.0000019
300.0000019
300.0000018
300.0000017
300.0000015
300.0000015
300.0000017
300.0000026
300.0000045
300.0000045
300.0000045
300.000002
300.000005
300.0000058
300.0000043
300.0000023
300.0000038
300.0000038
300.0000039
300.0000032
300.0000023
300.0000023
300.0000075
300.0000055
300.0000042
300.0000035
300.0000029
300.0000025
300.0000022
300.0000019
300.0000018
300.0000018
300.0000019
300.0000021
300.000002
300.000002
300.000002
300.0000023
300.0000029
300.0000035
300.0000036
300.0000039
300.0000025
300.0000016
300
300.0000022
300.0000011
300.0000024
300.0000021
300.0000021
300.000002
300.0000017
300.0000022
300.0000097
300.0000071
300.0000053
300.0000042
300.0000034
300.0000028
300.0000023
300.000002
300.0000018
300.0000018
300.000002
300.0000022
300.0000024
300.0000024
300.0000025
300.0000027
300.000003
300.0000032
300.0000033
300.0000033
300.0000021
299.9999996
299.9999985
300.000002
300.0000013
300.000002
300.0000017
300.0000017
300.0000016
300.0000014
300.0000021
300.0000122
300.0000097
300.0000075
300.0000059
300.0000044
300.0000033
300.0000026
300.0000022
300.0000019
300.0000019
300.000002
300.0000024
300.0000027
300.0000028
300.0000029
300.000003
300.0000033
300.0000033
300.0000033
300.0000032
300.0000025
299.9999998
299.9999987
300
299.9999998
300.0000021
300.0000018
300.0000017
300.0000016
300.0000015
300.0000021
300.0000143
300.0000128
300.0000114
300.0000097
300.000007
300.0000045
300.0000031
300.0000025
300.0000021
300.000002
300.0000021
300.0000024
300.0000029
300.0000032
300.0000033
300.0000036
300.0000038
300.0000036
300.0000034
300.0000033
300.0000031
300.0000011
299.9999995
299.9999996
299.9999995
300.0000024
300.0000022
300.0000021
300.0000019
300.0000018
300.000002
300.0000152
300.0000152
300.0000161
300.0000153
300.0000116
300.000007
300.0000042
300.000003
300.0000024
300.0000022
300.0000022
300.0000025
300.0000031
300.0000037
300.0000041
300.0000045
300.0000046
300.0000041
300.0000036
300.0000022
299.9999997
300.0000026
300.0000007
300
299.9999997
300.000001
300.0000029
300.0000027
300.0000025
300.0000023
300.000002
300.000015
300.0000164
300.0000197
300.0000207
300.0000172
300.0000108
300.0000062
300.000004
300.000003
300.0000026
300.0000024
300.0000026
300.0000032
300.0000044
300.0000053
300.000006
300.0000062
300.0000049
300.0000041
300.0000035
300.0000011
300.0000034
300.000002
300.000001
300.0000006
300.0000015
300.0000039
300.0000036
300.0000032
300.0000028
300.000002
300.0000139
300.0000163
300.0000209
300.0000235
300.0000219
300.0000153
300.0000091
300.0000056
300.0000039
300.0000031
300.0000028
300.0000028
300.0000033
300.000005
300.0000067
300.000008
300.0000085
300.0000065
300.0000048
300.000004
300.0000033
300.0000039
300.000003
300.0000022
300.0000021
300.000003
300.0000053
300.0000049
300.0000042
300.0000035
300.0000019
300.0000041
300.0000097
300.0000178
300.0000207
300.0000215
300.0000181
300.0000127
300.0000082
300.0000054
300.0000039
300.0000032
300.0000031
300.0000034
300.0000053
300.0000078
300.0000102
300.0000112
300.0000089
300.0000063
300.0000045
300.0000038
300.000004
300.0000034
300.0000018
300.0000006
300.0000054
300.0000071
300.0000066
300.0000056
300.0000047
300.0000019
300.0000025
300.0000088
300.0000145
300.0000168
300.0000183
300.0000174
300.0000143
300.0000104
300.0000071
300.0000049
300.0000038
300.0000034
300.0000036
300.0000054
300.0000083
300.0000116
300.0000131
300.0000115
300.0000086
300.000005
300.0000038
300.0000034
300.000002
300.0000008
300.000001
300.0000044
300.0000024
300.0000079
300.0000057
300.0000024
300.0000019
300.0000018
300.0000016
300.0000015
300.0000015
300.0000016
300.0000016
300.0000017
300.0000018
300.0000019
300.000002
300.0000021
300.0000023
300.0000024
300.0000024
300.0000025
300.0000026
300.0000028
300.0000032
300.0000036
300.0000035
300.0000029
300.0000023
300.0000018
300.0000015
300.0000018
300.0000016
300.0000005
300.0000016
300.0000012
300.0000011
)
;

boundaryField
{
    walls
    {
        type            zeroGradient;
    }
    wallFilmFace_top
    {
        type            zeroGradient;
    }
    region0_to_wallFilmRegion_wallFilmFace
    {
        type            zeroGradient;
    }
    mirrorFace_top
    {
        type            zeroGradient;
    }
    region0_to_wallFilmRegion_mirrorFace
    {
        type            zeroGradient;
    }
    procBoundary1to0
    {
        type            processor;
        value           nonuniform List<scalar> 
52
(
300.0000024
300.0000046
300.0000032
300.0000023
300.0000017
300.0000013
300.000001
300.0000013
300.0000013
300.0000011
300.0000011
300.0000014
300.0000058
300.0000058
300.0000035
300.0006145
300.0006145
300.0006824
300.000403
300.0019843
300.0032203
300.0032203
300.0032389
300.0033141
300.0033141
300.0033296
300.0033334
300.0032874
300.0000016
300.0000016
300.0000026
299.9999995
299.9999995
300.0000009
300.0000004
300.0000004
299.9999978
299.9999905
300.0000088
300.0000088
300.0000077
300.0000077
300.0000069
300.0000053
300.0000037
300.0000037
299.9999995
299.9999952
299.9999936
299.9999913
299.9999915
299.9999892
)
;
    }
    procBoundary1to2
    {
        type            processor;
        value           nonuniform List<scalar> 
33
(
299.9999877
299.9999973
299.9999973
300.0000079
300.0000079
300.0000107
299.9999949
300.0000002
300.0000002
300.0000113
299.9999974
299.9999989
299.9999919
299.9999932
299.9999959
299.9999954
299.9999955
299.9999986
299.9999986
299.9999985
299.9999993
300.0000011
300.0000014
300.0000011
300.000001
300.0000011
300.0000014
300.0000019
300.0000024
300.0000029
300.0000036
300.0000022
300.0000015
)
;
    }
}


// ************************************************************************* //
