/*--------------------------------*- C++ -*----------------------------------*\
  =========                 |
  \\      /  F ield         | OpenFOAM: The Open Source CFD Toolbox
   \\    /   O peration     | Website:  https://openfoam.org
    \\  /    A nd           | Version:  8
     \\/     M anipulation  |
\*---------------------------------------------------------------------------*/
FoamFile
{
    version     2.0;
    format      ascii;
    class       volVectorField;
    location    "0.6/wallFilmRegion";
    object      U;
}
// * * * * * * * * * * * * * * * * * * * * * * * * * * * * * * * * * * * * * //

dimensions      [0 1 -1 0 0 0 0];

internalField   nonuniform List<vector> 
1369
(
(-0.4749999831 -1.274230896 0)
(-0.587397361 -1.567406267 0)
(-0.6154491358 -1.780997342 0)
(-0.6239673592 -1.692730034 0)
(-0.6222901662 -1.542954506 0)
(-0.6149415241 -1.384941281 0)
(-0.5992580942 -1.230876843 0)
(-0.4319272257 -1.216519052 0)
(-0.360027411 -0.6003640904 0)
(-0.4003042853 -1.158809248 0)
(-0.4714550922 -1.263399569 0)
(-0.5248019595 -1.306755103 0)
(-0.5389231255 -1.265996767 0)
(-0.4259676347 -1.09185126 0)
(-0.1558001665 -0.8544637667 0)
(0.1725479134 -0.7243623134 0)
(0.4229879105 -0.6793915853 0)
(0.5303610642 -0.6725371831 0)
(-0.3866977326 -1.14102314 0)
(-0.2198771448 -0.4857629966 0)
(-0.2495904369 -0.9695484048 0)
(-0.3243116444 -1.121802807 0)
(-0.3893870855 -1.234879783 0)
(-0.4261388532 -1.238259081 0)
(-0.3160937183 -0.9774064699 0)
(-0.09079028872 -0.6797872263 0)
(0.07074885503 -0.5750510133 0)
(0.1890441712 -0.5652114841 0)
(0.06025256716 -0.6150707314 0)
(-0.6093877146 -0.6780079474 0)
(-1.076764419 -0.6633245385 0)
(-0.3420769127 -1.054496596 0)
(-0.1272779341 -0.4804804699 0)
(-0.1273458895 -0.8077202043 0)
(-0.1594453323 -0.9056034882 0)
(-0.2085634778 -1.046665602 0)
(-0.2543708924 -1.17537577 0)
(-0.2916231635 -1.237459099 0)
(-0.2542120711 -1.056116756 0)
(-0.2669314676 -0.7907999266 0)
(-0.4112170885 -0.7006570434 0)
(-0.6075407817 -0.6786735274 0)
(-0.8744886952 -0.7118808359 0)
(-1.105376598 -0.6845638742 0)
(-0.3837859828 -0.4844423905 0)
(-0.5121036734 -0.236290751 0)
(-0.7211011371 0.08250057353 0)
(-0.6614262963 -0.7260274193 0)
(-0.303311624 -0.980200695 0)
(-0.09241238074 -0.6048589512 0)
(-0.06910818576 -0.783346417 0)
(-0.05699626954 -0.791916029 0)
(-0.04835221052 -0.8524920697 0)
(-0.002543504816 -0.9368180209 0)
(0.06088676493 -0.9680153356 0)
(-0.2145770037 -0.8563289401 0)
(-0.5518163942 -0.7841776576 0)
(-0.7371259358 -0.7552783947 0)
(-0.9014829289 -0.7520668284 0)
(-1.018951757 -0.7371324809 0)
(-1.054709655 -0.6968260726 0)
(-0.2653246672 -0.8038943246 0)
(-0.4006839478 -0.7583176022 0)
(-0.479141095 -0.7666673876 0)
(-0.5750610608 -0.6818918096 0)
(-0.5905637455 -0.4644109827 0)
(-0.5703038933 -0.09418516632 0)
(-0.2725759679 -0.9391874792 0)
(-0.0503699381 -0.7342283756 0)
(0.03034692071 -0.8728464847 0)
(0.06541752519 -0.8643836896 0)
(0.1510890876 -0.8825042274 0)
(0.229950987 -0.9020367494 0)
(0.02113938559 -0.8790802873 0)
(-0.3656902129 -0.8506801687 0)
(-0.580006464 -0.8466810519 0)
(-0.762942314 -0.8524018976 0)
(-0.9027848538 -0.824116841 0)
(-0.9700289167 -0.7633443998 0)
(-0.9124442622 -0.6827280968 0)
(0.0770113793 -0.7066113756 0)
(-0.2061746718 -0.6194513269 0)
(-0.2565411329 -0.6712668572 0)
(-0.4422948448 -0.6953909371 0)
(-0.531693585 -0.5547232102 0)
(-0.5393783933 0.5484784007 0)
(0.4380065917 -0.1103907277 0)
(0.6158472743 0.2764198551 0)
(0.5344791174 0.5718475725 0)
(0.3776654707 0.7182624247 0)
(-0.272939815 -0.9543653573 0)
(-0.1253341743 -0.7498030343 0)
(-0.05767017094 -0.784642606 0)
(0.05627856468 -0.8163209545 0)
(0.1604949466 -0.8583023028 0)
(0.09376361221 -0.8569330669 0)
(-0.1680607109 -0.8748019697 0)
(-0.3484631324 -0.9030488771 0)
(-0.540339177 -0.9438051639 0)
(-0.7127428177 -0.9446783139 0)
(-0.8275885075 -0.8829722766 0)
(-0.8297763898 -0.7689766324 0)
(-0.6408714061 -0.6430766133 0)
(0.2179231278 -0.633447162 0)
(-0.008737837524 -0.4997058878 0)
(0.1671293372 -0.4787280052 0)
(0.429630893 -0.4338482983 0)
(0.5085267324 -0.2917460648 0)
(0.5237673224 -0.1648705399 0)
(0.5804776494 -0.1831601371 0)
(0.7160716104 0.2520972985 0)
(0.5677493633 0.4279020858 0)
(0.3890060391 0.5093112083 0)
(0.5547574801 -0.1413165396 0)
(0.2893165959 0.1342471356 0)
(-0.2927919948 -1.058677697 0)
(-0.1987342624 -0.7819963361 0)
(-0.1262343092 -0.7878615071 0)
(-0.0541133921 -0.7802596601 0)
(0.009285973909 -0.782823635 0)
(0.02928734956 -0.8039706052 0)
(-0.06930554657 -0.8724377446 0)
(-0.2861248859 -0.9787535434 0)
(-0.4988739936 -1.051100443 0)
(-0.6552959165 -1.044320569 0)
(-0.7277606953 -0.9441891417 0)
(-0.6500315037 -0.7650184478 0)
(-0.3114873906 -0.5473241024 0)
(0.08191484378 -0.423634895 0)
(0.1748182478 -0.4403258737 0)
(0.2922776816 -0.5093346027 0)
(0.230549409 -0.5927565299 0)
(0.01718697192 -0.4534230784 0)
(-0.1139452984 -0.3119458086 0)
(0.4178112833 -0.5097915384 0)
(0.2298433279 0.3559903506 0)
(0.1130426726 0.386408856 0)
(0.05871977483 0.4055399615 0)
(0.3107800383 -0.01210084263 0)
(0.2021357673 0.2090244787 0)
(0.1143359984 0.4341327716 0)
(-0.2882879138 -1.201192391 0)
(-0.4427162249 -0.834471347 0)
(-0.4466888178 -0.8908276282 0)
(-0.4331908353 -0.9619823971 0)
(-0.4042968246 -1.052605825 0)
(-0.3977475406 -1.121327692 0)
(-0.4269964876 -1.186234146 0)
(-0.4841095978 -1.246925531 0)
(-0.5572260737 -1.269837454 0)
(-0.6166738752 -1.202993344 0)
(-0.6491814881 -1.070551748 0)
(-0.6493109813 -0.9148413532 0)
(-0.6363299173 -0.7441245213 0)
(-0.3676099402 0.4398281886 0)
(-0.373903449 0.4729929336 0)
(-0.1720580987 -0.2430871385 0)
(-0.1158195242 -0.341221853 0)
(-0.1117076709 -0.3040551094 0)
(-0.111721466 -0.2959709623 0)
(-1.098808536 -0.4667773623 0)
(-0.8946338094 0.4421977171 0)
(-0.7623598974 0.5227671368 0)
(-0.6677905605 0.5896756524 0)
(-0.5877792859 0.6504722345 0)
(-0.51377226 0.6933171682 0)
(-0.1956013775 0.3684230585 0)
(-0.2369893205 -1.196638874 0)
(-0.4208681522 -0.922652858 0)
(-0.4292149987 -1.194014641 0)
(-0.4335155394 -1.434499299 0)
(-0.4368233011 -1.602803136 0)
(-0.4467994556 -1.685412153 0)
(-0.4168228511 -1.722596116 0)
(-0.4044934964 -1.635933698 0)
(-0.4043335383 -1.470999112 0)
(-0.4028401855 -1.274834196 0)
(-0.398758852 -1.090353461 0)
(-0.3954447998 -0.9336918649 0)
(-0.3890134488 -0.7937363982 0)
(-0.3673412636 0.6922633426 0)
(-0.3682294682 0.8303823527 0)
(-0.2091447461 0.05744930843 0)
(-0.05852700218 -0.3249143187 0)
(-0.04392937579 -0.3054551083 0)
(-0.04360430983 -0.2700673833 0)
(-0.7210462459 -0.09779247296 0)
(-0.8029712343 0.4674086199 0)
(-0.6548847317 0.5676232784 0)
(-0.5681392401 0.6530825606 0)
(-0.5011505952 0.7274926442 0)
(-0.4431652033 0.7839280701 0)
(-0.1857913018 0.2641368645 0)
(0.06529800504 0.3389549261 0)
(-0.2122638412 -1.11898933 0)
(-0.4083409662 -0.6243494252 0)
(-0.4500521261 -0.8667054665 0)
(-0.4745335122 -0.8359103629 0)
(-0.4466232237 -0.8409988903 0)
(-0.3627338782 -0.8841234594 0)
(-0.1184231438 -0.9969733914 0)
(0.2050351817 -1.130751839 0)
(0.3625813285 -1.147574916 0)
(0.4011914039 -1.084613497 0)
(0.4018861292 -0.9881494368 0)
(0.3989418793 -0.884302238 0)
(0.3679889028 -0.7963776954 0)
(-0.4207996002 -0.7646945996 0)
(-0.4204116569 -0.7033738489 0)
(-0.3423157259 -0.5876349778 0)
(-0.1217692097 -0.3987756602 0)
(-0.1110364412 -0.309852719 0)
(-0.4070828451 -0.3117221734 0)
(-0.5259424317 -0.4332474338 0)
(-0.6021194599 0.4129453233 0)
(-0.5220082426 0.5255579793 0)
(-0.4772900728 0.6359376721 0)
(-0.4381099393 0.735067826 0)
(-0.398745946 0.7414553825 0)
(-0.1885524314 0.104911093 0)
(-0.2446429315 0.3566997868 0)
(-0.2006659444 -1.031004706 0)
(-0.4133459542 -0.4142328407 0)
(-0.5078183149 -0.8749812542 0)
(-0.5778817985 -0.8125521915 0)
(-0.5425555092 -0.8006649965 0)
(-0.5134708857 -0.8132600132 0)
(-0.318834128 -0.8702402855 0)
(0.09845021402 -0.9903327105 0)
(0.4354222186 -1.075979855 0)
(0.5529924403 -1.047897616 0)
(0.5857681081 -0.9678531214 0)
(0.5946342832 -0.8742506801 0)
(0.5781647684 -0.7909820605 0)
(-0.3227514949 -0.8017624443 0)
(-0.3253159715 -0.7233078385 0)
(-0.3266289078 -0.6469964849 0)
(-0.4522102464 -0.5318365877 0)
(-0.965833247 -0.4111474693 0)
(-1.363507375 -0.4187970811 0)
(-0.3358498464 -0.3498328092 0)
(-0.3251797437 0.2473137197 0)
(-0.3364910413 0.4114008922 0)
(-0.3442852443 0.5666167968 0)
(-0.3398847961 0.706565892 0)
(-0.3243602631 0.8048164885 0)
(-0.07122216518 0.02056501022 0)
(-0.06888639572 0.1945898702 0)
(-0.1805911711 -0.9645753449 0)
(-0.4208437421 -0.1137797579 0)
(-0.5920225165 -0.9015179731 0)
(-0.7195839928 -0.8100553799 0)
(-0.6574521259 -0.7822721064 0)
(-0.6860394873 -0.7839311239 0)
(-0.5926193879 -0.8024580661 0)
(-0.1973287028 -0.8593929763 0)
(0.3784649247 -0.9716770162 0)
(0.6627224958 -0.9966996064 0)
(0.7607435474 -0.9430627036 0)
(0.7939775035 -0.8636224197 0)
(0.7778006082 -0.7875288689 0)
(-0.2600399119 -0.827227181 0)
(-0.2578423609 -0.7319111242 0)
(-0.2849709559 -0.5994784816 0)
(-0.6208983364 -0.4179079011 0)
(-1.063620761 -0.384218772 0)
(-1.419974625 -0.4302451871 0)
(-0.1644971725 -0.2465929277 0)
(-0.09978828928 0.07931150604 0)
(-0.1527829774 0.2595783548 0)
(-0.1951235276 0.4512472216 0)
(-0.2201572974 0.6404587554 0)
(-0.225852852 0.7984842977 0)
(-0.1918840734 0.9079788097 0)
(-0.1815236122 0.9101409906 0)
(0.1188084391 0.5019437349 0)
(-0.1418275018 -0.9304525802 0)
(-0.4805955063 0.2418205208 0)
(-0.7676136907 -0.9278418833 0)
(-0.8602888138 -0.8167528978 0)
(-0.7746225037 -0.7684630297 0)
(-0.842139955 -0.7735710251 0)
(-0.8342022759 -0.7974198732 0)
(-0.5625092892 -0.7939752456 0)
(0.0905956852 -0.8573358333 0)
(0.6337487342 -0.9283187813 0)
(0.8553583821 -0.9117210668 0)
(0.9475565819 -0.8534930616 0)
(0.9326747582 -0.7925167974 0)
(-0.1870921393 -0.8858681221 0)
(-0.1882433451 -0.7330384393 0)
(-0.2986677447 -0.46890619 0)
(-0.6565493332 -0.372654053 0)
(-1.042487599 -0.3856527296 0)
(-1.416102795 -0.4561725027 0)
(-0.03766603857 -0.1435262908 0)
(0.01861960829 0.01117461456 0)
(-0.01391298525 0.125708824 0)
(-0.05686760639 0.3147367359 0)
(-0.09762318176 0.5579395507 0)
(-0.1194618459 0.7720932342 0)
(-0.1173618853 0.8884646838 0)
(-0.115680597 0.8017544688 0)
(0.08750811277 0.4911424633 0)
(0.1580969881 0.4656147021 0)
(-0.07168723286 -0.8700364936 0)
(-0.7506637712 -0.3641088293 0)
(-0.9703429339 -0.9629804669 0)
(-0.9487262434 -0.8121031868 0)
(-0.8622198137 -0.7237819617 0)
(-0.9468811289 -0.7335046102 0)
(-1.01100325 -0.8246151844 0)
(-0.8899315583 -0.7833051538 0)
(-0.4377874163 -0.7727224569 0)
(0.3212501673 -0.8397813744 0)
(0.7296041983 -0.8696086745 0)
(0.927107621 -0.8440704612 0)
(0.9254321702 -0.8006068946 0)
(0.05942186185 -0.8117864746 0)
(0.005716754734 -0.5655051566 0)
(-0.302165089 -0.4074114846 0)
(-0.6399122379 -0.4142499882 0)
(-1.003274944 -0.4358045719 0)
(-1.307902827 -0.4725197422 0)
(-0.1318349578 -0.1041351947 0)
(0.09407284273 0.05738492453 0)
(0.1343009266 0.2463165942 0)
(0.1666438082 0.4186535259 0)
(0.1780665132 0.5081918435 0)
(0.1643879738 0.48423486 0)
(0.1344260205 0.3668287522 0)
(0.09765935196 -0.1254385659 0)
(-0.0569730582 -0.2479281702 0)
(0.04144881794 0.07475054849 0)
(-0.04596483609 -0.8727331199 0)
(-0.9764931034 -0.8900423741 0)
(-1.013565014 -0.9604285091 0)
(-0.9432714637 -0.7751951595 0)
(-0.8698879668 -0.5998248048 0)
(-0.9373288438 -0.5987692676 0)
(-1.092029102 -0.8610072502 0)
(-1.044194595 -0.8020910276 0)
(-0.8250081572 -0.7511239797 0)
(-0.3778497574 -0.7256671576 0)
(0.1424276236 -0.7847237174 0)
(0.5772534328 -0.8184563428 0)
(0.6456807997 -0.8051686473 0)
(0.1945134353 -0.7497249371 0)
(-0.02570968505 -0.6183889143 0)
(-0.3792982219 -0.6098433714 0)
(-0.6418918251 -0.5638270868 0)
(-0.8936313865 -0.5242492788 0)
(-1.096480154 -0.4926656781 0)
(-0.2671965425 0.1878223773 0)
(0.154469327 0.1999266799 0)
(0.238724295 0.3347310507 0)
(0.2376729477 0.4099846412 0)
(0.2143497228 0.4275559229 0)
(0.1841376071 0.4070338942 0)
(0.148686628 0.3396577515 0)
(0.3743506327 0.01280483295 0)
(-0.06132319998 -0.2081084485 0)
(-0.06579183003 -0.2930877086 0)
(-0.02440879384 -1.011195584 0)
(-0.8386926484 -1.010139606 0)
(-0.8428606636 -0.953981961 0)
(-0.8297549321 -0.7191019192 0)
(-0.7673876758 -0.3611138314 0)
(-0.7930793111 -0.3376343564 0)
(-1.07757757 -0.8921571933 0)
(-1.086433718 -0.822899499 0)
(-0.9060807373 -0.7593181105 0)
(-0.4302631734 -0.7063184946 0)
(-0.2549354088 -0.7347371075 0)
(0.0629868151 -0.7341545653 0)
(0.2826313015 -0.7308573568 0)
(-0.02266054032 -0.7402451764 0)
(-0.2298916941 -0.9456367004 0)
(-0.3552459533 -0.9587907856 0)
(-0.4782728342 -0.8072605028 0)
(-0.6068397764 -0.6498556739 0)
(-0.729278284 -0.5138302587 0)
(0.3055679093 -0.2941495994 0)
(0.2488389413 0.2776109379 0)
(-0.08578513358 -0.004191507215 0)
(0.01403926266 0.1049461816 0)
(0.01330620571 0.1146076489 0)
(0.1308216116 0.2726438458 0)
(0.1361177362 0.2535580863 0)
(0.4104834228 0.1185474671 0)
(0.1055931808 -0.2542393242 0)
(0.01969155565 0.1277650866 0)
(0.009681200256 0.07637917441 0)
(0.0001270766643 0.001298814407 0)
(-5.181430391e-09 -1.716879699e-08 0)
(-5.088573587e-05 -0.00430322938 0)
(-0.2280290691 0.3563343048 0)
(-0.02635134134 -1.199889183 0)
(-0.5913482862 -1.024678394 0)
(-0.6096690135 -0.9918244961 0)
(-0.6111662155 -0.7123326331 0)
(-0.5370734055 0.04241304018 0)
(-0.5747561471 -0.00125010991 0)
(-1.006254891 -0.9127260646 0)
(-1.050685085 -0.8420152822 0)
(-0.9002016988 -0.7725841823 0)
(-0.29687323 -0.8881647684 0)
(-0.009774522866 -1.485171224 0)
(0.05031429774 -1.824672991 0)
(0.03505817754 -1.890467038 0)
(0.02408678099 -1.79906926 0)
(0.03260352067 -1.659250358 0)
(0.006767520473 -1.405800009 0)
(-0.01465387331 -1.112767649 0)
(-0.01758309898 -0.8124902227 0)
(-0.01838408612 -0.5014932961 0)
(0.03529846921 0.6791023587 0)
(0.04241054066 0.9727271674 0)
(0.05806256567 1.02866468 0)
(0.06523137498 0.8508447752 0)
(-0.2781663059 -0.5436202807 0)
(0.02957265435 0.2882220782 0)
(0.1081085075 0.3610372288 0)
(0.1001536838 0.2150448407 0)
(0.0256791166 -0.1062076855 0)
(0.01294355929 0.03314270183 0)
(4.027561401e-05 0.0001411279927 0)
(-8.544890723e-10 -4.058295235e-10 0)
(-8.269174454e-11 -1.385724381e-10 0)
(-1.839087379e-09 -4.508737592e-09 0)
(0.000638944065 -0.0007587169248 0)
(-0.09092720533 -1.36438797 0)
(-0.4179809118 -1.1170686 0)
(-0.5068622296 -1.059782774 0)
(-0.3216392739 -0.7673139072 0)
(-0.285838856 0.4381920595 0)
(-0.3291903204 0.3473724851 0)
(-0.9163157427 -0.9244788058 0)
(-0.9530293723 -0.8596948116 0)
(-0.8886835456 -0.780732471 0)
(-0.3854622744 -0.6728754802 0)
(-0.1521487595 -0.6645546134 0)
(0.1871003677 -1.019482925 0)
(0.2978369302 -1.405608159 0)
(0.3360469161 -1.480507673 0)
(0.3856462934 -1.388890598 0)
(0.4313020983 -1.190140303 0)
(0.5151920872 -0.9873692409 0)
(0.5692751689 -0.7482996417 0)
(0.6177785038 -0.5210290128 0)
(0.003825342941 0.334648395 0)
(0.1393394797 0.6383693472 0)
(-0.003487460647 -0.6481200711 0)
(-0.1856459432 -1.898894981 0)
(-0.1929442172 -1.92884629 0)
(0.005553472525 0.3481736771 0)
(0.06702909822 0.2779156405 0)
(0.0747287266 0.1871766091 0)
(0.04687227663 0.07927623107 0)
(0.0009074677175 0.001632501531 0)
(-6.469502563e-08 4.575226416e-09 0)
(-7.97524045e-08 -2.827448486e-09 0)
(-1.126103976e-07 -1.371367012e-08 0)
(-1.095085928e-07 -3.898661469e-08 0)
(-1.179739894e-05 -4.562303185e-05 0)
(-0.008674516318 -1.630018576 0)
(-0.5620360308 -1.121109944 0)
(-0.7090952102 -1.045344284 0)
(0.004180046894 -0.7341323774 0)
(-0.3177108242 0.1204850617 0)
(-0.3782410054 0.4785422946 0)
(-0.8067953455 -0.9319799833 0)
(-0.8113793758 -0.8748050847 0)
(-0.799523915 -0.7963219377 0)
(-0.3532596626 -0.6689460577 0)
(-0.1748638687 -0.6050872095 0)
(0.1333965333 -0.5819382008 0)
(0.4100761675 -0.7582853005 0)
(0.4666786033 -0.9926048753 0)
(0.548372803 -1.040938865 0)
(0.6437222821 -0.9319726457 0)
(0.7531066123 -0.7685088643 0)
(0.8581413396 -0.6191574969 0)
(0.7908567894 -0.458841471 0)
(-0.7959620638 -0.3728987092 0)
(0.01075451346 0.04165898053 0)
(0.1049878459 -0.02359713005 0)
(0.132916573 -0.2611985462 0)
(0.316662303 -0.7997604031 0)
(0.07893860267 -0.1416484261 0)
(0.1827542891 -0.1041770262 0)
(0.1212843145 0.0580586798 0)
(0.08303688981 -0.5142187443 0)
(0.09837946367 -0.7368855912 0)
(0.1023917271 -0.7553695797 0)
(0.09699079003 -0.7361772687 0)
(0.07595025441 -0.6493812453 0)
(0.05087983864 -0.468058107 0)
(-0.01653854561 -1.397809987 0)
(-0.8039163716 -1.132432507 0)
(-0.8882345005 -1.048091737 0)
(-0.08213660525 -1.008209032 0)
(-0.5432183423 -0.8277282656 0)
(-0.5516177645 -0.7314725115 0)
(-0.6100949234 -0.9479136385 0)
(-0.6443272599 -0.8868092224 0)
(-0.6543247392 -0.8095644561 0)
(-0.264453569 -0.6611882543 0)
(-0.1303356219 -0.5700181913 0)
(0.1590290132 -0.4980695279 0)
(0.4860012849 -0.4798913863 0)
(0.5188590311 -0.5178065217 0)
(0.5625093367 -0.6538275266 0)
(0.6149087861 -0.6544993481 0)
(0.7218769221 -0.5523187162 0)
(0.830856042 -0.4688575355 0)
(0.7344465468 -0.3981841418 0)
(-1.106470255 -0.3830566142 0)
(0.2761426813 -0.05336920879 0)
(0.006939814396 -0.002638131946 0)
(0.0375327589 -0.06466993444 0)
(0.1121066514 -0.1778567343 0)
(0.073433457 -0.1252833433 0)
(0.1771467581 0.1380305501 0)
(0.1715148725 -0.258119197 0)
(0.06033090235 -0.5471805731 0)
(0.05557777502 -0.5521125828 0)
(0.0481320173 -0.5294192219 0)
(0.0400058468 -0.4791051196 0)
(0.03745227279 -0.392452645 0)
(-0.06908104661 -1.323799482 0)
(-0.6227960978 -1.189401333 0)
(-0.6153325209 -1.025992008 0)
(0.2588023138 -0.8775009258 0)
(-0.2219287249 0.029041032 0)
(-0.4031604241 -0.168915337 0)
(-0.445094053 -0.9578983408 0)
(-0.4636681689 -0.8946026195 0)
(-0.4492656932 -0.8094422656 0)
(-0.05757953236 -0.593678976 0)
(0.1373542498 -0.4425465757 0)
(0.3505684707 -0.3624076787 0)
(0.5727929589 -0.3594257277 0)
(0.6323254596 -0.3529772289 0)
(0.5724543481 -0.3637425974 0)
(-1.310633166 -0.4470434557 0)
(0.5509472402 -0.3657499024 0)
(0.4734716031 -0.3176928166 0)
(0.1013446027 -0.3176304087 0)
(-1.029082882 -0.3720930599 0)
(0.2234647471 -0.1003180237 0)
(-1.018834005e-07 7.217726137e-07 0)
(0.0007700009612 -0.0009886034102 0)
(0.03456911943 -0.0480898114 0)
(0.0631816584 -0.08691211185 0)
(0.1509834791 0.2162248768 0)
(0.2711645123 -0.2228886821 0)
(-0.03546264232 -0.173086553 0)
(0.01009968496 -0.2621972628 0)
(0.01784326876 -0.3040906492 0)
(0.001463388946 -0.2980633222 0)
(-0.01974403152 -0.2891691132 0)
(0.1871982732 -1.691872798 0)
(0.1886074448 -1.355211462 0)
(0.1738926332 -1.007572416 0)
(0.2758412261 0.9394944494 0)
(0.07640573571 0.9509112727 0)
(-0.2875786361 0.2668770917 0)
(-0.2758800713 -0.9677102563 0)
(-0.2712395765 -0.9076559041 0)
(-0.2154054256 -0.8326010777 0)
(0.1696560541 -0.731936293 0)
(0.2109818355 -0.50130672 0)
(0.3502858759 -0.2809951215 0)
(0.5629149522 -0.1824563863 0)
(0.6249442057 -0.1211767302 0)
(0.06271179897 -0.1387629749 0)
(-2.393218217 -0.611814111 0)
(0.4586504751 -0.1164099679 0)
(-0.01708586541 -0.150263871 0)
(-0.7239882772 -0.2609260222 0)
(-0.6362364698 -0.3389097823 0)
(-0.06457085219 0.08334761645 0)
(-0.0004293141874 0.000224365043 0)
(-2.32025991e-08 4.82960993e-08 0)
(6.151092979e-05 -0.0001931240398 0)
(-0.03931068178 -0.0300516909 0)
(-0.08861313062 0.3070036212 0)
(-0.04448389379 -0.02109299839 0)
(-0.1884619474 -0.1115343212 0)
(-0.1339924673 0.05783203949 0)
(0.06183512159 -0.09384788663 0)
(0.1581886469 -0.1421964952 0)
(0.2635768005 -0.1829645658 0)
(0.3540811815 -1.478975733 0)
(0.6855198073 -1.243404226 0)
(0.5846493209 -0.8768128356 0)
(-0.2645820164 -0.5470860338 0)
(-0.8763662727 -1.061502668 0)
(-0.8771164097 -1.003508338 0)
(0.235168245 -0.9931651168 0)
(0.2304879771 -0.9342038781 0)
(0.2247234768 -0.8631982146 0)
(0.2084128225 0.767727709 0)
(0.1285429548 0.4624846116 0)
(-0.2987480816 -0.2331384715 0)
(-0.4495495288 -0.2700449019 0)
(0.5413799458 0.05640539123 0)
(-0.6641964773 -0.6891504616 0)
(-1.33466992 -0.6316814878 0)
(0.4028908085 0.193955018 0)
(0.2805032332 0.07859462229 0)
(-0.6317106744 -0.1833146638 0)
(-1.014453782 -0.4603299759 0)
(-0.07265628536 -0.07537627048 0)
(0.2034057741 -0.01656784184 0)
(0.2019699767 0.1854767171 0)
(0.1887998122 0.3849162838 0)
(0.3517661603 0.01689837577 0)
(0.1253945521 0.1190157595 0)
(-0.1980523138 0.1891757118 0)
(-0.2520136189 0.1321160981 0)
(-0.1954820878 0.09348555432 0)
(-0.09362697682 0.05633844463 0)
(-0.03179288436 -0.1370265639 0)
(0.3810566396 -1.350336836 0)
(0.9821608737 -1.207893707 0)
(0.6797075701 -1.030947747 0)
(-0.640337798 -1.138316013 0)
(-0.7735198158 -1.062383391 0)
(-0.6975971046 -0.9824408232 0)
(0.35181459 -0.9734133517 0)
(0.3639574392 -0.8961176792 0)
(0.3371736825 -0.7380752797 0)
(-0.03995197191 -0.4228820853 0)
(-0.4388052116 -0.3391691437 0)
(-0.5934300572 -0.2994033607 0)
(-0.4935248001 -0.8446936637 0)
(0.0103905421 -2.302399857 0)
(0.2927755015 -2.139846948 0)
(0.2917535324 -0.6410525366 0)
(0.297738539 1.327580838 0)
(0.3522665067 1.822676333 0)
(-0.2888920879 0.07326392689 0)
(-0.6738928413 -0.4604540247 0)
(0.05297908585 -0.1969315882 0)
(0.03195183135 0.1060510164 0)
(0.04596553251 0.3440414351 0)
(0.02491940641 0.2401232693 0)
(0.01544322224 -0.07150376167 0)
(0.02278514176 0.1487933118 0)
(-0.1691866146 0.1920488295 0)
(-0.1670225079 0.02635766584 0)
(-0.1286694254 0.05062439844 0)
(-0.1038193265 0.1234992215 0)
(-0.05204430534 0.2169065426 0)
(0.353566686 -1.252761481 0)
(1.061812896 -1.200252997 0)
(0.7202164244 -1.117755023 0)
(-0.4581789909 -1.193039621 0)
(-0.4611009281 -1.082580139 0)
(-0.3772562022 -0.9690537335 0)
(0.4610576917 -0.9480917581 0)
(0.3854654064 -0.8264830709 0)
(0.04271529631 -0.6017301401 0)
(-0.337010607 -0.4299378426 0)
(-0.5990255416 -0.3781662787 0)
(-0.7681087838 -0.3413067641 0)
(-0.5371263363 -0.579631512 0)
(0.2800804678 -1.022042851 0)
(1.14432626 -1.346379115 0)
(2.018139597 -0.8199274203 0)
(0.3018893937 -1.108126947 0)
(0.3005606101 -1.065603846 0)
(0.2529949063 -0.8319595635 0)
(0.1298325371 -0.3869832842 0)
(0.3131891198 0.6173861222 0)
(0.3391003104 0.9722840122 0)
(0.3373377585 1.116910599 0)
(0.2334412629 1.126385716 0)
(0.08496718004 0.663298187 0)
(-0.08154571378 0.143236208 0)
(-0.1540512998 0.1522232054 0)
(-0.1032861669 -0.07784622295 0)
(0.1504316006 0.02472351868 0)
(0.04775068089 0.1092883779 0)
(0.02968842388 0.1707564206 0)
(0.3296338936 -1.248153528 0)
(0.6995571859 -1.545149705 0)
(0.5250404118 -1.467113263 0)
(0.3280386446 -1.356652291 0)
(0.3247018129 -1.121715903 0)
(0.332285856 -0.9216263908 0)
(0.4031456697 0.6260266425 0)
(0.4240145058 0.8461128211 0)
(0.4672264715 0.7091562675 0)
(-0.3033704571 -0.3218846032 0)
(-0.6364290369 -0.4226534314 0)
(-0.7668499906 -0.4158811209 0)
(-0.7239229494 -0.428632907 0)
(-0.1424879513 -0.4980947031 0)
(0.6510481182 -0.803608255 0)
(1.564813687 -0.7528262122 0)
(-0.03313141025 -0.4677822985 0)
(-0.06608049968 -0.4825514884 0)
(0.6570094235 -0.8002024522 0)
(0.6499953083 -0.4215394802 0)
(0.2647490925 0.5648781386 0)
(0.08154828703 0.1429350437 0)
(-0.05265580154 -0.1298951884 0)
(-0.0382621513 -0.2216857812 0)
(-0.2734660075 -0.01494791376 0)
(-0.2257328284 -0.1013980791 0)
(-0.07534381855 0.1099784801 0)
(-0.174794347 -0.07144363807 0)
(0.1246983262 0.1072630112 0)
(0.2886421868 0.005422033254 0)
(-0.02710595104 -0.02302051125 0)
(0.3376851686 -1.129853409 0)
(0.6597688043 -1.651941597 0)
(0.6293857231 -1.52680691 0)
(0.6145011317 -1.323412284 0)
(0.6271605867 -1.10726416 0)
(0.6318624655 -0.9196452932 0)
(0.4585761173 0.707633034 0)
(0.4833643903 0.6973970785 0)
(0.2820190328 0.1224134584 0)
(-0.4135907477 -0.4802969116 0)
(-0.5864227142 -0.4676728079 0)
(-0.6750235341 -0.4535886593 0)
(-0.6481210081 -0.4092528255 0)
(-0.4894338043 -0.2889825322 0)
(0.3318543418 -0.1550554565 0)
(0.5993750308 -0.06145329664 0)
(-0.2369837679 -0.09975947214 0)
(0.3450540564 -0.486181645 0)
(0.9343714772 -0.6531421928 0)
(1.164692083 -0.4312294877 0)
(0.2129736485 0.3546244992 0)
(0.009809028876 0.06357394965 0)
(-0.3363914872 -0.01372137032 0)
(-0.2258137506 -0.1441763025 0)
(-0.2631480746 -0.1297484738 0)
(-0.2532805981 -0.06823906237 0)
(0.188590261 -0.107636189 0)
(0.1695883862 -0.04729425472 0)
(0.1445789507 0.1070749789 0)
(0.1081309991 -0.06134015823 0)
(0.0005962951636 0.08401258992 0)
(0.3538468951 -1.011281635 0)
(0.8224186297 -1.568477612 0)
(0.8692327419 -1.481510852 0)
(0.9047409738 -1.284661966 0)
(0.9274595928 -1.086853059 0)
(0.9257770274 -0.8997098206 0)
(0.6315248172 0.2551544943 0)
(0.5537837226 0.168250614 0)
(0.1439303446 -0.4462061708 0)
(-0.3294325331 -0.5161458676 0)
(-0.489928624 -0.50884539 0)
(-0.5540076083 -0.4801410032 0)
(-0.4863578543 -0.3862866303 0)
(-0.3009511243 -0.2174676848 0)
(0.1274735491 0.1891428344 0)
(-0.524475308 -0.1899924548 0)
(-0.332328564 -0.3732687074 0)
(0.5163999977 -0.3653094422 0)
(1.046595519 -0.4658269247 0)
(1.318182317 -0.37839724 0)
(0.1770736323 0.2612983784 0)
(0.09185207899 0.1573336371 0)
(-0.3121517744 0.04878196495 0)
(-0.3132599772 -0.1280827892 0)
(-0.1703609737 -0.1607661063 0)
(-0.2152109886 -0.0555847544 0)
(0.1672465499 -0.01272242071 0)
(0.1420406041 -0.07216981488 0)
(0.02926350883 -0.05644328925 0)
(0.1220768061 -0.0740792922 0)
(0.1108308645 -0.03999624335 0)
(0.3598119024 -0.9317331047 0)
(0.9987363036 -1.352322638 0)
(1.11168809 -1.38947373 0)
(1.179956005 -1.240209398 0)
(1.212792973 -1.074377755 0)
(1.201869473 -0.8996417688 0)
(0.8302181651 -0.3109443206 0)
(0.6826309834 -0.3424610625 0)
(0.3624914467 -0.6098801454 0)
(-0.1114049957 -0.543269643 0)
(-0.3594563041 -0.5454815299 0)
(-0.4348887793 -0.5246364936 0)
(-0.33100815 -0.4036678198 0)
(-0.08049454076 -0.1771427255 0)
(0.1086946873 0.05676700818 0)
(-0.392319392 -0.2455215644 0)
(-0.1803673619 -0.3314745493 0)
(0.5202251181 -0.248417897 0)
(0.9789869338 -0.283310267 0)
(1.20554044 -0.3303118504 0)
(0.1849666569 0.1288369042 0)
(0.08447161629 0.121861059 0)
(-0.1543923575 0.1756735989 0)
(-0.2936868851 0.03969429189 0)
(-0.1631268952 -0.1545728343 0)
(-0.0476320648 -0.1252624956 0)
(0.1252845393 0.1159898041 0)
(0.1265367213 -0.03756377679 0)
(0.08025024201 -0.0621734839 0)
(0.2344498444 -0.01355610601 0)
(0.3540376921 -0.08866758768 0)
(0.3194105554 -0.8587227239 0)
(0.7424343918 -0.9257324255 0)
(1.067198432 -1.164476585 0)
(1.337386925 -1.163844485 0)
(1.435438517 -1.062156598 0)
(1.416049549 -0.9237547669 0)
(0.9593448334 -0.7176973865 0)
(0.7498352972 -0.7843433451 0)
(0.4953404083 -0.9544035257 0)
(0.4299783046 -1.060254847 0)
(0.4623883785 -1.089249682 0)
(0.4725687927 -1.092825699 0)
(0.4650459939 -1.070315489 0)
(0.4378607234 -0.9883522085 0)
(0.3896628256 -0.7901941339 0)
(0.4548075756 -0.9114067414 0)
(0.4358472388 -0.5889897244 0)
(0.5060386415 -0.1820369657 0)
(0.8295281899 -0.08754175283 0)
(1.042353426 -0.2599272963 0)
(0.5711690748 0.2590510201 0)
(0.4912663192 0.6124008494 0)
(0.3574107275 0.9008287325 0)
(0.1106186035 0.8594586939 0)
(-0.1336395842 0.3952881726 0)
(0.04266739572 -0.08990517586 0)
(0.07777913962 -0.03117525533 0)
(0.1925717843 -0.1616865951 0)
(-0.09211174306 -0.09922222315 0)
(0.3176389845 0.1913676733 0)
(0.3006000596 0.00997290363 0)
(0.2638137729 -0.8328597471 0)
(0.4784978325 -0.773866295 0)
(0.8233457098 -0.9911752151 0)
(1.227794478 -1.058670933 0)
(1.457430595 -1.041629983 0)
(1.456262876 -0.9803742236 0)
(0.9844126709 -0.942998408 0)
(0.759663184 -0.9770993446 0)
(0.5462507967 -1.019906843 0)
(0.488864934 -1.021854946 0)
(0.5030393302 -1.011381253 0)
(0.5313071269 -1.011974587 0)
(0.5742007203 -1.063119812 0)
(0.5594003419 -1.072763143 0)
(0.5616113912 -1.009888292 0)
(0.5944136329 -0.9209867965 0)
(0.6026024375 -0.6631451225 0)
(0.579227502 -0.284792715 0)
(0.6803904777 0.1310024522 0)
(0.8641192568 -0.1250369319 0)
(0.5920838043 0.3595634433 0)
(0.5199912412 0.7562796187 0)
(0.4488578908 0.9528904914 0)
(0.2089739945 0.4070388636 0)
(0.02955386349 0.4730255817 0)
(-0.221480157 -0.02616210615 0)
(-0.1481630807 -0.02650515568 0)
(0.0420136674 -0.1312476983 0)
(0.1915090609 -0.1175015731 0)
(0.1764221317 0.1467721716 0)
(0.1932112629 0.05142438872 0)
(0.2665713637 -0.857925179 0)
(0.4352694591 -0.7620244721 0)
(0.6988088114 -0.9324467401 0)
(1.017473107 -0.9974041538 0)
(1.251385601 -1.03256608 0)
(1.281238329 -1.052419765 0)
(0.9657981321 -1.068383756 0)
(0.78276435 -1.065629245 0)
(0.6181551066 -1.034102365 0)
(0.5541577822 -0.9806033208 0)
(0.5405400473 -0.9516680356 0)
(0.544815858 -0.9323125055 0)
(0.5832454175 -0.9936800562 0)
(0.6375437862 -1.046994127 0)
(0.6717506327 -1.01877335 0)
(0.7162947464 -0.9097042783 0)
(0.7475916277 -0.6843595765 0)
(0.7601943448 -0.4251310333 0)
(0.6304888693 0.3163095955 0)
(0.6996721808 0.1189695069 0)
(0.5775954041 0.5552230565 0)
(0.5162243399 0.8674101607 0)
(0.4039549284 0.9667854182 0)
(0.2868430631 0.7516812775 0)
(0.1653377081 0.6239774266 0)
(-0.1676641563 0.1462812483 0)
(-0.1455451647 -0.1529278348 0)
(-0.2918673149 -0.09807708958 0)
(-0.1006060473 0.1340144006 0)
(0.02043330575 0.06652543927 0)
(0.08685797562 -0.1521967841 0)
(0.2864333807 -0.9172320657 0)
(0.462683066 -0.7777900727 0)
(0.6450651593 -0.9133732807 0)
(0.8613308775 -0.9812946832 0)
(1.024437955 -1.038296426 0)
(1.065731466 -1.095564423 0)
(0.939944211 -1.135215526 0)
(0.8232186701 -1.108295133 0)
(0.7221628981 -1.037352684 0)
(0.6612215452 -0.9478222766 0)
(0.6233009447 -0.8984271514 0)
(0.6098945556 -0.8882477457 0)
(0.6195704945 -0.9034822996 0)
(0.7007780421 -0.9855002724 0)
(0.76835094 -0.9888785399 0)
(0.8386478595 -0.8866762495 0)
(0.8953319751 -0.680908569 0)
(0.9494985268 -0.4783769771 0)
(0.6804676892 0.458721666 0)
(0.6673988834 0.4288704229 0)
(0.6169321922 0.7144050377 0)
(0.5619297251 0.8883145513 0)
(0.4783015309 0.9105968374 0)
(0.3854127003 0.8083799517 0)
(0.2844441697 0.6709953791 0)
(0.06471452461 0.3655887913 0)
(-0.2301345653 -0.229825705 0)
(0.2429826905 -0.1878475686 0)
(-0.3800977978 0.02982619972 0)
(0.04984275221 0.06085438428 0)
(0.07476552712 7.893197285e-05 0)
(0.3202927028 -0.993696208 0)
(0.510946914 -0.8023852423 0)