/*--------------------------------*- C++ -*----------------------------------*\
  =========                 |
  \\      /  F ield         | OpenFOAM: The Open Source CFD Toolbox
   \\    /   O peration     | Website:  https://openfoam.org
    \\  /    A nd           | Version:  8
     \\/     M anipulation  |
\*---------------------------------------------------------------------------*/
FoamFile
{
    version     2.0;
    format      ascii;
    class       scalarField;
    location    "0.5/lagrangian/reactingCloud1";
    object      age;
}
// * * * * * * * * * * * * * * * * * * * * * * * * * * * * * * * * * * * * * //


239
(
0.2676989107
0.2666963611
0.2655761035
0.2719851198
0.256104958
0.2717496814
0.2501603086
0.2496818311
0.2475766887
0.266107325
0.2463562111
0.2443132038
0.2411970428
0.2405405163
0.2635148426
0.2260148657
0.2252762733
0.224700711
0.2198770031
0.2164273023
0.2162427258
0.2160565582
0.2153007679
0.2120439083
0.2105247955
0.2094007882
0.2090942407
0.2083789634
0.2081745984
0.2061309488
0.2056200364
0.2050069415
0.2042916642
0.2040872992
0.2012042935
0.2010948123
0.2
0.1969303424
0.1964580874
0.1962219599
0.1957497048
0.2121451177
0.1929161747
0.192798111
0.1921888791
0.1921023167
0.1909221779
0.1901920404
0.1901146223
0.1898855121
0.1892945194
0.1867230043
0.1852491332
0.1842378017
0.1962219599
0.183576775
0.1805942299
0.1787187453
0.1775291778
0.1765156989
0.1729939868
0.194214876
0.1706643915
0.1704851918
0.1695294604
0.1961038961
0.1655884153
0.1652939802
0.1821166566
0.1642996686
0.1640053614
0.1617366477
0.1611390034
0.1605413592
0.1601230083
0.15838984
0.1556406766
0.1548637392
0.1543258594
0.166064934
0.1515169315
0.1507997585
0.1500223941
0.1473448497
0.1448837947
0.1441782889
0.1437475604
0.1433104514
0.1432297609
0.1680958633
0.1423369347
0.1412495717
0.1406126962
0.1404164996
0.1403674505
0.1399748772
0.1394346761
0.139140021
0.1521145758
0.1388453659
0.1385016016
0.1384033832
0.1382560557
0.1841167937
0.1381087281
0.1380596189
0.1376176363
0.1369792168
0.1368809985
0.1366354525
0.1362916882
0.1358005964
0.135162177
0.1337871198
0.1336397922
0.1330995912
0.1330013728
0.1325593901
0.1309878962
0.1304476951
0.1297601665
0.1291708563
0.1247510296
0.1246528112
0.1244072653
0.1234737772
0.1223749808
0.1222647592
0.1217687621
0.1205563247
0.1192887765
0.1300548217
0.1181865607
0.1280904542
0.1340817749
0.1152656888
0.1143612849
0.1122588199
0.1112199368
0.110596607
0.1101810538
0.1094538357
0.1200603276
0.1048827503
0.1038746063
0.1025538563
0.1101810538
0.09879016712
0.1160923507
0.09449877984
0.09230392586
0.08908062574
0.08767998363
0.08751880719
0.08698178354
0.08044087909
0.07467672213
0.09407720915
0.07337717679
0.07252940614
0.07128789765
0.07008024232
0.06725310003
0.06678112148
0.06462152686
0.06384519551
0.06328263505
0.0626762283
0.06183345744
0.06078745695
0.05933760593
0.05819045814
0.05815073769
0.08805639127
0.05654212441
0.05508333449
0.05349406178
0.05104609629
0.04983375138
0.04615797074
0.04351477527
0.04275155726
0.124063501
0.03719869672
0.03283222705
0.03217939825
0.0321171557
0.03205491315
0.03177482168
0.03168145785
0.03155697275
0.03143248765
0.03115239618
0.02834890891
0.02750778744
0.0481089554
0.02517000854
0.02361052846
0.02342339085
0.02311149483
0.05807129679
0.02279959882
0.0224253236
0.0224253236
0.02226937559
0.02208223798
0.02205104838
0.02192628997
0.02158320435
0.02152082515
0.02099060192
0.1813478277
0.01890043334
0.01863362654
0.01844855792
0.01837119867
0.01820719304
0.01803146013
0.01752505595
0.01742941502
0.01712528098
0.04016156256
0.01702101384
0.01675140283
0.01675140283
0.01651999679
0.01633317183
0.01513139318
0.01446962069
0.01167170617
0.03403249375
0.1709033243
0.005130185248
0.003990144082
0.002280082332
0.002280082332
0.001465767214
0.000651452095
0.0001628630237
)


// ************************************************************************* //
