/*--------------------------------*- C++ -*----------------------------------*\
  =========                 |
  \\      /  F ield         | OpenFOAM: The Open Source CFD Toolbox
   \\    /   O peration     | Website:  https://openfoam.org
    \\  /    A nd           | Version:  8
     \\/     M anipulation  |
\*---------------------------------------------------------------------------*/
FoamFile
{
    version     2.0;
    format      ascii;
    class       scalarField;
    location    "0.5/lagrangian/reactingCloud1";
    object      mass0;
}
// * * * * * * * * * * * * * * * * * * * * * * * * * * * * * * * * * * * * * //


239
(
2.348928021e-07
6.581222124e-08
7.521878978e-08
1.045894986e-07
6.914906052e-08
1.512476293e-07
1.228703176e-07
1.377533221e-07
1.193039334e-07
1.481523365e-07
3.498970792e-07
2.445113267e-07
2.382982546e-07
8.055955933e-07
1.137030475e-07
3.661589809e-07
8.789538364e-07
1.387291702e-07
4.829693793e-07
2.40072207e-07
2.146395036e-07
4.429519307e-07
1.174757369e-07
4.424917374e-07
2.224790776e-07
1.55823363e-07
9.529504772e-08
1.283422791e-07
1.839827641e-07
3.188752014e-07
3.552725399e-07
8.160997643e-08
8.80076349e-08
2.297337795e-07
4.860396935e-07
1.184467235e-07
1.228587089e-07
1.659543196e-07
2.836699169e-07
2.714128801e-07
7.72032907e-08
4.549425504e-07
7.884718401e-08
7.343579334e-08
2.183774279e-07
8.803128745e-08
1.166569553e-07
1.180177608e-07
8.257494418e-08
1.526291851e-07
7.771471115e-08
1.963439012e-07
9.762495019e-08
5.022693814e-07
2.699446357e-07
9.351231724e-08
2.409821886e-07
1.992958193e-07
1.980305562e-07
6.783949705e-08
6.659008481e-07
4.823689619e-07
7.248510701e-08
8.187495423e-08
1.058066365e-07
4.041614861e-07
8.889246459e-07
6.698654645e-08
8.177118453e-08
2.189848846e-07
7.28344033e-08
3.923500351e-07
1.045451506e-07
1.134332581e-07
8.652710181e-08
9.673939823e-08
7.571910824e-07
1.211137032e-07
8.831473164e-08
1.03122711e-07
4.049044225e-07
1.037711782e-07
1.000278525e-07
7.538265757e-07
5.154247937e-07
8.081855372e-08
3.589148716e-07
9.881629134e-08
5.839488029e-07
3.966616924e-07
6.875590628e-07
9.357990843e-08
5.272066149e-07
9.069244356e-08
6.553961889e-07
1.049201308e-07
2.810233196e-07
2.51937652e-07
1.279790508e-07
1.045694832e-07
1.360156614e-07
1.955423443e-07
1.044346952e-07
4.504756147e-07
6.751961615e-08
6.795445749e-08
1.090040327e-07
3.031218357e-07
1.859303678e-07
1.852026056e-07
8.087778214e-07
2.360271413e-07
7.095163635e-08
4.637036096e-07
1.971352495e-07
1.229334988e-07
8.025460121e-08
8.994350062e-08
2.383757783e-07
6.668274514e-08
8.336442037e-08
6.978600486e-08
3.39286621e-07
3.119593743e-07
7.771017786e-07
9.149077031e-08
2.305122629e-07
7.748085096e-07
1.205670753e-07
4.860369997e-07
1.059269758e-07
6.641729308e-07
7.268131873e-08
6.835730038e-08
1.18081271e-07
3.785126042e-07
2.823202524e-07
6.543295408e-08
3.376397803e-07
8.836721838e-08
2.935668235e-07
6.79821192e-08
1.855733995e-07
3.293187227e-07
8.015431301e-07
2.849236842e-07
2.016780215e-07
4.491957856e-07
5.629262095e-07
2.406704328e-07
4.65951084e-07
1.393443533e-07
4.870822083e-07
8.519759904e-08
6.005772494e-07
3.695832754e-07
1.338172493e-07
5.973997758e-07
6.360173005e-07
5.451822287e-07
1.398431705e-07
6.95635449e-08
1.888648945e-07
2.785075356e-07
1.024778625e-07
1.174331783e-07
7.216425857e-08
3.688011468e-07
1.101291715e-07
1.380206804e-07
1.640398845e-07
1.220276586e-07
2.718688209e-07
4.685225848e-07
9.018913384e-08
3.54345349e-07
9.15591246e-08
2.050874957e-07
1.353631567e-07
8.918842484e-07
2.290457672e-07
2.168500887e-07
1.583352594e-07
1.592118689e-07
4.710624132e-07
7.867551979e-07
6.802465123e-08
6.976110064e-08
3.511913056e-07
9.533151124e-08
1.301173469e-07
1.290087415e-07
2.6498449e-07
1.717187992e-07
9.747085153e-08
1.186690797e-07
5.099208124e-07
4.124426281e-07
6.949015799e-08
1.364694951e-07
1.389408437e-07
4.677133607e-07
1.674432663e-07
4.493613174e-07
2.233001569e-07
8.590648193e-08
3.605400684e-07
7.114188818e-08
2.232549632e-07
6.708416351e-08
2.821067045e-07
9.097874265e-08
6.84816733e-07
1.269173075e-07
7.455212125e-08
2.773101077e-07
1.010623314e-07
7.973309485e-08
3.305089735e-07
2.345312268e-07
1.212834944e-07
5.301161739e-07
1.334579025e-07
7.904821611e-08
1.328175823e-07
6.961306797e-08
1.409079579e-07
3.705634376e-07
8.60389057e-07
3.925442121e-07
4.627450032e-07
6.490622584e-07
1.139673621e-07
8.03472773e-08
1.962466683e-07
2.099373285e-07
9.314037071e-08
1.526429232e-07
1.244453232e-07
)


// ************************************************************************* //
