/*--------------------------------*- C++ -*----------------------------------*\
  =========                 |
  \\      /  F ield         | OpenFOAM: The Open Source CFD Toolbox
   \\    /   O peration     | Website:  https://openfoam.org
    \\  /    A nd           | Version:  8
     \\/     M anipulation  |
\*---------------------------------------------------------------------------*/
FoamFile
{
    version     2.0;
    format      ascii;
    class       Cloud<basicReactingMultiphaseParcel>;
    location    "0.5/lagrangian/reactingCloud1";
    object      positions;
}
// * * * * * * * * * * * * * * * * * * * * * * * * * * * * * * * * * * * * * //

239
(
(0.7345166898 0.06861114375 0.08309396627 0.1137782002) 306 202896 2
(0.1325896185 0.2930882032 0.3262488192 0.2480733591) 3668 10753 2
(0.1792819198 0.142593004 0.1428818749 0.5352432013) 3669 197991 1
(0.6642790716 0.03348830157 0.08765957856 0.2145730482) 276 202805 2
(0.2560510861 0.03598978995 0.5272521471 0.1807069768) 3399 9872 1
(0.06850495338 0.04236105359 0.6770230663 0.2121109267) 198 586 1
(0.1130935374 0.001381895965 0.7450734435 0.1404511231) 2521 7386 1
(0.09458187258 0.06635883751 0.149647733 0.6894115569) 3722 10913 2
(0.07389700801 0.06165140392 0.8444319943 0.02001959378) 3583 10503 2
(0.1490682367 0.09613074149 0.7176648911 0.03713613077) 1022 2996 1
(0.4348753934 0.321716726 0.2354802016 0.007927678988) 3716 10816 1
(0.1664729002 0.3220933623 0.4201419313 0.09129180615) 4490 13158 1
(0.004375404465 0.1350593274 0.7245089628 0.1360563053) 4463 13078 2
(0.2765169338 0.2776495977 0.4269049766 0.01892849184) 2490 7240 1
(0.06639346953 0.7653809213 0.02902833607 0.1391972731) 2622 7680 2
(0.3419623901 0.1980718071 0.1417544676 0.3182113353) 6161 15510 2
(0.694603809 0.0232368943 0.1862542776 0.09590501907) 5202 15242 2
(0.06789019092 0.3536941616 0.4359940084 0.142421639) 7063 18150 1
(0.2639785439 0.4480511082 0.1412895541 0.1466807938) 6962 20397 1
(0.1667464055 0.08444061565 0.4418304481 0.3069825308) 7028 20594 1
(0.1533507821 0.09042523249 0.4025607047 0.3536632806) 7007 20533 2
(0.07814811752 0.4829208674 0.01040821823 0.4285227969) 7052 20581 2
(0.6338387555 0.02535641772 0.1685875092 0.1722173176) 7910 20582 2
(0.1429671803 0.333647146 0.513305758 0.01007991576) 7910 23175 1
(0.05441165417 0.3108731185 0.01742850138 0.6172867259) 7910 23091 1
(0.6066162182 0.1791612434 0.06275102053 0.1514715179) 8771 23089 2
(0.001816003899 0.5036020181 0.4694540457 0.02512793229) 8747 25627 2
(0.04071898871 0.3910301558 0.2644918509 0.3037590046) 8653 25349 1
(0.3329705054 0.1974893667 0.01275029185 0.4567898361) 8770 25608 2
(0.1311274451 0.2633297849 0.2060724972 0.3994702728) 9547 203891 2
(0.2116366202 0.3364642269 0.3227467068 0.1291524462) 8741 25608 1
(0.1235915834 0.2114430537 0.242961513 0.4220038499) 9650 28183 1
(0.1477496201 0.4797024211 0.2735553303 0.09899262842) 9676 28349 2
(0.06693665048 0.288160558 0.5859204216 0.05898236996) 8686 25442 1
(0.3307871813 0.4439121722 0.06863297584 0.1566676706) 9406 27550 2
(0.2453049196 0.3426175717 0.2266348339 0.1854426747) 9617 28175 1
(0.4140379204 0.02343816278 0.2097461577 0.3527777591) 9406 27549 2
(0.06560061121 0.5466512262 0.3411486981 0.04659946448) 10586 31011 2
(0.1874476434 0.5066941576 0.04417159912 0.2616865998) 9407 27554 2
(0.1740221081 0.002627977064 0.4500386712 0.3733112437) 10433 27906 1
(0.05217715118 0.03348800061 0.6582690229 0.2560658253) 10494 30740 1
(0.2397107945 0.2079546782 0.1742541589 0.3780803684) 2809 8238 2
(0.02623675627 0.209313148 0.6539154063 0.1105346894) 10433 30560 1
(0.2458446365 0.3437286939 0.1443665604 0.2660601091) 11464 33583 1
(0.08130609912 0.07986186089 0.1986236582 0.6402083818) 10464 30647 2
(0.1166926928 0.2349936102 0.1754547358 0.4728589612) 10434 30563 2
(0.01606411372 0.3125072325 0.361276232 0.3101524218) 10465 30655 1
(0.8512131143 0.01238405217 0.1278754045 0.008527429043) 11425 33463 2
(0.01162785001 0.2132835842 0.551431638 0.2236569278) 11372 33310 1
(0.04229804013 0.3565363184 0.4822856961 0.1188799454) 11401 33392 1
(0.3765703342 0.403233899 0.05174466844 0.1684510984) 11404 33314 1
(0.2293901633 0.3240866939 0.10884308 0.3376800627) 11434 33493 2
(0.199506704 0.1139184938 0.6127006478 0.07387415445) 12343 33498 2
(0.1795515933 0.002833168487 0.07648164957 0.7411335886) 11223 32871 2
(0.1670789294 0.2667273507 0.2280075179 0.3381862019) 4592 13462 2
(0.1772068818 0.5120167466 0.2798850497 0.03089132188) 12373 36157 1
(0.01813364032 0.4857268666 0.4467165649 0.0494229282) 12315 36070 1
(0.1444627942 0.6852082495 0.1598101093 0.01051884698) 12495 36608 2
(0.1458764366 0.8041145557 0.008518957359 0.04149005036) 13236 38772 1
(0.1698892137 0.2709997893 0.2096579294 0.3494530676) 14748 43216 1
(0.386153463 0.2524321215 0.04138217033 0.3200322452) 13841 40483 2
(0.2869900065 0.01591344803 0.1016220579 0.5954744876) 4667 13681 2
(0.01153139609 0.149892997 0.6971358314 0.1414397755) 15499 45390 1
(0.0567401611 0.4335418154 0.2567841348 0.2529338887) 14082 41245 2
(0.2424777737 0.2171146725 0.2097524745 0.3306550793) 14234 41609 2
(0.1279454339 0.2713292969 0.1438758739 0.4568493953) 10409 27835 2
(0.09235663932 0.1086223418 0.4268709647 0.3721500542) 14052 41160 2
(0.007038389128 0.3165658983 0.07088816851 0.605507544) 14946 43765 1
(0.09562343442 0.2684243718 0.1345112266 0.5014409672) 8838 25896 2
(0.1383296491 0.4909581235 0.2393719109 0.1313403165) 14020 41066 1
(0.4199861046 0.4001399469 0.08093872197 0.0989352265) 14946 41066 2
(0.2280553495 0.3574662702 0.1019672377 0.3125111426) 14916 43676 1
(0.08309012216 0.1066506282 0.417194197 0.3930650527) 14946 43765 1
(0.08981288205 0.2098636332 0.4672734567 0.2330500281) 15009 43950 1
(0.2314634327 0.1581150352 0.3756203812 0.234801151) 15072 44133 2
(0.002659044124 0.5929391489 0.06919290518 0.3352089018) 16143 44607 2
(0.2244750163 0.1425948132 0.4736281219 0.1593020485) 15041 44049 1
(0.4190048562 0.2090344941 0.2394000638 0.1325605859) 15833 46294 2
(0.6603254182 0.1084615371 0.1044474073 0.1267656373) 15833 46352 1
(0.01143059011 0.4960996608 0.4644510167 0.02801873241) 12521 36684 1
(0.3164947387 0.2767405368 0.2443827697 0.1623819547) 15813 46296 2
(0.3552339407 0.1894327327 0.1432169247 0.3121164018) 15813 46298 1
(0.005524453119 0.06160956798 0.3073746327 0.6254913462) 15814 207009 2
(0.1672631659 0.1405828996 0.3078912842 0.3842626503) 17008 47151 1
(0.1140582644 0.5680385375 0.05828847865 0.2596147194) 17033 204227 1
(0.4523601194 0.1045434764 0.2650861042 0.1780102999) 17732 51923 1
(0.0197218372 0.6708234975 0.1614275716 0.1480270937) 17764 49361 2
(0.1476184652 0.3165841397 0.4827055008 0.05309189432) 17620 51590 2
(0.248525133 0.1006222183 0.4583799394 0.1924727094) 17009 49806 1
(0.7940438988 0.1260922356 0.008246302952 0.07161756262) 10561 30849 1
(0.4778038344 0.02721760786 0.4405012711 0.05447728666) 16864 49381 1
(0.02746214128 0.7241900793 0.07103170365 0.1773160757) 17801 52035 2
(0.125786056 0.4116222359 0.3542246014 0.1083671067) 16868 49394 1
(0.06272766881 0.3251747269 0.3892694173 0.2228281869) 17865 52227 2
(0.08077772016 0.0403576991 0.4569161345 0.4219484463) 16956 49652 2
(0.2896397607 0.04863725146 0.5891802423 0.07254274551) 17985 50016 1
(0.06588711415 0.09493006002 0.07565907668 0.7635237492) 17835 52223 1
(0.1156656154 0.6351408414 0.1080783577 0.1411151856) 18099 53001 2
(0.7413972203 0.1237302316 0.08748446643 0.04738808161) 16167 47345 1
(0.1767962196 0.3670810267 0.2774809242 0.1786418295) 18126 53084 2
(0.2603295322 0.003906190001 0.4285432668 0.307221011) 18154 53168 2
(0.8292556829 0.08305551022 0.01841752273 0.06927128419) 17929 52506 2
(0.4809206614 0.05788345775 0.3295077026 0.1316881783) 18182 53247 2
(0.1752822394 0.7117278779 0.1070293158 0.005960566978) 6015 17622 1
(0.3691107309 0.1156819299 0.0139598481 0.5012474911) 17960 52597 2
(0.2940781484 0.5996900737 0.00651855364 0.09971322424) 18182 53252 1
(0.5060086144 0.1192833418 0.1258904597 0.248817584) 17992 52694 1
(0.4652919107 0.129995167 0.2019250839 0.2027878383) 17822 52099 2
(0.5307001156 0.2531025731 0.2059820464 0.01021526493) 17799 52029 1
(0.1134323335 0.09037758865 0.6162610458 0.179929032) 18025 52786 1
(0.7091085182 0.1422974684 0.1056329659 0.04296104749) 17623 51598 2
(0.06597942524 0.518069572 0.3552898935 0.06066110932) 18519 51568 1
(0.5630157634 0.1477210982 0.2315962849 0.0576668534) 18522 54230 2
(0.1941323619 0.04135832857 0.1758547931 0.5886545165) 17622 51595 2
(0.00994936725 0.3967461999 0.3518207537 0.2414836791) 18542 206079 1
(0.119180708 0.7151156598 0.1385021773 0.02720145494) 18529 54250 1
(0.463351073 0.1133003586 0.01807393438 0.405274634) 18542 206079 2
(0.1531893741 0.7225784384 0.1113208876 0.01291129992) 18529 54250 2
(0.0961405611 0.02922105103 0.5848535099 0.289784878) 18528 54247 1
(0.4725412971 0.170601562 0.1255271639 0.231329977) 18529 54247 2
(0.1025176044 0.0384120899 0.7868924335 0.07217787221) 18580 54398 2
(0.4721183187 0.3024577856 0.1948495656 0.03057433006) 19645 54847 2
(0.02159387243 0.6228297225 0.2345803703 0.1209960348) 19487 57181 1
(0.002032679698 0.2810068342 0.5242581113 0.1927023747) 19614 57746 1
(0.006177562182 0.06359040444 0.5195680575 0.4106639759) 18573 54382 1
(0.1276059364 0.2074508881 0.6518508118 0.01309236382) 19550 57462 3
(0.1135449512 0.7107636407 0.1692367552 0.006454652928) 19647 57894 3
(0.09612205831 0.55973604 0.304251542 0.03989035966) 19644 57875 1
(0.7302748864 0.0338055128 0.168151654 0.06776794676) 19463 57089 2
(0.5521959004 0.193549789 0.236661715 0.01759259557) 19559 54593 1
(0.3411217985 0.3028456895 0.3244272351 0.03160527692) 19643 57869 3
(0.2251341368 0.1356844235 0.2026377175 0.4365437222) 22557 68301 1
(0.04683817821 0.160322835 0.2031707281 0.5896682587) 19619 57770 2
(0.3368850496 0.2629183716 0.00679357979 0.393402999) 24351 74812 3
(0.1302315739 0.4884140323 0.09926887763 0.2820855162) 19794 58511 2
(0.02434695362 0.2780574949 0.5419071065 0.155688445) 19466 57106 1
(0.5910604203 0.09818720976 0.2183235659 0.09242880399) 52892 162299 2
(0.0001813339887 0.6386843085 0.001583363714 0.3595509938) 20471 60654 2
(0.04350211207 0.1581314179 0.1969084932 0.6014579768) 20469 60645 2
(0.6452529217 0.1116258364 0.07475935226 0.1683618897) 53346 163460 2
(0.1605536038 0.4230612976 0.3958924975 0.02049260115) 52893 162316 2
(0.01509154041 0.06222480154 0.7545804304 0.1681032277) 52810 162107 2
(0.2703435549 0.3039652719 0.2565193777 0.1691717954) 24346 74776 2
(0.1361662455 0.02584581992 0.02782622929 0.8101617053) 52806 162097 2
(0.05144481636 0.02982227502 0.4721425855 0.4465903231) 54467 166263 2
(0.5416009366 0.2813797389 0.1401242087 0.03689511584) 54283 165542 1
(0.1411488832 0.1657316952 0.4806837546 0.2124356669) 61815 86459 2
(0.2105103217 0.04000341423 0.07477296212 0.6747133019) 54373 166020 1
(0.07813276796 0.3394409242 0.1072551848 0.4751711231) 22407 67655 2
(0.2353502299 0.3808032096 0.3415876258 0.04225893473) 54550 166478 1
(0.2766978947 0.0327345966 0.2889429293 0.4016245794) 55760 166293 1
(0.1968106466 0.05132326475 0.7449549597 0.00691112895) 22548 68278 1
(0.0170403127 0.09360280922 0.8520427693 0.03731410875) 55823 169666 2
(0.4730461903 0.2212379873 0.03498284458 0.2707329778) 22493 68032 1
(0.04984053439 0.2989271347 0.1838279884 0.4674043425) 55747 169471 2
(0.2115356552 0.2052630666 0.1650912711 0.4181100071) 55954 169999 2
(0.005446641674 0.5688522788 0.109543337 0.3161577425) 57034 172697 1
(0.12299508 0.3287799149 0.4775058048 0.07071920024) 61430 85924 2
(0.0884211745 0.3150382408 0.4840437629 0.1124968219) 56649 171723 2
(0.04213615248 0.02979032104 0.2552169551 0.6728565714) 57138 172946 1
(0.5847311036 0.05163455661 0.259188567 0.1044457727) 56857 172248 1
(0.5928623734 0.1028563884 0.07321690299 0.2310643352) 57138 172961 1
(0.3823804615 0.2175076757 0.2181628865 0.1819489762) 57052 172744 2
(0.2051306196 0.001747008496 0.6468716576 0.1462507143) 57087 172828 2
(0.005004016529 0.09201258731 0.1543637399 0.7486196563) 58372 172834 1
(0.3141515337 0.06577290548 0.5126090945 0.1074664663) 24134 73819 1
(0.1432767379 0.2340578033 0.1986579258 0.424007533) 56653 171723 1
(0.5752891786 0.008167019135 0.2979880204 0.1185557818) 24197 74103 1
(0.2786752996 0.3387462064 0.2775040381 0.1050744559) 58358 74002 1
(0.4058539638 0.09197379149 0.2772702496 0.2249019951) 57994 73540 1
(0.286013659 0.3023131724 0.07392695974 0.3377462088) 58410 175947 2
(0.4765314877 0.1110887844 0.2965121336 0.1158675943) 57890 174747 2
(0.5895159103 0.0465799931 0.1625082384 0.2013958582) 57895 174759 1
(0.4164923324 0.08492072887 0.1551094691 0.3434774697) 64764 191612 2
(0.1082333136 0.05977184003 0.545912766 0.2860820804) 58428 175984 1
(0.2649437497 0.3223459829 0.2642983278 0.1484119396) 58328 175736 2
(0.4495511982 0.07689958393 0.00867929826 0.4648699196) 57822 174587 2
(0.1065880916 0.5548612517 0.01363697571 0.324913681) 58243 175546 1
(0.07177481037 0.4796247273 0.2618048802 0.1867955822) 58250 175561 2
(0.04572069695 0.6530907377 0.1410710228 0.1601175425) 57646 174182 2
(0.05894611759 0.1024719525 0.7379192244 0.1006627055) 51927 159793 2
(0.2078409195 0.6136227263 0.1627599024 0.01577645181) 51626 159025 2
(0.09857214384 0.1694079201 0.7130851951 0.01893474094) 21610 64856 2
(0.04608870897 0.2673987009 0.2108195084 0.4756930818) 51880 159678 1
(0.1369019521 0.0001968891738 0.64044927 0.2224518887) 25019 77005 2
(0.06186518914 0.08782072596 0.6773763949 0.17293769) 59634 77931 2
(0.04876853422 0.5845338347 0.2752147145 0.09148291666) 25445 78647 2
(0.04545110019 0.2201389642 0.3666608782 0.3677490574) 25498 78807 1
(0.1290597808 0.5107842824 0.2129234173 0.1472325196) 25607 79127 2
(0.2285433942 0.4628576522 0.1967591314 0.1118398222) 25607 79131 1
(0.1306453656 0.5038037393 0.2838718 0.08167909508) 25661 79211 1
(0.2785851551 0.3749111471 0.2949949086 0.05150878922) 25661 79291 2
(0.552816316 0.1779107405 0.101677687 0.1675952564) 25715 79450 1
(0.09972577649 0.2389076872 0.0786005834 0.5827659529) 51938 159823 2
(0.5772205438 0.01703410357 0.04732851832 0.3584168343) 59249 177996 1
(0.007490527516 0.08840179191 0.8553479188 0.04875976173) 36595 115910 1
(0.1345188231 0.2365320535 0.05872784196 0.5702212815) 59531 178687 1
(0.1338657092 0.01667104623 0.2765104413 0.5729528033) 59519 178672 1
(0.1067442822 0.2240777278 0.5522000918 0.1169778982) 59513 178650 1
(0.1494585357 0.3484344114 0.386495494 0.1156115589) 59511 178648 2
(0.6833215478 0.04506499128 0.1774916574 0.09412180356) 34935 111078 2
(0.1421316307 0.3399577633 0.3407559466 0.1771546595) 59511 178648 2
(0.1672443849 0.3362794186 0.06039239522 0.4360838012) 59421 178426 1
(0.3251710604 0.04156771575 0.3431534058 0.2901078181) 51933 159807 2
(0.2427817983 0.3635464895 0.3765624006 0.01710931156) 59421 178411 2
(0.7028517816 0.1691452934 0.0421941727 0.08580875235) 59421 178426 2
(0.1185657443 0.3134269036 0.412763791 0.1552435611) 51940 159823 1
(0.8696261134 0.01548980911 0.03298766146 0.08189641599) 59421 178425 2
(0.716645597 0.1537863461 0.0280475395 0.1015205174) 51890 159704 1
(0.09251628931 0.3560051524 0.190403726 0.3610748322) 59330 178198 1
(0.6884415617 0.1100536636 0.08863932165 0.112865453) 51883 159686 2
(0.09827529182 0.2591003043 0.4553337743 0.1872906296) 13218 38717 1
(0.4624895341 0.3734230081 0.05993913786 0.1041483198) 59328 178193 1
(0.09832966249 0.01777148843 0.6305981825 0.2533006666) 59324 178182 1
(0.02508683782 0.000377812239 0.2636645353 0.7108708147) 59324 178176 1
(0.2431229604 0.4731098958 0.02389607794 0.2598710658) 51926 159791 2
(0.0536350917 0.005930496569 0.2481105261 0.6923238857) 59328 178193 2
(0.2019592359 0.02722175612 0.1570515755 0.6137674325) 59328 178193 2
(0.3187096189 0.05954774333 0.4874080204 0.1343346174) 59233 177949 2
(0.4722923256 0.0843598553 0.04008980709 0.403258012) 59328 178193 2
(0.463422658 0.166212079 0.3212380847 0.04912717826) 59328 80412 1
(0.001185140674 0.1367788025 0.7218608226 0.1401752342) 37379 118204 2
(0.3496121672 0.03059051611 0.4777977965 0.1419995203) 59229 177950 1
(0.2368982782 0.05822907028 0.5237810207 0.1810916309) 59229 177950 1
(0.4387511723 0.009164449854 0.3132570033 0.2388273745) 59328 80412 2
(0.2495076589 0.03915317928 0.5379854281 0.1733537338) 59229 177950 1
(0.06984483806 0.2510399797 0.1703498086 0.5087653736) 59329 178192 1
(0.32410493 0.4566318727 0.029581715 0.1896814823) 59229 177948 1
(0.3959902259 0.4195455503 0.05565500292 0.1288092208) 51925 159790 2
(0.1617493624 0.3137452997 0.3354727295 0.1890326083) 51925 159790 1
(0.4069810606 0.3906735359 0.05856557965 0.1437798239) 38953 120507 2
(0.5205546213 0.2000068984 0.1852815575 0.09415692281) 14407 42209 1
(0.04080702503 0.6389807946 0.1942709323 0.1259412481) 51918 159768 2
(0.115543747 0.5066354404 0.06924234459 0.308578468) 51916 159768 2
(0.1672213759 0.004172364993 0.06546472675 0.7631415323) 51930 159804 2
(0.285154637 0.3777020157 0.273855723 0.06328762432) 51918 203336 2
(0.2319122025 0.1559840814 0.1480741349 0.4640295811) 51930 203249 2
(0.2831534603 0.2028548321 0.399726699 0.1142650086) 51917 203335 2
(0.2511740955 0.3908272215 0.3475348796 0.01046380348) 51930 203249 2
)


// ************************************************************************* //
