/*--------------------------------*- C++ -*----------------------------------*\
  =========                 |
  \\      /  F ield         | OpenFOAM: The Open Source CFD Toolbox
   \\    /   O peration     | Website:  https://openfoam.org
    \\  /    A nd           | Version:  8
     \\/     M anipulation  |
\*---------------------------------------------------------------------------*/
FoamFile
{
    version     2.0;
    format      ascii;
    class       scalarField;
    location    "0.5/lagrangian/reactingCloud1";
    object      rho;
}
// * * * * * * * * * * * * * * * * * * * * * * * * * * * * * * * * * * * * * //


239
(
994.5114693
994.5114693
994.5114692
994.5114697
994.5114714
994.511469
994.5114715
994.5114703
994.5114697
994.511469
994.51147
994.5114697
994.5114694
994.5114716
994.5114691
994.5114712
994.5114717
994.5114712
994.5114721
994.5114711
994.5114706
994.5114722
994.5114723
994.5114724
994.5114724
994.5114724
994.5114712
994.5114693
994.5114724
994.5114709
994.5114724
994.5114723
994.5114697
994.5114723
994.511475
994.511472
994.5114751
994.5114713
994.5114749
994.5114722
994.5114712
1000
994.5114719
994.5114714
994.5114725
994.5114718
994.5114716
994.5114695
994.5114714
994.5114698
994.5114712
994.5114708
994.5114705
994.51147
1000
994.5114702
994.5114691
994.5114695
994.511469
994.5114726
994.5114699
1000
994.5114703
994.5114693
994.5114694
994.511469
994.5114686
994.5114686
1000
994.5114686
994.5114685
994.5114687
994.5114688
994.5114689
994.511469
994.5114693
994.5114688
994.5114688
994.5114688
1000
994.5114688
994.5114688
994.5114688
994.5114693
994.5114692
994.511469
994.5114692
994.5114689
994.5114689
1000
994.5114689
994.5114689
994.5114692
994.5114689
994.5114688
994.5114688
994.5114689
994.5114688
1000
994.5114688
994.5114688
994.511469
994.5114688
1000
994.511469
994.5114688
994.511469
994.5114686
994.5114686
994.5114691
994.5114686
994.5114686
994.5114686
994.5114686
994.5114686
994.5114686
994.5114686
994.5114686
994.5114687
994.5114687
994.5114688
994.5114689
994.5114685
994.511469
994.5114686
994.5114687
994.5114688
994.5114687
994.5114687
994.5114687
994.5114685
1000
994.5114685
1000
1000
994.5114686
994.5114686
994.5114685
994.5114688
994.5114688
994.5114687
994.5114686
1000
994.5114687
994.5114689
994.5114688
1000
994.5114688
1000
994.5114689
994.5114689
994.5114688
994.5114689
994.5114688
994.5114689
994.5114687
994.5114689
1000
994.5114695
994.511469
994.5114694
994.511469
994.511469
994.5114689
994.5114687
994.5114691
994.511469
994.5114688
994.5114686
994.5114692
994.511469
994.5114692
994.5114692
1000
994.5114686
994.5114687
994.511469
994.5114687
994.5114686
994.5114688
994.5114689
994.5114688
1000
994.5114687
994.5114731
994.5114983
994.5114994
994.5115004
994.5115045
994.5115056
994.511507
994.5115082
994.5115103
994.511479
994.5114802
1000
994.511485
994.5114862
994.5114864
994.5114865
1000
994.5114871
994.5114866
994.5114685
994.5114871
994.5114871
994.511484
994.5114871
994.5114689
994.5114864
994.5114688
994.5114685
994.5114845
994.5114845
994.5114845
994.511478
994.5114845
994.5114845
994.5114814
994.5114844
994.5114843
1000
994.5114817
994.5114818
994.5114842
994.5114819
994.511484
994.5114821
994.5114778
994.5114772
1000
994.5114703
994.5114784
994.5114788
994.5114773
994.5114767
994.5114771
994.5114789
994.5114769
)


// ************************************************************************* //
