/*--------------------------------*- C++ -*----------------------------------*\
  =========                 |
  \\      /  F ield         | OpenFOAM: The Open Source CFD Toolbox
   \\    /   O peration     | Website:  https://openfoam.org
    \\  /    A nd           | Version:  8
     \\/     M anipulation  |
\*---------------------------------------------------------------------------*/
FoamFile
{
    version     2.0;
    format      ascii;
    class       vectorField;
    location    "0.5/lagrangian/reactingCloud1";
    object      U;
}
// * * * * * * * * * * * * * * * * * * * * * * * * * * * * * * * * * * * * * //


239
(
(0.5558063129 0.3945042586 -2.006557047)
(0.4382028256 0.319025491 -1.558979966)
(0.48257333 0.3327611958 -1.593726165)
(0.4388313477 0.3300608837 -1.914920019)
(0.1367259702 0.1239737896 -1.681963009)
(0.5592108152 0.2842035989 -1.951601344)
(0.1323930806 0.1092028746 -1.883048828)
(-0.6520431994 0.4793139009 -1.793074004)
(0.5485101527 0.3045422507 -1.739243129)
(-0.6352223794 0.287937552 -1.906327042)
(-0.915234895 0.5312317691 -1.948377314)
(-0.9173661173 0.4197594276 -1.884168194)
(-0.9151910743 0.3778572116 -1.848483208)
(0.08534727314 0.104707101 -2.150959005)
(0.530263803 0.209866719 -1.818424363)
(0.3479887409 0.4560496143 -1.918578667)
(0.1656752963 0.3161049185 -2.024893279)
(0.4644239933 0.4500531579 -1.826034722)
(-0.05662784377 0.3273233472 -1.882007972)
(0.2490100465 0.4428023111 -1.837607187)
(0.5357673606 0.4147423364 -1.819876347)
(0.08792757359 0.4592820098 -1.944418283)
(0.08879181441 0.4216065068 -1.834467386)
(0.1101962948 0.4551208601 -1.932507073)
(0.07427402725 0.4243146975 -1.85742076)
(0.05129838394 0.3928554828 -1.783002722)
(0.21926363 0.2671796093 -1.661320711)
(0.01775418323 0.0972129836 -1.62907313)
(0.00989095367 0.3750006141 -1.754965237)
(-0.2538805392 -0.005317707103 -1.72196735)
(-0.008432713738 0.3807635543 -1.808585862)
(0.1498734743 0.307798073 -1.615551949)
(-0.008862927036 0.2753531865 -1.64936472)
(0.1612069039 0.3149231942 -1.835686169)
(-0.009769986221 0.02299830198 -1.801160225)
(0.02510530553 0.238572904 -1.619221445)
(0.01328284131 0.002115930462 -1.714503548)
(0.1475428237 0.34053658 -1.680536931)
(0.02746100791 0.00221267082 -1.75976446)
(0.1150946075 0.2187662134 -1.739477214)
(0.04065406801 0.2007573071 -1.544378015)
(0.9528344543 0.5028484596 -3.187008631)
(0.1089440911 0.1903016403 -1.643148187)
(0.1594698109 0.3068618146 -1.555014139)
(0.05100473753 0.212230733 -1.669741338)
(0.1311194781 0.2270057567 -1.649987749)
(0.1530549657 0.2693491943 -1.679355017)
(0.1074902867 0.02756840798 -1.591610081)
(0.1627528653 0.2881959478 -1.657568915)
(0.03407601525 0.09699533184 -1.624718449)
(0.1666336029 0.3003190682 -1.637966318)
(0.2013409074 0.3587264229 -1.664946833)
(0.2052371639 0.3722109394 -1.584593293)
(0.0910964798 -0.1694900411 -1.682335997)
(0.6430462328 0.6709353656 -3.22729597)
(0.2144570675 0.3886781212 -1.568318188)
(0.3402913453 0.356860752 -1.640517184)
(0.3799117884 0.6192170149 -1.637844005)
(0.5194662864 0.3275249796 -1.556201805)
(0.3213210733 1.117539329 -1.312350054)
(-0.1771031707 1.285547689 -1.573264823)
(0.3573525572 0.8425417942 -3.224665218)
(-0.1214337645 -1.531870906 -1.21047654)
(0.0919894046 -0.01914694168 -1.473991384)
(0.03386343907 0.2223175991 -1.48201301)
(0.4575982046 0.2481838175 -1.754509762)
(0.2747159157 -0.06975376405 -1.576151298)
(0.2028608871 -0.12559299 -1.434618535)
(0.7889408827 0.4909150863 -3.045712568)
(0.2421774509 -0.1674557918 -1.497525092)
(0.223361899 -0.1468468228 -1.431826851)
(0.2881068719 -0.2138968182 -1.498152053)
(0.2204967598 -0.1252635278 -1.451342209)
(0.1754981547 -0.0259823733 -1.4719292)
(0.1197831411 0.06025069525 -1.41523954)
(0.5142261803 0.5460082223 -1.41626442)
(0.230614109 0.003674850028 -1.495088549)
(0.3192217094 -0.2302271412 -1.396726618)
(0.3021461723 -0.208926622 -1.379475527)
(0.6226476425 0.6720650224 -3.025611688)
(0.4167179702 -0.2979149738 -1.433012021)
(0.3948488156 -0.2771638375 -1.382302271)
(0.4330116777 -0.3018333723 -1.37091536)
(-0.09079744306 0.3950114462 -1.398698669)
(-0.4009008942 0.4303790481 -1.372753323)
(-0.106418737 -0.0271026807 -1.120821625)
(-0.1219700057 0.0659477807 -1.285960481)
(0.004861658804 -0.2305500906 -1.170474042)
(-0.06278985194 0.4036597967 -1.361258077)
(0.791745738 0.3613238672 -3.141556981)
(0.3494137618 0.4431457882 -1.369722107)
(0.2786659206 0.4240573331 -1.303194801)
(0.6417832943 0.4334744136 -1.337559314)
(0.4929007867 0.429828984 -1.253945546)
(0.4246408919 0.5701867082 -1.3614262)
(0.5121903853 0.7812552445 -1.298284904)
(0.5162177593 0.5774944562 -1.324521528)
(0.6465882718 1.032320632 -1.260516938)
(0.6604014689 0.6506515207 -2.943601818)
(0.6552949602 1.031609379 -1.18263271)
(0.7161738497 1.143938439 -1.189669255)
(0.7676189035 0.7333861925 -1.263086846)
(0.7135023539 1.133545274 -1.14999121)
(0.7858804117 0.1634925258 -3.272472196)
(0.7661330984 0.691670347 -1.16423853)
(0.6821264077 1.067865271 -1.102606996)
(0.8763119944 0.7867340097 -1.153446991)
(-0.03661856296 0.03558899521 -1.299519445)
(0.2270962499 0.02967031278 -1.291053412)
(1.053924248 0.9059490784 -1.160946276)
(0.1582030184 -0.2691930275 -1.305524214)
(-0.0727053953 -0.3628714594 -1.197939278)
(-0.2792465128 -0.2576629384 -1.0835778)
(0.1111278972 -0.2877133538 -1.273254924)
(-0.3809384747 -0.2603588028 -1.174933266)
(0.1158394789 -0.2829502996 -1.236595869)
(-0.3812256329 -0.233376468 -1.094583963)
(0.1159846885 -0.2829400965 -1.220788531)
(0.0513498945 -0.2418907124 -1.208177713)
(0.07501190084 -0.2646884368 -1.161751974)
(0.0008840082128 -0.1469938525 -1.087235817)
(-0.2528801624 0.2224222992 -1.082459022)
(-0.4326365671 -0.2167040956 -1.130147875)
(-0.2620180213 0.1866563977 -1.139495952)
(-0.4132245807 -0.1832511607 -1.16802378)
(-0.3806855558 0.02194376969 -1.019948592)
(-0.1393588769 0.2520023571 -1.156488599)
(0.01400051508 0.05348736131 -1.182404855)
(0.02876900849 -0.2113513257 -1.06040561)
(0.2110395543 -0.05483685515 -1.171451913)
(-0.1018906742 0.0501252234 -1.137826476)
(0.7484435291 0.8635073527 -2.704997768)
(0.2367022647 0.01258500275 -1.071344563)
(0.8774934417 0.7303587686 -2.4816681)
(0.4508630576 0.7173677062 -2.874014368)
(0.2383417576 -0.3502541777 -1.09993566)
(0.2911077078 -0.2165796374 -1.059655234)
(0.3535280213 -0.1253747188 -1.036158931)
(0.0890260606 -0.06924859937 -1.049456857)
(-0.4303937458 0.3016596972 -1.003421689)
(0.2065570033 -0.1657353633 -1.053551783)
(0.4125618651 -0.1787047137 -1.036505698)
(0.6235371004 0.8614336683 -2.649713723)
(0.4062784256 -0.2096084025 -1.016298622)
(-0.1132487099 0.09135996623 -1.000690362)
(0.2986420731 -0.1610034316 -0.9860904509)
(0.8653967748 0.8102806703 -2.449207574)
(0.07137864902 -0.07280944132 -0.9344543389)
(0.4226397785 0.53889579 -2.921386798)
(-0.1248991177 0.07107943365 -0.8963798991)
(0.1416110712 -0.008156678199 -0.8905744735)
(-0.4063134474 1.0097082 -0.9130941376)
(-0.3835174698 0.1929336878 -0.8480140492)
(-0.2875644082 0.7421172507 -0.9041424798)
(0.05892888643 0.02416127885 -0.8408356924)
(-0.2055030647 0.5573385752 -0.8061816887)
(-0.04859423768 0.1481885065 -0.6977660577)
(0.4281904738 0.5478981249 -2.705598243)
(0.1204552921 -0.2115505718 -0.714059195)
(0.09643026948 0.05921705524 -0.7096480542)
(0.1828633264 -0.1118023959 -0.6864378103)
(0.08326415657 0.07584052478 -0.688867446)
(-0.06139219545 0.148804878 -0.6566412127)
(0.9038556008 -0.01587867046 -0.6758467417)
(0.91621991 -0.006626833972 -0.668446936)
(-0.643996867 0.2127524475 -0.5863115322)
(0.02132248069 -0.05561886925 -0.7616579109)
(0.004973221722 0.1091758535 -0.6221063195)
(0.7010466871 -0.00289726958 -0.6292095386)
(-0.7285531922 -0.02044284275 -0.5678733219)
(-0.07709826413 0.2822369543 -0.5737340863)
(-0.6585152868 -0.1630999043 -0.5425142178)
(-0.6261286112 -0.2493826386 -0.551764887)
(1.075112843 0.3111889653 -2.331008618)
(-0.0358618005 0.1601036242 -0.5622923716)
(-0.08315987635 0.100866893 -0.5368893415)
(-0.01546706766 -0.4161070869 -0.4976562991)
(0.3811160416 -0.1367969994 -0.4861233378)
(0.4218182297 -0.1233306548 -0.4819270878)
(0.1690694659 -0.8291807672 -0.4492302424)
(0.2694695355 0.07669550605 -0.4183249678)
(-0.2990755194 -0.6018016756 -0.4066921743)
(0.2009100585 0.8239315865 -2.795300965)
(0.2898401616 -0.1233934966 -0.3566126252)
(0.03928509884 -0.057694388 -0.317577154)
(0.01968393749 2.370769177 -0.3360489716)
(-0.06926616146 4.409153125 -0.3816526008)
(-0.08145118886 5.137863188 -0.3672553158)
(-0.07317637717 6.458145712 -0.3338180997)
(-0.02656484642 6.442092388 -0.3380513527)
(0.005478442102 6.836933626 -0.3312602417)
(0.04302295699 7.040322425 -0.3268104303)
(0.1094930856 7.693012436 -0.3183679148)
(-0.2117349462 0.2873878105 -0.2788407087)
(-0.6156159715 0.7902254042 -0.2980392466)
(0.8999197846 0.4057866412 -2.101483565)
(-0.4502684965 1.874376179 -0.2701521988)
(-1.074871554 2.367629716 -0.2647961254)
(-1.28291715 2.165582843 -0.2957802656)
(-1.445791085 2.166408612 -0.2720680087)
(0.8333792147 0.2598145646 -2.246037088)
(-1.655984925 2.242825042 -0.2485636337)
(-1.598890495 2.047374509 -0.2512105764)
(0.3535102127 0.009188185909 -0.218657282)
(-1.877871877 2.089829704 -0.2448281752)
(-1.819428107 2.045223488 -0.2534055121)
(-0.01112384698 0.3145380492 -0.2172418975)
(-1.792848773 2.034188473 -0.2543004638)
(0.6084086372 -0.2431074541 -0.2091822171)
(-1.641750844 1.672538404 -0.2394226728)
(0.4233136147 -0.1883334457 -0.2010985978)
(0.07154155584 -0.008341671937 -1.426473361)
(-1.449686427 1.337785917 -0.1910986605)
(-1.62347128 1.418028876 -0.1976313981)
(-1.622417991 1.411428704 -0.1983061203)
(-0.1310938028 0.1001358137 -0.1795560565)
(-1.640235902 1.425500359 -0.1925744764)
(-1.630044205 1.417900763 -0.190904878)
(-1.154138937 0.6287927072 -0.1744445756)
(-1.654210591 1.443295296 -0.1779919355)
(-1.615139179 1.418184944 -0.1764922534)
(0.3856173149 0.7001568148 -2.190749447)
(-1.440300336 0.8064396167 -0.1751892752)
(-1.470902439 0.8180253135 -0.1745062576)
(-1.593296482 1.409508015 -0.1721869201)
(-1.487802007 0.8227527494 -0.1723954102)
(-1.561349689 1.394991369 -0.1679356544)
(-1.568322357 0.8569464001 -0.1527672725)
(-0.3867166337 0.15094567 -0.1418848698)
(0.04266670857 0.1856632111 -0.1141913506)
(0.3574968408 0.7006346614 -2.150972006)
(-0.2129844102 -2.269379515 -1.484778318)
(-0.7481083515 0.5029357896 -0.05090451944)
(-1.07029676 0.5470842879 -0.03992931317)
(-0.9580005002 0.64626176 -0.02353948706)
(-0.04043627511 0.2271345479 -0.02274421607)
(-0.8550533072 0.5918263179 -0.01549325387)
(-1.091673726 0.3799651275 -0.006933204038)
(-0.829587827 0.6208120792 -0.002849395189)
)


// ************************************************************************* //
