/*--------------------------------*- C++ -*----------------------------------*\
  =========                 |
  \\      /  F ield         | OpenFOAM: The Open Source CFD Toolbox
   \\    /   O peration     | Website:  https://openfoam.org
    \\  /    A nd           | Version:  8
     \\/     M anipulation  |
\*---------------------------------------------------------------------------*/
FoamFile
{
    version     2.0;
    format      ascii;
    class       scalarField;
    location    "1.6/lagrangian/reactingCloud1";
    object      d;
}
// * * * * * * * * * * * * * * * * * * * * * * * * * * * * * * * * * * * * * //


142
(
0.0005401680947
0.0005113710384
0.000900643137
0.0007413046884
0.000504628724
0.0005353386445
0.0005280594098
0.001174543936
0.0007761269323
0.0005279289005
0.0006203608999
0.0005307727365
0.0006322628451
0.000544498047
0.00100705588
0.0008739062818
0.001196465073
0.0005478827681
0.0005162067974
0.0006724674518
0.0005873477744
0.0005631758554
0.0006226932653
0.0007706985975
0.0008655292124
0.0005907343074
0.0006255565673
0.0007746668405
0.0005558119253
0.0005097270646
0.0006979818238
0.0006819192539
0.0007107601079
0.0005536401642
0.0008027723483
0.0009736043411
0.0009249453287
0.0008409157533
0.000692293974
0.0005063355962
0.001154621108
0.001052599912
0.0005891457265
0.0005429886757
0.0008833395557
0.0005958495224
0.00098843301
0.0005326174642
0.0005117446441
0.0008769356766
0.0007484008174
0.0009508009289
0.0006356319491
0.001142763854
0.0005650695152
0.0006769167749
0.0007753865217
0.0006308472973
0.0005600880268
0.0008552576017
0.000562520157
0.0006467477976
0.0005318828872
0.0005372050577
0.00055385879
0.001089998394
0.0009524226152
0.0006444071028
0.0008991330796
0.0005204709709
0.001042045238
0.0005642614651
0.0008253479671
0.0009671414814
0.0005224727267
0.0008117261007
0.0005112002949
0.00102541882
0.0007351187823
0.0007659497292
0.0006415548581
0.0008795747892
0.0005529971443
0.0005637748035
0.0008929692839
0.0008477283458
0.0006075623728
0.0007591865787
0.0006613988538
0.0005063355962
0.0009101089505
0.0007316455987
0.0005280516515
0.0005151958035
0.001103781694
0.0007940959236
0.0006897177085
0.0006821783328
0.0006855429825
0.001040352269
0.0008152325116
0.0008154134522
0.00098843301
0.0005599482459
0.0007131500889
0.0007766928132
0.0005701707177
0.0007677139732
0.001088070239
0.0006532976282
0.0007005168229
0.0006329695004
0.0006819192539
0.000964844036
0.000568210181
0.0006501770777
0.0007983696265
0.0006850986111
0.0006326076717
0.0006644370644
0.0005322388684
0.0010970688
0.0006012222707
0.001095608298
0.0005076926026
0.0008369074052
0.001056081987
0.000688381251
0.0005148438807
0.000982396941
0.0006018405429
0.0005113215736
0.001101941221
0.0006269311173
0.0005477227135
0.0007435036754
0.000774625838
0.0006248613444
0.0009650727307
0.0007456818017
0.00059870943
0.0005651908682
)


// ************************************************************************* //
