/*--------------------------------*- C++ -*----------------------------------*\
  =========                 |
  \\      /  F ield         | OpenFOAM: The Open Source CFD Toolbox
   \\    /   O peration     | Website:  https://openfoam.org
    \\  /    A nd           | Version:  8
     \\/     M anipulation  |
\*---------------------------------------------------------------------------*/
FoamFile
{
    version     2.0;
    format      ascii;
    class       scalarField;
    location    "1.6/lagrangian/reactingCloud1";
    object      mass0;
}
// * * * * * * * * * * * * * * * * * * * * * * * * * * * * * * * * * * * * * //


142
(
8.207203548e-08
6.963327193e-08
3.804228987e-07
2.12128323e-07
6.691512914e-08
7.989032776e-08
7.66755282e-08
8.437547284e-07
2.434482632e-07
7.661869138e-08
1.243201914e-07
7.786355693e-08
1.316137921e-07
8.406155071e-08
5.318254631e-07
3.475385634e-07
8.918842483e-07
8.563895161e-08
7.162746405e-08
1.583515157e-07
1.055101888e-07
9.301232494e-08
1.257276865e-07
2.383757784e-07
3.376397802e-07
1.073457856e-07
1.274700575e-07
2.420768823e-07
8.941121569e-08
6.896385004e-08
1.770682757e-07
1.651228884e-07
1.869724212e-07
8.836721836e-08
2.693925816e-07
4.805691888e-07
4.143304126e-07
3.096462918e-07
1.737281826e-07
6.796948864e-08
8.015431315e-07
6.106447261e-07
1.064821014e-07
8.336442052e-08
3.589148719e-07
1.107664938e-07
5.028635309e-07
7.86782381e-08
6.978600498e-08
3.511653329e-07
2.18278609e-07
4.500568895e-07
1.34467019e-07
7.771017787e-07
9.395373576e-08
1.615155156e-07
2.427521925e-07
1.307317752e-07
9.149077034e-08
3.257611182e-07
9.268782394e-08
1.408683065e-07
7.835315179e-08
8.072883716e-08
8.847194517e-08
6.743509789e-07
4.498808589e-07
1.393443535e-07
3.785126049e-07
7.34172232e-08
5.892073268e-07
9.355125001e-08
2.927653508e-07
4.710624113e-07
7.467745302e-08
2.785075356e-07
6.95635449e-08
5.6145153e-07
2.06862122e-07
2.339964233e-07
1.375022523e-07
3.543453491e-07
8.805967634e-08
9.330940187e-08
3.707814337e-07
3.172331279e-07
1.167833763e-07
2.291100751e-07
1.506602667e-07
6.7596436e-08
3.92544209e-07
2.03943896e-07
7.709528851e-08
7.160042048e-08
7.002578401e-07
2.607518019e-07
1.708529763e-07
1.662234861e-07
1.686951866e-07
5.86340204e-07
2.821323538e-07
2.823202529e-07
5.02863532e-07
9.142228767e-08
1.888648947e-07
2.439811526e-07
9.652129659e-08
2.356170721e-07
6.707786233e-07
1.451916576e-07
1.790045734e-07
1.327843752e-07
1.651228886e-07
4.677133525e-07
9.552904829e-08
1.439108654e-07
2.649844793e-07
1.674432635e-07
1.318292502e-07
1.535890219e-07
7.851057895e-08
6.87559063e-07
1.131653829e-07
6.84816723e-07
6.814138007e-08
3.052394417e-07
6.133400497e-07
1.698617204e-07
7.106161677e-08
4.937071571e-07
1.135148659e-07
6.961306712e-08
6.96760796e-07
1.29020316e-07
8.556391978e-08
2.140216849e-07
2.420384457e-07
1.277466732e-07
4.680460145e-07
2.159081575e-07
1.117523627e-07
9.453312861e-08
)


// ************************************************************************* //
