/*--------------------------------*- C++ -*----------------------------------*\
  =========                 |
  \\      /  F ield         | OpenFOAM: The Open Source CFD Toolbox
   \\    /   O peration     | Website:  https://openfoam.org
    \\  /    A nd           | Version:  8
     \\/     M anipulation  |
\*---------------------------------------------------------------------------*/
FoamFile
{
    version     2.0;
    format      ascii;
    class       labelField;
    location    "1.6/lagrangian/reactingCloud1";
    object      origId;
}
// * * * * * * * * * * * * * * * * * * * * * * * * * * * * * * * * * * * * * //


142
(
393
394
395
396
397
398
399
400
402
403
404
405
408
409
410
411
412
414
415
416
417
418
419
420
421
422
423
424
425
426
988
428
430
432
435
436
738
995
740
739
590
746
993
591
596
750
440
1089
593
595
443
755
758
444
446
447
604
451
453
454
455
456
457
458
459
460
461
601
597
598
462
463
464
465
775
466
467
468
985
469
471
472
473
474
475
477
478
797
479
481
484
487
811
813
621
490
632
818
819
413
492
599
493
494
636
495
496
497
498
499
500
829
501
638
1029
842
502
503
504
760
505
639
506
507
508
509
510
616
511
512
618
513
514
847
619
989
515
848
999
516
517
865
)


// ************************************************************************* //
