/*--------------------------------*- C++ -*----------------------------------*\
  =========                 |
  \\      /  F ield         | OpenFOAM: The Open Source CFD Toolbox
   \\    /   O peration     | Website:  https://openfoam.org
    \\  /    A nd           | Version:  8
     \\/     M anipulation  |
\*---------------------------------------------------------------------------*/
FoamFile
{
    version     2.0;
    format      ascii;
    class       vectorField;
    location    "1.6/lagrangian/reactingCloud1";
    object      U;
}
// * * * * * * * * * * * * * * * * * * * * * * * * * * * * * * * * * * * * * //


142
(
(-0.0893156252 0.006913386313 -2.039511952)
(-0.08754472571 0.009772830271 -2.026379233)
(-0.7456149945 0.01009148453 -2.15208185)
(-0.4752173137 -0.08181781365 -2.105476397)
(-0.5548099909 0.03050763139 -1.933774483)
(-0.4351416481 -0.0703645417 -1.98036176)
(-0.5314220477 -0.01707969449 -1.918706724)
(-0.06899127102 0.007967786501 -2.209020212)
(-0.3838068405 0.02879835277 -2.052051036)
(-0.2446213392 0.0358465952 -1.850848831)
(0.8365269045 0.04271218917 -1.87313609)
(-0.4450985415 -0.07095831659 -1.971065802)
(-0.5235807543 -0.06685769252 -2.026981631)
(-0.4574666015 -0.07155815239 -1.967143108)
(-0.5564029533 0.01793637142 -2.110004193)
(-0.4491265508 0.01613800077 -2.084564606)
(-0.1841590129 -0.05067754086 -2.099494175)
(0.1317649856 -0.007326154729 -1.811791128)
(-0.1552034027 -0.04076020437 -1.762796124)
(0.2179283481 0.07650802659 -1.995512485)
(0.2016883114 0.06733754677 -1.938076263)
(0.1864478753 0.0386522093 -1.883940075)
(0.1496498892 0.003089104369 -1.894058534)
(-0.5517783474 -0.07953143327 -1.950722617)
(-0.1340284102 -0.01840433172 -1.961012828)
(-0.3648107608 -0.003413391058 -1.938441594)
(-0.5254161459 -0.07101048498 -1.881110391)
(-0.3964789195 -0.01352358272 -1.983982579)
(-0.3795699619 -0.0001735133844 -1.91876413)
(-0.3651167234 0.003584958761 -1.89599819)
(-0.1238763798 0.07750743262 -2.141544386)
(-0.1798599018 -0.02571534224 -1.78769798)
(-0.3235398532 -0.003058692418 -1.923407177)
(-0.373304432 0.002218734962 -1.899243031)
(0.9087735989 0.01301750075 -1.695390996)
(-0.1885381094 0.2599314303 -1.977597214)
(-0.2842404622 1.018764939 -3.302416307)
(-0.1436005864 0.02360108326 -2.179746724)
(-0.7531159342 0.8094523538 -2.98832037)
(-0.6769411848 0.649695299 -3.174473277)
(0.140202298 0.179227476 -2.317640104)
(-0.8588785791 0.7880167376 -3.216547369)
(-0.1319635781 0.04523561803 -2.071737011)
(0.1507164062 0.1378709088 -2.008560132)
(0.1030507887 0.2248362706 -2.191518506)
(-0.7393983851 0.5254037146 -3.286340582)
(-0.1917205602 -0.145729562 -1.645977997)
(-0.2430582427 0.05141407273 -1.715733704)
(0.1496743695 0.1348891156 -1.976606935)
(0.1695455457 0.1528469619 -2.176797026)
(-0.1504464429 -0.0561375556 -1.512098643)
(-0.4207570529 0.5864939896 -3.507536954)
(0.05297904207 1.042991813 -2.884632541)
(-0.8611530445 -0.02102394239 -1.615374779)
(-0.5753970676 -0.01705238799 -1.57485114)
(-0.5852774965 -0.02003747967 -1.580370369)
(0.1034351439 0.211234705 -2.070791419)
(-0.553112512 -0.03344469469 -1.517061521)
(-0.06693682907 0.004154078155 -1.492553478)
(0.09755827008 -0.0008183394818 -1.476880244)
(0.07428616756 -0.001177556153 -1.447346166)
(0.08139291183 -0.0009687672902 -1.455310943)
(0.06928403178 -0.0009572797191 -1.437582289)
(0.06805661225 -0.000790183317 -1.436377491)
(0.06820590279 -0.000658603999 -1.436824185)
(0.09460897173 -0.0002221941676 -1.458814801)
(0.08033844961 -0.0001113475985 -1.434304217)
(0.1655554259 0.1249102437 -1.996556987)
(0.1762441611 0.1205516793 -2.12275115)
(0.1554891831 0.1187192132 -1.905043621)
(0.0684383169 0.0002483385261 -1.409539722)
(0.04710501775 0.001712161714 -1.366615158)
(0.0512115427 0.00106923385 -1.368970203)
(0.04045651906 0.001344136559 -1.336701506)
(-0.1228683112 0.8068852973 -3.022768522)
(0.02537311833 0.00174342406 -1.288219751)
(0.01349227791 0.003340493465 -1.25261577)
(8.741182871e-05 0.2699534739 -1.227253174)
(-0.08569113621 0.09978018065 -2.17563914)
(-0.2539838374 -0.04437763231 -1.102889734)
(-0.250162899 -0.06515509049 -1.029922468)
(-0.1722939051 0.05227892409 -1.099242671)
(-0.284790055 -0.05787836415 -1.030400936)
(-0.2496863274 -0.07366396512 -1.019078146)
(-0.09042650715 -0.1091956674 -1.033418301)
(-0.0228200382 -0.1298654405 -0.9790927239)
(-0.1536272555 0.2188138752 -0.9545075825)
(-0.9050764135 0.5374067952 -2.609687199)
(-0.2146498911 -0.06090652552 -0.8744951929)
(-0.2251625313 -0.0621322811 -0.8164741205)
(-0.07777331146 -0.08882696604 -0.8363633905)
(-0.04368010208 -0.03491793897 -0.7901003919)
(-0.8035778654 0.6846447034 -2.336660858)
(-0.5217329715 0.5952894574 -2.537925267)
(0.06079231209 0.09545516025 -1.825105314)
(-0.2496510447 -0.05309543816 -0.607645398)
(0.1228111183 0.09387378661 -1.547795934)
(-0.4409461685 0.4315788809 -2.576869513)
(-0.9409785739 0.4244098301 -2.282342751)
(-0.004857260174 -0.003486087667 -2.059764333)
(0.1199749934 0.3087766733 -0.5013201591)
(0.09781345511 0.02915969041 -2.063330734)
(0.0878499172 0.17247199 -0.4683888463)
(0.07195118882 0.1804388654 -0.4661711928)
(0.1274621418 0.0927397371 -1.508473709)
(0.09355384161 0.2022939206 -0.4565458549)
(0.09075535948 0.2151932301 -0.4540891621)
(0.1091350128 0.2392732202 -0.4442061822)
(0.125370816 0.2938468728 -0.4238613658)
(0.1123568245 0.3232410824 -0.425831563)
(0.1117424955 0.3428645019 -0.4205691997)
(-0.5249764449 1.006506671 -2.062324659)
(0.1067482228 0.356721168 -0.4173915103)
(0.1314173459 0.1337857203 -1.524008377)
(-0.07345586047 0.005195173173 -1.772507978)
(-0.1627015571 1.050692276 -2.055193365)
(-0.1101157127 -0.07193324655 -0.2697195533)
(-0.153115219 -0.01345554542 -0.2658819483)
(-0.1268724075 -0.0813344671 -0.2647035477)
(0.07342222885 0.8794380813 -3.2070532)
(-0.01018309693 0.1965246726 -0.2502578133)
(0.03479089785 0.1202635692 -1.554815381)
(-0.07389623612 0.2907869919 -0.2248523676)
(0.3105398371 0.3281157329 -0.218958751)
(-0.1017157616 0.2919278498 -0.1920489472)
(0.3111119219 0.2742913111 -0.1834597802)
(-0.1056918313 -0.120269908 -0.1782338074)
(0.163398779 0.002900829701 -1.801271455)
(-0.1224740983 0.261289772 -0.1409109181)
(-0.1211365937 -0.3116756376 -0.1230491275)
(0.1596788174 0.006121475853 -1.755851236)
(-0.1659451768 -0.05550065992 -0.1071098399)
(0.3285429509 0.2763226916 -0.1041300484)
(-0.2940396331 0.6027802788 -2.247920139)
(0.1563243635 0.007129294893 -1.717437076)
(-0.1375925778 0.1213122861 -1.943984262)
(0.2719744872 0.2431657333 -0.05909195546)
(-0.1872427016 0.5582962765 -2.264558875)
(-0.1936380628 0.08045724461 -2.009099339)
(-0.16274799 -0.1095814464 -0.0235728279)
(0.1136757166 -0.0489704114 -0.01767547238)
(0.2158867823 1.051028471 -1.842598949)
)


// ************************************************************************* //
