/*--------------------------------*- C++ -*----------------------------------*\
  =========                 |
  \\      /  F ield         | OpenFOAM: The Open Source CFD Toolbox
   \\    /   O peration     | Website:  https://openfoam.org
    \\  /    A nd           | Version:  8
     \\/     M anipulation  |
\*---------------------------------------------------------------------------*/
FoamFile
{
    version     2.0;
    format      ascii;
    class       scalarField;
    location    "1.3/lagrangian/reactingCloud1";
    object      age;
}
// * * * * * * * * * * * * * * * * * * * * * * * * * * * * * * * * * * * * * //


100
(
0.2259429517
0.2250528735
0.2238536776
0.2224505201
0.2204860996
0.2477197171
0.2492085906
0.2082786293
0.2140315751
0.1902265525
0.1882082836
0.184186137
0.1861449362
0.1625700754
0.1601778294
0.1574465996
0.1761879719
0.15183015
0.2478012893
0.1495008709
0.149062531
0.2141718908
0.1455444307
0.1446686834
0.1440684456
0.1435952912
0.1427589012
0.1640809604
0.1421787801
0.1681182372
0.1408796336
0.1369191812
0.1357556108
0.1341927771
0.1302930422
0.241915747
0.1137881278
0.1134152552
0.130065362
0.1031706064
0.3001575854
0.3001575854
0.1240596614
0.2507656424
0.1121497043
0.08878343336
0.1341927771
0.08600066903
0.156056063
0.09814569536
0.08070016555
0.07592971241
0.09623158642
0.08533810609
0.09024107182
0.07102674669
0.082157804
0.2276899409
0.06347352922
0.2499206822
0.178190428
0.08414549281
0.2466509044
0.07420704878
0.05257983109
0.2450474267
0.1581241167
0.1680054587
0.2390096156
0.2373508926
0.04517498488
0.2141718908
0.0637385544
0.1135009809
0.03879447818
0.03678168066
0.03609674179
0.1534995708
0.03555163271
0.2700433787
0.07433956136
0.03270888087
0.03088421189
0.0302759889
0.1812993914
0.0719543348
0.02831615926
0.02764002628
0.04819128534
0.05822010747
0.04616421813
0.05619218338
0.1160629001
0.03809549231
0.04014304785
0.2068449684
0.01092434288
0.0260792621
0.06612378096
0.1930015552
)


// ************************************************************************* //
