/*--------------------------------*- C++ -*----------------------------------*\
  =========                 |
  \\      /  F ield         | OpenFOAM: The Open Source CFD Toolbox
   \\    /   O peration     | Website:  https://openfoam.org
    \\  /    A nd           | Version:  8
     \\/     M anipulation  |
\*---------------------------------------------------------------------------*/
FoamFile
{
    version     2.0;
    format      ascii;
    class       Cloud<basicReactingMultiphaseParcel>;
    location    "1.3/lagrangian/reactingCloud1";
    object      positions;
}
// * * * * * * * * * * * * * * * * * * * * * * * * * * * * * * * * * * * * * //

100
(
(0.0440171999 0.13739043 0.04223142786 0.7763609422) 6970 20437 2
(0.1519212964 0.1298732047 0.4462128119 0.2719926869) 8885 26058 1
(0.4952934487 0.0004959458506 0.1465341942 0.3576764113) 8886 23246 2
(0.4172778701 0.1390442303 0.07885616593 0.3648217336) 8886 23246 2
(0.1999879091 0.3656631046 0.1885362539 0.2458127324) 8886 23246 2
(0.131824832 0.1956275474 0.5057132114 0.1668344092) 1260 825 2
(0.1634950559 0.4221555822 0.1377371404 0.2766122215) 279 831 1
(0.7515309498 0.02421850201 0.1583924383 0.06585810986) 6704 19686 2
(0.06744232808 0.1455001443 0.6148883737 0.1721691539) 8004 23388 1
(0.2555714775 0.490869619 0.2269887512 0.0265701524) 7125 20900 1
(0.4557572799 0.3783283051 0.08219082862 0.08372358637) 7400 21718 2
(0.7151550938 0.01286554934 0.02637856118 0.2456007957) 12159 35631 2
(0.193997651 0.1512485955 0.4132954788 0.2414582748) 8249 24106 2
(0.291960057 0.1304351773 0.3975186293 0.1800861364) 15445 45245 1
(0.1176732663 0.6263960419 0.214851238 0.04107945372) 16378 47979 1
(0.01163042893 0.1625431178 0.7460237151 0.07980273816) 16312 47783 2
(0.0638602284 0.1754823468 0.6773414239 0.08331600095) 13733 40231 1
(0.1407037359 0.240584642 0.01695596841 0.6017556537) 17178 50321 2
(0.03336740667 0.4231806755 0.3956265419 0.1478253759) 3032 8902 2
(0.4139393662 0.02452071362 0.1879741923 0.3735657279) 17212 50336 2
(0.02727643239 0.3606673299 0.3813289638 0.2307272739) 17214 50424 2
(0.2427066339 0.3711190364 0.114026835 0.2721474947) 2162 6253 1
(0.2564925803 0.6688814013 0.03435978978 0.04026622852) 18130 53110 1
(0.0864791008 0.6269520069 0.1204141258 0.1661547666) 18131 53116 2
(0.2942909875 0.2005588046 0.2101627665 0.2949874415) 18132 53034 2
(0.1873704619 0.3704847059 0.3986287246 0.0435161076) 18133 53119 2
(0.1843099489 0.09165090926 0.1413356578 0.582703484) 18133 53037 2
(6.231876154e-05 0.05261475983 0.9145498232 0.03277309821) 13833 40529 1
(0.1661463763 0.1116406895 0.1780751141 0.5441378201) 18134 53040 1
(0.1569214276 0.3094877654 0.4097349172 0.1238558899) 11034 32361 2
(0.02156526641 0.5341636172 0.01802905029 0.4262420661) 19050 53130 1
(0.2106375945 0.4074880328 0.272326551 0.1095478216) 19022 55729 1
(0.2145091956 0.3940613658 0.1314208494 0.2600085892) 19019 55720 1
(0.286214874 0.1907509696 0.459167642 0.06386651448) 19019 55720 1
(0.3904922846 0.4422602125 0.01403742683 0.1532100762) 19935 58406 2
(0.1221704966 0.03704832501 0.7223049339 0.1184762445) 3033 8904 1
(0.07614435044 0.1209711757 0.2144869803 0.5883974937) 20971 61699 2
(0.4366576463 0.1040983843 0.08283056646 0.3764134029) 55315 168209 1
(0.0989530583 0.2948336406 0.1062644904 0.4999488107) 23643 70544 1
(0.07638826123 0.1388326584 0.0967171671 0.6880619132) 21799 64323 3
(0.307684253 0.3844865027 0.2677467783 0.04008246604) 443 1318 1
(0.1742210178 0.1313859052 0.08451112576 0.6098819512) 1397 4019 2
(0.2626142245 0.1026569132 0.08118065498 0.5535482073) 59494 178556 1
(0.4741012073 0.0503464852 0.3560585667 0.1194937408) 1038 3051 2
(0.4079340334 0.1480661896 0.2133753033 0.2306244738) 28469 87152 1
(0.09612856463 0.3119278058 0.4670955111 0.1248481185) 57392 173379 1
(0.3842920803 0.01415460766 0.3948668558 0.2066864563) 19145 56005 2
(0.0265930177 0.02919936756 0.4617704291 0.4824371856) 57490 173644 1
(0.2956855414 0.4564025772 0.1686552564 0.07925662495) 14468 42382 2
(0.2996955311 0.2936873815 0.05980200736 0.3468150801) 32123 99463 1
(0.3971847801 0.5521004386 0.009210953805 0.04150382749) 57593 74043 2
(0.4317557064 0.2834697858 0.02573277233 0.2590417354) 58464 74045 1
(0.0923308062 0.3229532525 0.01860128785 0.5661146535) 62622 186170 2
(0.3748069076 0.2575040058 0.02398036901 0.3437087175) 57382 173359 2
(0.06207247818 0.03554929543 0.5840248383 0.3183533881) 64419 190619 2
(0.3053960786 0.05494155846 0.2109562088 0.4287061541) 58368 175828 2
(0.8406944604 0.05612781696 0.0312733737 0.07190434899) 66310 195345 1
(0.4378809629 0.1573844259 0.2801055977 0.1246290135) 5930 17391 1
(0.4198072977 0.0145153601 0.1038058815 0.4618714606) 59238 175811 1
(0.3155261008 0.1843191695 0.263805721 0.2363490087) 1037 2965 2
(0.6361382668 0.105724884 0.1545208768 0.1036159724) 13494 39526 2
(0.3268282047 0.03396753043 0.2416542898 0.3975499751) 64123 189907 1
(0.04567556536 0.6568425623 0.1455146829 0.1519671895) 2977 8734 1
(0.3203686671 0.1549387091 0.003229144463 0.5214634792) 65667 193737 2
(0.1454332593 0.2268461909 0.0606719704 0.5670485793) 59159 177714 1
(0.1430107417 0.08952437576 0.1168073998 0.6506574828) 2977 8739 2
(0.108223285 0.1688374306 0.04098188564 0.6819573988) 16234 47554 2
(0.02392400883 0.3028565663 0.1810401445 0.4921792804) 15330 44902 1
(0.08604919538 0.4297387859 0.4776257385 0.006586280207) 3986 11602 2
(0.2023598493 0.06747215283 0.7133289871 0.01683901077) 4930 11606 2
(0.2294993177 0.1610271609 0.1975797341 0.4118937873) 59896 177850 1
(0.2632758976 0.4570014178 0.1395800952 0.1401425893) 7857 23042 2
(0.001040911241 0.7352945206 0.1137773004 0.1498872677) 58966 177272 2
(0.2433727933 0.3865069543 0.08743247491 0.2826877775) 55398 61062 2
(0.2784227657 0.0976586817 0.2549439939 0.3689745587) 26421 80064 1
(0.4902987935 0.2519417652 0.2417645037 0.01599493753) 59847 179389 2
(0.4173375238 0.3351916158 0.1979298678 0.04954099255) 59826 179335 2
(0.2756757804 0.1307705667 0.2572520841 0.3363015687) 17139 50202 2
(0.1218653876 0.1546899485 0.1787385009 0.5447061631) 59826 179337 1
(0.2737438847 0.002824197987 0.5039632925 0.2194686248) 26 208055 1
(0.1497835014 0.1973425907 0.369672077 0.2832018309) 5986 17555 1
(0.05505811089 0.2011822598 0.04996197795 0.6937976513) 59826 179337 1
(0.1066272856 0.1909735282 0.1918975881 0.5105015981) 59830 179339 1
(0.2447173317 0.1300963077 0.2846736179 0.3405127428) 59830 179339 1
(0.5485578097 0.08020900595 0.02896284405 0.3422703403) 13512 36901 1
(0.3167948135 0.01074992678 0.5849058867 0.08754937301) 5986 17557 1
(0.3922159421 0.0663072622 0.2128116994 0.3286650963) 59830 179339 1
(0.1258934888 0.193427461 0.4651072245 0.2155718256) 59829 179347 1
(0.5328018631 0.1958634011 0.2668581561 0.004476579617) 39295 122415 2
(0.3805424385 0.2687358487 0.2851497714 0.06557194135) 36469 114136 1
(0.1659180866 0.5177075045 0.1486751989 0.1676992099) 40145 124904 1
(0.3953854638 0.08274892749 0.02822765096 0.4936379577) 36439 114051 2
(0.5352583098 0.187706836 0.1095018556 0.1675329986) 28542 84353 2
(0.2305844907 0.01078206047 0.1583364035 0.6002970454) 41098 127696 1
(0.1295144363 0.01475505236 0.7855831328 0.07014737855) 41046 124857 1
(0.4201974735 0.2161097356 0.1381474577 0.2255453332) 10695 28563 2
(0.200897405 0.6446829993 0.1241390537 0.03028054188) 54807 166883 1
(0.5514575108 0.1362185707 0.05082651827 0.2614974002) 43816 135550 2
(0.0983581235 0.4136384659 0.002716113594 0.485287297) 58387 205404 2
(0.08514617343 0.420817852 0.1149733486 0.3790626259) 11652 34135 1
)


// ************************************************************************* //
