/*--------------------------------*- C++ -*----------------------------------*\
  =========                 |
  \\      /  F ield         | OpenFOAM: The Open Source CFD Toolbox
   \\    /   O peration     | Website:  https://openfoam.org
    \\  /    A nd           | Version:  8
     \\/     M anipulation  |
\*---------------------------------------------------------------------------*/
FoamFile
{
    version     2.0;
    format      ascii;
    class       scalarField;
    location    "1.3/lagrangian/reactingCloud1";
    object      T;
}
// * * * * * * * * * * * * * * * * * * * * * * * * * * * * * * * * * * * * * //


100
(
299.9999964
299.9999964
299.9999965
299.9999965
299.9999965
299.9999983
299.9999977
300
299.9999934
300
300
300
300
299.9999888
299.9999892
299.9999865
300
299.9999955
299.9999935
299.9999975
299.9999977
300
299.9999976
299.9999974
299.9999973
299.9999971
299.9999968
300
299.9999966
300
299.9999961
299.9999942
299.9999936
299.999993
299.9999919
299.9999944
299.9999912
299.9999881
300
299.9999995
300
300
300
299.9999932
300
299.9999935
299.999998
299.9999929
300
300
299.9999922
299.9999925
300
299.9999933
300
299.9999929
300
299.9999939
299.9999944
299.9999936
300
300
299.9999936
300
299.9999967
299.9999933
299.9999908
299.9999918
299.9999937
299.9999933
299.999992
299.9999939
299.9999942
299.9999795
299.9999939
299.9999989
299.9999988
299.9999904
299.9999988
299.9999919
300
299.9999986
299.9999985
299.9999985
299.9999929
300
299.9999985
299.9999985
300
300
300
300
300
300
300
299.9999996
299.999997
300
299.9999954
299.9999935
)


// ************************************************************************* //
