/*--------------------------------*- C++ -*----------------------------------*\
  =========                 |
  \\      /  F ield         | OpenFOAM: The Open Source CFD Toolbox
   \\    /   O peration     | Website:  https://openfoam.org
    \\  /    A nd           | Version:  8
     \\/     M anipulation  |
\*---------------------------------------------------------------------------*/
FoamFile
{
    version     2.0;
    format      ascii;
    class       vectorField;
    location    "1.3/lagrangian/reactingCloud1";
    object      U;
}
// * * * * * * * * * * * * * * * * * * * * * * * * * * * * * * * * * * * * * //


100
(
(1.085193881 0.0338196086 -1.819370869)
(0.7973057729 0.04383870363 -1.595824575)
(0.8535376426 0.04201632748 -1.63788306)
(0.8889394947 0.03347318626 -1.66430587)
(0.9363242791 0.02139155696 -1.709258398)
(-0.4381342712 0.1508369834 -2.263001366)
(-0.3409003391 0.1338109029 -2.252292722)
(-0.09682639393 1.085756688 -3.027048727)
(-0.2430627458 0.05211636288 -1.842114976)
(-0.7881876799 0.4818592082 -3.179121814)
(-0.1564002876 0.8268726709 -3.152881266)
(-0.596014561 0.8500232322 -2.908302915)
(-0.6977832932 0.7096150962 -3.210882036)
(0.2626331566 0.0316066259 -1.562239906)
(0.2507844053 0.08278384276 -1.533919301)
(-0.1467566929 0.0010610978 -1.463621133)
(-0.9352901538 0.5025837231 -2.903000431)
(-0.8941072431 -0.04428049621 -1.477223451)
(0.02208912481 0.1002474145 -1.864112852)
(-0.6439961305 -0.03410822196 -1.460026158)
(-0.5457403278 -0.02878718511 -1.444067568)
(-0.9905008359 0.2606441537 -3.186373215)
(-0.5285304718 -0.03656349375 -1.424609045)
(-0.4069381333 -0.03805548743 -1.401735185)
(-0.3615614212 -0.03842806984 -1.38584631)
(-0.3318326868 -0.03837986354 -1.372715253)
(-0.2970800085 -0.0422673648 -1.367377819)
(-0.681625223 0.7483395475 -3.055574847)
(-0.2663196626 -0.04183347284 -1.348266134)
(-0.02060382025 0.6568931195 -3.20919641)
(-0.2004122151 -0.04569122717 -1.334286457)
(-0.1616313446 -0.05704730624 -1.304257928)
(-0.3352277742 -0.05753751866 -1.314136784)
(-0.3491993224 -0.06099575334 -1.30519478)
(-0.2880167227 -0.066125082 -1.260548898)
(0.04716815922 0.1521453576 -2.023257086)
(-0.2071772935 0.2076232971 -1.124501045)
(-0.1220753008 -0.2344700841 -1.078824708)
(-1.11108585 0.3616178763 -2.691327599)
(-0.7916734403 0.003957354719 -1.039041822)
(-0.4838633763 0.1107553137 -0.4192967222)
(-0.1254617421 0.003751906273 -0.3529551613)
(-0.8594818698 0.6775201809 -2.581188952)
(0.1273782692 0.07925872179 -2.212063626)
(-0.3503643489 1.055251692 -2.428094381)
(0.3256663125 0.002039574155 -0.8629275616)
(-0.4543570167 0.1547417263 -1.328686205)
(0.4090213926 0.1128553664 -0.871146324)
(-0.9429634196 0.2129502876 -3.115457952)
(-0.3674249734 1.211659728 -2.25929437)
(0.4691939473 0.1675338894 -0.818086315)
(0.4638581459 0.1770631865 -0.7789577027)
(-0.7441937969 0.7336925956 -2.519059622)
(-0.5847113439 -0.001311033484 -0.8301335409)
(-0.4820931141 1.006099365 -2.36199219)
(0.4100004919 0.1632401213 -0.727998618)
(-0.4654138347 1.093346167 -2.287940843)
(0.131359626 0.09649707918 -2.011774554)
(0.3257604856 0.1377893367 -0.6420711438)
(0.1409934249 0.07695315865 -2.244419332)
(-1.082521191 0.07411394566 -2.875685065)
(0.03929376123 0.7594638375 -2.569613201)
(0.1554000864 0.0523327881 -2.05588169)
(-0.5788380035 0.4813075718 -2.476410838)
(-0.05469854051 -0.009508623537 -0.5116287917)
(0.1181944504 0.05462901924 -2.003597478)
(0.1390543441 0.1434160309 -1.438879526)
(0.128715411 0.1300335235 -1.533088963)
(0.1465347175 0.07541460241 -2.102276604)
(0.1160022371 0.05082534727 -2.003391024)
(-0.1275542719 0.2525561963 -0.4510889457)
(0.1207101698 0.09212721363 -1.911048021)
(-0.6653540155 -0.1768242084 -0.5835307867)
(-0.1826601464 0.296753838 -1.109655279)
(0.01846122148 -0.1617871528 -0.3763544775)
(-0.5329377354 -0.02261660705 -0.3606859153)
(-1.244650117 -0.03623375592 -0.3787489912)
(0.1430491226 0.1269443106 -1.362291599)
(-1.315905698 -0.03627751666 -0.3807531158)
(0.04177893861 0.03170593433 -1.973806629)
(0.0343124793 0.7377293186 -3.369197546)
(-1.457968974 -0.037879293 -0.3314094802)
(-1.513240412 -0.03731110523 -0.3124010276)
(-1.510760593 -0.03627062053 -0.3126899471)
(0.1063350076 0.1049581052 -1.685237031)
(0.02236744897 0.7547486107 -3.614342004)
(-1.625042939 -0.0371788689 -0.2864138832)
(-1.725752816 -0.03552046347 -0.2884749351)
(-0.08623227976 0.9100565666 -2.16206049)
(-0.1263114404 0.427488936 -2.48091394)
(-1.07410879 0.4703712487 -1.956478951)
(0.03699938106 0.2987241057 -2.486639361)
(0.1796056251 1.163621601 -2.410986837)
(-0.06644990029 0.9955376678 -2.042203811)
(-0.6878633142 0.4528735815 -2.167384074)
(-0.3221968806 0.1612285157 -1.679781184)
(-0.5838291937 -0.113553139 -0.1062407036)
(0.2023880548 1.237158038 -1.765137253)
(-0.1328668966 0.0447046416 -0.6450888552)
(0.1061956684 0.06015500398 -1.762091471)
)


// ************************************************************************* //
