/*--------------------------------*- C++ -*----------------------------------*\
  =========                 |
  \\      /  F ield         | OpenFOAM: The Open Source CFD Toolbox
   \\    /   O peration     | Website:  https://openfoam.org
    \\  /    A nd           | Version:  8
     \\/     M anipulation  |
\*---------------------------------------------------------------------------*/
FoamFile
{
    version     2.0;
    format      ascii;
    class       volScalarField;
    location    "1.3";
    object      alphat;
}
// * * * * * * * * * * * * * * * * * * * * * * * * * * * * * * * * * * * * * //

dimensions      [1 -1 -1 0 0 0 0];

internalField   nonuniform List<scalar> 
67410
(
0.0001054286279
0.0001272829566
0.0001403100798
0.000153933162
0.0001674331243
0.0001793056016
0.0001888754152
0.000196166002
0.0002014906725
0.0002052058472
0.0002076286465
0.000209034022
0.0002096948722
0.0002099596933
0.000210351732
0.0002116250793
0.0002146636758
0.000220157648
0.0002282080396
0.0002381959399
0.0002490568856
0.0002596910275
0.0002692231528
0.0002769730603
0.0002822601576
0.0002841213878
0.0001099250777
0.0001356325096
0.0001495071109
0.0001635585693
0.0001779203498
0.0001913374223
0.0002029982684
0.0002127217582
0.0002206801955
0.0002271644796
0.0002324601972
0.0002367886031
0.0002403136559
0.0002432252904
0.0002458741078
0.0002488738273
0.0002530480701
0.0002591457403
0.0002674473777
0.0002775976148
0.0002888430851
0.0003004085756
0.0003116426548
0.0003218717916
0.0003301016965
0.0003348451093
0.0001111722134
0.0001391004297
0.0001544844417
0.0001696232262
0.0001848610204
0.0001991808544
0.0002119559455
0.0002231001461
0.0002328341691
0.0002414603985
0.0002492023575
0.0002561282597
0.0002621872324
0.0002673424208
0.0002717479385
0.0002758605859
0.0002803950599
0.0002860744359
0.0002932711453
0.000301834208
0.0003112965703
0.0003212388176
0.0003314431828
0.0003416843073
0.000350960083
0.0003579799383
0.0001117894797
0.0001410973964
0.000157978054
0.0001742854708
0.0001903429172
0.0002054317847
0.0002192309142
0.0002318385334
0.0002435260396
0.0002545024185
0.0002647815632
0.0002741879213
0.0002824577047
0.0002893916714
0.0002950591124
0.0002998552065
0.0003044332619
0.000309492493
0.0003154448523
0.0003222013919
0.0003293433607
0.0003365773808
0.0003441197344
0.0003526542936
0.0003608643697
0.0003670529986
0.0001120224199
0.0001424490141
0.0001607816972
0.0001782266519
0.0001951367751
0.0002111757744
0.0002263195663
0.0002407525504
0.0002546295212
0.0002679214054
0.0002804196724
0.0002918195387
0.0003017619486
0.0003099446181
0.0003164640916
0.0003217494972
0.0003264072759
0.0003311542563
0.0003364299098
0.0003420824505
0.0003475349105
0.0003523127258
0.0003563101488
0.0003597299365
0.0003629394361
0.0003658561884
0.0001115784291
0.0001432283961
0.0001629844262
0.0001815740693
0.0001995516124
0.0002169062525
0.0002337302873
0.0002500940981
0.0002659247691
0.0002810278853
0.0002951951991
0.0003082544883
0.0003196964262
0.0003289721652
0.0003362726622
0.0003420303241
0.0003468629527
0.000351408104
0.0003559988444
0.000360444968
0.0003641949811
0.0003666978199
0.0003675455038
0.0003664379331
0.0003635216242
0.0003604525479
0.000109752745
0.0001431084857
0.0001644233348
0.0001843390071
0.0002036755256
0.0002225633061
0.0002410116014
0.0002589051619
0.0002760606684
0.000292364256
0.0003078957592
0.0003217239544
0.0003332829666
0.0003427356226
0.000350333133
0.0003564256769
0.0003614869653
0.0003660005307
0.0003702182954
0.0003739881973
0.0003768470159
0.0003782508792
0.0003776028485
0.000374007178
0.0003662966441
0.0003558645886
0.0001063094213
0.0001418727405
0.0001648885304
0.0001863131221
0.0002070984031
0.0002273364812
0.0002469177804
0.0002656631331
0.0002834665907
0.000300459773
0.0003163840251
0.0003300090667
0.0003414906705
0.0003510677213
0.0003589633306
0.0003654581346
0.000370911097
0.0003756654664
0.0003798741009
0.0003833859267
0.0003858162278
0.0003867011558
0.0003854653513
0.0003810204716
0.0003711483064
0.0003550923396
0.0001030795934
0.0001395732712
0.0001641451134
0.0001870398675
0.0002090177857
0.0002300821591
0.0002501377
0.000269104143
0.0002870317541
0.0003042317841
0.0003199363364
0.0003334078621
0.0003449315351
0.0003547563023
0.000363091823
0.0003701717386
0.0003762526466
0.0003815333627
0.0003860429497
0.0003895914788
0.0003918392739
0.0003923997131
0.000390780631
0.000385955426
0.0003754913037
0.0003574834975
0.0001026660321
0.0001370783638
0.0001623552155
0.0001863118364
0.000208911382
0.0002300549563
0.0002499085294
0.0002685746962
0.000286182014
0.0003031003518
0.0003187115378
0.0003322747408
0.0003440797603
0.0003543962569
0.0003634405942
0.0003714022169
0.0003784223443
0.0003845368428
0.0003896324301
0.0003934596086
0.0003956992627
0.0003960108159
0.0003939438753
0.0003885257669
0.0003775364527
0.0003597548462
0.0001051039898
0.0001359018356
0.0001608935835
0.0001855953169
0.0002079656515
0.0002277947147
0.0002464081564
0.0002642443931
0.0002811276433
0.0002972878867
0.0003129061143
0.000326869941
0.0003393222936
0.0003505388386
0.0003607286683
0.0003699986682
0.0003783308857
0.0003855748829
0.0003914785674
0.0003957454497
0.0003980766692
0.0003981487714
0.0003954851348
0.0003890761759
0.00037706287
0.0003597959032
0.0001090787528
0.0001380106799
0.0001644941575
0.0001913041038
0.0002121194049
0.0002269404351
0.0002413331068
0.0002573947184
0.0002732508488
0.0002884153218
0.0003033600264
0.0003179504586
0.0003315551503
0.0003442744108
0.0003562077578
0.000367278137
0.0003772479557
0.0003857869478
0.0003925565311
0.0003972618689
0.0003996315843
0.0003993108551
0.0003957034708
0.0003877254039
0.0003740462225
0.0003577150904
0.0001150385358
0.0001482828899
0.0001826251823
0.0002140382699
0.0002319938735
0.0002362375231
0.0002388981416
0.0002503157941
0.0002650351103
0.0002793060362
0.0002934738166
0.0003082940566
0.0003234672734
0.0003381907147
0.000352256098
0.0003652959009
0.0003768585465
0.0003865253459
0.0003939748329
0.0003989626879
0.000401203916
0.0004001580531
0.0003948504973
0.0003843031005
0.0003685904744
0.0003543186006
0.0001260650277
0.000173058289
0.0002182258585
0.0002528284515
0.00026903586
0.0002637525112
0.0002464927353
0.0002453601684
0.0002588825706
0.0002730038528
0.0002871761328
0.0003023199415
0.0003189202954
0.0003353615309
0.0003510761884
0.0003654686235
0.0003780060648
0.0003883150332
0.0003961707305
0.0004013863371
0.0004035843088
0.0004017823876
0.0003939055402
0.0003789792146
0.0003614683333
0.0003507575418
0.0001434284792
0.0002078970943
0.0002590007624
0.0002937525095
0.0003116098517
0.0003055177911
0.000270921131
0.0002442187698
0.0002545939706
0.0002691038953
0.0002838332806
0.000299727427
0.0003173083031
0.0003347445652
0.0003513030436
0.0003662931451
0.0003792219009
0.000389836179
0.000398038442
0.0004037205566
0.0004064664035
0.0004049322776
0.0003955546558
0.0003744410553
0.0003547810255
0.000347241486
0.0001600042074
0.0002371927447
0.0002917826218
0.0003275855262
0.0003520247589
0.0003519627003
0.0003117559453
0.0002503096198
0.0002514135206
0.00026572855
0.0002807280806
0.0002969256028
0.000314979988
0.0003330374841
0.0003501844878
0.0003655751544
0.0003787594449
0.0003896402992
0.0003982718185
0.0004046598813
0.0004084810258
0.0004085148414
0.0004013185269
0.0003793840755
0.0003540465313
0.000349281213
0.0001618766261
0.0002436400199
0.0003071076141
0.0003491516513
0.0003817891821
0.0003926137643
0.0003617265904
0.0002686909102
0.0002496634268
0.0002622829599
0.0002768834586
0.0002924429946
0.0003101652602
0.0003285687996
0.0003464656483
0.0003624975837
0.0003760027957
0.0003871458009
0.0003962167785
0.0004033156233
0.0004081557391
0.0004095861995
0.0004047383432
0.0003881490859
0.0003681207394
0.0003710402212
0.0001453892438
0.0002018048072
0.0002764206986
0.0003370245232
0.0003739511664
0.0003920244458
0.0003745438239
0.0002971280349
0.0002494769187
0.0002591557222
0.0002728564031
0.0002866595488
0.0003021422431
0.0003189894945
0.0003364984519
0.0003529192744
0.0003674207289
0.0003795471743
0.0003894346051
0.0003972443366
0.0004027127525
0.0004048200707
0.0004021532483
0.0003959976242
0.0003976798851
0.0004020796178
0.0001507866556
0.0001642605232
0.0001801185972
0.0002372534197
0.0002959040673
0.0003020179767
0.0002667045867
0.0002382053681
0.0002444833995
0.0002578744519
0.0002705830063
0.0002832927661
0.0002960772732
0.0003085718449
0.000322748397
0.0003385775181
0.0003537778789
0.0003667591608
0.0003773429495
0.0003858525016
0.0003923494169
0.0003970089633
0.0004011586892
0.0004074757784
0.0004164217171
0.000418219146
0.0001659190419
0.0001786635098
0.000176143692
0.0001788075384
0.0002142153329
0.0002430253598
0.0002229456701
0.0002186484762
0.0002363771022
0.0002525313202
0.0002667462362
0.0002783883377
0.0002920672338
0.0003014127761
0.0003097402867
0.0003205087342
0.0003342273081
0.0003476972469
0.0003590226198
0.0003683544424
0.0003765273856
0.0003849477724
0.0003952247722
0.0004068740444
0.0004160765944
0.0004172186701
0.0001822846088
0.0001960279639
0.0001924121613
0.0001812701348
0.0001720999121
0.0001721538819
0.0001816451563
0.0002025918642
0.0002296957189
0.0002564631083
0.0002776287647
0.00027361683
0.0002783592084
0.0002878305347
0.0002934406275
0.0002989080908
0.0003088264905
0.0003213162651
0.0003328403895
0.0003428960213
0.0003529441051
0.0003650528838
0.0003799019726
0.0003941345886
0.0004032414245
0.0004041089852
0.0001966655516
0.0002119247452
0.0002086948012
0.0001983894093
0.0001859975461
0.000176887169
0.0001766544613
0.0001990972563
0.0002421222423
0.0002888384192
0.0003273010556
0.0003078844769
0.000266372724
0.0002715170144
0.000275899689
0.0002790973722
0.0002855950228
0.0002947635525
0.0003041145978
0.0003132860771
0.0003235880856
0.0003367277674
0.0003539023273
0.0003704127566
0.0003798014079
0.0003799680346
0.0002075178517
0.0002251956404
0.00022304014
0.0002135690585
0.0002003247614
0.0001911144229
0.0001937287172
0.0002195908106
0.0002685897029
0.0003299423543
0.0003812514284
0.0003691905091
0.0002772953968
0.0002557954974
0.0002579724096
0.0002599620103
0.0002639002308
0.0002696991619
0.0002758898881
0.0002823745657
0.0002904007594
0.0003020043824
0.0003202749735
0.0003366845737
0.0003465503193
0.0003452320705
0.0002147248532
0.0002355854326
0.0002355389251
0.0002269494974
0.0002131776438
0.0002061727527
0.0002104371857
0.000220258862
0.0002269316094
0.0002166745613
0.0002628561248
0.0002623346355
0.0002393056184
0.0002390431444
0.0002401051619
0.000242064344
0.0002454811724
0.0002508223269
0.0002571530005
0.0002633789276
0.0002689729868
0.0002728406447
0.000278526908
0.0002956926574
0.000308425267
0.0003046314554
0.0002182490329
0.0002423057343
0.0002444913533
0.0002366527171
0.0002235239353
0.0002232651951
0.000237603709
0.0002545968125
0.0002633217959
0.0002484558713
0.0002060132468
0.0001998909666
0.000210708562
0.0002204391101
0.0002277722826
0.0002386595153
0.0002524640766
0.0002669181733
0.0002804385082
0.0002946176711
0.0003066980258
0.0003077223303
0.0002539513319
0.0002463715867
0.0002588516627
0.000217031087
0.0002431820745
0.0002467026056
0.0002402729286
0.0002317933992
0.0002418031445
0.0002633324971
0.0002821682667
0.0002911197585
0.0002806845626
0.0002285576508
0.000174709036
0.0001827495074
0.0002073300348
0.0002280777189
0.0002490656412
0.0002698620058
0.0002901141453
0.0003088017671
0.0003267189474
0.0003414673342
0.0003417995547
0.0002718339116
0.0002310652541
0.000212308819
0.0002096359885
0.0002388874172
0.0002463023518
0.0002434675649
0.0002378212831
0.000256653838
0.0002822140758
0.0003035992548
0.0003139737218
0.0003039334312
0.0002528216444
0.0002016343706
0.0001708034271
0.0001996729599
0.000225137555
0.000247460795
0.0002683897182
0.0002865994098
0.000300528199
0.0003089544863
0.000309448873
0.0002945761333
0.0002515955376
0.0002178615692
0.0001997515635
0.0002047947763
0.0002466327514
0.0002697583212
0.000271988383
0.0002405992521
0.0002517892604
0.000278122819
0.0003063494396
0.0003198911443
0.0003100858756
0.0002444156643
0.0001928404654
0.000162196036
0.0001807950515
0.0002048761329
0.0002269280238
0.0002459029644
0.0002613396891
0.0002713934752
0.0002740134696
0.0002664809789
0.000244962616
0.0002110059496
0.0002258019111
0.0002150280794
0.0002341826081
0.0002976199336
0.0003389338189
0.0003472865714
0.0002752933131
0.0002338230073
0.0002130105482
0.0002364867574
0.0002737335063
0.0002761921209
0.0002047501116
0.000167315699
0.0001662314449
0.0001754875768
0.0001877485602
0.000201821415
0.0002156958734
0.000226384934
0.0002309874094
0.0002277680561
0.0002179780518
0.0002079488704
0.0002086811312
0.000227753257
0.0002599811459
0.0002910058286
0.000294390075
0.0003759231557
0.0004238644468
0.0004292612355
0.0003592856983
0.000299876422
0.0002420895191
0.0002070966662
0.0002146006095
0.0002000815692
0.0001782439116
0.0001794324313
0.0001849162085
0.0001888591943
0.0001913352517
0.0001932050605
0.0001951804183
0.000197387773
0.0001991939763
0.0002008559555
0.0002055345381
0.0002172366637
0.0002374975186
0.0002661351181
0.000301132865
0.000337742417
0.0001039214496
0.000128882451
0.0001416651258
0.0001551662558
0.0001697333726
0.0001840535577
0.0001970122469
0.0002079718566
0.0002167148331
0.0002233141629
0.0002280079835
0.0002311011485
0.0002329197618
0.000233825774
0.0002342778714
0.0002349006009
0.0002364945825
0.000239914328
0.0002458031301
0.0002543042927
0.0002649417223
0.0002767519179
0.0002884073059
0.0002984371069
0.0003053352455
0.0003076213736
0.0001125860327
0.0002365648287
0.0002647444797
0.0002859412079
0.0003205754899
0.0003711991168
0.0004312108336
0.0004913180426
0.0005447040833
0.0005885622625
0.0006230090186
0.0006493180993
0.0006687615198
0.0006823885713
0.0006914935744
0.000698304248
0.0007064398012
0.0007207904849
0.0007466408332
0.0007881454484
0.0008467631819
0.0009198304317
0.0009991780415
0.00107278679
0.001128945241
0.001158690942
0.0001154227177
0.0002763995323
0.0003187591783
0.0003486610183
0.0003958564984
0.0004638384116
0.0005433679053
0.0006222947517
0.0006929817691
0.0007534025768
0.0008046150926
0.0008480102826
0.0008841222602
0.0009130146831
0.0009354706157
0.0009540969098
0.000973713378
0.001000687036
0.001041243215
0.001099318362
0.001174766863
0.001262607034
0.00135235799
0.001429443418
0.00148434411
0.001500341407
0.0001153438813
0.0002897062623
0.0003438471322
0.0003849769672
0.0004431914033
0.0005212533717
0.0006095877427
0.0006977608857
0.000780962612
0.0008590706198
0.0009328990719
0.001001419635
0.001062295157
0.001113890854
0.001155933753
0.001190717158
0.001223317868
0.001259996474
0.001305735851
0.001362416767
0.001428363383
0.001498670061
0.00156269893
0.001603944871
0.001634822751
0.001645739741
0.0001141596422
0.0002883551451
0.0003506834852
0.0004028672587
0.000470312152
0.0005542446569
0.0006475810432
0.0007446418032
0.000844223166
0.0009462825163
0.001047575293
0.001141814221
0.001224351459
0.001295617868
0.001355010567
0.001403515018
0.001445375485
0.001484360854
0.001523421102
0.001563944645
0.001605740427
0.001647624846
0.001686350074
0.001716943145
0.001735768592
0.001737555818
0.0001122529812
0.0002779499058
0.0003446921698
0.000405411767
0.0004796066504
0.0005680119026
0.0006678420284
0.0007781796907
0.0008989846649
0.001025374815
0.00114553512
0.001245987598
0.001327419353
0.001403223245
0.001470274233
0.001528177622
0.001577423641
0.001619182195
0.001655154976
0.001687316997
0.001717346682
0.001745913857
0.00177218507
0.001793821421
0.001806918248
0.001805386074
0.0001092042376
0.0002626288027
0.0003303925911
0.0003966110074
0.0004758003068
0.0005697404325
0.0006796404466
0.0008068504046
0.0009477341944
0.001087702734
0.001202728664
0.001299294446
0.001389291157
0.001470810303
0.001543378075
0.001606448026
0.001659691403
0.001703322625
0.001738375069
0.001766711154
0.001790519828
0.00181150517
0.001830401478
0.001846986308
0.001859514243
0.001861801294
0.0001048666101
0.0002448032454
0.0003115127412
0.00038077445
0.0004641222666
0.0005649873347
0.0006867723429
0.0008297972995
0.0009838455268
0.001123397489
0.001230730418
0.001331915482
0.001424964893
0.001509945325
0.001586414364
0.001653499582
0.001710321404
0.00175644074
0.001792317607
0.001819517505
0.001840352394
0.001857114122
0.001871598184
0.001885239616
0.001898789244
0.001907651467
0.000100890899
0.0002266812797
0.0002911896109
0.0003612447092
0.0004473789647
0.0005544399306
0.0006861591304
0.0008399183733
0.0009998198302
0.001134656058
0.001243212453
0.001345484995
0.001440226204
0.001527899137
0.001607982464
0.001679219801
0.001740157844
0.001789750071
0.001827961018
0.001856073851
0.001876406432
0.001891585653
0.001904081512
0.001916312817
0.001930491125
0.00194336435
9.944329245e-05
0.0002119705649
0.0002721455934
0.000339543678
0.0004252106416
0.0005348823751
0.0006716151969
0.0008303243385
0.000993359571
0.001130525218
0.001240649379
0.001343583542
0.001439683354
0.00153002855
0.001614050404
0.001690017579
0.001755834378
0.001809885927
0.001851763378
0.001882564088
0.001904575848
0.001920564247
0.001933387248
0.001945900326
0.001960540765
0.001973530755
0.0001009144013
0.000204012662
0.0002566661017
0.0003172272039
0.0003980072701
0.0005046715136
0.0006397835346
0.0007982185242
0.0009633661056
0.001110871311
0.001225002392
0.00132948485
0.001427127197
0.001520336996
0.001608633311
0.001689750402
0.001760934891
0.001820119506
0.001866721851
0.001901811837
0.001927639657
0.001946881388
0.001962440307
0.001977040261
0.00199236836
0.002002555999
0.0001038690767
0.0002017597246
0.0002463024199
0.0002990224481
0.0003723177684
0.0004686059289
0.0005933119313
0.0007463355108
0.0009102968984
0.001065249407
0.00119530048
0.001304394961
0.001404120194
0.001500275513
0.001592856564
0.00167910449
0.001755684819
0.001820269677
0.0018723566
0.001913203065
0.001945092551
0.001970431566
0.001991677676
0.002010415995
0.002026414297
0.00203035241
0.0001069749331
0.0001997312746
0.0002421882112
0.0002946569519
0.000362402314
0.0004388685055
0.0005406801696
0.0006833502551
0.0008447541583
0.001002358248
0.001145034359
0.0012660787
0.001368668599
0.001467752453
0.001564485737
0.001655686362
0.001737507278
0.001807516183
0.001865510332
0.001913187296
0.00195312495
0.001987647073
0.002018338012
0.002043846174
0.002059749081
0.002053418217
0.0001108815557
0.0001957354107
0.0002472957196
0.0003177067009
0.0003869927552
0.0004337942153
0.0004973470787
0.0006188573365
0.0007765924442
0.0009355195862
0.001082340496
0.001212491053
0.00131778993
0.001419971229
0.001521153104
0.001617519339
0.001704611639
0.001779915681
0.001843632311
0.001898085991
0.001946512538
0.001991869176
0.002035258933
0.002070882535
0.002085696381
0.002066649956
0.0001169449692
0.0001924643415
0.0002622503999
0.0003701856693
0.0004505951274
0.0004821658828
0.0004977637101
0.00056680186
0.0007097857898
0.0008689664046
0.001017386513
0.001148480988
0.001254818352
0.001360286058
0.001466319997
0.00156798492
0.001660115607
0.001740106694
0.001808528321
0.001868250674
0.001923084925
0.001976761514
0.002031323488
0.002079230973
0.00209454863
0.002065197254
0.0001238354025
0.0001949517975
0.0002773591987
0.0004231969092
0.0005602980828
0.0006210048413
0.0005941053501
0.0005565579452
0.0006499289677
0.0008024904665
0.0009502540586
0.001080239191
0.001187394391
0.001296281632
0.001406805716
0.001512911693
0.001609015038
0.001692499058
0.001764127757
0.001826970797
0.001884884156
0.001941513341
0.001999227315
0.002053228756
0.002073373428
0.002038913805
0.0001266329979
0.000192155374
0.0002622889404
0.000447431834
0.0006568439025
0.0007639395216
0.0007304042301
0.0006036169565
0.000598263449
0.0007354907343
0.0008809751049
0.001009760898
0.001119881877
0.001232684055
0.001346771008
0.001455561315
0.001553927642
0.001639502586
0.001713014619
0.001777417171
0.001836392446
0.001892981791
0.001948165451
0.001995959191
0.002008458107
0.001967325588
0.0001263202188
0.0001893894928
0.0002122896599
0.0003469881154
0.0005745301798
0.0007063925968
0.0006897548387
0.0005754687748
0.000523607433
0.0006556443906
0.0008033467508
0.0009331083664
0.001051242786
0.001169959091
0.001287908201
0.001397974769
0.001496301318
0.001581601654
0.001654818661
0.001718076933
0.001775030483
0.001827534836
0.001873145626
0.001900648593
0.001889153595
0.001848411014
0.0001323174504
0.0001954070845
0.0001963675618
0.0002205177637
0.0003394766107
0.0004716568072
0.0004808212697
0.0004440193379
0.0004837854278
0.0005968700778
0.0007221740901
0.0008434212164
0.0009728545128
0.001097118384
0.001218957789
0.001328079927
0.001422287531
0.001503226682
0.001572691239
0.001633307297
0.001686481296
0.001731586515
0.001763264036
0.001771863474
0.001750570773
0.001717965918
0.0001425247813
0.0002068258291
0.0002139349109
0.0002024492031
0.0002149411581
0.0002537166354
0.0002843363525
0.0003138344176
0.0003788036895
0.0004833834104
0.0006016536136
0.00072663388
0.0008724059267
0.0009985783756
0.001119581366
0.00122597565
0.001317825503
0.001395086762
0.001460438723
0.001515408347
0.00156102572
0.00159667752
0.001618482228
0.001619946727
0.001600382938
0.001576402792
0.000155677047
0.0002262333827
0.0002451169386
0.0002278821031
0.0002123931931
0.0002074155411
0.0002147251558
0.0002382152236
0.0002856483478
0.0003738898316
0.0004989049832
0.0006182272504
0.0007746256396
0.0008870085887
0.0009980278349
0.001093123334
0.001174371725
0.001243482373
0.001302304655
0.001349562615
0.001386663637
0.001416032484
0.001436948268
0.001439908856
0.001423623999
0.001405105365
0.0001700024696
0.0002654548821
0.0002961406454
0.0002813512612
0.0002556593494
0.0002299913036
0.0002076037412
0.0002059400328
0.0002483618198
0.0003741946743
0.0005242607471
0.0005954529748
0.0006686851445
0.0007545123419
0.0008275250684
0.000878380514
0.000928013191
0.0009832960835
0.001035667298
0.001074353121
0.001103649975
0.001143215939
0.001202516497
0.001219695633
0.001208366551
0.00119214567
0.0001833454975
0.0003258979581
0.000372225169
0.0003640030533
0.0003305027724
0.0002883486552
0.0002460940616
0.0002169505746
0.000223617318
0.0003778240639
0.0005108202997
0.0005505802176
0.0005433899018
0.0005628787339
0.0006266086334
0.0006740665791
0.0007205924806
0.0007671622639
0.0008062633929
0.0008266202311
0.0008281899408
0.0008252405468
0.0008627029798
0.000908652368
0.0009485374364
0.0009291826153
0.0001941524552
0.0003944332516
0.0004522649649
0.0004559888828
0.0004250007515
0.0003716311291
0.0003161415008
0.0002561801664
0.0002166398385
0.0002192646439
0.0003194931023
0.0003623008799
0.000366892567
0.0004219326636
0.0004709524056
0.0005270195151
0.0005879075906
0.0006520637897
0.000706722873
0.0007341223647
0.0007231433373
0.0006668687171
0.0005985797563
0.0005702440508
0.0005808661166
0.0005453998523
0.000200011114
0.0004406174634
0.0005152919005
0.0005309010528
0.0005078052275
0.0004526455578
0.0003980248137
0.000321419977
0.0002608042545
0.0002137403881
0.0001954499752
0.0002259189222
0.0002687807182
0.0003326212029
0.0004109079692
0.0005189873761
0.0006512272291
0.0007898591792
0.0009081930959
0.0009657277724
0.0009513746541
0.0008226258212
0.0005659858905
0.0003922259921
0.0003574227124
0.000197909828
0.0004409976326
0.0005340470474
0.0005651513423
0.0005523721933
0.0005167420807
0.0004553132125
0.0003683709494
0.0003252161086
0.0002612666893
0.000197560555
0.0001921974454
0.0002336934642
0.0003186461354
0.0004515868781
0.0006279463133
0.0007963108621
0.0009257739088
0.001032734952
0.001095103353
0.001081379191
0.0009495695724
0.0006929229343
0.0004117944904
0.0003467707405
0.0001876204407
0.0003869058847
0.0004864764716
0.0005272942258
0.0005311297222
0.0005315043409
0.0004762296455
0.0004112651109
0.0003905856945
0.0003323001763
0.0002406606566
0.0002035309139
0.000221789125
0.0002997035627
0.0004350220291
0.0006125622763
0.0007656951435
0.0008954173022
0.000994592561
0.00104038317
0.001005233743
0.0008809159581
0.0007746108852
0.0005223089868
0.0003445245124
0.0001770051212
0.0003181154225
0.0004084172491
0.0004525890995
0.0004677367359
0.0004969448693
0.0004685918013
0.0004144536081
0.0004060498913
0.00036273977
0.0002634007443
0.0002110928567
0.000222071209
0.0002704632095
0.0003552773804
0.0004788966961
0.0006222635738
0.0007388082002
0.0008242342098
0.0008582856526
0.0008163295353
0.0007056018798
0.0006488229626
0.001043837266
0.0004754969456
0.0001846744375
0.0003017144928
0.0004189005249
0.0004877280735
0.0004786910011
0.0004522183266
0.0004444173744
0.0003944785092
0.000360500981
0.0003297105293
0.0002539085794
0.0002315163252
0.0002454251026
0.000266065167
0.0002966645695
0.0003443716935
0.0004149683931
0.0004997280141
0.000573441426
0.0006084430922
0.0006029463259
0.0005842075093
0.0005804997655
0.0005630496886
0.000663541553
0.0008829935828
0.0002173501679
0.0003938741508
0.0006210975762
0.0007308163367
0.0006792799583
0.0005611073548
0.000482255878
0.0003963296488
0.0003354627244
0.0002872218265
0.0002767045993
0.0002862191307
0.0002963315993
0.0003020478035
0.0003052496644
0.0003123205647
0.0003285103921
0.0003551581408
0.0003878312787
0.0004195074397
0.0004516044669
0.000500898338
0.0005904435385
0.0007445661893
0.0009849997183
0.001313655159
0.0001079958049
0.0001341162758
0.0001464103754
0.0001590920369
0.0001736858163
0.0001892140049
0.000204190825
0.0002175683345
0.0002287871803
0.0002377098782
0.0002444820938
0.0002493883207
0.000252757668
0.0002549362178
0.0002563144453
0.0002573833996
0.0002587783632
0.0002612564597
0.00026556232
0.0002721888972
0.0002811286588
0.0002917494962
0.0003028441536
0.0003128438438
0.0003201340015
0.0003232965306
0.0001202542181
0.0003024373117
0.0003494695367
0.0003787182611
0.0004239850248
0.0004928037643
0.0005800888106
0.0006725833522
0.0007590257272
0.0008338008845
0.000895963228
0.0009468000746
0.0009880161502
0.001021078549
0.001047474399
0.001069389504
0.001090323945
0.001115231023
0.00114982004
0.001198898976
0.001264110962
0.001341773817
0.00142295248
0.001495952658
0.001550620328
0.001580985141
0.0001240281856
0.0003717755096
0.0004477457826
0.0004941878196
0.0005566853576
0.0006512805856
0.0007707249663
0.0008976806724
0.001017951917
0.001124946602
0.001217714709
0.00129748678
0.001365530193
0.00142279306
0.001470645851
0.001511790515
0.001550775277
0.001593665471
0.001646547711
0.001713220565
0.00179324458
0.001881329537
0.001967687961
0.002040497064
0.002091058477
0.002116674192
0.0001233272223
0.0003933388442
0.0004904819184
0.0005545526881
0.0006336707218
0.0007439349026
0.0008780401152
0.001019881886
0.001157540231
0.001286045878
0.001404309878
0.001511809385
0.001607623594
0.00169119346
0.001763247184
0.001825983177
0.001883255825
0.001939916933
0.001999971761
0.002064858071
0.002133324155
0.002201272344
0.002262038262
0.002307051497
0.002329712474
0.002336843517
0.0001207312103
0.0003885585438
0.0004975539551
0.0005780237184
0.0006726408386
0.0007940426777
0.0009361354353
0.001087332263
0.001239732365
0.00138921547
0.001532092137
0.001663980089
0.001781543773
0.001883998548
0.001973484613
0.002051584672
0.002120579864
0.002183072324
0.002239967651
0.002292001607
0.002340085171
0.002382569343
0.002417069208
0.002440504335
0.002450583784
0.002447207562
0.0001172743646
0.000369127772
0.0004816257544
0.0005746703767
0.0006817513698
0.00081152288
0.000960411242
0.001121954804
0.001290674408
0.001460034705
0.001620956436
0.001765048046
0.001889250656
0.001994317985
0.002089746178
0.002174404554
0.002248289232
0.002311898116
0.002366041895
0.002411588742
0.002449387851
0.002479856239
0.002502732867
0.002516954964
0.002521029157
0.002513798678
0.0001130269858
0.0003422138903
0.0004527026186
0.0005531330285
0.0006687337343
0.0008054481968
0.0009625655799
0.001136778585
0.001321579835
0.001504933937
0.001671963041
0.001812723829
0.001934471293
0.002045245365
0.002145101438
0.002233774814
0.002310649271
0.002375346114
0.002428179134
0.002470259728
0.002503247004
0.002528826984
0.002548114433
0.002561153677
0.002566750102
0.002562696412
0.0001081240398
0.0003129369313
0.0004173547901
0.0005202715291
0.0006407344372
0.0007836059226
0.0009500832735
0.001137075017
0.001334406051
0.001524344797
0.001689029232
0.001824808495
0.001948485939
0.002061277274
0.002163768495
0.0022552863
0.002334550096
0.002400564035
0.002453353438
0.002494265564
0.002525697299
0.002550366161
0.002570455237
0.00258675524
0.002598133747
0.002601157603
0.0001039545699
0.0002841136397
0.0003804911165
0.0004816518511
0.0006032720778
0.000750487466
0.0009250681294
0.001122096944
0.001327265515
0.001519089577
0.00167948182
0.001815254647
0.001939264794
0.002053612775
0.002158771835
0.002253454959
0.002335640976
0.002403783396
0.002457758981
0.002499223661
0.002531230379
0.00255728297
0.002580325319
0.002601502543
0.002619430461
0.00262946628
0.0001021246862
0.0002608667941
0.000347714568
0.0004421890909
0.0005599014536
0.0007074106523
0.0008862530277
0.001089265097
0.001299088093
0.001492564739
0.001652266323
0.00178797452
0.001912341991
0.002028656014
0.002137250327
0.002236069946
0.002322219272
0.002393606152
0.002450069856
0.002493643779
0.002527921665
0.002556852671
0.002583793916
0.002609795422
0.002632867568
0.002647224586
0.0001032495767
0.0002490669891
0.0003248437773
0.0004069679649
0.0005144270193
0.0006559473829
0.000832956974
0.001037536819
0.001250150091
0.001446597098
0.001609818588
0.001745702213
0.001870695363
0.001989534958
0.002102510038
0.002206609546
0.002297874771
0.002373656941
0.00243388494
0.002481054727
0.002519164752
0.002552160374
0.002583437173
0.002613447805
0.002639306659
0.002654321191
0.0001061160016
0.0002483537468
0.0003139365333
0.0003806379064
0.0004729613021
0.000600504305
0.0007666799456
0.0009679292323
0.00118190808
0.00138167033
0.001551426851
0.001688789237
0.001814774608
0.001936738347
0.002055095468
0.002165610113
0.002263034558
0.002344179593
0.002409236491
0.002461294971
0.002504676133
0.002542878763
0.002578895776
0.002611941758
0.002637920929
0.00264968965
0.0001089462117
0.0002492696835
0.0003097284295
0.0003654945723
0.0004431080122
0.0005484192694
0.0006900037513
0.0008821443159
0.00109812642
0.001299872553
0.001473615598