/*--------------------------------*- C++ -*----------------------------------*\
  =========                 |
  \\      /  F ield         | OpenFOAM: The Open Source CFD Toolbox
   \\    /   O peration     | Website:  https://openfoam.org
    \\  /    A nd           | Version:  8
     \\/     M anipulation  |
\*---------------------------------------------------------------------------*/
FoamFile
{
    version     2.0;
    format      ascii;
    class       volScalarField;
    location    "1.3";
    object      epsilon;
}
// * * * * * * * * * * * * * * * * * * * * * * * * * * * * * * * * * * * * * //

dimensions      [0 2 -3 0 0 0 0];

internalField   nonuniform List<scalar> 
67410
(
0.05059315048
0.06703462534
0.08971485829
0.1184200557
0.15243365
0.1873311814
0.219093821
0.2455818544
0.2662235831
0.2812850686
0.2913929639
0.2973402254
0.300119275
0.3011610853
0.3027012601
0.3080337651
0.3212827358
0.3464367735
0.3858466261
0.4389634525
0.5021864159
0.5698147036
0.6354350845
0.6923951288
0.7331788222
0.7479531497
0.05190747825
0.0711567458
0.09524242298
0.1246499361
0.1604680548
0.1996573581
0.2385404196
0.2745912555
0.3066567355
0.3345313936
0.3584774867
0.3788401045
0.395940768
0.4103985041
0.4238025842
0.4393215932
0.4616311557
0.4957432894
0.5450482597
0.6098401636
0.6875436152
0.7741526511
0.8650023268
0.9536846335
1.029301317
1.074605012
0.05369220619
0.07675836273
0.1050907799
0.1390671532
0.1800232832
0.225246132
0.2715081188
0.3166931158
0.3600137597
0.401523497
0.4413658026
0.4791569055
0.5139291715
0.5447880329
0.5720800699
0.5983325523
0.628224754
0.6671794155
0.7190034651
0.7842650062
0.8609883179
0.9469279546
1.040948511
1.14139252
1.237876726
1.31416485
0.05458927264
0.08010585226
0.1123810619
0.1508593882
0.1965223225
0.2471008216
0.3003546655
0.3552266807
0.4116945369
0.4698963556
0.5291740095
0.5876479794
0.6425194371
0.6910818377
0.7325071889
0.7687714975
0.8044665347
0.8452570748
0.8951504827
0.9543093237
1.019786666
1.089236311
1.16504358
1.255029143
1.345848489
1.417083725
0.05492318286
0.08241367611
0.1184540108
0.1613110328
0.2117155956
0.2683367274
0.33030439
0.3976077981
0.4704180228
0.54807246
0.6285523174
0.7085731882
0.7837366777
0.8494484965
0.9042984734
0.9503392508
0.9921336579
1.036009469
1.086439602
1.142483904
1.198529019
1.249294125
1.293069505
1.331599059
1.368697829
1.403070964
0.05425756251
0.0837491869
0.1233603419
0.1705334215
0.2263464223
0.2906726758
0.363692987
0.4456008851
0.5358154452
0.6326121304
0.7334807398
0.8355145771
0.9324529563
1.016317055
1.08567154
1.142428495
1.191481165
1.238910887
1.288236849
1.337425813
1.3800205
1.409096382
1.419312562
1.406989081
1.374349189
1.340895654
0.0516155189
0.08350904951
0.1266187564
0.178390138
0.2405976112
0.3139355538
0.398714735
0.4944334221
0.5996358859
0.7126147901
0.8327178841
0.9505669369
1.057223421
1.150103623
1.228491067
1.293747137
1.34959007
1.400733834
1.449805532
1.494788559
1.529649195
1.54710685
1.539381734
1.495903213
1.405271443
1.289015049
0.04688435456
0.08133464296
0.1276584142
0.1841369325
0.2528939621
0.3345743089
0.4288410478
0.5343716271
0.6495121321
0.773853231
0.9040877021
1.02654202
1.137911252
1.236683223
1.322187137
1.395284532
1.458603456
1.515349152
1.566900089
1.610948742
1.642042692
1.653613464
1.637962295
1.581900227
1.461662339
1.279615813
0.04273135594
0.0774216139
0.1259113568
0.1862799093
0.2600073293
0.3469288511
0.4460075314
0.555658353
0.674655193
0.8037756822
0.9353346564
1.059029269
1.173077802
1.276471217
1.368703726
1.450323702
1.52288045
1.587826392
1.644828624
1.690765939
1.72043051
1.728041337
1.706878708
1.644381801
1.513708447
1.305323679
0.04222805799
0.07333489028
0.1218171324
0.1841047502
0.2596530307
0.3469215175
0.4449595093
0.5526004961
0.6689216955
0.795107041
0.9248757765
1.048472447
1.164564427
1.272685176
1.372688379
1.464829939
1.549364782
1.625625789
1.691161904
1.741651838
1.771779705
1.776167527
1.7486252
1.677412877
1.538557566
1.330316786
0.04532353074
0.07145338969
0.1184907325
0.1818954736
0.2561185922
0.3368752101
0.4266522251
0.5264298223
0.6342058799
0.7503068986
0.8752485533
0.9980542051
1.116747862
1.23130344
1.341829374
1.447885702
1.547860183
1.638504153
1.715052345
1.771949275
1.803669386
1.804835966
1.768953778
1.684244789
1.532467172
1.330451368
0.05065265019
0.07473326577
0.1263305781
0.1988351728
0.2715905991
0.3331116788
0.4008942557
0.4865924292
0.5823556542
0.68498749
0.7972870259
0.9181259503
1.041214406
1.1657498
1.291232998
1.415430989
1.533958085
1.6406924
1.72884351
1.792018628
1.82448903
1.820238618
1.77137803
1.66617375
1.495283974
1.306848691
0.05931057759
0.09231537509
0.1722719456
0.2781297878
0.3553634941
0.3759587821
0.3889583874
0.4475479513
0.5313151091
0.6218840699
0.7214115916
0.8362971041
0.9659879567
1.104084636
1.247830254
1.391888077
1.528669518
1.649768964
1.747388011
1.81487107
1.845751986
1.831321171
1.759185062
1.62147036
1.429653461
1.269103635
0.077762807
0.1462231677
0.294056701
0.4594442948
0.5555508511
0.5244083487
0.4277242384
0.4214996285
0.4951359836
0.5806106341
0.6756988261
0.7881803287
0.9252866708
1.076104312
1.234968835
1.393691507
1.542685147
1.672920234
1.776936374
1.848269122
1.878783598
1.853403051
1.745683845
1.553547372
1.346848466
1.230351995
0.1142330724
0.253918275
0.4935422165
0.7232257471
0.8657300485
0.8174661489
0.5695546103
0.4157241299
0.4709603746
0.5561150853
0.6523968728
0.7680851441
0.9113639268
1.070286462
1.2375787
1.403458319
1.557996309
1.693057852
1.802576481
1.88105958
1.919626282
1.897507325
1.767336863
1.496791752
1.271896613
1.192761571
0.1588009832
0.3786812109
0.7084044594
1.005684169
1.250925273
1.252439044
0.8707140645
0.4480519574
0.4536308814
0.5355978123
0.631411329
0.7469632525
0.8916784432
1.054244441
1.226084196
1.395545378
1.552635506
1.690824476
1.806045207
1.894506776
1.948622532
1.948725781
1.84640484
1.557062094
1.263176376
1.213436135
0.1650208625
0.4118271166
0.8282939002
1.220321221
1.598731995
1.741555412
1.363824137
0.5557856129
0.4444616939
0.5152741501
0.6061579731
0.7139994499
0.8516806586
1.012549963
1.187587209
1.360772276
1.519181134
1.658749963
1.778418719
1.875887668
1.9442104
1.964418872
1.894552872
1.668486919
1.420876007
1.456852707
0.1198453429
0.2339517911
0.6041256294
1.09842601
1.502816336
1.735092953
1.516443286
0.7562562231
0.4439349152
0.4973496807
0.5805490745
0.6730186838
0.7877012776
0.926684168
1.087943957
1.255559178
1.417339272
1.562873301
1.68859692
1.792449938
1.867505113
1.896614616
1.858314946
1.772658967
1.795995725
1.858032241
0.1337199939
0.1262140668
0.1661996297
0.3808500533
0.7430496038
0.7927337988
0.5453459116
0.3866519614
0.4177650209
0.4904417394
0.566687294
0.6503452188
0.7420870474
0.8395373508
0.9600967613
1.108356682
1.264895242
1.409868774
1.535906149
1.64242088
1.726822055
1.78887823
1.845405081
1.93464668
2.066730659
2.094576701
0.1780873633
0.1625087503
0.1557839649
0.1627809157
0.2807212264
0.4120440216
0.3179592829
0.2986158011
0.3774617353
0.4602019087
0.5425621978
0.6175546285
0.7131709548
0.7835644592
0.8495137427
0.9403593565
1.066195536
1.200798649
1.32245183
1.428563025
1.525936407
1.630855837
1.76574162
1.928010612
2.06340581
2.081156341
0.2363821754
0.2148489253
0.203333662
0.169991698
0.1454221896
0.1455956119
0.1709251579
0.2367612468
0.344597191
0.4792854512
0.6095069152
0.5855543893
0.6176401726
0.6828721703
0.7230233616
0.7631647596
0.8409652066
0.9472599171
1.053227859
1.151868393
1.256361982
1.390677678
1.568547402
1.753103895
1.878794564
1.891396201
0.2973219645
0.2718011855
0.2596805951
0.2230722299
0.1837876271
0.1579234388
0.1565337648
0.222595895
0.4003942246
0.6827746083
0.9999457066
0.8339285449
0.5410115756
0.5731274892
0.6009674195
0.6213968495
0.6652494233
0.7313091572
0.8032633925
0.8782638389
0.9679370239
1.09111792
1.267288127
1.454769199
1.569602884
1.571989656
0.3498023389
0.3264845954
0.3172650061
0.2785319739
0.2297537894
0.1990993073
0.2062430423
0.2990573042
0.5495321611
1.025540849
1.594395335
1.447435952
0.6118570981
0.4790423883
0.4911948717
0.5022502603
0.5250914824
0.5603764126
0.5998574074
0.6431083276
0.6994295462
0.7866709054
0.939004057
1.092058477
1.192006729
1.178824145
0.3879642212
0.3741534717
0.3739627149
0.334515252
0.2769714942
0.2499125912
0.2651298054
0.3038162506
0.33263727
0.289005302
0.5168557601
0.5160262103
0.3917798787
0.3907797576
0.3958980714
0.4054870365
0.4227664959
0.4509292072
0.4859737669
0.5221297823
0.5561438684
0.5806491936
0.6170966701
0.7390572819
0.8397578598
0.809616914
0.4077913728
0.4075245504
0.4187148324
0.3796638901
0.3192900465
0.3170721455
0.3818502854
0.4705295
0.5217242318
0.4384925648
0.2483569564
0.2274963589
0.2671553241
0.3060969853
0.3375822877
0.3882485124
0.4596417752
0.5433576279
0.6302314296
0.7307517428
0.8251368668
0.8353972279
0.4684063557
0.42738869
0.4960450752
0.4013874849
0.4122759936
0.4304417906
0.3974056345
0.3558650867
0.4030021406
0.5211120995
0.6424788955
0.7068631455
0.6338850062
0.3412695285
0.1518777198
0.1739764422
0.2542909765
0.3386576417
0.4412386035
0.5614982395
0.6978738048
0.8418126808
0.9977324217
1.141297169
1.148959536
0.5767374983
0.3539722546
0.273442071
0.361516095
0.3899811492
0.4266460264
0.4118661185
0.3841741431
0.483075766
0.6434852539
0.8025547389
0.8889281489
0.8065622035
0.4636806969
0.234636281
0.1420165841
0.227168687
0.3259093013
0.4330406462
0.5527600601
0.6734515859
0.7769012139
0.8446498668
0.8498479743
0.7346698479
0.4538282819
0.2958137122
0.2280060506
0.3337364805
0.4245033075
0.5544422677
0.5697747927
0.3967541519
0.457082524
0.6176915294
0.8264397286
0.941908138
0.8587208075
0.4202325368
0.206140585
0.1215971065
0.1684439588
0.2454479226
0.3338888484
0.425195873
0.5108179883
0.5725572564
0.589983002
0.5435798688
0.4229293876
0.2678752151
0.3098262891
0.2826710641
0.4923537947
0.7399980623
1.096929346
1.185998704
0.5892561222
0.3619567447
0.2752913213
0.3781960124
0.5882934916
0.6070550457
0.2469068264
0.133590045
0.1307279094
0.1539091885
0.1887225972
0.2347847713
0.2870441037
0.3323144932
0.353399027
0.3390418861
0.2969513944
0.2570184896
0.2586258001
0.3355812219
0.499074669
0.7005480578
0.9799213344
1.49697459
2.15542568
2.248053972
1.314230132
0.7629945565
0.4020504529
0.2529534702
0.2832381417
0.2296075013
0.1615821713
0.1644421681
0.1799534114
0.1917424452
0.1994631385
0.2055099721
0.2120596084
0.2195020759
0.22560574
0.2310132935
0.2469736441
0.2911249702
0.3802852736
0.5355987193
0.7764332909
1.096552124
0.05870926915
0.0790312188
0.1048649015
0.1376933011
0.1802020167
0.229852885
0.2820705581
0.3320256948
0.3759043904
0.4114933978
0.4381317105
0.4562842067
0.4671486125
0.4725503477
0.4751382469
0.4786852412
0.4881621167
0.5092766548
0.5473889784
0.6060166191
0.6853842453
0.7815509789
0.8850894188
0.9813428564
1.05155838
1.07569729
0.07464607955
0.08261284287
0.09962303388
0.1209629317
0.1504106267
0.1852549718
0.2215530642
0.2556952975
0.285841661
0.3117148832
0.3338639857
0.353065525
0.3700677162
0.3856687045
0.4010382608
0.4180886291
0.4396131046
0.4689295426
0.5089771733
0.5611943244
0.62472692
0.6962594258
0.7700122948
0.83766615
0.8882743196
0.909597832
0.0804248286
0.0882102438
0.1085393886
0.1327748564
0.1649511559
0.2021367075
0.2401608153
0.2757673696
0.307958596
0.3372734475
0.3647011388
0.3910012702
0.416505942
0.4412903656
0.4655924755
0.4902565769
0.5169666181
0.5480842863
0.5859980254
0.6322313449
0.6867869756
0.7478210058
0.8114983737
0.871567072
0.917783445
0.9403159526
0.08025380704
0.09013774934
0.1140772125
0.1421434787
0.1776503846
0.2173759852
0.257552302
0.2957806029
0.3317207643
0.3660556761
0.3995216121
0.4324983307
0.4648940002
0.4962123754
0.5260419875
0.5543849868
0.5818943304
0.6100082619
0.640734507
0.6760303352
0.7170767878
0.7636560176
0.8140723888
0.864971551
0.9046263946
0.9216070479
0.07779503245
0.09054646702
0.1184187741
0.1507809501
0.1899746966
0.2328345121
0.27643876
0.3190868366
0.3603720409
0.4003605022
0.4393005273
0.4775248043
0.5149160257
0.5504368431
0.5834982966
0.6137845897
0.6412669677
0.6669040484
0.6924678325
0.7200281813
0.7511066314
0.7858267001
0.8224325801
0.8567536566
0.8814660004
0.8869533969
0.07394216592
0.08987976575
0.1215784805
0.1579295802
0.2008006101
0.2474966556
0.2957654328
0.3438269901
0.3904076898
0.4349008813
0.4779358384
0.5210204658
0.5637748516
0.6032375587
0.6392457628
0.671216648
0.6990490389
0.7233154893
0.7452664528
0.7665385249
0.7885249706
0.8115873766
0.8343766655
0.8533803201
0.8626666678
0.8545942349
0.06805271815
0.08804686165
0.1228867671
0.1626852411
0.2092769653
0.2604657536
0.3139219133
0.3669489924
0.4173287832
0.4648418515
0.5123238071
0.5588656996
0.6029750542
0.6447346539
0.6831558363
0.7172975154
0.746569709
0.7709173007
0.790944201
0.8078586527
0.8230026774
0.8370078223
0.8489841801
0.8560225786
0.8529476282
0.8331976809
0.06023688197
0.08440996508
0.1215312713
0.1643354826
0.2147182144
0.2704730839
0.3284595075
0.3848404113
0.4371195603
0.4867171892
0.5364894926
0.5831963875
0.6288379369
0.672746168
0.7137873628
0.750739054
0.7825426515
0.8084838196
0.8284468024
0.8430978256
0.8536162393
0.8608901293
0.8646282141
0.8627308885
0.8507941078
0.8227971609
0.05364106618
0.07880988923
0.1173687959
0.1628033759
0.2166911309
0.2762023825
0.337214019
0.3951728833
0.447894398
0.498303218
0.5474480369
0.5946958061
0.6418082897
0.688076812
0.7322701504
0.7729318259
0.8085452829
0.8377218432
0.8595819549
0.874138404
0.8822251961
0.8848144445
0.8821672039
0.8731425677
0.8544564934
0.8207411305
0.05138006754
0.07292717174
0.1113834317
0.1586006866
0.2150316385
0.2766896693
0.3389393026
0.3971738918
0.4493696495
0.4988119693
0.5473553099
0.5951767395
0.6439643315
0.693044668
0.7411371203
0.7865344705
0.8272311188
0.8611816393
0.8867987749
0.9034405796
0.9114417339
0.9115531034
0.9042570532
0.8891596793
0.8642967301
0.8254080054
0.05371727037
0.06915152198
0.1056320393
0.1537815274
0.2114272758
0.2726213843
0.3337611986
0.3914068393
0.442919578
0.4905013175
0.5387174222
0.587217024
0.6380258164
0.6904951712
0.7432349556
0.7941957186
0.8408637693
0.8806634479
0.9115282072
0.9323386315
0.94287662
0.943279027
0.9335908932
0.9134486773
0.8821008077
0.8367784079
0.05859650238
0.06841395894
0.1037724187
0.1546414309
0.2129274128
0.2689225815
0.3239705812
0.3795091512
0.4308885748
0.4778315069
0.5245015301
0.5735131015
0.6265382272
0.6827503115
0.7404482363
0.7971213778
0.8498161507
0.8957161619
0.9326961129
0.9595395459
0.9756077538
0.9800740497
0.9715395326
0.9481597793
0.9098730443
0.8558508933
0.06400344106
0.07152805218
0.1129284762
0.1743249541
0.2353058114
0.278460765
0.3166563332
0.364608698
0.4151673146
0.462056164
0.5076886809
0.5563765245
0.6112457577
0.6708983643
0.7330141376
0.7945302434
0.8522343497
0.9034797137
0.9466047392
0.9808184983
1.005472328
1.018838288
1.017083315
0.9942772101
0.9494223201
0.8845148652
0.07118698904
0.08352239462
0.1427721368
0.2275330893
0.3016281835
0.3268389052
0.3329363302
0.3557795824
0.3998801036
0.4454266799
0.4898525235
0.5376571658
0.5935819076
0.6557523536
0.7209644338
0.7855753019
0.8463844878
0.9013446118
0.9497093373
0.9915665763
1.026807416
1.053555422
1.065763627
1.050948451
1.002603442
0.9265405593
0.08335368111
0.1093025065
0.1955436248
0.3474742517
0.4816186553
0.4784132764
0.4246674028
0.376688419
0.3919962236
0.431215174
0.4728881725
0.519540004
0.5761185091
0.6398828768
0.7065774477
0.7720862325
0.8336454775
0.8902580213
0.9423845692
0.9911362126
1.037085503
1.078738349
1.109880623
1.113985332
1.071552292
0.9875627743
0.09892352873
0.1407441911
0.2698317813
0.5959452005
0.8356218184
0.8506076946
0.6864127787
0.475530584
0.4013029523
0.4216969876
0.458479167
0.5036100873
0.560856644
0.6255519344
0.6921836234
0.7563703917
0.8163882699
0.8727782345
0.9273774783
0.9822177356
1.03830134
1.094310931
1.144788668
1.175379177
1.155362998
1.070971595
0.1059576847
0.145781765
0.2956720342
0.7137177213
1.072061683
1.211195546
1.071263248
0.6833905418
0.428434635
0.4131846156
0.4446568442
0.4893344418
0.5480620816
0.6132445108
0.6784294995
0.7393774471
0.7962273503
0.85152815
0.9085781145
0.9702532874
1.037850751
1.109828551
1.180348346
1.235274344
1.236587746
1.157538097
0.105332523
0.113311188
0.2234577759
0.4826553563
0.9233555459
1.117410383
1.030391469
0.7127855025
0.4177782759
0.3891629273
0.4264525599
0.4756037603
0.537739081
0.6030265361
0.6661611111
0.723202029
0.7765530919
0.8306971334
0.8905518325
0.9594494422
1.038897375
1.12585105
1.210406929
1.271125861
1.270843835
1.210592919
0.1209950128
0.09587732335
0.1082749667
0.1953906956
0.3979735006
0.5709603987
0.5289962708
0.3787506727
0.3260141811
0.3615993004
0.4105289714
0.4641079405
0.5277694273
0.5889323865
0.6479789519
0.6987716198
0.7452640283
0.794625622
0.853603093
0.9260281137
1.010598483
1.100364593
1.181682559
1.234949553
1.240168146
1.203186901
0.1510631374
0.1149586076
0.1149146881
0.1150430031
0.1619081127
0.2330506469
0.2309313145
0.2209918571
0.2702859891
0.3341099866
0.3932174349
0.4516526958
0.5010293598
0.5526279758
0.6033146184
0.6454786519
0.686256653
0.7303629309
0.7852352571
0.8545392696
0.9358349987
1.020929697
1.097612124
1.151359263
1.168281387
1.148525376
0.1968138082
0.1417524747
0.1400997385
0.124191904
0.1109260346
0.1106909443
0.1252769503
0.1622882113
0.2321809372
0.3273091271
0.4464979198
0.530588147
0.4828220089
0.5024524443
0.5399078802
0.5735464712
0.6081438537
0.6457141502
0.6928730082
0.7538704627
0.8269019607
0.9048398091
0.9796580218
1.039560328
1.066034982
1.052686191
0.2565075646
0.1759830558
0.1708892371
0.1520935728
0.1315890664
0.1159630715
0.1111896028
0.1403432847
0.2538854488
0.5674731743
0.9273057685
0.9019366273
0.5134967928
0.4549968393
0.4691646473
0.4943695768
0.5247629012
0.5588527709
0.5991939678
0.6497001365
0.7103133391
0.77421046
0.8347187689
0.8937185583
0.9290047656
0.915298192
0.3221824164
0.2177837461
0.2094418732
0.1896042716
0.1651050136
0.1453611932
0.1386591268
0.1603585982
0.2929002512
0.9177064916
1.295383979
1.101316851
0.632872658
0.4225786955
0.4060522343
0.4195181846
0.4432383813
0.4718310719
0.5046980322
0.5424409771
0.5860064582
0.6303700812
0.6810886628
0.73281331
0.7564623101
0.734899668
0.3831220206
0.2634334477
0.2588554682
0.240349044
0.2112406658
0.1842010886
0.1671537863
0.1670906294
0.1879572316
0.2270737745
0.4344474828
0.4533135632
0.3159883089
0.3272735704
0.3324676859
0.3536790143
0.3785072409
0.4073928403
0.4377371802
0.4675851336
0.4921264572
0.5037801847
0.5105469507
0.5478386557
0.5768181321
0.5473809389
0.4195133689
0.2996795766
0.3024525145
0.2907160064
0.2638695612
0.2342459051
0.2214544738
0.2560705384
0.308018557
0.2646324529
0.1716842113
0.1875451961
0.2191213747
0.2547080767
0.2834108993
0.323899324
0.3696677881
0.4178856736
0.4671315225
0.5220467118
0.5673773996
0.5647370077
0.4383744613
0.3643810002
0.3675433913
0.4069555774
0.3063425832
0.3206435016
0.3204380261
0.300500431
0.2735436892
0.2904724343
0.4133383088
0.5156411885
0.4315322891
0.2365796708
0.1223385926
0.1419397671
0.1962285774
0.248541034
0.3075159011
0.3703667057
0.4390574054
0.5076812751
0.5749641924
0.629929545
0.6330024205
0.4585125275
0.3257501486
0.2493802712
0.346647842
0.2852172468
0.3165899395
0.3265347657
0.3067290708
0.2882553956
0.3640333491
0.5690533274
0.7053462153
0.6295732772
0.3764515343
0.1599926008
0.1193468749
0.1626080351
0.2121750411
0.2672418719
0.331722302
0.3966479991
0.4535980359
0.4935649414
0.498936416
0.4501306037
0.4164442621
0.3450068229
0.2040590046
0.2896022929
0.2729010306
0.3376796905
0.3500057529
0.3080365346
0.2708508877
0.3405550981
0.5532078358
0.730550301
0.6772169214
0.4046131314
0.1566580338
0.1088745642
0.1341593795
0.1737222814
0.217644104
0.2639412807
0.3113788634
0.3494425384
0.3668713466
0.349771306
0.3037531859
0.3498273428
0.9860920622
0.2637317342
0.3253484711
0.3508195728
0.4944678504
0.520001736
0.4166184389
0.3040229532
0.2481828294
0.3188778454
0.5181005603
0.5193137719
0.2978468878
0.1346064359
0.1182736411
0.1314118089
0.1514324205
0.1752367373
0.1999394719
0.2212682371
0.2356097447
0.2402574387
0.23259291
0.220202758
0.2340943477
0.2893362197
0.322241438
0.3761653523
0.5280990908
0.6068400243
0.9271231787
1.045034733
0.80450418
0.5202756327
0.2997057905
0.2214742435
0.2140251134
0.2028917152
0.1636028933
0.1491377788
0.1537476569
0.1616524898
0.1676714368
0.1721300536
0.1764024546
0.1812547771
0.1862073604
0.1919514866
0.2037117689
0.2312088558
0.2818904095
0.3602436262
0.4384193636
0.5530536216
0.06588687648
0.08907112649
0.1157920761
0.1484252134
0.1930343016
0.2496008378
0.3138416076
0.3799042045
0.442047403
0.4960937205
0.5399501531
0.5732806495
0.5969170008
0.6124811231
0.6223669067
0.6299775877
0.6399577724
0.6581098992
0.6907460401
0.7433807543
0.8188749765
0.9153354907
1.024180694
1.129618468
1.211072994
1.247802882
0.09095364944
0.08891113799
0.1034805886
0.1213051603
0.1475446906
0.180918128
0.2179799119
0.2545793469
0.287903529
0.3168767676
0.3416511688
0.3629553314
0.3816689659
0.3986931957
0.4150745583
0.4322719087
0.452383635
0.4781291289
0.5124298332
0.5576012349
0.6143716995
0.6809570515
0.7524015437
0.8202024715
0.8727704204
0.8975304422
0.09977276839
0.0931869475
0.1100376082
0.1298147658
0.1568833687
0.1900802327
0.2259073238
0.2604551282
0.2916924289
0.3195478455
0.34500459
0.3692141519
0.3929932019
0.4167221438
0.4405679628
0.4648932358
0.4906348448
0.5194718718
0.5536142662
0.5951722455
0.6452220619
0.7028112786
0.764159252
0.8222532588
0.8670825244
0.887504728
0.09807598113
0.09326182307
0.1129575101
0.1355875039
0.1647742197
0.1990463569
0.2350005109
0.2693012406
0.300657216
0.3295985552
0.3574564804
0.3854309001
0.4140514661
0.4430964184
0.4719028364
0.4999363432
0.5272444392
0.5547673528
0.5843298319
0.6181360109
0.6577628173
0.7031131171
0.7514908545
0.797236827
0.8320486044
0.84584253
0.09199483947
0.09125310666
0.1141164662
0.1401752845
0.1720775019
0.2079496739
0.2447138068
0.2797765136
0.3124455738
0.343545914
0.3744730691
0.4062811305
0.4391091743
0.4721624337
0.5040145061
0.5336660879
0.5607284936
0.5857548755
0.6103853147
0.6367221473
0.6664117639
0.6998203307
0.734989135
0.7672829483
0.7897632987
0.79479022
0.08429555307
0.0881139642
0.1143012975
0.1436595695
0.1781783417
0.2157995743
0.253912281
0.2905158879
0.3252222703
0.3589433496
0.3930825685
0.4285493193
0.4649950403
0.5012471508
0.5347144685
0.5646918906
0.590738714
0.6131962471
0.633301263
0.6529325384
0.6739090807
0.6970021374
0.7210531836
0.7425093544
0.755557865
0.7533819734
0.0754398159
0.08424792045
0.1132239531
0.1451742416
0.1818879882
0.2213874532
0.2613602769
0.3000034396
0.3369783546
0.3733102941
0.4105833792
0.4496397017
0.4884446318
0.5251768834
0.5589330049
0.5886443806
0.6137030145
0.6341732339
0.6509369368
0.6656263825
0.6801185706
0.695625699
0.7117738287
0.7259704312
0.73316268
0.726572279
0.06602571647
0.07932524159
0.1098657795
0.143595197
0.1822350812
0.2238513956
0.2660369761
0.3068197006
0.3458218201
0.3843021789
0.4240749941
0.464915397
0.5038082204
0.5408368459
0.5748325115
0.6046888642
0.6296387825
0.6494234275
0.6645170547
0.6762470897
0.6864783712
0.6967911246
0.7075237644
0.7169436344
0.7206437719
0.7116790258
0.058685908
0.07293672764
0.1038688391
0.138833998
0.1793261803
0.2232042608
0.2676461159
0.3103211695
0.3507905829
0.3905481918
0.4315545279
0.4719027529
0.5107904926
0.5482302513
0.5830843434
0.6141459565
0.6403820944
0.6611371806
0.6764574107
0.6873456533
0.6955665731
0.7028826753
0.7101068723
0.7160930597
0.7169382506
0.7056920696
0.0556617262
0.06649919354
0.09634484637
0.1318093135
0.173832809
0.2197655219
0.2662266269
0.3104209345
0.3516844802
0.391556919
0.4321937932
0.4717302276
0.5106599886
0.5491057298
0.5858731353
0.6194833586
0.64848681
0.6718054876
0.6891560385
0.7013201351
0.7099184356
0.7166190093
0.7223085989
0.7259003005
0.7236101961
0.708587484
0.05754396088
0.06238973197
0.0893508794
0.1242557164
0.1671093384
0.2143644074
0.2622006204
0.3073965472
0.348879284
0.3879679426
0.4271405676
0.4661812216
0.5055949435
0.5459093974
0.5857125316
0.6230229621
0.6558616863
0.6828438176
0.7036412826
0.7190786413
0.7306641652
0.7396213631
0.7463787658
0.7491121938
0.743505115
0.7226783169
0.06249556453
0.06123134824
0.08485581203
0.1191004704
0.1627312966
0.2104725938
0.2580127704
0.3024614483
0.3431549427
0.3809613657
0.418215522
0.4571647263
0.4976541859
0.5406272505
0.5841897172
0.6256371611
0.6624958506
0.6934074748
0.718478272
0.7389772552
0.7564244166
0.7712479065
0.7827657925
0.7872945574
0.7790086522
0.7506478581
0.06764940313
0.06166037438
0.08442993085
0.1215718192
0.1704145282
0.221355307
0.2655663224
0.3015397802
0.3364416984
0.3718627131
0.4075590251
0.446121984
0.488151438
0.5341507832
0.5813956473
0.6263453109
0.6663019992
0.7004709036
0.7299537551
0.7568890461
0.7830414118
0.8080306655
0.8292833073
0.8398770348
0.8310060487
0.7945371901
0.07238876688
0.06394990124
0.0914316585
0.1412308854
0.2142496863
0.2889885453
0.3282260428
0.3278120865
0.3352039812
0.3624740785
0.3958475286
0.434269435
0.4780689156
0.5268791839
0.5768376295
0.6236493483
0.6649065557
0.7009780927
0.7343804447
0.7683600412
0.8051840825
0.8443164146
0.8807477151
0.9032903148
0.8980063996
0.855145257
0.07809046937
0.07020724778
0.1098143203
0.1986654482
0.3524054074
0.506953805
0.5450827109
0.4430966187
0.3557896549
0.3567394964
0.3847825308
0.4232863847
0.4690737932
0.5201365629
0.5712620417
0.6177590285
0.6582199186
0.6946868711
0.7312202783
0.7720974979
0.8200781332
0.8746208431
0.9295457382
0.9699581827
0.974627893
0.9302586376
0.08553990716
0.08059555036
0.1433098946
0.3264553041
0.6567714475
0.9275816951
0.9723454922
0.7331407461
0.4238051881
0.3582187825
0.3754765323
0.4146549327
0.4631230476
0.5158536267
0.5663966242
0.6103819655
0.6482115755
0.6838846285
0.7227876937
0.7697787749
0.8276928332
0.8958928719
0.9680171362
1.028047617
1.04853376
1.009637823
0.09225392294
0.08570922059
0.1691490683
0.4537070507
0.9564221723
1.22545471
1.27649874
1.096221065
0.5373999955
0.3608574179
0.3647608875
0.4075710004
0.4606182045
0.5146076143
0.5629940394
0.6028219793
0.6370178735
0.6715122429
0.712620873
0.7652362246
0.831583817
0.910129931
0.9937846896
1.066198322
1.098064796
1.068436887
0.09945081561
0.08118364434
0.1411539487
0.3777647471
0.8438182026
1.126137223
1.174534765
1.028215643
0.5421064737
0.3336563195
0.3437757622
0.3983439662
0.4593202636
0.5143235118
0.5599021964
0.5953861153
0.6261903187
0.659673494
0.7028623001
0.7604222188
0.8331998021
0.9172285506
1.0025281
1.071226633
1.098775804
1.079151034
0.1117776971
0.08142987639
0.08501116345
0.1367812482
0.3586204532
0.6962477767
0.7751117273
0.5719838325
0.3114432253
0.2658161729
0.3128395928
0.3860347984
0.4543098928
0.5081646703
0.5505585849
0.5824934631
0.610633426
0.6425996716
0.6859079347
0.744976438
0.8188284159
0.9000783643
0.9757712542
1.029994193
1.049015563
1.039980425
0.1299943837
0.09453496075
0.09547658501
0.09077076749
0.1148083307
0.1883088088
0.2303421386
0.1996126732
0.1895164971
0.2229112782
0.2918083653
0.3819931972
0.4369746269
0.4854264183
0.5235544462
0.5528314455
0.5792504831
0.6084928814
0.6479512707
0.7025178657
0.7704556265
0.8432665779
0.9097358532
0.9575188806
0.9779518763
0.9771111666
0.1566716193
0.1126751305
0.119922646
0.1073946793
0.09239069322
0.08922027841
0.09869198966
0.1157532822
0.1519873292
0.2289081459
0.3849623563
0.5079228543
0.4347114073
0.450118147
0.4787795587
0.5037327877
0.5278418799
0.553713398
0.5864661072
0.6310612586
0.6878646369
0.7522640352
0.8165279954
0.8710176151
0.8950625427
0.8936558337
0.1968652208
0.1403620499
0.1567211042
0.14213004
0.1167458848
0.09679304233
0.08748563289
0.0968883141
0.1611287083
0.4095838468
0.8812153803
0.9856497936
0.5747941242
0.4144589395
0.4154726574
0.4355243683
0.4589962676
0.4851906536
0.5140903451
0.5489640927
0.5918263177
0.6418059286
0.7066829943
0.7510943617
0.7737959231
0.7651566441
0.2499595372
0.1823606809
0.2087477894
0.1928696408
0.1586625567
0.1272735653
0.1092256551
0.1064572866
0.1630773138
0.5529018993
1.165342416
1.246890145
0.8913730415
0.3951549685
0.3493200576
0.3683574852
0.3950641799
0.4245188902
0.4544298062
0.4835238847
0.5117626866
0.5367764196
0.5605784785
0.5945034838
0.6051343359
0.5781307179
0.3074757674
0.2351020291
0.2669409168
0.2496998547
0.2100229217
0.1702938111
0.1464251005
0.1378811375
0.1442188272
0.213168857
0.5559215921
0.8634427849
0.5003598902
0.3013633523
0.2885657252
0.3154185101
0.3515865074
0.3923131331
0.4315491578
0.464710667
0.4833505894
0.4798362286
0.4719288274
0.4336393383
0.4286032194
0.3948013341
0.348737177
0.2782688718
0.3117866572
0.2955942548
0.2552505015
0.2138995121
0.1994064762
0.2263958527
0.2580710381
0.1993140529
0.1441288036
0.1693423709
0.1856468365
0.2089429698
0.2479995823
0.2998148699
0.3588151983
0.4200102457
0.4819879461
0.5432792892
0.5912472632
0.5880046659
0.4597993359
0.3203988083
0.2869671438
0.348934306
0.2902978426
0.3319856586
0.3249045427
0.2885992436
0.251448924
0.2638745011
0.3676365622
0.4696142928
0.3808359654
0.2147962276
0.1046342659
0.1172917303
0.1621791555
0.216223465
0.2820940863
0.3532800584
0.424111811
0.492061953
0.5543335632
0.6010700652
0.6143212412
0.5834214641
0.3747740812
0.2790247091
0.3065622876
0.2693340159
0.3288747625
0.3401431527
0.3109786804
0.2824757721
0.3417514567
0.5377895342
0.6916887118
0.6351722885
0.4061007395
0.1404377676
0.1019888038
0.1350646494
0.1839191796
0.2473120812
0.319667513
0.3898640578
0.4516694024
0.5007901007
0.5290286078
0.5389853082
0.5689987483
0.6920400419
0.2281409913
0.2591331659
0.2425297883
0.3292059109
0.3606351335
0.3341045978
0.3076691863
0.4010272839
0.6406228443
0.7980175618
0.7519444054
0.5154001816
0.1647019254
0.1004466435
0.1192770708
0.1568615539
0.2069252133
0.2665146813
0.327237854
0.3791071323
0.4145573164
0.4251770831
0.4395635571
0.7531796847
1.138826825
0.487543877
0.2637299619
0.280491765
0.4430481338
0.4983929438
0.4329542812
0.3380658635
0.3587915438
0.5574077218
0.7521434027
0.7153507478
0.4225405487
0.1526859288
0.1105478201
0.1184806959
0.137884031
0.1653773695