/*--------------------------------*- C++ -*----------------------------------*\
  =========                 |
  \\      /  F ield         | OpenFOAM: The Open Source CFD Toolbox
   \\    /   O peration     | Website:  https://openfoam.org
    \\  /    A nd           | Version:  8
     \\/     M anipulation  |
\*---------------------------------------------------------------------------*/
FoamFile
{
    version     2.0;
    format      ascii;
    class       volScalarField;
    location    "1.3";
    object      htcConv;
}
// * * * * * * * * * * * * * * * * * * * * * * * * * * * * * * * * * * * * * //

dimensions      [1 0 -1 1 0 0 0];

internalField   uniform 0;

boundaryField
{
    walls
    {
        type            calculated;
        value           uniform 0;
    }
    region0_to_wallFilmRegion_wallFilmFace
    {
        type            convectiveHeatTransfer;
        L               1;
        value           nonuniform List<scalar> 
776
(
1.365617545
1.352287532
1.351002084
1.35452987
1.349472898
1.359709741
1.367672298
1.366353719
1.371424652
1.423609398
1.548824687
1.738298356
1.986204159
2.248430961
2.418551537
2.406544225
2.230202623
2.178658149
2.461562352
2.726685879
2.910433476
2.988885174
2.967508745
2.862412614
2.699177615
2.528724162
2.480090424
2.826336332
3.423097901
3.77952981
1.747732312
1.676293384
1.613419091
1.583935966
1.60553617
1.652725196
1.703210161
1.737504574
1.74772982
1.754089447
1.806144833
1.94685602
2.178904187
2.427121699
2.590532467
2.62000487
2.438867586
2.132706195
2.385371864
2.59364052
2.755696012
2.851146594
2.870747966
2.813157592
2.698204215
2.573476487
2.533087621
2.779888661
3.271639081
3.663688551
2.161171855
2.08019605
2.018167357
1.993430497
2.019315981
2.071179304
2.126839018
2.167467081
2.183687131
2.187581466
2.216577291
2.319776642
2.506489846
2.709969082
2.88926735
2.983854009
2.880495132
2.228983526
2.193868707
2.426612018
2.630606603
2.773649699
2.822221963
2.7781654
2.687926536
2.591991338
2.579535681
2.81729212
3.331221795
3.767169137
2.454796889
2.361098234
2.311820376
2.298706848
2.332682747
2.388174031
2.44827412
2.494559423
2.517108312
2.522908469
2.540034269
2.609199532
2.740558743
2.910770192
3.070305819
3.085254662
3.011631078
2.62529039
1.91908339
2.183582774
2.415886745
2.632767995
2.720982995
2.702021813
2.636191831
2.556662645
2.516225215
2.592273027
3.086137547
3.444363932
2.690506348
2.59515156
2.559823695
2.55897148
2.600392471
2.659650736
2.721873765
2.769450405
2.792562017
2.793881561
2.789632687
2.804827598
2.856458812
2.959766796
3.059377903
3.033987731
2.928698168
2.743971365
2.246719469
2.025340345
2.244401494
2.522643621
2.656665515
2.674025046
2.672104569
2.617757223
2.526258189
2.215155442
2.492701102
2.904960091
2.860925932
2.777751471
2.757795165
2.770245984
2.821071072
2.886110686
2.950483603
2.9975816
3.018629771
3.014440568
2.992749835
2.962155107
2.92655522
2.901208285
2.908372498
2.852646068
2.73079658
2.652693536
2.341822901
1.980891595
2.145685006
2.474916233
2.649196865
2.674248016
2.78508399
2.795934824
2.764558852
2.347210499
2.280297776
2.715425155
2.980273141
2.918199732
2.915114131
2.942460213
3.004118567
3.075218615
3.140367492
3.184778342
3.202319342
3.195390745
3.170712136
3.131021441
3.065736339
2.951994439
2.774727568
2.533512668
2.298755248
2.365957869
2.367768818
2.149837126
2.264229737
2.590597413
2.749848588
2.659659103
2.906869489
2.970927576
2.958990782
2.621191108
1.593647705
2.466350315
3.061829216
3.023938691
3.03904508
3.082437298
3.154842621
3.230128137
3.29282036
3.331274644
3.343148761
3.333761621
3.311453778
3.280179972
3.231430015
3.142353009
2.982105501
2.681826974
2.111945466
1.510750381
2.531071415
2.51555939
2.607740966
2.908051224
2.980757995
2.609842563
3.021763735
3.082912027
3.033365113
2.901355675
1.710023482
2.208067277
3.115852846
3.10130769
3.135276391
3.194650104
3.275966245
3.351740298
3.407964785
3.437403987
3.441764826
3.429487032
3.410074979
3.386969185
3.351315561
3.282408181
3.168677331
3.004846028
2.778855653
2.538547071
2.709717946
2.731138797
2.914245125
3.322413761
3.395903929
2.426495249
3.021821087
3.021690213
2.9439301
2.8821895
2.046099235
1.198367416
3.14879089
3.154716595
3.207378413
3.281455156
3.368570398
3.440894815
3.487258895
3.504988104
3.500384708
3.485610001
3.470971699
3.458066036
3.436734984
3.384864886
3.29146305
3.159349707
2.988004131
2.812756763
2.809313681
2.811114632
3.097369837
3.60041579
3.794583065
1.410188517
2.537660028
2.757469832
2.842976166
2.751127758
1.855043163
1.737091596
3.164378845
3.187028473
3.257529736
3.344236762
3.434054824
3.499958848
3.533404189
3.539811981
3.528999616
3.512103379
3.500084954
3.497117145
3.489608143
3.452636296
3.375727277
3.264640213
3.114926971
2.934704185
2.791652499
2.671281821
2.972496155
3.495749699
4.063510243
3.035278379
1.864506418
1.915263211
2.351146088
2.301235429
2.256786652
2.37242601
3.165122727
3.200411735
3.287566713
3.384857243
3.475357318
3.532919978
3.555482796
3.554063637
3.537985032
3.519524824
3.509570092
3.511746275
3.513862059
3.488348939
3.420728915
3.315478224
3.162982987
2.957718419
2.721414177
2.387400931
2.111182391
2.139601357
3.133729088
2.259015864
2.047060262
2.108315424
2.041478317
2.025252426
2.439983137
2.590108935
3.153458931
3.197131989
3.299861507
3.40644788
3.496946652
3.546121784
3.561221055
3.552679025
3.531777365
3.511637525
3.502948567
3.508217241
3.514220451
3.494162007
3.431965781
3.329470567
3.175762088
2.960212417
2.70488046
2.397073911
2.139838536
1.79338573
1.525353861
2.277769212
2.283454383
2.08778526
1.948284669
2.076513298
2.464524184
2.689750886
3.132326093
3.180030555
3.297740828
3.413207864
3.504182323
3.546915759
3.555424879
3.540142305
3.514099416
3.491130854
3.481588848
3.486746296
3.492702008
3.474065262
3.414669779
3.314821178
3.165676598
2.953253918
2.70041044
2.433134404
2.298133489
2.187782027
2.323207652
2.586894378
2.473951605
2.268570742
2.07483349
2.137019762
2.499292585
2.779333589
3.104994888
3.15258761
3.285306868
3.409526242
3.501552392
3.539668953
3.542037908
3.519845809
3.48754697
3.459465421
3.445514985
3.445948739
3.446873679
3.425164102
3.365756345
3.268803424
3.131734745
2.937996559
2.721481382
2.528400822
2.439782106
2.450978792
2.408604447
2.627718079
2.563204679
2.409256382
2.288447376
2.26457043
2.511901096
2.812548784
3.074063
3.118393324
3.266665434
3.399135014
3.492473983
3.527052358
3.523287136
3.493567414
3.453224917
3.416745079
3.393641101
3.383797752
3.374391881
3.34519905
3.282907475
3.188609937
3.068815669
2.908661213
2.763031221
2.64997983
2.619214026
2.618414001
2.641788137
2.704238112
2.620736168
2.509659652
2.419310775
2.371579317
2.505624905
2.79709674
3.039891079
3.080009128
3.244605304
3.383933336
3.477901213
3.508925562
3.498929886
3.460894193
3.410401915
3.361720444
3.324147501
3.298128877
3.273125055
3.23229823
3.164283114
3.072075333
2.970037143
2.856053386
2.776835937
2.737004419
2.735757953
2.713234233
2.677926479
2.666644418
2.604171646
2.55053231
2.453179733
2.43662558
2.496192931
2.750097284
2.999361135
3.037615441
3.219132439
3.362594407
3.455347409
3.482429671
3.466189361
3.419261398
3.356748978
3.292301508
3.235213468
3.187408059
3.141794935
3.08545033
3.009024447
2.91845931
2.834552952
2.76692072
2.745970643
2.760209339
2.777887956
2.730143965
2.655037671
2.571726688
2.558040828
2.551478346
2.43106702
2.44151032
2.480546478
2.695260901
2.946163921
2.9884405
3.187006709
3.330963995
3.420149062
3.443096853
3.42095601
3.365153319
3.289548696
3.206756167
3.126098734
3.051551758
2.980472142
2.904729088
2.817212173
2.727753651
2.663502771
2.641623101
2.674979119
2.732690674
2.762999888
2.690569484
2.559534225
2.422866792
2.484398376
2.527780946
2.359943946
2.394352663
2.447373562
2.654303739
2.873086463
2.927740122
3.142822068
3.28377435
3.367655595
3.387060352
3.35998761
3.296185715
3.2076012
3.105372182
2.998531002
2.893018485
2.791279577
2.691594644
2.59001397
2.501255924
2.460113793
2.48752215
2.577942325
2.681036438
2.728730624
2.638974621
2.437964218
2.231851656
2.381630777
2.490883177
2.245731423
2.301324628
2.394594962
2.648983701
2.774736552
2.850218761
3.080909959
3.21655462
3.29497868
3.312469814
3.282451358
3.212727822
3.112820219
2.99195449
2.85819129
2.718347952
2.57951044
2.448865827
2.329031325
2.240875689
2.227655825
2.310735881
2.465646068
2.62140698
2.693865396
2.604199833
2.332388019
1.979783364
2.265518229
2.470850289
2.083413947
2.18162591
2.344862129
2.691001114
2.647869781
2.751449114
2.997343162
3.126458524
3.20069302
3.21890937
3.189542585
3.117887672
3.010536633
2.874425797
2.715799595
2.539985683
2.355286696
2.178808713
2.030075718
1.941789208
1.962279131
2.109572475
2.338737599
2.55136299
2.652272589
2.585802017
2.247658922
1.560994191
2.119829584
2.495581685
2.028255684
2.018173286
2.305866819
2.763080364
2.491399782
2.630471342
2.89169632
3.012822018
3.084525915
3.10630874
3.082955258
3.015915359
2.907940539
2.763385872
2.586333471
2.378504439
2.141592318
1.888511816
1.667257977
1.572406944
1.644090019
1.872887039
2.187405934
2.452801758
2.588161723
2.595171665
2.325048591
1.978644702
1.155163179
1.760130891
1.666663585
2.546907795
2.188202996
2.846796629
2.307639918
2.491835509
2.769446593
2.880386395
2.950073983
2.976000411
2.963706843
2.909274615
2.809863351
2.666897442
2.483457676
2.259668801
1.991341706
1.671431993
1.305049659
1.02894463
1.18207379
1.582695265
2.00363481
2.312728278
2.47721184
2.517212954
2.333944336
2.077563336
1.685971475
1.622433382
2.017078461
1.971419571
2.310133428
2.898237124
2.104182081
2.347701247
2.645200251
2.747996392
2.811084664
2.836379664
2.833815719
2.795670863
2.711089118
2.576471709
2.394471064
2.165795096
1.89034789
1.568473527
1.188729927
0.750744764
0.6968190399
1.321203699
1.84445404
2.169373834
2.354884226
2.419886336
2.307246571
2.100557222
1.73245732
1.82321896
1.614817265
2.049878553
2.650771688
2.972342677
1.90176732
2.218178628
2.539652333
2.641852434
2.697449564
2.716308029
2.715184193
2.687934526
2.618773625
2.495920848
2.321146317
2.101524902
1.845096153
1.556094858
1.225184887
0.9231978009
0.8800712255
1.33476399
1.77254535
2.07437375
2.258193428
2.309044688
2.099031456
1.911108338
2.727011473
2.986523981
)
;
    }
    region0_to_wallFilmRegion_mirrorFace
    {
        type            convectiveHeatTransfer;
        L               1;
        value           nonuniform List<scalar> 
703
(
3.944351971
3.941669104
4.045950024
4.117435268
4.105969776
4.033444752
3.963446501
3.970401082
4.073409367
4.214383762
4.161258632
3.95517527
3.99655777
4.031118181
4.025271521
3.986694407
3.928521323
3.884463438
3.88144389
3.934009058
4.172254208
3.820691172
3.819791123
3.838384084
3.837005387
3.816660133
3.780614676
3.721764265
3.636182133
3.583452027
3.193115791
3.303449427
3.024432517
3.022638098
2.916777187
2.75179233
2.931267997
2.718909417
2.656261916
2.945662782
2.636706949
2.63761572
2.866610576
2.628950034
2.578672065
2.458116357
2.472039368
2.326485325
3.013224692
3.541499908
3.160618257
3.489011039
3.799322037
4.044751144
3.116301445
4.049081534
3.605198645
4.151781607
2.787533975
4.284527267
3.801349493
4.074230149
3.852422802
3.967414851
0.9385594115
2.218766965
1.321710194
1.784742291
1.531849239
1.596750754
2.359148143
2.11637482
2.353219039
2.345493707
2.316077608
2.33860098
2.319718949
2.359454817
2.387426062
2.34429727
2.416905813
2.446821553
2.37023102
2.473452798
2.485472919
2.351829345
2.480485013
2.467992667
2.313343446
2.450609274
2.427935478
2.242039588
2.400174556
2.369774571
2.169672989
2.339412401
2.306525067
1.803780147
1.973907371
1.819309732
2.307229802
1.783268981
2.183556657
2.370636839
2.193766477
2.279558043
2.303922682
2.27605132
2.30505215
2.367209631
2.344808587
2.386370557
2.433079194
2.422340248
2.441615876
2.448431804
2.439040336
2.426040536
2.421556718
2.406462765
2.380497727
2.370297358
2.350019454
2.318309722
2.313025479
2.288380055
2.260934357
1.761217106
2.399260168
1.218512023
1.459514694
1.529260536
1.871554926
2.246984952
1.629792409
1.704302681
2.307685109
2.253765677
2.249512477
2.396468906
2.356525122
2.409364308
2.42995709
2.433272917
2.421169147
2.385758948
2.389432366
2.348704901
2.314549245
2.300247338
2.246181788
2.233736768
2.189693263
1.427402206
2.175858047
1.415189121
2.187431985
2.187542225
2.226141213
2.286064829
1.928063603
2.321354512
2.371724962
2.356969716
2.396988724
2.435429152
2.427344355
2.447962027
2.415001838
2.443452601
2.409029271
2.317148366
2.357307766
2.293128031
2.1817114
2.216666475
2.12875357
2.18128548
1.639242896
2.041229371
2.112066728
2.005746783
1.988202287
2.296951916
2.170860074
2.306722082
2.406026387
2.371151378
2.408877159
2.452250392
2.435727188
2.451604323
2.405523454
2.443750795
2.407005337
2.280542882
2.351597986
2.281451055
3.800440831
3.837205078
3.849142705
3.83570406
3.882937109
3.918014818
3.907142219
3.960767684
3.999919488
3.922282609
4.023934982
4.021975084
3.85403516
3.99313018
3.950201229
3.795053161
3.910777258
3.882159359
3.805187752
3.872171167
3.890296138
3.945923042
3.944652839
4.027219535
4.132549787
4.125217842
4.214397743
4.26652666
4.296630796
4.369334002
4.391559617
4.438458121
4.501123734
2.568551415
2.842991914
2.444904848
2.447904777
2.36819069
2.255926782
2.420614671
2.212452325
2.21317354
2.402303876
2.23132522
2.237560012
2.2439481
2.213865405
2.161558801
3.844943328
3.922867252
4.012885233
4.038732013
3.969856173
3.896589692
3.8961039
4.021527805
4.210642307
4.375452714
3.895602254
3.9755401
4.004660254
4.008967713
3.988426932
3.842997061
3.87192034
3.92804636
4.00607263
2.448338744
3.255020016
2.699592347
2.070933185
2.182668085
1.901511754
2.008168397
1.809640839
1.796616377
2.076799756
1.839108539
1.907280957
2.078058288
1.961880265
1.987777063
3.887745832
4.07068602
3.910042453
3.991999776
3.930416215
3.960737986
4.090072199
4.122387313
4.073380555
3.993428649
3.99210139
3.95697827
3.95437736
3.925164932
4.011595394
4.138290428
3.95611319
4.007544573
4.285130992
4.065980492
4.123550201
1.821295917
3.000351538
2.118141879
1.595306293
1.56061353
1.388461829
1.748156002
1.353229189
1.483623679
1.883832602
1.64536589
1.802852014
4.180391013
3.904619159
3.970521354
3.896772988
3.906644497
4.018277903
3.926811845
4.032880408
3.903671154
3.902518021
3.879668914
3.769116668
3.75759967
3.971023172
3.759404102
3.77089601
1.921484654
3.315541194
2.908933239
1.461155408
2.411725511
2.19380344
1.988365996
2.308621036
2.611431154
3.079791901
3.663660864
3.663620188
3.665139437
3.445328822
3.380380323
2.486525022
3.690698263
1.783859357
3.489662109
2.922841831
3.655292943
2.645033262
3.713706597
2.462831107
3.674162904
2.461303007
3.626947632
2.43601281
3.599876013
2.281061167
3.633438527
2.194015735
3.78720509
2.279854722
3.933622378
2.147636444
3.968491356
3.154088206
2.291678759
1.237173277
2.191831796
2.380114884
2.32273122
2.32883132
2.360649919
2.364792316
2.335203704
2.281367679
2.203831807
2.964978547
1.841875439
1.980213187
2.324710922
2.283169236
2.332040872
2.402478424
2.448618003
2.438420912
2.398129002
2.340999419
2.928826233
2.296086746
1.195842146
1.852268437
2.308957254
2.352694835
2.427428197
2.411886559
2.352851461
2.273665384
2.937680302
2.401458327
1.334130224
1.874569933
2.348028856
2.407617114
2.44112717
2.371357745
2.25332219
2.687624507
2.013105789
2.199880354
2.017842484
2.365375771
2.43560515
2.443331601
2.349990965
3.386136272
3.79453284
3.805237888
3.87256809
3.926593925
3.894019976
3.819560807
3.787004626
3.860842059
4.045805609
4.206081108
4.329254104
2.805774849
2.532556392
2.418836713
2.424824884
2.338901454
3.761543687
3.845710172
3.884255423
3.828741979
3.970379521
3.928973417
4.038897873
4.011910328
3.928639019
3.908336192
3.882232714
3.843687308
3.943850897
4.116733789
4.297575768
4.196074441
2.998931648
2.226584538
2.009737983
2.040258642
2.091485861
3.641408108
2.461452113
1.647940808
1.644122985
1.840680955
3.64684491
2.08941108
1.489326201
1.683737104
2.386374314
4.268505685
4.156573897
4.028228923
3.558213145
3.452852039
3.656487508
3.413085906
3.38500267
3.381399818
3.391075371
3.609868699
3.35475857
3.502128442
3.244260852
3.13933628
3.900303722
4.077857947
3.444656322
3.143899315
2.929660156
2.786453818
2.747889223
2.777311596
2.765709451
2.672418435
3.888724174
4.147470546
3.514521631
3.180833879
2.873637123
2.552503475
2.257544446
2.015426889
1.862117324
1.823808788
4.114856072
4.140806453
1.722932959
3.65162453
2.284942214
2.059619928
3.727346089
3.707189826
2.507880771
3.592911284
2.200311059
2.475067579
3.632458212
3.686733123
2.796906113
3.709112696
2.478632939
2.487020713
3.734800132
3.772394999
2.520290088
3.698427183
2.51899692
2.522825844
3.787258196
3.780237145
2.45883096
3.648028323
2.521078335
2.51786653
3.754656312
3.72108303
2.459456908
3.610248764
2.512670456
2.50228677
3.692829234
3.672019529
2.374981575
3.602322701
2.487341182
2.469598779
3.663468523
3.676460818
2.219245057
3.696688867
2.449328162
2.441309535
3.72491612
3.804079481
2.214242398
3.874580052
2.439478566
2.439791737
3.901600411
3.988034437
2.254439817
3.95001345
2.428858578
2.396252407
4.052458839
4.091235556
2.051915583
4.018376204
2.350618115
2.3041063
4.133787123
4.192084522
3.807888018
3.873624981
3.950797146
3.869379444
4.109534381
4.270259689
4.000848423
4.03347786
4.05309216
4.05726194
4.046475004
4.02347418
3.90487933
3.902645066
3.920460017
3.95354356
4.009577067
3.958637007
3.876030973
3.901549418
3.943321677
3.951677502
3.952726116
3.947895428
3.937585775
3.922711596
3.852511874
3.822864405
3.792680409
3.869570511
3.809520111
3.62631812
3.620214384
3.831463037
3.634908493
3.648356326
3.840131776
3.660304363
3.828837988
3.66193219
3.801199709
3.665355129
3.755071949
3.658843449
3.641802615
3.679235067
3.560473142
3.601825482
3.580095271
3.400131316
3.371383418
3.680135294
4.046800579
3.621215249
3.48775763
3.457000511
3.337675123
3.430795117
3.259009281
3.199232196
3.397443478
3.151522591
3.115060804
3.379242319
3.092112104
3.085753683
3.387728235
3.095838336
3.115780819
3.382181531
3.133751057
3.136528329
3.305606927
3.116498689
3.06965586
3.184409801
3.007798982
2.944626488
3.119942573
2.894576655
2.873258507
3.640632333
4.119397343
3.680555055
3.277345342
3.475307631
3.288745153
3.028949
3.127758178
2.97818169
2.847194872
2.835343692
2.700401877
2.753007881
2.579977076
2.483066269
2.761348893
2.417587102
2.380416391
2.781845144
2.358554169
2.340726115
2.724318987
2.314411544
2.27586979
2.620260104
2.241167481
2.209609701
3.71163813
4.149671246
3.734067569
3.336180622
3.557000432
3.401069343
3.029168987
3.267071711
3.136193343
2.713790361
3.001483837
2.860947583
2.397315051
2.714140593
2.563485399
2.13051265
2.411339251
2.254162864
1.925334356
2.103747652
1.988873257
1.825622477
1.931491202
1.928126958
1.817947768
1.966386982
2.007596185
3.764857167
)
;
    }
    procBoundary2to0
    {
        type            processor;
        value           uniform 0;
    }
    procBoundary2to1
    {
        type            processor;
        value           uniform 0;
    }
    procBoundary2to3
    {
        type            processor;
        value           uniform 0;
    }
}


// ************************************************************************* //
