/*--------------------------------*- C++ -*----------------------------------*\
  =========                 |
  \\      /  F ield         | OpenFOAM: The Open Source CFD Toolbox
   \\    /   O peration     | Website:  https://openfoam.org
    \\  /    A nd           | Version:  8
     \\/     M anipulation  |
\*---------------------------------------------------------------------------*/
FoamFile
{
    version     2.0;
    format      ascii;
    class       volScalarField;
    location    "1.3";
    object      k;
}
// * * * * * * * * * * * * * * * * * * * * * * * * * * * * * * * * * * * * * //

dimensions      [0 2 -2 0 0 0 0];

internalField   nonuniform List<scalar> 
67410
(
0.007168643183
0.009066645234
0.01101256633
0.01325228173
0.01568097571
0.01798928795
0.01996709243
0.0215437888
0.02273331784
0.02358198141
0.02414322265
0.02447075495
0.02462367443
0.02468194385
0.02476806526
0.02506078125
0.02577714464
0.02710757551
0.02912625107
0.03173899012
0.03471310758
0.037757831
0.04059789825
0.04298407045
0.04465206437
0.04524816609
0.007414386893
0.009642772364
0.0117127301
0.01401505165
0.01658514106
0.01918468774
0.02159928219
0.02372255734
0.02553407619
0.02705832273
0.02833462413
0.02939818809
0.03027725511
0.03101125764
0.03168475032
0.03245584645
0.0335475716
0.03518134607
0.03747560297
0.04038572211
0.043741442
0.04733489962
0.05096230922
0.05438208911
0.05721464449
0.05887873849
0.007583430094
0.01014236209
0.01250652696
0.01507533645
0.0179060226
0.02079048571
0.02354650363
0.02609044533
0.02841810953
0.03056263026
0.03255275152
0.03438586122
0.03603044846
0.03745932568
0.03870113879
0.03987753599
0.04119598044
0.04288179556
0.04507256364
0.04775597764
0.05081569685
0.05413580087
0.0576542414
0.06129741115
0.0646963363
0.06732345906
0.007667717347
0.01043526974
0.01307847246
0.01591581466
0.01898394484
0.02211480571
0.02518722681
0.02816812276
0.03107939759
0.03394371361
0.03674138259
0.03939990326
0.04181501054
0.04389550975
0.04563234396
0.04712666622
0.0485749426
0.05020323411
0.05215812322
0.05442776267
0.05688415344
0.05943136193
0.06214955567
0.06530006954
0.06840411849
0.07079039471
0.007699141751
0.01063509648
0.01354581936
0.01664295701
0.01995070157
0.02336546088
0.02683678732
0.03036863312
0.03397103232
0.03761275279
0.04120855608
0.04463360741
0.04773421267
0.05036432248
0.05250860862
0.05427634944
0.05585696458
0.0574922529
0.05934202507
0.06136244983
0.06334841034
0.06511914909
0.06662499831
0.06793400087
0.0691803937
0.07032458917
0.007637166466
0.01075020953
0.01391787505
0.01727204714
0.02086059294
0.02464622544
0.02861786963
0.03276703494
0.03705095952
0.04138623808
0.04567320717
0.04981317566
0.05359136906
0.05675533001
0.05930720298
0.06135630735
0.06310080561
0.06476468237
0.06647134113
0.06815011553
0.06958601809
0.07055645104
0.07089355718
0.07047867607
0.06937864483
0.06823916308
0.007387709831
0.01073029142
0.0141625954
0.01779943467
0.02172837847
0.02594533889
0.0304272361
0.03511856146
0.03993544994
0.04480248421
0.04970079738
0.05428072034
0.05826429226
0.06162552063
0.06439305895
0.06665329024
0.06855823217
0.07027987433
0.07191112582
0.07338901778
0.07452306054
0.07508658062
0.07483469178
0.07341822325
0.07042205669
0.06647884923
0.006929658215
0.01054385207
0.01424072353
0.01818043889
0.02246310968
0.02707030921
0.03194013816
0.03698280461
0.04211697088
0.04732984177
0.05249587106
0.05712995463
0.0611865778
0.06467511149
0.06762136836
0.07009105491
0.07219645374
0.07405753866
0.07572734568
0.07713849319
0.07812583112
0.07849046492
0.07799320669
0.07620366096
0.07229518575
0.06616411871
0.006514358379
0.01020338523
0.01411102487
0.0183215545
0.0228821444
0.0277315455
0.03278484585
0.03795566957
0.04319350991
0.04853805157
0.05369426634
0.05832496608
0.06243705572
0.06605155961
0.0691951094
0.07191946959
0.07429934675
0.07639765283
0.07821505187
0.07966336172
0.08059065469
0.08082645383
0.08016410716
0.07819554543
0.07400024266
0.06705005908
0.006462877579
0.00984128589
0.01380382548
0.01817878958
0.02286072929
0.02772961479
0.03273130245
0.03781383705
0.04294587152
0.04818575335
0.05329092103
0.0579348359
0.06213322356
0.06592005474
0.06932903079
0.07239827315
0.07515839689
0.07760531768
0.0796768757
0.08125364627
0.08218632556
0.08232041603
0.0814662285
0.07923954387
0.07480805671
0.06790361485
0.006774597603
0.009672443275
0.01355263478
0.01803460829
0.02265315545
0.02719059956
0.0318256339
0.03660881829
0.04144570464
0.04635757565
0.0513671371
0.05606310751
0.06042217098
0.06448565547
0.06828910195
0.07184218996
0.07511281212
0.07801719318
0.08042754253
0.08219505133
0.08317137115
0.08320579563
0.08209852317
0.07945696072
0.07461299778
0.06791092011
0.007295973785
0.009968400767
0.01414951943
0.01914348597
0.02355916643
0.02698754072
0.0305306385
0.0347372207
0.03915502678
0.04362778038
0.04827242933
0.05303266653
0.05767140511
0.06218240888
0.06656813849
0.07077081865
0.07466764187
0.07809073403
0.08086135757
0.08281742561
0.08381321887
0.08368193133
0.08217742554
0.07889223361
0.07340682711
0.06711093145
0.008107741691
0.01148404128
0.0174100432
0.02394869021
0.02818298778
0.02925209664
0.02992061191
0.03285311
0.03683328058
0.04090793009
0.04516363219
0.04983970618
0.05486729985
0.05997835076
0.06507578793
0.06999014422
0.07450033507
0.0783813433
0.0814406038
0.08352202897
0.08446586206
0.08402528275
0.08180579059
0.07748245815
0.07125238214
0.06581994116
0.009718415749
0.01561408472
0.02486456813
0.03345351456
0.03794717131
0.03650442933
0.03187105967
0.03156553805
0.03514198291
0.03907864646
0.04323777968
0.04791360019
0.05332020436
0.05896527425
0.06463103726
0.0700520302
0.07495494478
0.07911191213
0.08235485586
0.08454266044
0.085470744
0.08470173836
0.08139369393
0.07531506487
0.06848672851
0.06448076287
0.01256394
0.02255191643
0.03509336435
0.04524182905
0.05098111325
0.04905300859
0.03855685836
0.03127553078
0.03398825338
0.03797125644
0.04223769765
0.047095624
0.05278362745
0.05875154972
0.0647201983
0.07037631738
0.07544703988
0.07974237465
0.08314219209
0.08553694859
0.08670270964
0.08603890913
0.08206818937
0.07348256764
0.0659353052
0.06316908674
0.01564604451
0.02941710162
0.04462546444
0.0563385469
0.06513505509
0.06516871328
0.05113964206
0.03287119497
0.03314806705
0.03702978112
0.0413248955
0.04622597552
0.05201854864
0.0581607217
0.06431630728
0.07010883305
0.07527119743
0.07966974778
0.08324655383
0.08594196122
0.087571313
0.08757725067
0.08449286864
0.07544048109
0.06564083582
0.06390105988
0.01604256653
0.03109167564
0.04950510313
0.06407028447
0.07668530038
0.08116408841
0.06894169549
0.0379308571
0.03269694651
0.03608418126
0.04021185155
0.04485203964
0.0504484229
0.05661532179
0.06296154613
0.06893785366
0.07418442152
0.07865748561
0.08239401927
0.08537645581
0.08743729617
0.08804441206
0.08595132679
0.07899010177
0.07098804275
0.07216562032
0.01295654533
0.02132756781
0.04011079749
0.05972122376
0.07358224732
0.08095256542
0.07397366142
0.04652847473
0.03266535437
0.03523903133
0.03906602263
0.04311311582
0.04788495889
0.05336624578
0.05938918339
0.06533844467
0.07083227465
0.07559745121
0.07959624639
0.08282560845
0.08512179896
0.08600678398
0.0848530648
0.08223769335
0.08295288825
0.08483884924
0.01393773456
0.01413295537
0.01698269903
0.02950500085
0.04602532249
0.04802779546
0.03743379462
0.02978848865
0.03136919491
0.03490684099
0.03843568834
0.04213105875
0.04600897799
0.04995865636
0.05463892012
0.06012863681
0.06566063948
0.07058172651
0.07472447168
0.078138528
0.08079278419
0.08271852033
0.08445320125
0.08714929342
0.09105856351
0.09186758442
0.01687241326
0.01672510489
0.01625950857
0.01674584538
0.024069955
0.0310606127
0.02613351084
0.0250808453
0.02931917722
0.03346142732
0.03734105057
0.0406982616
0.04479720216
0.04770136578
0.05034967078
0.05388643
0.05859383541
0.06342321088
0.06763372401
0.07120247228
0.07440101514
0.07777159349
0.08199699314
0.08693546367
0.09094760356
0.09146322395
0.02037487076
0.02014365028
0.0194148242
0.01723016881
0.01552809501
0.01553978613
0.01729527129
0.02149704747
0.02761498819
0.03441296702
0.04037700389
0.03928870089
0.04069895531
0.04351618257
0.04521149864
0.04688031915
0.05002174421
0.05415187002
0.05811545928
0.06168720752
0.06536161543
0.06993644022
0.07576994647
0.08159029596
0.08543477046
0.08581297827
0.02373504849
0.02355749484
0.02285010392
0.02064879079
0.01814781587
0.01640529566
0.01632220584
0.02066348968
0.03056142649
0.04358914445
0.05615313089
0.04973597476
0.0372615409
0.038720129
0.03996811723
0.0408766186
0.04278387305
0.04557218956
0.04851321884
0.05148675064
0.05493286065
0.05949598966
0.06573426056
0.07205306943
0.07578542945
0.07585966922
0.02644548633
0.02661484628
0.02611050365
0.02393973615
0.02105771833
0.01914671291
0.01962000752
0.02515339631
0.03770972521
0.05709622973
0.07652718163
0.07175253617
0.04043047644
0.03435942979
0.03494026061
0.03546725301
0.03653842796
0.0381585767
0.03993045963
0.0418280114
0.04423674778
0.04784267861
0.0538279248
0.0595178254
0.06308630484
0.06261706344
0.02833018834
0.02914148938
0.02913118516
0.02704489167
0.02385069442
0.022280368
0.02318478926
0.02539129151
0.02696780007
0.02456231718
0.0361789593
0.03611405171
0.0300545385
0.02999968736
0.03026251108
0.03075150477
0.03162072496
0.03301031816
0.03469881338
0.03639922386
0.03796297493
0.03906822677
0.04069324493
0.04588509166
0.04995333063
0.04874606828
0.02928246516
0.03084404764
0.03140534496
0.02942171881
0.02622209143
0.02611572936
0.02956553539
0.03397288795
0.03638114953
0.03239799402
0.02220229933
0.02093129376
0.0232881715
0.02549683604
0.02721778299
0.02987836242
0.03343659776
0.03738044782
0.04126495509
0.04554354227
0.04937770522
0.04976664772
0.03385313123
0.03185070139
0.03517210218
0.02897045468
0.03107938408
0.03198576105
0.03033067172
0.02819069555
0.0306405959
0.03636054435
0.0417922814
0.04452623892
0.04140255136
0.02741315308
0.01598883986
0.01750191875
0.0225376711
0.02727937475
0.03253915373
0.03820829717
0.04416573873
0.05004494034
0.05604110485
0.06127542662
0.06151067126
0.03886450148
0.02807138279
0.02364987035
0.02702147764
0.02995925187
0.03181856989
0.03108215371
0.02966893293
0.03456161402
0.04182839051
0.04845071028
0.05185520759
0.04859826124
0.0336069498
0.02134971852
0.01528727794
0.02090481585
0.02658795429
0.03213143709
0.03780627522
0.04312245196
0.04742835781
0.05014159187
0.05033585646
0.04566223554
0.0331672008
0.0249179072
0.02094741449
0.02566099787
0.03175984063
0.03796015857
0.03864018826
0.03032636138
0.03329878459
0.04068334904
0.04938860402
0.05387880095
0.05065001907
0.03145732866
0.01957010622
0.01378459669
0.01712905532
0.02201090337
0.02701827279
0.03173868946
0.035863144
0.03869204772
0.03946555267
0.0373574428
0.0315933652
0.02333595748
0.02596164764
0.02419916018
0.03332945114
0.04606368451
0.05984931901
0.06299392157
0.03953323636
0.02855514872
0.02376891088
0.0293544743
0.03938886608
0.04019131045
0.02206942612
0.01467464877
0.01446948484
0.01613124222
0.01847619986
0.02136638377
0.02442348944
0.02692222185
0.0280439581
0.02727630363
0.0249724655
0.02269199803
0.0228028805
0.02713584578
0.03535623235
0.04431819461
0.05271925668
0.07363243685
0.09381936442
0.09642215425
0.06744786709
0.04695094759
0.03062250453
0.02246566321
0.0241993499
0.02103821716
0.01665775306
0.0168604586
0.0179052279
0.01867843635
0.01917525481
0.01955861213
0.01996914411
0.02043110249
0.02080776977
0.02114332009
0.02211464756
0.02468417229
0.02949826856
0.03705807826
0.04746171412
0.05973372153
0.007666868444
0.00990622952
0.01196351262
0.01434720222
0.01716625834
0.02018874524
0.02313863693
0.02579291604
0.02801530467
0.02975444856
0.03102342177
0.03187359683
0.03237747467
0.03262739985
0.03274822882
0.03291389068
0.0333506829
0.03430970915
0.03600424941
0.03853284983
0.04182676243
0.04564949691
0.04959167061
0.05311887262
0.05561823997
0.05646318691
0.008998246686
0.01372180031
0.01594063356
0.01825478772
0.02155344587
0.02573953791
0.03033863962
0.03479005839
0.03873071689
0.04204239457
0.04476560096
0.04699686202
0.04883021789
0.05035417231
0.05168914268
0.05303576411
0.05469972829
0.05706509792
0.0605086208
0.06527878331
0.07139015619
0.07855099427
0.08609591568
0.09304745462
0.09829293974
0.1007675889
0.009456989494
0.01532640999
0.01825733278
0.0211189313
0.02508181308
0.0300551122
0.03545769669
0.04066136982
0.04534397614
0.04947857417
0.05317104597
0.05652000555
0.05956337544
0.06230366834
0.06477844751
0.06713058153
0.06964007621
0.07269176373
0.0766719567
0.08182991969
0.08816561539
0.09537736388
0.1028257911
0.1095585585
0.1145644435
0.1165854673
0.009443703207
0.015861513
0.01943992089
0.02296112751
0.02754172562
0.03304020092
0.03889227464
0.04459135982
0.04995903609
0.05504281484
0.05992390636
0.06459708542
0.06897825788
0.07297393243
0.07654014662
0.07974851785
0.08281409833
0.08605280945
0.08977992391
0.09419993044
0.09933783245
0.1050060677
0.1107086774
0.1156133889
0.1193665059
0.1208832176
0.009250058573
0.01586031972
0.02000231652
0.02419171274
0.02933954806
0.03526037544
0.04152972817
0.04784546314
0.05413982372
0.06041554806
0.06658650377
0.07247837247
0.07793526183
0.08289053541
0.08727781177
0.09110227182
0.09449795985
0.09765939997
0.1008143583
0.1041592928
0.1077956015
0.11168764
0.1155943395
0.1190470071
0.1214118959
0.1218519108
0.008942465719
0.01551409912
0.02009353873
0.02483661039
0.03046053865
0.03680238108
0.04362376852
0.05077180364
0.05814977556
0.06554645861
0.07262761799
0.07908553675
0.08491213109
0.09030678444
0.09515812695
0.09941021873
0.103072002
0.1062244345
0.1090153807
0.1116292402
0.1142218862
0.1168400254
0.1193570806
0.1214432758
0.1225471765
0.121920736
0.008461643687
0.01492589678
0.01977789521
0.02493267531
0.03097316352
0.03781171735
0.04533807404
0.05340870828
0.06172984992
0.06979439494
0.07704934632
0.08364122698
0.08983781564
0.0955832288
0.1007880129
0.1053648597
0.1092601028
0.1124773473
0.1150952351
0.1172635717
0.1191524073
0.1208640537
0.1223589002
0.1234204177
0.1236156564
0.1222512253
0.007801212166
0.01410969894
0.01909828149
0.024553421
0.03098583226
0.03837019324
0.04661868333
0.05546756566
0.0643689471
0.07258016369
0.07975813447
0.08650847749
0.09291468625
0.09892797472
0.1044493153
0.1093602154
0.1135548359
0.1169674797
0.1196058647
0.121570933
0.1230253053
0.1241097103
0.1248629497
0.1251795858
0.1247564904
0.1229726172
0.007220826724
0.0131192946
0.01814582153
0.02380372423
0.03056123476
0.03841082178
0.04721477872
0.05654899775
0.06568429713
0.07380603614
0.08097614065
0.08780107267
0.09436934832
0.1006418736
0.1065097054
0.111824555
0.116428486
0.1201873657
0.123038143
0.1250260037
0.1262890749
0.1269847842
0.1272127913
0.1269662587
0.1260640906
0.1239631784
0.007016125222
0.01220379159
0.01708926348
0.02277785588
0.02968013148
0.03776054755
0.04683105891
0.05636727818
0.06557948587
0.0737091675
0.08088577861
0.08777448424
0.09450991051
0.1010748944
0.1073546086
0.1131663462
0.1182954241
0.1225421973
0.1257818325
0.128008047
0.1293231138
0.1298727237
0.1297830284
0.1291108337
0.1277708725
0.1252762527
0.007226796722
0.01165847635
0.01616197833
0.02167952741
0.02847335291
0.03640801863
0.04535730355
0.05486406221
0.06411668166
0.07245442703
0.07973738016
0.08672693466
0.09366199936
0.100568777
0.1073258777
0.1137071672
0.1194392839
0.1242703707
0.1280375811
0.1307022809
0.1323283449
0.1330155261
0.1328583997
0.1319053176
0.1301236934
0.1270603387
0.007657576503
0.01153193071
0.01569234294
0.02110704242
0.02763664405
0.03484417909
0.04303354442
0.0522385416
0.06147335934
0.07002869114
0.0777185901
0.08489638722
0.09206379719
0.09934119319
0.1065978718
0.113556989
0.1198942827
0.1253330792
0.1297110399
0.1329916876
0.1352135587
0.1364025801
0.1365375832
0.1355177431
0.1332805992
0.1293889482
0.008121852696
0.01173204536
0.01623270113
0.02224594005
0.02866318913
0.03431325875
0.0406141261
0.04899458254
0.05812857476
0.06679928843
0.07483779554
0.08238112727
0.08977802212
0.09740195658
0.1051126117
0.1125789077
0.1194415796
0.1254333245
0.130435478
0.1344576696
0.1375506171
0.1396801528
0.1406331246
0.139923364
0.1372616641
0.132282888
0.00872052204
0.01255014539
0.01844347305
0.0263905364
0.03353514368
0.03695911557
0.03994139276
0.04605731866
0.05469837276
0.06336180285
0.0714706316
0.07925104157
0.08681132444
0.09471584111
0.1027912733
0.1106449114
0.1178987754
0.1243248082
0.1298808411
0.1346577661
0.1387668005
0.1421908108
0.1445615099
0.1448040817
0.1419392467
0.1358244831
0.009690937215
0.01423648913
0.02222760654
0.03520334633
0.04572542613
0.04714251363
0.04512829592
0.045354421
0.05177469077
0.06008436603
0.06808245595
0.0758201088
0.08345633797
0.09157529094
0.09990958391
0.1079982374
0.1154709182
0.1221683114
0.1281413688
0.1335662721
0.1386178054
0.1433334824
0.1473805196
0.1493837857
0.1470497382
0.1401765943
0.01086387924
0.01625891857
0.02685225034
0.04929323088
0.06716257931
0.07133868019
0.06268119979
0.05049603324
0.05012819085
0.05709961253
0.0647877169
0.0723969362
0.08010072102
0.08838820792
0.09685914565
0.1049994212
0.1124970732
0.1192968297
0.12554689
0.1314868437
0.1373145621
0.1430714773
0.148493073
0.1524825164
0.1519183909
0.1450443463
0.01136979091
0.01642822775
0.02733430288
0.0554676297
0.08236713267
0.09441687323
0.08682457831
0.06304171601
0.04969370886
0.05410951528
0.06143379144
0.06899620222
0.07689781328
0.08534060113
0.093823618
0.1018265996
0.1091809278
0.1159760579
0.1224544017
0.1288991113
0.1355073404
0.14227013
0.1488437213
0.154123897
0.1546878748
0.1481215422
0.01132219262
0.01437894912
0.02137839011
0.04016879616
0.07149142069
0.08720522078
0.08274876574
0.06286417173
0.04590803662
0.04958072585
0.05745130499
0.06538854951
0.0737989735
0.08244541867
0.09091698755
0.0986943734
0.105805435
0.1125078279
0.1191564588
0.126021627
0.1332913319
0.1407945734
0.1477964592
0.1525659821
0.1520870562
0.146828686
0.01241953087
0.01343510108
0.01431237345
0.02037447826
0.03607820046
0.05093648119
0.04950294136
0.040252282
0.03898141269
0.04560019477
0.05344485402
0.06141080595
0.07033299056
0.07889917316
0.08723439153
0.09455677618
0.1010558995
0.1072769402
0.1137267277
0.1207143253
0.128142387
0.1354887001
0.141684299
0.1451952368
0.1446248042
0.1411193321
0.01440248145
0.01513512415
0.0153900982
0.01497962308
0.01831078014
0.02386780172
0.02515187753
0.0258494477
0.03140738616
0.03944605584
0.04774222598
0.0562306542
0.06489390677
0.07291561037
0.08067012385
0.08731619378
0.09334372767
0.09907928083
0.1051125108
0.111697553
0.1186362584
0.1253196756
0.1308251189
0.1340505319
0.1342142015
0.1320738117
0.01718117745
0.01757747716
0.01818939114
0.01651256629
0.01506606536
0.01487268869
0.016098664
0.01929927941
0.02527796639
0.03433712915
0.04632673931
0.05621676527
0.06002781349
0.06552762358
0.07205168636
0.07771982834
0.08295047239
0.08795344415
0.09323864931
0.09900513309
0.105105485
0.1111054222
0.1164583471
0.1200895438
0.1209194789
0.1193759468
0.02049701067
0.02121503164
0.02208102631
0.02030452175
0.0180033633
0.01602981326
0.01491291532
0.01668703237
0.02464758285
0.04523082062
0.06843812221
0.07193241171
0.05751652987
0.0575109231
0.06115981759
0.06468150766
0.06849699506
0.07276184656
0.07732264021
0.08200546671
0.0869067373
0.09234352086
0.09833958779
0.1024799657
0.1039971
0.1025318762
0.02385606761
0.02614968598
0.02740612051
0.02578632974
0.02292876426
0.02009537802
0.01813166945
0.01830794527
0.02512035353
0.05779760331
0.07984478095
0.07643280084
0.0575608123
0.04787117963
0.04951104002
0.05219629201
0.05547232495
0.05905404875
0.06261336448
0.06572672545
0.06837996821
0.07079470935
0.07523938848
0.08009555352
0.08314454727
0.08111057256
0.02677027381
0.03163990471
0.03358444053
0.03249460973
0.02941010793
0.02568119125
0.02256378322
0.02030775093
0.01980667885
0.0219018406
0.03656893493
0.03977836359
0.0334208731
0.03647454336
0.03883971482
0.04237705502
0.04630249478
0.05058997764
0.05459388822
0.0575078702
0.05855489783
0.05689228367
0.05426145057
0.0548617138
0.05681594017
0.05363090089
0.02843235099
0.03566747621
0.03874969078
0.03856153166
0.03592992005
0.03196157613
0.02914139805
0.02815978277
0.02782010655
0.02334413432
0.01798025208
0.02020421143
0.02382067593
0.02856991964
0.03349602741
0.0402435423
0.04815982447
0.05639185854
0.06393247531
0.06969391557
0.07211483319
0.0669016891
0.04889202674
0.03710723271
0.03557606792
0.02785607743
0.036077359
0.04061757063
0.04177028166
0.03999000607
0.03690313962
0.03569608962
0.03830086112
0.04019507213
0.03295806229
0.02122030436
0.01505109584
0.01787672363
0.02454415867
0.03288383661
0.04313282231
0.05330527127
0.06257862395
0.07107271376
0.07788625647
0.08101171887
0.07609899326
0.0553261896
0.03594968086
0.02886455126
0.02503208598
0.0326064423
0.03852054122
0.04072904025
0.0396178369
0.03841980488
0.04086879315
0.04748434024
0.05151958179
0.04489535889
0.02954404438
0.01771241602
0.01596938752
0.02166854074
0.02982054345
0.03971368712
0.04946843328
0.05849628283
0.06592817844
0.07033664905
0.06951346695
0.06180866033
0.05574844694
0.0416668001
0.02602558379
0.0222231978
0.02892062915
0.03645166458
0.03906632489
0.03725759243
0.0360107558
0.03921065215
0.04699970468
0.05345985435
0.04864906747
0.03204360278
0.0178494879
0.01526236824
0.01869723043
0.02438508487
0.03168889989
0.03977898328
0.04707857071
0.05267760858
0.05507894823
0.05244904655
0.04544152779
0.04676304983
0.09958335315
0.03475901302
0.02405971371
0.03193396645
0.04467220759
0.0494315547
0.04383386787
0.03639486874
0.03259824961
0.0348126249
0.04242024678
0.04061572884
0.02699280159
0.0173275163
0.0167230715
0.01835370777
0.02080438684
0.02411232001
0.0282728456
0.03263917382
0.03607895379
0.03752849683
0.0367578669
0.03520526849
0.03618338545
0.03961752948
0.04538762655
0.05656931576
0.03325451106
0.04798759588
0.07448378252
0.08577931632
0.07256071919
0.05303379264
0.03731635466
0.02908055572
0.02630069986
0.02369482926
0.020884126
0.02027943004
0.02095105101
0.02168910456
0.02220596912
0.02275837511
0.02362868216
0.02490395208
0.02637743154
0.02785340139
0.02977143893
0.03340332271
0.04004441875
0.05083494536
0.06450237341
0.08366366287
0.008279712383
0.01072807101
0.01278020381
0.01508309635
0.0179726405
0.02133104647
0.02484768405
0.02821938035
0.03121496613
0.03370684417
0.03566259757
0.0371137033
0.03812604117
0.03878597004
0.03920326899
0.0395243986
0.03994404617
0.04070006579
0.04203923291
0.04415228611
0.04709487919
0.05072330401
0.05466510956
0.05835015905
0.06111719603
0.06234273997
0.01026532312
0.01609564021
0.01866580018
0.02103828255
0.02454989285
0.02930830082
0.03490343069
0.04061601572
0.04588433605
0.05045324491
0.05430618327
0.05753981436
0.06027512942
0.06262700832
0.06472132654
0.06673583116
0.06893563674
0.07167497767
0.07534330423
0.08025381182
0.0865009166
0.09382358728
0.1015623094
0.1087256494
0.1141866454
0.1169233023
0.01091889421
0.01826966027
0.02178707291
0.02486111764
0.02900721019
0.03453545591
0.04095694604
0.0474613553
0.05348586081
0.05885003239
0.06362063966
0.06793654566
0.07190448558
0.07558001097
0.0790084013
0.08228774456
0.08561824786
0.08930839424
0.09371378034
0.09911528265
0.1055813018
0.1128663411
0.1203601473
0.1271403678
0.1321679032
0.1345318326
0.01079501629
0.01879957155
0.02310370696
0.02691496842
0.03171678199
0.03777089637
0.04458659832
0.05144070625
0.05790508613
0.0639048416
0.06954340756
0.07492637087
0.08008151176
0.08496864026
0.0895356061
0.09378180798
0.0978078017
0.1018262674
0.1061093734
0.110891919
0.1162721893
0.1221130983
0.1279748379
0.1331174822
0.1366590198
0.1379978698
0.01034436974
0.01848266816
0.02338874314
0.02793966645
0.0333938401
0.03988538555
0.04697982381
0.05413767782
0.06108914764
0.06780943829
0.07434738778
0.08070498915
0.08681554671
0.09257612354
0.09789293942
0.1027052118
0.1070327195
0.1109953851
0.1147719587
0.1185755919
0.1225744661
0.1267444333
0.1308271377
0.1343168209
0.1365513816
0.1368908814
0.009759249396
0.01770204102
0.02302995435
0.02820261438
0.03421000962
0.04107603008
0.04847114946
0.056038375
0.0635933129
0.07105711212
0.07835028971
0.08536733713
0.09199877045
0.09813777995
0.1037578085
0.1087649537
0.1131193258
0.1168683903
0.1201515392
0.1231682311
0.1261079135
0.1290455994
0.1318571786
0.1341842556
0.1354676737
0.1350783471
0.009063666615
0.01666636984
0.02222226414
0.02781456515
0.0342327178
0.04144843419
0.04923204121
0.05732103348
0.06550292852
0.07357101763
0.08132557043
0.08861582189
0.0954117686
0.1017275615
0.1074773378
0.1125535698
0.1168851095
0.1204704175
0.123402171
0.1258634197
0.1280728583
0.1301848007
0.1321884077
0.1338413081
0.1346495319
0.1339370934
0.008293354387
0.01546488527
0.02101825061
0.02682858054
0.03354036648
0.04110944461
0.04934745532
0.05797612364
0.066678106
0.07512615107
0.08307169322
0.09040839973
0.09725108128
0.1036369224
0.1094685077
0.1146251538
0.1190036824
0.1225557381
0.1253274247
0.1274785192
0.1292459712
0.1308475181
0.132369655
0.1336697264
0.1343086372
0.1335482748
0.007666572309
0.01412966181
0.01951315753
0.02538208287
0.03228429182
0.04017314603
0.04884052127
0.0579207161
0.0669755
0.07560354434
0.08356389569
0.09084650845
0.09769068763
0.1041487272
0.1101240615
0.1154711142
0.1200426858
0.1237389655
0.1265618626
0.1286480193
0.1302411155
0.1315963097
0.132865422
0.1339706691
0.1345108035
0.1337070381
0.007400418046
0.01292796587
0.01796546075
0.02369680588
0.03062206684
0.03870156127
0.04767795262
0.05707624009
0.06634512695
0.07503730338
0.08294543763
0.09014481406
0.09699780883
0.1035965753
0.1098354805
0.1155235782
0.1204523426
0.1244689801
0.1275442778
0.1298040617
0.1314918762
0.1328647829
0.1340920963
0.1350997546
0.1354813998
0.1344327111
0.007565830583
0.01223565706
0.01672243055
0.02207247743
0.02877896031
0.03680643656
0.04587131091
0.05543248333
0.06482340194
0.07353344552
0.08139301066
0.08854738017
0.09545883612
0.1022937933
0.1089242214
0.1150874284
0.1204987003
0.1249633504
0.1284513332
0.1311050009
0.1331680512
0.1348563921
0.1362986038
0.1373387705
0.1374990528
0.1359446276
0.007993329125
0.01210416906
0.01602044165
0.02089900325
0.0272308519
0.03489544911
0.04365567213
0.05310921912
0.06251009293
0.07121244515
0.07906403435
0.08624567774
0.09327997535
0.1004379074
0.1075489366
0.1142521842
0.1201849862
0.1251418813
0.1291396054
0.1323762989
0.1351049879
0.1374588251
0.1394586957
0.1407547769
0.1407067062
0.138429422
0.008426568968
0.01216887937
0.01587272765
0.02069044254
0.0269724886
0.03419906971
0.04201702137
0.05062385714
0.05966151109
0.06824249943
0.07606775763
0.0833375304
0.09054656103
0.0980745025
0.1056814852
0.1128904223
0.1192799838
0.1246822252
0.1292128452
0.1331644102
0.136819053
0.1402261229
0.1432161986
0.1451181379
0.1450028027
0.1419198026
0.008815863989
0.01222858081
0.01635820998
0.02215707465
0.02989939966
0.03792960068
0.04421080867
0.04974040077
0.05692806419
0.06492693578
0.07259151811
0.07991935768
0.08731209428
0.09520248449
0.10324366
0.1108384533
0.1175457618
0.1232849742
0.1283043841
0.1330074876
0.1377268313
0.1425003261
0.1469025861
0.1498615701
0.149988835
0.1462584883
0.009273838792
0.01241353771
0.01752772722
0.02635109871
0.03970956642
0.0525247606
0.05735732769
0.05488213959
0.05563835552
0.06168684868
0.06887846249
0.07619116399
0.08376421478
0.09197946897
0.1003461536
0.1081657151
0.1150320428
0.1209899345
0.1264231942
0.1318298954
0.1375833103
0.1437122301
0.1496719449
0.1540677039
0.1549080027
0.1509949659
0.009855250116
0.012923436
0.01936608
0.03466954439
0.06061024651
0.0809379102
0.08509674905
0.07177727672
0.05761735628
0.05882595261
0.06507167672
0.07238074823
0.08019854705
0.08870667655
0.09727074993
0.1051478354
0.1120348577
0.1181191684
0.1238872933
0.1298763951
0.1364503711
0.1436137467
0.1508025516
0.1565679884
0.1584953813
0.1550208468
0.01036364749
0.0131522799
0.02028571318
0.04244442359
0.07970643447
0.1007272794
0.1050186881
0.09304896943
0.06228370296
0.05569945109
0.06086907087
0.06846141949
0.07675605147
0.08556343376
0.09420946751
0.1020111579
0.108842363
0.1150275897
0.1211054814
0.1275856065
0.1347489112
0.1425019928
0.1502249885
0.156508367
0.1589598577
0.1561737157
0.01089480459
0.01298253791
0.01744849093
0.0353035306
0.07019548257
0.09296494606
0.09754779935
0.08739879237
0.05875284524
0.0496634771
0.0553401536
0.0640122088
0.07324122918
0.08240968327
0.09110843654
0.09881262083
0.1055986936
0.1118908029
0.1182493839
0.1251169445
0.1326144418
0.140422839
0.1477072742
0.1530405383
0.1546348544
0.1525098808
0.01177789047
0.01342214882
0.01378986821
0.01797774969
0.03625994566
0.06217613531
0.06877942735
0.05678311598
0.04131728543
0.04099642711
0.04860536574
0.05879011719
0.06913906519
0.07856629573
0.08728913526
0.09491872289
0.1016707179
0.1079841503
0.114419668
0.121345621
0.1286867154
0.1358345464
0.141768657
0.1453550262
0.1458414803
0.1443948919
0.01302692419
0.01466022683
0.01513417387
0.01437236552
0.01653813822
0.02356131897
0.02843710019
0.02758472303
0.02809566645
0.03295265977
0.04159162453
0.05308811777
0.06358662126
0.07302022319
0.0815927403
0.08909847267
0.09578253124
0.101922757
0.1080360933
0.1144789391
0.1210676308
0.1271081288
0.1318377509
0.13448705
0.1347775634
0.133911289
0.01475613424
0.01626782392
0.01793834388
0.01654994776
0.01495139051
0.01469991462
0.015824023
0.01777074215
0.02131240277
0.0286069336
0.04242222974
0.05545784508
0.05896298087
0.06635099639
0.07405311119
0.080995549
0.08730647225
0.09303348265
0.09845925359
0.1038770592
0.1092644848
0.1143428906
0.1186278778
0.1215023193
0.1216644344
0.120703234
0.0171844002
0.01922590025
0.02235273661
0.02105126274
0.01834478988
0.01602699587
0.01448984016
0.01460979177
0.01923581415
0.03621614026
0.0658348205
0.07663879435
0.06253471104
0.05914830617
0.06419264584
0.07002160191
0.07571057799
0.08121399508
0.086137448
0.09043438466
0.0942891882
0.09798586547
0.1027271021
0.1047300164
0.1041324873
0.1026209886
0.02014833386
0.02422351679
0.02879513926
0.02771427093
0.02417128421
0.02048511964
0.01755272372
0.01558093955
0.01808692479
0.04074277954
0.07507588045
0.0843263163
0.07361212542
0.05139649459