/*--------------------------------*- C++ -*----------------------------------*\
  =========                 |
  \\      /  F ield         | OpenFOAM: The Open Source CFD Toolbox
   \\    /   O peration     | Website:  https://openfoam.org
    \\  /    A nd           | Version:  8
     \\/     M anipulation  |
\*---------------------------------------------------------------------------*/
FoamFile
{
    version     2.0;
    format      ascii;
    class       volScalarField;
    location    "1.3";
    object      p_rgh;
}
// * * * * * * * * * * * * * * * * * * * * * * * * * * * * * * * * * * * * * //

dimensions      [1 -1 -2 0 0 0 0];

internalField   nonuniform List<scalar> 
67410
(
100004.0003
100003.9728
100003.9542
100003.9311
100003.9093
100003.8895
100003.8727
100003.8595
100003.8507
100003.847
100003.8485
100003.8555
100003.8673
100003.8833
100003.9026
100003.9243
100003.9473
100003.9705
100003.9928
100004.0125
100004.028
100004.0385
100004.0437
100004.0441
100004.0404
100004.0332
100003.9891
100003.9623
100003.9425
100003.9178
100003.8933
100003.8698
100003.8487
100003.8312
100003.8182
100003.8103
100003.8079
100003.8109
100003.8187
100003.8305
100003.8455
100003.8623
100003.8796
100003.8963
100003.9112
100003.9236
100003.9331
100003.9395
100003.9428
100003.9433
100003.9414
100003.9377
100003.9764
100003.9522
100003.9333
100003.9087
100003.8835
100003.8584
100003.835
100003.8147
100003.7985
100003.7871
100003.7809
100003.7798
100003.7836
100003.7916
100003.8029
100003.8165
100003.8311
100003.8457
100003.8594
100003.8718
100003.8823
100003.8908
100003.8967
100003.8999
100003.9001
100003.8979
100003.9625
100003.9393
100003.9205
100003.8955
100003.869
100003.8419
100003.816
100003.7928
100003.7734
100003.7587
100003.7492
100003.7451
100003.7462
100003.7516
100003.7606
100003.7723
100003.7856
100003.7994
100003.8132
100003.8264
100003.8387
100003.8495
100003.858
100003.8636
100003.8657
100003.8643
100003.9522
100003.9297
100003.9103
100003.8844
100003.8564
100003.8274
100003.7992
100003.7734
100003.7513
100003.7343
100003.723
100003.7176
100003.7179
100003.7232
100003.7319
100003.7441
100003.758
100003.7729
100003.7881
100003.8032
100003.8173
100003.8298
100003.8397
100003.8462
100003.8485
100003.8463
100003.9426
100003.9195
100003.8994
100003.8725
100003.8431
100003.8122
100003.7818
100003.7538
100003.7302
100003.7124
100003.7012
100003.6969
100003.6992
100003.7066
100003.718
100003.7324
100003.7486
100003.766
100003.7838
100003.801
100003.8165
100003.8293
100003.8384
100003.8433
100003.8437
100003.8398
100003.9335
100003.9101
100003.8889
100003.8608
100003.8299
100003.7972
100003.765
100003.7357
100003.7116
100003.6943
100003.6849
100003.6839
100003.69
100003.7013
100003.7167
100003.7348
100003.7547
100003.7756
100003.7963
100003.8157
100003.8321
100003.8442
100003.851
100003.8524
100003.8495
100003.8434
100003.9237
100003.9005
100003.8784
100003.8493
100003.8171
100003.7831
100003.7497
100003.7199
100003.6961
100003.6803
100003.6738
100003.6763
100003.686
100003.7014
100003.7211
100003.7438
100003.7684
100003.7936
100003.8181
100003.8401
100003.8576
100003.869
100003.8733
100003.871
100003.8641
100003.8556
100003.9131
100003.8908
100003.8682
100003.8387
100003.8059
100003.7711
100003.7373
100003.7075
100003.6843
100003.6699
100003.6656
100003.6705
100003.6832
100003.7023
100003.7263
100003.7539
100003.7837
100003.8141
100003.843
100003.8682
100003.8873
100003.8982
100003.9006
100003.8951
100003.885
100003.8743
100003.9023
100003.8808
100003.8587
100003.8293
100003.7966
100003.762
100003.7283
100003.6986
100003.6758
100003.662
100003.6584
100003.6645
100003.6792
100003.7012
100003.7293
100003.762
100003.7974
100003.8333
100003.8671
100003.8958
100003.9166
100003.9274
100003.9283
100003.9208
100003.9086
100003.8965
100003.8923
100003.871
100003.8494
100003.8203
100003.7887
100003.7555
100003.7228
100003.6936
100003.6707
100003.6565
100003.6521
100003.6581
100003.6738
100003.6981
100003.7299
100003.7674
100003.8084
100003.8499
100003.8885
100003.9205
100003.9427
100003.9532
100003.9529
100003.9441
100003.9312
100003.9186
100003.8833
100003.8612
100003.8385
100003.8086
100003.7794
100003.7504
100003.7206
100003.6923
100003.6692
100003.654
100003.6483
100003.653
100003.6687
100003.6945
100003.7293
100003.7712
100003.8172
100003.8636
100003.9063
100003.9409
100003.9638
100003.9737
100003.9721
100003.9626
100003.95
100003.9375
100003.8756
100003.8496
100003.8231
100003.7917
100003.766
100003.7443
100003.7206
100003.695
100003.6716
100003.6552
100003.6478
100003.6509
100003.6656
100003.6921
100003.7291
100003.7743
100003.8243
100003.8746
100003.9202
100003.9562
100003.9791
100003.9877
100003.9847
100003.975
100003.9632
100003.9512
100003.8699
100003.8353
100003.8035
100003.77
100003.748
100003.7361
100003.7221
100003.7016
100003.6782
100003.6599
100003.6506
100003.6519
100003.6654
100003.6918
100003.73
100003.7772
100003.8296
100003.8821
100003.929
100003.9654
100003.9876
100003.995
100003.9908
100003.9813
100003.9704
100003.9589
100003.8667
100003.8205
100003.7823
100003.7493
100003.7353
100003.7299
100003.7262
100003.7121
100003.6894
100003.6682
100003.6565
100003.6557
100003.6677
100003.6934
100003.7313
100003.7787
100003.8314
100003.8839
100003.9306
100003.9666
100003.9882
100003.995
100003.9902
100003.9816
100003.9716
100003.9608
100003.864
100003.8115
100003.7671
100003.747
100003.7519
100003.7464
100003.7379
100003.7248
100003.7043
100003.6786
100003.6647
100003.6622
100003.6725
100003.6961
100003.7317
100003.7764
100003.826
100003.8755
100003.9197
100003.954
100003.9755
100003.9837
100003.9806
100003.9747
100003.9668
100003.9576
100003.8549
100003.8116
100003.7629
100003.751
100003.7856
100003.7879
100003.7606
100003.7329
100003.7178
100003.6884
100003.6742
100003.6709
100003.6789
100003.698
100003.727
100003.7645
100003.8077
100003.8524
100003.8934
100003.9262
100003.9487
100003.9605
100003.9631
100003.962
100003.9568
100003.9489
100003.8308
100003.8182
100003.7917
100003.7484
100003.7408
100003.7565
100003.7393
100003.7352
100003.7294
100003.6984
100003.6851
100003.6814
100003.6865
100003.699
100003.7188
100003.7471
100003.7822
100003.8197
100003.8554
100003.8858
100003.9094
100003.9262
100003.9374
100003.9448
100003.9458
100003.9401
100003.8067
100003.8017
100003.7936
100003.7731
100003.7522
100003.7347
100003.7296
100003.7238
100003.7086
100003.6969
100003.6943
100003.6916
100003.6939
100003.7008
100003.7127
100003.7302
100003.7532
100003.7805
100003.8092
100003.8364
100003.8611
100003.8831
100003.902
100003.9168
100003.9261
100003.9308
100003.7901
100003.7823
100003.7841
100003.7833
100003.7807
100003.7687
100003.7547
100003.7428
100003.7288
100003.7188
100003.7194
100003.7158
100003.7069
100003.7034
100003.7051
100003.711
100003.7225
100003.7404
100003.7627
100003.7868
100003.8116
100003.8365
100003.8603
100003.8783
100003.8944
100003.923
100003.7816
100003.7679
100003.7693
100003.769
100003.775
100003.7739
100003.7638
100003.7482
100003.7217
100003.6939
100003.6865
100003.7018
100003.6998
100003.7003
100003.696
100003.6983
100003.7047
100003.7175
100003.7353
100003.7562
100003.7784
100003.8004
100003.8206
100003.8302
100003.8364
100003.8406
100003.7816
100003.7601
100003.7606
100003.7583
100003.7624
100003.7659
100003.7652
100003.749
100003.7223
100003.744
100003.8054
100003.7833
100003.7234
100003.7116
100003.6983
100003.6991
100003.7057
100003.7188
100003.7371
100003.759
100003.7835
100003.8096
100003.8335
100003.8143
100003.8
100003.7955
100003.7887
100003.7591
100003.7587
100003.7548
100003.7599
100003.7689
100003.7765
100003.7709
100003.7647
100003.8065
100003.8376
100003.7126
100003.6724
100003.7401
100003.708
100003.7162
100003.7243
100003.7428
100003.7665
100003.7917
100003.8145
100003.831
100003.8234
100003.8037
100003.7866
100003.784
100003.7995
100003.7639
100003.7623
100003.7554
100003.7537
100003.7524
100003.7527
100003.7503
100003.7409
100003.7441
100003.7222
100003.6824
100003.7171
100003.7254
100003.7291
100003.7381
100003.7503
100003.7674
100003.7903
100003.8187
100003.8516
100003.8888
100003.9394
100003.8838
100003.8442
100003.851
100003.8117
100003.7737
100003.772
100003.7645
100003.7605
100003.7557
100003.7513
100003.7464
100003.7563
100003.8087
100003.806
100003.7749
100003.7706
100003.7597
100003.7511
100003.7507
100003.7565
100003.7684
100003.787
100003.8135
100003.8467
100003.8681
100003.9231
100003.8984
100003.871
100003.8268
100003.7871
100003.7863
100003.7771
100003.7673
100003.756
100003.747
100003.7519
100003.7832
100003.7483
100003.8108
100003.8022
100003.7922
100003.7744
100003.7604
100003.7528
100003.7525
100003.7628
100003.7849
100003.8194
100003.8672
100003.8925
100003.975
100004.0906
100003.9263
100003.851
100003.8095
100003.8081
100003.7963
100003.7795
100003.7679
100003.7714
100003.8044
100003.8447
100003.7809
100003.7609
100003.7937
100003.7953
100003.7826
100003.7686
100003.7596
100003.7591
100003.77
100003.7918
100003.8282
100003.8913
100003.9457
100004.3365
100004.0134
100003.9334
100003.8751
100003.8274
100003.824
100003.8131
100003.8009
100003.7889
100003.771
100003.7586
100003.8007
100003.7631
100003.7465
100003.7762
100003.788
100003.7868
100003.7805
100003.7729
100003.7692
100003.7738
100003.7901
100003.8249
100003.8933
100004.0497
100004.0525
100005.6035
100004.0316
100003.8943
100003.8171
100003.8065
100003.774
100003.7794
100003.7852
100003.7913
100003.7908
100003.7637
100003.7579
100003.7608
100003.7902
100003.7966
100003.7985
100003.7951
100003.791
100003.7891
100003.7917
100003.8017
100003.8197
100003.8465
100003.8786
100003.9139
100003.9179
100003.9068
100003.9451
100003.9537
100003.8081
100003.7848
100003.7473
100003.7655
100003.7791
100003.8034
100003.8157
100003.8006
100003.7987
100003.8056
100003.8078
100003.8051
100003.8037
100003.802
100003.8001
100003.7989
100003.8004
100003.8067
100003.8191
100003.8393
100003.8689
100003.9147
100004.05
100003.9331
100004.007
100004.0012
100003.9739
100003.9555
100003.9323
100003.9097
100003.8884
100003.87
100003.8553
100003.845
100003.8398
100003.8398
100003.8453
100003.8558
100003.8707
100003.8891
100003.9098
100003.9312
100003.9518
100003.9702
100003.9855
100003.9971
100004.0045
100004.0079
100004.0081
100004.0053
100004.0003
100003.9893
100003.9625
100003.9427
100003.918
100003.893
100003.8685
100003.8463
100003.8277
100003.8135
100003.8045
100003.8007
100003.8024
100003.8091
100003.8202
100003.8346
100003.8509
100003.8674
100003.8824
100003.8948
100003.9042
100003.9105
100003.9141
100003.9154
100003.9147
100003.9126
100003.9097
100003.974
100003.95
100003.9314
100003.9071
100003.8817
100003.8559
100003.8316
100003.8101
100003.7925
100003.7795
100003.7716
100003.769
100003.7714
100003.7784
100003.7891
100003.8021
100003.8158
100003.829
100003.8405
100003.8501
100003.8579
100003.8638
100003.8679
100003.8696
100003.8691
100003.8664
100003.9579
100003.9359
100003.9171
100003.8925
100003.8659
100003.8384
100003.8118
100003.7874
100003.7665
100003.7499
100003.7383
100003.7322
100003.7315
100003.7356
100003.7438
100003.7547
100003.7669
100003.7792
100003.7909
100003.8017
100003.8116
100003.8203
100003.8273
100003.8319
100003.8337
100003.8321
100003.9457
100003.925
100003.9061
100003.8807
100003.8527
100003.8231
100003.7939
100003.7666
100003.7425
100003.7231
100003.7093
100003.7018
100003.7
100003.7033
100003.7111
100003.7214
100003.7335
100003.7462
100003.7595
100003.7721
100003.784
100003.7949
100003.8042
100003.811
100003.8143
100003.8134
100003.9349
100003.9143
100003.8947
100003.8682
100003.8385
100003.8068
100003.7751
100003.7453
100003.7191
100003.6987
100003.6851
100003.6781
100003.6772
100003.6817
100003.6908
100003.7028
100003.7168
100003.7315
100003.7462
100003.7602
100003.7731
100003.7847
100003.7945
100003.8021
100003.8068
100003.8073
100003.9253
100003.9048
100003.8841
100003.8561
100003.8246
100003.7907
100003.7568
100003.7252
100003.6985
100003.6789
100003.6665
100003.6609
100003.6619
100003.6689
100003.6805
100003.6955
100003.7124
100003.73
100003.747
100003.7626
100003.7763
100003.7875
100003.7963
100003.803
100003.8081
100003.8103
100003.9156
100003.8954
100003.8735
100003.8442
100003.811
100003.7755
100003.7403
100003.7081
100003.6822
100003.6639
100003.6527
100003.649
100003.6526
100003.6625
100003.6773
100003.6958
100003.7164
100003.7375
100003.7576
100003.7753
100003.7898
100003.8005
100003.8077
100003.8123
100003.8163
100003.8196
100003.9054
100003.8856
100003.8633
100003.8332
100003.7991
100003.7628
100003.7272
100003.6953
100003.6702
100003.6528
100003.6428
100003.641
100003.6469
100003.6595
100003.6777
100003.7
100003.7248
100003.75
100003.7737
100003.7942
100003.81
100003.8203
100003.8259
100003.8284
100003.8307
100003.8335
100003.8944
100003.8753
100003.8533
100003.8231
100003.789
100003.7531
100003.718
100003.6866
100003.6621
100003.6451
100003.6361
100003.6354
100003.643
100003.658
100003.6794
100003.7056
100003.7346
100003.7643
100003.7921
100003.8157
100003.8332
100003.8434
100003.8479
100003.8488
100003.8495
100003.8507
100003.8829
100003.8641
100003.8424
100003.812
100003.7791
100003.7454
100003.7122
100003.6818
100003.6574
100003.6405
100003.6318
100003.6317
100003.6404
100003.6572
100003.6813
100003.711
100003.7442
100003.7782
100003.81
100003.8367
100003.856
100003.8665
100003.8704
100003.8705
100003.8703
100003.8696
100003.8704
100003.8505
100003.8264
100003.7941
100003.7639
100003.7366
100003.7085
100003.6801
100003.6561
100003.6391
100003.6298
100003.6297
100003.6389
100003.6569
100003.6829
100003.7154
100003.7518
100003.7893
100003.8244
100003.8539
100003.8751
100003.8863
100003.8906
100003.891
100003.8904
100003.8875
100003.8552
100003.8302
100003.7967
100003.7596
100003.735
100003.72
100003.7039
100003.6808
100003.6576
100003.6401
100003.6299
100003.6291
100003.638
100003.6563
100003.6832
100003.7172
100003.7557
100003.7953
100003.8325
100003.8638
100003.8866
100003.8996
100003.9059
100003.9081
100003.9077
100003.9019
100003.8338
100003.7956
100003.7489
100003.7188
100003.7031
100003.6964
100003.6968
100003.684
100003.6617
100003.643
100003.6311
100003.6287
100003.6366
100003.6544
100003.6812
100003.7155
100003.7545
100003.7948
100003.8326
100003.8645
100003.8884
100003.9039
100003.9141
100003.9202
100003.92
100003.9115
100003.8047
100003.7496
100003.7129
100003.7083
100003.6966
100003.6856
100003.6928
100003.6919
100003.6698
100003.6481
100003.6338
100003.6294
100003.6358
100003.6524
100003.678
100003.7111
100003.7489
100003.788
100003.8248
100003.8563
100003.8805
100003.898
100003.9121
100003.9242
100003.926
100003.9156
100003.7785
100003.7199
100003.7044
100003.7118
100003.6981
100003.6929
100003.6975
100003.7042
100003.681
100003.655
100003.638
100003.632
100003.637
100003.6516
100003.6745
100003.7044
100003.7388
100003.7746
100003.8087
100003.8385
100003.8626
100003.8812
100003.8977
100003.9151
100003.9227
100003.9116
100003.7703
100003.7152
100003.6947
100003.703
100003.6956
100003.694
100003.6984
100003.7139
100003.6885
100003.6598
100003.6421
100003.6359
100003.6399
100003.6518
100003.6702
100003.6945
100003.7231
100003.7539
100003.7842
100003.8118
100003.8357
100003.8562
100003.8754
100003.8947
100003.9044
100003.8906
100003.7762
100003.7515
100003.7064
100003.6757
100003.6805
100003.6766
100003.6791
100003.699
100003.684
100003.6584
100003.6445
100003.6407
100003.6448
100003.6544
100003.6678
100003.6854
100003.7067
100003.731
100003.7566
100003.7819
100003.8062
100003.8294
100003.8511
100003.8671
100003.8676
100003.8537
100003.7753
100003.7661
100003.7578
100003.7259
100003.6965
100003.6922
100003.7015
100003.6985
100003.6691
100003.6459
100003.6363
100003.6392
100003.6455
100003.6548
100003.6647
100003.676
100003.6901
100003.708
100003.7288
100003.7516
100003.775
100003.7975
100003.8163
100003.8253
100003.8239
100003.8191
100003.7706
100003.761
100003.7609
100003.7543
100003.7378
100003.7181
100003.7166
100003.7006
100003.6703
100003.6476
100003.6411
100003.6504
100003.6507
100003.6549
100003.6609
100003.668
100003.6769
100003.6894
100003.7059
100003.725
100003.7455
100003.7653
100003.7816
100003.7835
100003.7793
100003.7748
100003.7621
100003.748
100003.7509
100003.7493
100003.7515
100003.7461
100003.731
100003.6917
100003.6214
100003.5779
100003.5919
100003.6324
100003.6399
100003.6477
100003.6531
100003.6604
100003.668
100003.6784
100003.692
100003.7074
100003.7221
100003.7344
100003.7431
100003.74
100003.7347
100003.7268
100003.7531
100003.7357
100003.7393
100003.7367
100003.7384
100003.7342
100003.7184
100003.6631
100003.5865
100003.5873
100003.624
100003.6591
100003.6672
100003.6655
100003.6644
100003.67
100003.6779
100003.6887
100003.7026
100003.7183
100003.7325
100003.745
100003.7671
100003.7379
100003.7219
100003.7123
100003.7518
100003.7306
100003.7345
100003.7306
100003.7305
100003.7213
100003.6879
100003.5997
100003.5503
100003.597
100003.6027
100003.5537
100003.6501
100003.6722
100003.6806
100003.6916
100003.7026
100003.7171
100003.7335
100003.7495
100003.7603
100003.759
100003.7453
100003.725
100003.7186
100003.7136
100003.7581
100003.7324
100003.7353
100003.7289
100003.7245
100003.7095
100003.6839
100003.6666
100003.6474
100003.6765
100003.6081
100003.6425
100003.686
100003.7032
100003.7133
100003.7224
100003.7327
100003.7453
100003.7606
100003.7794
100003.7986
100003.8073
100003.8608
100003.8005
100003.7807
100003.7681
100003.7669
100003.7374
100003.7385
100003.7303
100003.7212
100003.6974
100003.6759
100003.6626
100003.6488
100003.6498
100003.6527
100003.7114
100003.744
100003.742
100003.7356
100003.7316
100003.7299
100003.7334
100003.7405
100003.7505
100003.7612
100003.7573
100003.8123
100003.8351
100003.8156
100003.7767
100003.7455
100003.7424
100003.7309
100003.716
100003.6934
100003.6916
100003.695
100003.6946
100003.6636
100003.7
100003.7567
100003.7708
100003.7559
100003.7422
100003.7336
100003.7308
100003.7338
100003.7411
100003.7521
100003.767
100003.7715
100003.797
100003.8862
100003.816
100003.7931
100003.755
100003.7478
100003.7298
100003.7107
100003.6946
100003.7041
100003.71
100003.711
100003.6858
100003.6873
100003.734
100003.7736
100003.7613
100003.7491
100003.74
100003.7364
100003.7381
100003.7459
100003.7594
100003.7735
100003.7509
100003.7981
100003.848
100003.8471
100003.8116
100003.7522
100003.7327
100003.7113
100003.7096
100003.6913
100003.6888
100003.7002
100003.7083
100003.6934
100003.7098
100003.7469
100003.7812
100003.7752
100003.7635
100003.7512
100003.7448
100003.7454
100003.7535
100003.7698
100003.7947
100003.8352
100003.6839
100003.8912
100003.9635
100003.7845
100003.6822
100003.6688
100003.6558
100003.6978
100003.7186
100003.724
100003.7111
100003.7094
100003.713
100003.752
100003.7806
100003.7933
100003.7913
100003.7834
100003.7726
100003.763
100003.7585
100003.761
100003.77
100003.7816
100003.7908
100003.7931
100003.8294
100003.8034
100003.7962
100003.7075
100003.5598
100003.6039
100003.6211
100003.6568
100003.6852
100003.7286
100003.7546
100003.7487
100003.774
100003.7935
100003.8007
100003.8013
100003.7994
100003.7956
100003.7902
100003.7852
100003.7825
100003.7838
100003.7904
100003.802
100003.8148
100003.8192
100003.8877
100003.7932
100003.9214
100003.9725
100003.946
100003.9274
100003.904
100003.881
100003.8592
100003.8401
100003.8247
100003.8135
100003.8071
100003.8057
100003.8092
100003.8173
100003.8295
100003.8449
100003.8624
100003.8807
100003.8986
100003.9153
100003.9297
100003.9415
100003.9506
100003.9568
100003.96
100003.9608
100003.9596
100003.962
100003.9361
100003.9171
100003.8932
100003.8691
100003.8455
100003.8237
100003.8051
100003.7905
100003.7806
100003.7756
100003.7756
100003.7804
100003.7892
100003.8013
100003.8154
100003.8303
100003.8448
100003.8579
100003.8687
100003.8771
100003.8831
100003.8871
100003.8891
100003.8897
100003.8892
100003.945
100003.923
100003.9052
100003.8829
100003.8593
100003.8352
100003.8121
100003.7912
100003.7738
100003.7606
100003.7523
100003.7488
100003.7502
100003.7557
100003.7647
100003.776
100003.7885
100003.801
100003.8126
100003.8228
100003.8314
100003.8382
100003.8431
100003.8461
100003.8474
100003.8469
100003.927
100003.908
100003.8908
100003.8685
100003.8446
100003.8194
100003.7947
100003.7718
100003.7519
100003.7361
100003.725
100003.719
100003.7178
100003.721
100003.7279
100003.7373
100003.7482
100003.7598
100003.7712
100003.7818
100003.7913
100003.7995
100003.8061
100003.8107
100003.8127
100003.8128
100003.9122
100003.8953
100003.8788
100003.8563
100003.8315
100003.805
100003.7785
100003.7535
100003.7316
100003.7138
100003.701
100003.6935
100003.6914
100003.6939
100003.7002
100003.7093
100003.7203
100003.7325
100003.7441
100003.7552
100003.7656
100003.7746
100003.782
100003.7872
100003.7898
100003.7901
100003.8992
100003.8832
100003.8663
100003.8431
100003.8172
100003.7894
100003.7614
100003.7349
100003.7118
100003.6931
100003.68
100003.6728
100003.671
100003.6738
100003.6805
100003.6903
100003.7023
100003.7155
100003.7286
100003.7411
100003.7525
100003.7623
100003.77
100003.7756
100003.7786
100003.7792
100003.8874
100003.8719
100003.8543
100003.8302
100003.8032
100003.7741
100003.7448
100003.7175
100003.6939
100003.6753
100003.6631
100003.6567
100003.6556
100003.6595
100003.6681
100003.6801
100003.6944
100003.7098
100003.7252
100003.7396
100003.7521
100003.7621
100003.7696
100003.7747
100003.7776
100003.7782
100003.876
100003.8606
100003.8423
100003.8175
100003.7896
100003.7597
100003.7298
100003.7022
100003.6787
100003.661
100003.6499
100003.6443
100003.6446
100003.6506
100003.6617
100003.6766
100003.6941
100003.7128
100003.7312
100003.7479
100003.7617
100003.7718
100003.7785
100003.7825
100003.7846
100003.785
100003.8645
100003.8493
100003.8306
100003.8055
100003.7773
100003.7472
100003.7173
100003.6898
100003.6668
100003.6501
100003.6397
100003.6351
100003.6369
100003.6452
100003.6589
100003.6771
100003.6984
100003.721
100003.7432
100003.7629
100003.7785
100003.7886
100003.7943
100003.7969
100003.7977
100003.7972
100003.8526
100003.8378
100003.8195
100003.7946
100003.7667
100003.7369
100003.7074
100003.6804
100003.6579
100003.6418
100003.632
100003.6282
100003.6313
100003.6415
100003.6579
100003.6795
100003.7048
100003.7318
100003.7583
100003.7816
100003.7994
100003.8094
100003.8142
100003.8153
100003.8147
100003.8129
100003.8404
100003.8262
100003.8086
100003.7842
100003.7572
100003.7285
100003.7001
100003.6737
100003.6516
100003.6356
100003.6262
100003.623
100003.627
100003.6387
100003.6575
100003.6823
100003.7114
100003.7427
100003.7734
100003.8004
100003.8207
100003.8306
100003.8347
100003.8348
100003.833
100003.8297
100003.8279
100003.8141
100003.7972
100003.7738
100003.7485
100003.7219
100003.6954
100003.6701
100003.6481
100003.6319
100003.6226
100003.6196
100003.6239
100003.6366
100003.6572
100003.6845
100003.7167
100003.7512
100003.7851
100003.8152
100003.838
100003.848
100003.8523
100003.8523
100003.85
100003.8453
100003.8148
100003.8015
100003.7854
100003.7648
100003.7422
100003.7181
100003.6941
100003.6704
100003.6484
100003.6314
100003.6213
100003.6181
100003.6223
100003.6353
100003.6568
100003.6855
100003.7192
100003.7552
100003.7904
100003.8215
100003.8454
100003.8574
100003.8636
100003.8652
100003.8635
100003.8577
100003.8015
100003.7894
100003.7775
100003.7608
100003.7402
100003.7187
100003.6984
100003.6769
100003.6538
100003.6349
100003.6232
100003.6188
100003.6223
100003.6349
100003.6563
100003.6849
100003.7184
100003.754
100003.7885
100003.8191
100003.843
100003.8581
100003.8676
100003.8723
100003.8719
100003.8653
100003.7899
100003.7806
100003.7756
100003.7595
100003.7383
100003.7233
100003.7097
100003.6918
100003.6655
100003.6428
100003.6284
100003.6223
100003.6244
100003.6358
100003.6559
100003.6829
100003.7146
100003.7483
100003.781
100003.8103
100003.8342
100003.8515
100003.864
100003.8723
100003.8736
100003.8667
100003.7808
100003.7744
100003.7742
100003.7496
100003.7334
100003.7256
100003.7219
100003.7121
100003.6811
100003.6534
100003.636
100003.6282
100003.6287
100003.6381
100003.6556
100003.6794
100003.7076
100003.7377
100003.7674
100003.7946
100003.8178
100003.8364
100003.8512
100003.8624
100003.8661
100003.8594
100003.7726
100003.7673
100003.7673
100003.7483
100003.7333
100003.7235
100003.7201
100003.7211
100003.6921
100003.6622
100003.6444
100003.636
100003.6349
100003.6415
100003.6549
100003.6739
100003.697
100003.7223
100003.7481
100003.7727
100003.7948
100003.814
100003.8301
100003.8423
100003.8466
100003.8393
100003.7653
100003.7597
100003.7568
100003.7445
100003.7255
100003.7148
100003.7124
100003.7152
100003.6946
100003.6677
100003.6533
100003.646
100003.6432
100003.6459
100003.6543
100003.6676
100003.6849
100003.7049
100003.7263
100003.7479
100003.7687
100003.7878
100003.8039
100003.8135
100003.8138
100003.806
100003.7596
100003.7536
100003.7524
100003.7428
100003.7302
100003.7185
100003.7135
100003.7051
100003.6876
100003.6713
100003.6623
100003.6569
100003.6523
100003.6508
100003.6539
100003.6616
100003.6735
100003.6887
100003.7062
100003.7247
100003.7436
100003.7605
100003.7735
100003.7765
100003.7745
100003.7682
100003.7553
100003.7498
100003.7486
100003.7417
100003.7344
100003.7241
100003.7165
100003.7064
100003.6948
100003.685
100003.6818
100003.6757
100003.6664
100003.658
100003.6551
100003.6577
100003.665
100003.6765
100003.691
100003.7083
100003.7298
100003.7541
100003.79
100003.7636
100003.7378
100003.7047
100003.7515
100003.7454
100003.7454
100003.7394
100003.7361
100003.7298
100003.7222
100003.7125
100003.7019
100003.6978
100003.7056
100003.693
100003.6781
100003.6643
100003.6561
100003.6552
100003.6606
100003.671
100003.6837
100003.6946
100003.705
100003.714
100003.7241
100003.7171
100003.7098
100003.6985
100003.748
100003.7401
100003.7418
100003.7368
100003.7349
100003.7312
100003.7272
100003.7214
100003.7168
100003.7144
100003.7229
100003.7056
100003.6904
100003.6726
100003.6642
100003.6635
100003.6701
100003.6829
100003.703
100003.7362
100003.7852
100003.8528
100004.2898
100003.7839
100003.7535
100003.7154
100003.7467
100003.7367
100003.7398
100003.736
100003.7354
100003.7339
100003.7322
100003.7323
100003.7454
100003.7395
100003.7526
100003.7169
100003.7177
100003.6892
100003.6788
100003.6778
100003.6854
100003.6987
100003.7139
100003.7265
100003.7349
100003.7337
100003.7373
100003.7064
100003.7132
100003.7119
100003.7506
100003.7382
100003.7414
100003.7377
100003.7366
100003.735
100003.735
100003.7376
100003.7403
100003.7449
100003.7482
100003.7346
100003.727
100003.7122
100003.7057
100003.7062
100003.7143
100003.7294
100003.7517
100003.788
100003.8548
100003.8886
100004.4764
100003.759
100003.8421
100003.7668
100003.76
100003.7456
100003.7482
100003.7435
100003.742
100003.7402
100003.7399
100003.7406
100003.7386
100003.7394
100003.7378
100003.7309
100003.7316
100003.7228
100003.7189
100003.7196
100003.7241
100003.733
100003.7454
100003.7588
100003.7682
100003.7619
100003.7527
100003.7627
100003.7783
100003.7719
100003.7574
100003.7597
100003.7537
100003.7507
100003.7487
100003.7465
100003.743
100003.7405
100003.7455
100003.7507
100003.7541
100003.7511
100003.7441
100003.7381
100003.7336
100003.7325
100003.7358
100003.743
100003.7554
100003.7787
100003.8215
100003.9909
100003.7147
100003.7956
100003.7836
100003.7705
100003.7704
100003.766
100003.7621
100003.7614
100003.7592
100003.7567
100003.7533
100003.7474
100003.7474
100003.7536
100003.7558
100003.7521
100003.7478
100003.7426
100003.739
100003.7391
100003.7409
100003.7414
100003.7298
100003.6818
100003.3487
100003.6364
100003.7529
100003.7933
100003.7798
100003.7793
100003.7704
100003.7672
100003.77
100003.7735
100003.7721
100003.7652
100003.7554
100003.7549
100003.7601
100003.7629
100003.7596
100003.7556
100003.7506
100003.7472
100003.7466
100003.7491
100003.7495
100003.7353
100003.6724
100003.6142
100002.3736
100003.7497
100003.7982
100003.7811
100003.7828
100003.764
100003.7613
100003.7655
100003.7737
100003.7861
100003.7777
100003.7724
100003.7706
100003.7709
100003.7701
100003.7664
100003.7621
100003.7576
100003.7549
100003.7546
100003.7569
100003.7597
100003.759
100003.7512
100003.7473
100003.7401
100003.7692
100003.8262
100003.8094
100003.7839
100003.7893
100003.7536
100003.7522
100003.7515
100003.7605
100003.7752
100003.7786
100003.7832
100003.7836
100003.7807
100003.7758
100003.7703
100003.7654
100003.7612
100003.7585
100003.7577
100003.7595
100003.763
100003.766
100003.7624
100003.7406
100003.6921
100003.7293
100003.7393
100003.9411
100003.9153
100003.8973
100003.8745
100003.8518
100003.8296
100003.8096
100003.7931
100003.7808
100003.773
100003.7701
100003.772
100003.7784
100003.7885
100003.8016
100003.8166
100003.8323
100003.8477
100003.8618
100003.8741
100003.8844
100003.8926
100003.8987
100003.9028
100003.9052
100003.9061
100003.9314
100003.9059
100003.8877
100003.865
100003.8415
100003.818
100003.7962
100003.7771
100003.7617
100003.7508
100003.7445
100003.743
100003.746
100003.7529
100003.7628
100003.7748
100003.7877
100003.8004
100003.8121
100003.8221
100003.8301
100003.8361
100003.8403
100003.843
100003.8446
100003.8453
100003.9131
100003.8918
100003.875
100003.8539
100003.8317
100003.8087
100003.7861
100003.7654
100003.7478
100003.734
100003.7248
100003.7202
100003.7202
100003.7241
100003.7314
100003.7409
100003.7515
100003.7624
100003.7726
100003.7817
100003.7894
100003.7954
100003.8
100003.8032
100003.8051
100003.8059
100003.8936
100003.876
100003.8603
100003.8396
100003.8173
100003.7938
100003.7704
100003.7483
100003.7288
100003.7129
100003.7014
100003.6945
100003.6923
100003.6943
100003.6997
100003.7076
100003.717
100003.7269
100003.7367
100003.7459
100003.754
100003.7609
100003.7664
100003.7705
100003.7731
100003.7741
100003.877
100003.8623
100003.8473
100003.8271
100003.8046
100003.7802
100003.7555
100003.7319
100003.7107
100003.6931
100003.68
100003.6717
100003.6684
100003.6696
100003.6746
100003.6821
100003.6914
100003.7015
100003.7115
100003.7214
100003.7303
100003.738
100003.7444
100003.7492
100003.7523
100003.7537
100003.8627
100003.8494
100003.8345
100003.8139
100003.7906
100003.7653
100003.7396
100003.7149