/*--------------------------------*- C++ -*----------------------------------*\
  =========                 |
  \\      /  F ield         | OpenFOAM: The Open Source CFD Toolbox
   \\    /   O peration     | Website:  https://openfoam.org
    \\  /    A nd           | Version:  8
     \\/     M anipulation  |
\*---------------------------------------------------------------------------*/
FoamFile
{
    version     2.0;
    format      ascii;
    class       surfaceScalarField;
    location    "1.3";
    object      phi;
}
// * * * * * * * * * * * * * * * * * * * * * * * * * * * * * * * * * * * * * //

dimensions      [1 0 -1 0 0 0 0];

internalField   nonuniform List<scalar> 
197783
(
-1.608696488e-05
3.478537743e-06
1.260808906e-05
-2.872662715e-05
1.615248658e-07
1.247779552e-05
-4.013797537e-05
-1.735676381e-06
1.314668306e-05
-5.028092055e-05
-3.915649958e-06
1.405825742e-05
-5.863829446e-05
-6.381335909e-06
1.473837565e-05
-6.502361743e-05
-8.664020367e-06
1.504900963e-05
-6.964731091e-05
-1.046714092e-05
1.50904982e-05
-7.285522289e-05
-1.182570435e-05
1.503327603e-05
-7.493371754e-05
-1.293237514e-05
1.501052509e-05
-7.606754692e-05
-1.396293538e-05
1.509641625e-05
-7.637790275e-05
-1.500828751e-05
1.531829229e-05
-7.597414671e-05
-1.608017415e-05
1.567606645e-05
-7.498631958e-05
-1.714878948e-05
1.616061255e-05
-7.356458902e-05
-1.818782162e-05
1.676574614e-05
-7.184154368e-05
-1.921295174e-05
1.748956977e-05
-6.986940927e-05
-2.029448104e-05
1.832202194e-05
-6.756708947e-05
-2.152485942e-05
1.922223078e-05
-6.472264924e-05
-2.294284699e-05
2.00981176e-05
-6.106833097e-05
-2.446167925e-05
2.0807095e-05
-5.639993399e-05
-2.586858396e-05
2.119994682e-05
-5.069127939e-05
-2.691250863e-05
2.120364104e-05
-4.395781451e-05
-2.741069932e-05
2.067704874e-05
-3.631549779e-05
-2.737149443e-05
1.97290181e-05
-2.786106443e-05
-2.696580041e-05
1.851123134e-05
-1.866249678e-05
-2.642913509e-05
1.723045245e-05
-2.586756881e-05
1.611438489e-05
-1.451675627e-05
5.645071074e-06
1.23498904e-05
-2.660226781e-05
2.489354259e-07
1.19977645e-05
-3.721221871e-05
-3.32303173e-06
1.219697041e-05
-4.657771532e-05
-6.95210343e-06
1.2401618e-05
-5.462026518e-05
-1.068167432e-05
1.23425591e-05
-6.125702353e-05
-1.408038345e-05
1.205279167e-05
-6.652131346e-05
-1.693837472e-05
1.173519042e-05
-7.05035226e-05
-1.9389287e-05
1.154545381e-05
-7.328782674e-05
-2.168764909e-05
1.153923579e-05
-7.493635171e-05
-2.402015975e-05
1.170540395e-05
-7.550793375e-05
-2.644486301e-05
1.200781081e-05
-7.508667535e-05
-2.891483534e-05
1.241305691e-05
-7.379852122e-05
-3.133958521e-05
1.290229924e-05
-7.180799676e-05
-3.364192995e-05
1.346324821e-05
-6.929284215e-05
-3.579565827e-05
1.406722651e-05
-6.640061059e-05
-3.782996444e-05
1.464294018e-05
-6.320346866e-05
-3.978890089e-05
1.506660528e-05
-5.967591744e-05
-4.165790851e-05
1.518723647e-05
-5.571140987e-05
-4.331251261e-05
1.488607421e-05
-5.119911882e-05
-4.452960576e-05
1.414850195e-05
-4.603891001e-05
-4.506069334e-05
1.298776955e-05
-4.014024684e-05
-4.476752632e-05
1.145797931e-05
-3.346632957e-05
-4.371851138e-05
9.672936092e-06
-2.600670423e-05
-4.219371789e-05
7.76814808e-06
-1.779226445e-05
-4.061882164e-05
5.975120051e-06
-3.928358161e-05
4.624771988e-06
-1.323427249e-05
6.127234085e-06
1.275178773e-05
-2.464393276e-05
-2.980742683e-07
1.195634434e-05
-3.494791921e-05
-4.755582368e-06
1.173621189e-05
-4.420461567e-05
-9.201021875e-06
1.150529293e-05
-5.230025192e-05
-1.361703809e-05
1.103068002e-05
-5.916038002e-05
-1.76437263e-05
1.04231497e-05
-6.478561067e-05
-2.121542052e-05
9.901951797e-06
-6.918725287e-05
-2.455717493e-05
9.569201715e-06
-7.235288618e-05
-2.792596924e-05
9.403622136e-06
-7.426120232e-05
-3.144690993e-05
9.334733449e-06
-7.49208477e-05
-3.509449269e-05
9.308942222e-06
-7.440650986e-05
-3.87437783e-05
9.31427419e-06
-7.28653778e-05
-4.225251261e-05
9.371468734e-06
-7.051255075e-05
-4.551999636e-05
9.524920379e-06
-6.758985414e-05
-4.849276122e-05
9.774098648e-06
-6.430726385e-05
-5.115446721e-05
1.004161763e-05
-6.078703326e-05
-5.349352149e-05
1.018411173e-05
-5.703607011e-05
-5.544695997e-05
1.003782954e-05
-5.295812988e-05
-5.687507801e-05
9.484387326e-06
-4.842147571e-05
-5.758872558e-05
8.522248989e-06
-4.331891512e-05
-5.74118281e-05
7.248378392e-06
-3.757156738e-05
-5.625158472e-05
5.736535104e-06
-3.112551823e-05
-5.416620457e-05
4.001487474e-06
-2.395757511e-05
-5.143825154e-05
2.076450929e-06
-1.598525578e-05
-4.868668081e-05
9.541326284e-08
-4.650424997e-05
-1.401852221e-06
-1.252608737e-05
5.281214006e-06
1.337180096e-05
-2.374563956e-05
-1.136943222e-06
1.205811091e-05
-3.408462849e-05
-5.993917803e-06
1.157701454e-05
-4.351177556e-05
-1.086069037e-05
1.108650843e-05
-5.189864608e-05
-1.56325703e-05
1.040209682e-05
-5.916637258e-05
-2.002449929e-05
9.648192146e-06
-6.526451227e-05
-2.40997666e-05
8.982175822e-06
-7.010988141e-05
-2.813000468e-05
8.417886615e-06
-7.359447345e-05
-3.231955792e-05
7.877867001e-06
-7.563739813e-05
-3.66942697e-05
7.289970115e-06
-7.621933942e-05
-4.112868819e-05
6.615822754e-06
-7.544453696e-05
-4.54554591e-05
5.936566111e-06
-7.352571236e-05
-4.954121846e-05
5.369573725e-06
-7.073951341e-05
-5.331530361e-05
5.008810658e-06
-6.737772578e-05
-5.672165945e-05
4.866830081e-06
-6.368822782e-05
-5.969924939e-05
4.855010925e-06
-5.979372448e-05
-6.219547628e-05
4.807192266e-06
-5.567266622e-05
-6.4103613e-05
4.535354284e-06
-5.120106375e-05
-6.528386783e-05
3.936967288e-06
-4.625398821e-05
-6.559868691e-05
3.062686446e-06
-4.077580259e-05
-6.493988086e-05
2.049688211e-06
-3.476500641e-05
-6.323640091e-05
9.738605994e-07
-2.822710865e-05
-6.050142882e-05
-2.028153722e-07
-2.124236197e-05
-5.69576249e-05
-1.465500897e-06
-1.377014081e-05
-5.321555424e-05
-2.943465276e-06
-5.015886495e-05
-4.387184202e-06
-1.279483025e-05
4.008473404e-06
1.406728374e-05
-2.413283624e-05
-2.226774094e-06
1.24275465e-05
-3.469585049e-05
-7.156958025e-06
1.172576486e-05
-4.440014267e-05
-1.223206172e-05
1.107537629e-05
-5.315418112e-05
-1.71837917e-05
1.030497343e-05
-6.087411052e-05
-2.178803933e-05
9.483182078e-06
-6.742326939e-05
-2.619169328e-05
8.640796822e-06
-7.261042735e-05
-3.064958039e-05
7.706443789e-06
-7.624906375e-05
-3.527303345e-05
6.591820817e-06
-7.821379152e-05
-3.998037568e-05
5.250541211e-06
-7.852661914e-05
-4.461619788e-05
3.800043775e-06
-7.7366352e-05
-4.903298159e-05
2.416962655e-06
-7.501954396e-05
-5.316467319e-05
1.27635931e-06
-7.18038548e-05
-5.700556369e-05
4.743006332e-07
-6.801854529e-05
-6.049440928e-05
-1.277267015e-08
-6.393354511e-05
-6.356481016e-05
-2.196836355e-07
-5.962925115e-05
-6.61052975e-05
-3.947095188e-07
-5.503945494e-05
-6.798690534e-05
-7.067227681e-07
-5.000285756e-05
-6.907747275e-05
-1.243190927e-06
-4.43996921e-05
-6.927688762e-05
-1.925142446e-06
-3.824147597e-05
-6.851730128e-05
-2.580953079e-06
-3.165183916e-05
-6.67354914e-05
-3.0906846e-06
-2.479496296e-05
-6.389195044e-05
-3.466476393e-06
-1.782750891e-05
-6.008328069e-05
-3.84190817e-06
-1.086145905e-05
-5.575475008e-05
-4.426958675e-06
-5.194955385e-05
-5.301660807e-06
-1.344510944e-05
2.816511948e-06
1.463680691e-05
-2.529257816e-05
-3.311888734e-06
1.293231716e-05
-3.62102057e-05
-8.387649161e-06
1.214805385e-05
-4.623363417e-05
-1.361708901e-05
1.140819314e-05
-5.537835807e-05
-1.86084613e-05
1.056913169e-05
-6.352781204e-05
-2.323877956e-05
9.599932141e-06
-7.043140557e-05
-2.770779357e-05
8.419431052e-06
-7.580101203e-05
-3.221865347e-05
6.938415241e-06
-7.938459095e-05
-3.677427782e-05
5.084556213e-06
-8.109110451e-05
-4.126545414e-05
2.991321426e-06
-8.101756798e-05
-4.556410158e-05
8.740936844e-07
-7.942691345e-05
-4.96640359e-05
-9.598740032e-07
-7.667430077e-05
-5.355873933e-05
-2.358816161e-06
-7.310511489e-05
-5.722850167e-05
-3.346506596e-06
-6.900979243e-05
-6.061563737e-05
-3.974334094e-06
-6.458859984e-05
-6.363113491e-05
-4.355098305e-06
-5.989342233e-05
-6.615213281e-05
-4.648556576e-06
-5.482367945e-05
-6.803711088e-05
-5.019731435e-06
-4.92007119e-05
-6.915654453e-05
-5.544068497e-06
-4.291096863e-05
-6.942486504e-05
-6.141917699e-06
-3.600682099e-05
-6.879514455e-05
-6.626436581e-06
-2.869300221e-05
-6.722400978e-05
-6.825414993e-06
-2.125769907e-05
-6.466355639e-05
-6.663797365e-06
-1.404891591e-05
-6.111332652e-05
-6.178827954e-06
-7.452100892e-06
-5.677607757e-05
-5.575576426e-06
-5.259720272e-05
-5.329526223e-06
-1.392215969e-05
1.578597506e-06
1.515983672e-05
-2.64080683e-05
-4.445391707e-06
1.361917361e-05
-3.77760009e-05
-9.795872158e-06
1.277591969e-05
-4.818964562e-05
-1.514615733e-05
1.194247904e-05
-5.773717783e-05
-2.002471549e-05
1.096355311e-05
-6.624683361e-05
-2.443555524e-05
9.706198026e-06
-7.338289814e-05
-2.863330062e-05
8.061336769e-06
-7.877110086e-05
-3.276277468e-05
5.932085778e-06
-8.217169247e-05
-3.679511023e-05
3.421180784e-06
-8.353942247e-05
-4.065865786e-05
7.606849378e-07
-8.313454956e-05
-4.433226016e-05
-1.636967054e-06
-8.130610193e-05
-4.791247851e-05
-3.580258052e-06
-7.838339631e-05
-5.140331672e-05
-5.078376637e-06
-7.466076815e-05
-5.477213514e-05
-6.179233205e-06
-7.038261531e-05
-5.795411137e-05
-6.939902571e-06
-6.570426977e-05
-6.085083912e-05
-7.458848298e-06
-6.064679968e-05
-6.333014629e-05
-7.879643458e-06
-5.509630736e-05
-6.524029556e-05
-8.347472417e-06
-4.888323079e-05
-6.644239261e-05
-8.927371375e-06
-4.191914738e-05
-6.684478571e-05
-9.544285386e-06
-3.429501277e-05
-6.640958534e-05
-1.000979865e-05
-2.62720017e-05
-6.512934533e-05
-1.011776569e-05
-1.821660885e-05
-6.300545005e-05
-9.713578743e-06
-1.061152481e-05
-6.002688491e-05
-8.691599366e-06
-4.146932055e-06
-5.618741615e-05
-7.053328574e-06
-5.217553374e-05
-5.416049526e-06
-1.381401077e-05
-2.818999107e-07
1.56743e-05
-2.691397786e-05
-5.743160578e-06
1.439752933e-05
-3.8720493e-05
-1.147668033e-05
1.348711893e-05
-4.953613756e-05
-1.686103983e-05
1.253032384e-05
-5.946325474e-05
-2.143246419e-05
1.133466277e-05
-6.827470521e-05
-2.533520661e-05
9.710897824e-06
-7.556656555e-05
-2.891530022e-05
7.573652939e-06
-8.093173558e-05
-3.231422974e-05
4.916412708e-06
-8.416721326e-05
-3.552335408e-05
1.963502277e-06
-8.53519524e-05
-3.85412744e-05
-9.32870116e-07
-8.485399013e-05
-4.146492784e-05
-3.365524254e-06
-8.302601189e-05
-4.442695527e-05
-5.313730443e-06
-8.014754662e-05
-4.743415856e-05
-6.847846866e-06
-7.645111499e-05
-5.04480566e-05
-8.020723089e-06
-7.212004939e-05
-5.339620004e-05
-8.889174579e-06
-6.725747174e-05
-5.616667439e-05
-9.546920991e-06
-6.185799103e-05
-5.860815473e-05
-1.012162905e-05
-5.581835235e-05
-6.054683457e-05
-1.073323363e-05
-4.901190924e-05
-6.182205526e-05
-1.142689277e-05
-4.140540592e-05
-6.232676338e-05
-1.212461902e-05
-3.314303998e-05
-6.202886086e-05
-1.264316849e-05
-2.45391983e-05
-6.096517273e-05
-1.276808138e-05
-1.601643248e-05
-5.921852812e-05
-1.230974913e-05
-8.119781475e-06
-5.684535147e-05
-1.107824541e-05
-1.698553292e-06
-5.374000832e-05
-8.868701471e-06
-5.031751649e-05
-6.122555816e-06
-1.315092636e-05
-3.274915379e-06
1.614376401e-05
-2.640659048e-05
-7.586507762e-06
1.509883697e-05
-3.855343201e-05
-1.350916837e-05
1.417915698e-05
-4.975560022e-05
-1.881456494e-05
1.315552078e-05
-6.003112087e-05
-2.291867155e-05
1.176155475e-05
-6.914183862e-05
-2.603737479e-05
9.812710659e-06
-7.662631104e-05
-2.871462901e-05
7.283621401e-06
-8.207446992e-05
-3.117203376e-05
4.30577629e-06
-8.532976726e-05
-3.341168601e-05
1.143434897e-06
-8.659800968e-05
-3.550092861e-05
-1.772304345e-06
-8.626823663e-05
-3.761695268e-05
-4.177952478e-06
-8.467051729e-05
-3.991974194e-05
-6.105135731e-06
-8.202865186e-05
-4.242343663e-05
-7.652784373e-06
-7.850755196e-05
-4.508502981e-05
-8.884312634e-06
-7.422010907e-05
-4.781687443e-05
-9.86693853e-06
-6.921326005e-05
-5.04804044e-05
-1.069326914e-05
-6.346278536e-05
-5.288899422e-05
-1.146976296e-05
-5.689787261e-05
-5.483204448e-05
-1.227980794e-05
-4.946673568e-05
-5.611804467e-05
-1.313523192e-05
-4.122557503e-05
-5.662261259e-05
-1.394537882e-05
-3.239935388e-05
-5.632209614e-05
-1.453304078e-05
-2.337102161e-05
-5.530363241e-05
-1.468992031e-05
-1.461681018e-05
-5.374837294e-05
-1.422441352e-05
-6.704960357e-06
-5.183048023e-05
-1.292677332e-05
-5.294787462e-07
-4.939411033e-05
-1.052144165e-05
-4.668673179e-05
-7.321579339e-06
-1.239810962e-05
-7.397289004e-06
1.652033625e-05
-2.515535944e-05
-1.04564443e-05
1.562704282e-05
-3.738274705e-05
-1.622368849e-05
1.494176504e-05
-4.880095729e-05
-2.145271578e-05
1.405621767e-05
-5.929919482e-05
-2.499297016e-05
1.257239154e-05
-6.873070944e-05
-2.699567511e-05
1.038966749e-05
-7.656394453e-05
-2.84807604e-05
7.599213531e-06
-8.233253943e-05
-2.987854203e-05
4.474942819e-06
-8.591741804e-05
-3.109988211e-05
1.272906447e-06
-8.753294435e-05
-3.225990438e-05
-1.62567264e-06
-8.759428176e-05
-3.355570081e-05
-4.000092405e-06
-8.640711104e-05
-3.519337313e-05
-5.913716383e-06
-8.413959618e-05
-3.72065155e-05
-7.484606927e-06
-8.088228838e-05
-3.95425404e-05
-8.799957072e-06
-7.667204837e-05
-4.208400351e-05
-9.943254835e-06
-7.150249101e-05
-4.4648048e-05
-1.100203778e-05
-6.534426739e-05
-4.699721312e-05
-1.205010677e-05
-5.81808835e-05
-4.887528358e-05
-1.312022514e-05
-5.006149517e-05
-5.005885344e-05
-1.417864088e-05
-4.116010351e-05
-5.04091791e-05
-1.511487186e-05
-3.181150318e-05
-4.991249113e-05
-1.575824276e-05
-2.249272791e-05
-4.870818596e-05
-1.591425558e-05
-1.37379999e-05
-4.709469907e-05
-1.540843942e-05
-6.104371853e-06
-4.542282583e-05
-1.404133029e-05
-4.585240082e-07
-4.346194417e-05
-1.157807661e-05
-4.136280546e-05
-8.433607551e-06
-1.198740535e-05
-1.24234558e-05
1.701345506e-05
-2.39491496e-05
-1.474110907e-05
1.624629343e-05
-3.586335641e-05
-2.040264017e-05
1.609304278e-05
-4.702395415e-05
-2.579669157e-05
1.550445731e-05
-5.735695741e-05
-2.867330214e-05
1.401321828e-05
-6.705578826e-05
-2.899374496e-05
1.169678045e-05
-7.549097615e-05
-2.882055779e-05
8.774858897e-06
-8.189893163e-05
-2.905251898e-05
5.581798544e-06
-8.615385153e-05
-2.926792576e-05
2.422821889e-06
-8.838630417e-05
-2.955291062e-05
-4.746891397e-07
-8.901694975e-05
-3.009430994e-05
-2.83089675e-06
-8.835393433e-05
-3.108444717e-05
-4.772092242e-06
-8.651966163e-05
-3.261898826e-05
-6.421945442e-06
-8.353099713e-05
-3.463272735e-05
-7.898612571e-06
-7.935475807e-05
-3.696228874e-05
-9.298073488e-06
-7.39468261e-05
-3.936810682e-05
-1.068797383e-05
-6.729320006e-05
-4.155948319e-05
-1.209143598e-05
-5.944874167e-05
-4.324282171e-05
-1.34769804e-05
-5.057411808e-05
-4.41746095e-05
-1.475891096e-05
-4.097124716e-05
-4.42056765e-05
-1.580640522e-05
-3.110505542e-05
-4.331935659e-05
-1.645935211e-05
-2.158573435e-05
-4.168342187e-05
-1.654411108e-05
-1.304030642e-05
-3.971664672e-05
-1.592351402e-05
-5.964231044e-06
-3.807269732e-05
-1.442625206e-05
-1.086773701e-06
-3.641056057e-05
-1.192890789e-05
-3.483280355e-05
-9.068297003e-06
-1.21511695e-05
-1.835024882e-05
1.807787261e-05
-2.380159365e-05
-2.061142405e-05
1.752064814e-05
-3.518756213e-05
-2.670213564e-05
1.768537313e-05
-4.527157304e-05
-3.254697895e-05
1.683420958e-05
-5.44266842e-05
-3.462110371e-05
1.510282455e-05
-6.393982236e-05
-3.274561426e-05
1.326491478e-05
-7.324599642e-05
-3.022777277e-05
1.071328879e-05
-8.06704664e-05
-2.908781718e-05
7.459660449e-06
-8.587401768e-05
-2.838231461e-05
4.317825017e-06
-8.903029413e-05
-2.78998474e-05
1.5030922e-06
-9.040789278e-05
-2.779277795e-05
-9.240577422e-07
-9.032845929e-05
-2.820785075e-05
-2.956154067e-06
-8.890950915e-05
-2.924582904e-05
-4.79222891e-06
-8.612288774e-05
-3.085740185e-05
-6.562057069e-06
-8.189414838e-05
-3.283718393e-05
-8.353940554e-06
-7.617139951e-05
-3.490274531e-05
-1.018818981e-05
-6.897637268e-05
-3.67378454e-05
-1.20167258e-05
-6.043648934e-05
-3.80450634e-05
-1.373768559e-05
-5.080737816e-05
-3.858585213e-05
-1.52178986e-05
-4.049724292e-05
-3.820357618e-05
-1.631225696e-05
-3.009630523e-05
-3.684594726e-05
-1.687436596e-05
-2.039372181e-05
-3.463123824e-05
-1.675478968e-05
-1.219884544e-05
-3.203223826e-05
-1.587931929e-05
-5.927586456e-06
-3.019624495e-05
-1.414776392e-05
-2.012248048e-06
-2.871526571e-05
-1.161070765e-05
-2.76839275e-05
-9.232930774e-06
-1.359072899e-05
-2.510615732e-05
2.034657021e-05
-2.636114418e-05
-2.754524457e-05
1.970416694e-05
-3.731149693e-05
-3.395683e-05
1.820498324e-05
-4.494560245e-05
-3.96619673e-05
1.474903736e-05
-5.105607118e-05
-4.108625349e-05
1.257556257e-05
-5.899075474e-05
-3.781194259e-05
1.300094824e-05
-6.911889064e-05
-3.276724567e-05
1.266753473e-05
-7.804501615e-05
-2.979689106e-05
9.635117232e-06
-8.444519025e-05
-2.830987266e-05
6.327643042e-06
-8.868694715e-05
-2.71628165e-05
3.504631819e-06
-9.096635185e-05
-2.653257023e-05
1.019100104e-06
-9.152379375e-05
-2.642582641e-05
-1.224678971e-06
-9.050245314e-05
-2.690666417e-05
-3.360598387e-06
-8.788157903e-05
-2.793008202e-05
-5.548279456e-06
-8.359142034e-05
-2.929544469e-05
-7.831972563e-06
-7.760148097e-05
-3.073432559e-05
-1.015842013e-05
-6.997560063e-05
-3.196130402e-05
-1.240246797e-05
-6.089487972e-05
-3.272126142e-05
-1.440455513e-05
-5.066991815e-05
-3.281002481e-05
-1.600081021e-05
-3.976264637e-05
-3.207290391e-05
-1.703795954e-05
-2.883866248e-05
-3.039730094e-05
-1.737264628e-05
-1.886353828e-05
-2.774552122e-05
-1.686086445e-05
-1.097028131e-05
-2.444846308e-05
-1.547707047e-05
-5.652196538e-06
-2.218947922e-05
-1.332491016e-05
-2.710565084e-06
-2.087861771e-05
-1.077836377e-05
-2.050502108e-05
-9.08897608e-06
-1.755893178e-05
-3.100661472e-05
2.345933957e-05
-3.281519577e-05
-3.310663503e-05
2.081761004e-05
-4.265668888e-05
-3.823496759e-05
1.411960021e-05
-4.656360353e-05
-4.251201704e-05
6.756943795e-06
-4.804095625e-05
-4.403077606e-05
4.421851071e-06
-5.216978168e-05
-4.16390489e-05
7.955895658e-06
-6.211187541e-05
-3.551316491e-05
1.268796537e-05
-7.308663377e-05
-3.034583703e-05
1.152364699e-05
-8.096112597e-05
-2.831990949e-05
7.884464591e-06
-8.635665827e-05
-2.649881849e-05
4.73146519e-06
-8.9555295e-05
-2.5374317e-05
2.040311893e-06
-9.078043906e-05
-2.468167517e-05
-5.190788482e-07
-9.023217606e-05
-2.445422396e-05
-3.000772956e-06
-8.789896369e-05
-2.46525959e-05
-5.610763656e-06
-8.373011727e-05
-2.513154488e-05
-8.332804069e-06
-7.772148372e-05
-2.569518823e-05
-1.104781906e-05
-6.99702346e-05
-2.613355313e-05
-1.357903713e-05
-6.068915866e-05
-2.626259466e-05
-1.573976933e-05
-5.021179563e-05
-2.593063093e-05
-1.73567759e-05
-3.900455385e-05
-2.500895606e-05
-1.827120602e-05
-2.771787036e-05
-2.336249828e-05
-1.832150632e-05
-1.733826172e-05
-2.080771138e-05
-1.731744878e-05
-9.367869704e-06
-1.728887683e-05
-1.513002431e-05
-4.841747295e-06
-1.450467145e-05
-1.221099901e-05
-2.586263354e-06
-1.34064243e-05
-9.727774538e-06
-1.382082549e-05
-8.785764233e-06
-2.342861758e-05
-3.316498498e-05
2.558695503e-05
-4.07909785e-05
-3.424507339e-05
1.850078409e-05
-4.843794901e-05
-3.665972379e-05
6.071729505e-06
-4.872071582e-05
-3.906868825e-05
-3.160556495e-06
-4.535227837e-05
-4.110706533e-05
-6.292152348e-06
-4.403198226e-05
-4.050422813e-05
-2.455132793e-06
-5.186989809e-05
-3.551501135e-05
7.83973896e-06
-6.534519198e-05
-2.934572161e-05
1.247514483e-05
-7.532320334e-05
-2.752835052e-05
9.186411765e-06
-8.20567966e-05
-2.516808559e-05
5.402814553e-06
-8.609964521e-05
-2.361318334e-05
2.281665979e-06
-8.792166157e-05
-2.22161719e-05
-6.435372243e-07
-8.786746518e-05
-2.103484007e-05
-3.473630814e-06
-8.59512909e-05
-2.0128933e-05
-6.439886093e-06
-8.212831313e-05
-1.946757313e-05
-9.48699469e-06
-7.640104486e-05
-1.896950504e-05
-1.245299077e-05
-6.888399931e-05
-1.850784841e-05
-1.514278243e-05
-5.980540746e-05
-1.796827762e-05
-1.737293439e-05
-4.95075809e-05
-1.72459771e-05
-1.898250207e-05
-3.844521709e-05
-1.625074287e-05
-1.982059991e-05
-2.719710279e-05
-1.489624392e-05
-1.971439921e-05
-1.658583252e-05
-1.300942456e-05
-1.840960137e-05
-8.10928989e-06
-1.022275113e-05
-1.554272902e-05
-3.660292889e-06
-7.532816605e-06
-1.142093367e-05
-1.512538004e-06
-6.731571799e-06
-8.822720484e-06
-8.22732505e-06
-8.274952613e-06
-2.742073076e-05
-3.074056909e-05
2.499630162e-05
-4.577277569e-05
-3.042196287e-05
1.452894505e-05
-5.237671748e-05
-2.975842625e-05
-2.973328556e-07
-5.011568553e-05
-2.968092243e-05
-1.164878211e-05
-4.233581074e-05
-3.046376096e-05
-1.842316206e-05
-3.494832478e-05
-3.105257374e-05
-1.683913059e-05
-3.865947032e-05
-2.82513685e-05
-3.552500619e-06
-5.443418361e-05
-2.45508123e-05
1.097979208e-05
-6.787112304e-05
-2.459263158e-05
1.05012037e-05
-7.625112964e-05
-2.280604354e-05
6.017940215e-06
-8.101400296e-05
-2.128572563e-05
2.435387187e-06
-8.325933381e-05
-1.91635233e-05
-8.073488254e-07
-8.361527305e-05
-1.677308305e-05
-3.905850708e-06
-8.216347652e-05
-1.442319264e-05
-7.157570682e-06
-7.885458773e-05
-1.230577313e-05
-1.047072224e-05
-7.365715801e-05
-1.053366029e-05
-1.363330602e-05
-6.669797527e-05
-9.027754304e-06
-1.643930543e-05
-5.820971593e-05
-7.73687505e-06
-1.871968822e-05
-4.852654353e-05
-6.589859574e-06
-2.033931672e-05
-3.809638756e-05
-5.506533764e-06
-2.117439726e-05
-2.744976984e-05
-4.468554961e-06
-2.107435032e-05
-1.724280654e-05
-3.411985952e-06
-1.98044626e-05
-8.36184057e-06
-2.104525574e-06
-1.699927157e-05
-2.930573943e-06
-7.213041292e-07
-1.224287851e-05
2.347069834e-07
-1.328768897e-06
-8.568212286e-06
-3.923240056e-06
-8.153636673e-06
-2.370989836e-05
-2.926239531e-05
2.223172655e-05
-4.339735761e-05
-2.551332094e-05
1.477883724e-05
-5.313238392e-05
-1.974937757e-05
-2.739983333e-07
-5.148827385e-05
-1.560807459e-05
-1.57169343e-05
-4.074603959e-05
-1.405147727e-05
-2.715447072e-05
-2.807158137e-05
-1.448936072e-05
-2.923762033e-05
-2.38633844e-05
-1.443071995e-05
-1.802882452e-05
-4.016802896e-05
-1.369015999e-05
5.444001079e-06
-5.915440857e-05
-1.742247603e-05
1.181623197e-05
-6.906813219e-05
-1.950858316e-05
6.616257552e-06
-7.402316831e-05
-1.894974898e-05
2.619048673e-06
-7.633353509e-05
-1.608188305e-05
-7.712878399e-07
-7.698098066e-05
-1.221985192e-05
-3.905801981e-06
-7.610126136e-05
-8.008365765e-06
-7.294564641e-06
-7.363923629e-05
-3.927736137e-06
-1.084008337e-05
-6.943984543e-05
-5.268627419e-07
-1.420621259e-05
-6.350838276e-05
2.130222712e-06
-1.708946626e-05
-5.605191281e-05
4.143438023e-06
-1.933681244e-05
-4.746545654e-05
5.697462222e-06
-2.087381269e-05
-3.824424584e-05
6.888087123e-06
-2.161587567e-05
-2.893609085e-05
7.671030205e-06
-2.144779888e-05
-2.008889697e-05
7.931472362e-06
-2.019072993e-05
-1.20911542e-05
7.50604628e-06
-1.760841325e-05
-5.715359667e-06
6.341860297e-06
-1.343907597e-05
-6.241992462e-08
3.268272423e-06
-1.025012365e-05
7.996191144e-07
-1.10060778e-05
-1.003452507e-05
-3.630047604e-05
1.707260387e-05
-2.679162183e-05
-3.014259213e-05
2.138638033e-05
-4.090459252e-05
-1.889690133e-05
1.326052944e-05
-4.550078657e-05
-5.938027328e-06
-5.073817585e-06
-3.999962481e-05
2.772002094e-06
-2.232461035e-05
-2.996582258e-05
3.482908563e-06
-2.800603628e-05
-2.156409652e-05
-1.450169519e-06
-2.138228788e-05
-3.199787357e-05
-4.894990141e-06
1.638629809e-06
-5.210160742e-05
-1.104335408e-05
1.372464616e-05
-6.165402441e-05
-1.726216993e-05
7.306016028e-06
-6.530705813e-05
-1.807068268e-05
2.773971999e-06
-6.69642025e-05
-1.377564145e-05
-6.490977413e-07
-6.761950775e-05
-8.224826776e-06
-3.339721801e-06
-6.721144513e-05
-2.201230013e-06
-6.215201535e-06
-6.582261573e-05
4.11203317e-06
-9.428606614e-06
-6.316977884e-05
9.441793357e-06
-1.262150808e-05
-5.894423369e-05
1.33565723e-05
-1.545191752e-05
-5.314756654e-05
1.601270561e-05
-1.76659656e-05
-4.618665466e-05
1.784766095e-05
-1.911115146e-05
-3.867870774e-05
1.907961295e-05
-1.969952698e-05
-3.12343331e-05
1.962971224e-05
-1.94031279e-05
-2.42641086e-05
1.917113321e-05
-1.820997578e-05
-1.782794993e-05
1.734813262e-05
-1.627835449e-05
-1.131383518e-05
1.425832154e-05
-1.443070456e-05
-3.247508912e-06
1.026035483e-05
-1.505856798e-05
8.327197303e-06
-1.658631601e-05
-1.224098714e-06
-4.729137369e-05
1.221498893e-05
-6.651643629e-06
-4.233190055e-05
1.761685534e-05
-1.684508089e-05
-3.198739147e-05
2.32839392e-05
-2.976519646e-05
-1.319700201e-05
2.017911464e-05
-3.680346723e-05
4.612926266e-06
5.197380548e-06
-4.098614209e-05
9.529981227e-06
-1.864373093e-06
-4.64891404e-05
6.533057761e-07
3.399547571e-06
-5.219776394e-05
-9.468862682e-06
1.02825278e-05
-5.6862261e-05
-1.593268435e-05
9.553853043e-06
-5.804527994e-05
-2.210099171e-05
6.021857624e-06
-5.636233834e-05
-2.223430266e-05
2.480693663e-06
-5.621281656e-05
-1.285772017e-05
-1.067430801e-06
-5.675003397e-05
-4.352269254e-06
-3.335330104e-06
-5.684182164e-05
2.884957699e-06
-4.994392504e-06
-5.708087643e-05
1.116721398e-05
-6.81612211e-06
-5.647626939e-05
1.799112609e-05
-9.153943385e-06
-5.426855034e-05
2.282350178e-05
-1.167466381e-05
-5.026721331e-05
2.58011176e-05
-1.378977756e-05
-4.501121874e-05
2.77473043e-05
-1.515568097e-05
-3.930621018e-05
2.910542741e-05
-1.573088279e-05
-3.384522527e-05
2.977503126e-05
-1.560638244e-05
-2.877593629e-05
2.92700933e-05
-1.516834715e-05
-2.339985276e-05
2.716798174e-05
-1.519605221e-05
-1.629835856e-05
2.374101653e-05
-1.658433482e-05
-6.766836458e-06
2.010876644e-05
-1.938012036e-05
1.801115731e-05
-2.0623159e-05
-3.267883316e-06
-5.58549731e-05
1.183147507e-05
-8.249877083e-06
-5.014839084e-05
1.279848964e-05
-1.434862666e-05
-4.258917764e-05
1.670054949e-05
-2.103410375e-05
-2.922336581e-05
2.271186227e-05
-2.565479599e-05
-1.417456147e-05
2.340821148e-05
-2.973653582e-05
-5.096434978e-06
1.870819399e-05
-3.876573549e-05
-8.967005179e-06
1.864954115e-05
-4.87258062e-05
-1.703860104e-05
1.752984279e-05
-5.390049529e-05
-2.45638494e-05
1.380588195e-05
-5.21991371e-05
-3.278764799e-05
8.985318938e-06
-4.529630785e-05
-3.266330629e-05
3.526206669e-06
-4.340563145e-05
-1.396436951e-05
-7.839999305e-07
-4.513891782e-05
1.336513691e-06
-3.955475277e-06
-4.639688447e-05
9.069433009e-06
-4.92649755e-06
-4.821942631e-05
1.778198126e-05
-4.792215968e-06
-4.973175276e-05
2.47199574e-05
-5.216499756e-06
-4.97684137e-05
2.962021985e-05
-6.76006371e-06
-4.766434136e-05
3.230031542e-05
-8.603293403e-06
-4.398634188e-05
3.399047275e-05
-9.921209623e-06
-3.981017205e-05
3.544633319e-05
-1.051713759e-05
-3.585743629e-05
3.654503098e-05
-1.072282008e-05
-3.193200486e-05
3.666778602e-05
-1.132323384e-05
-2.688296894e-05
3.535233422e-05
-1.3233528e-05
-1.929171505e-05
3.255114232e-05
-1.640154755e-05
-9.396919994e-06
2.971141092e-05
-1.94976703e-05
2.796644012e-05
-2.044561429e-05
-7.974290288e-06
-6.100368481e-05
1.312300383e-05
-1.311638703e-05
-5.482164575e-05
9.81536562e-06
-1.68344563e-05
-4.929786982e-05
1.042678161e-05
-1.969038621e-05
-4.101445008e-05
1.464703984e-05
-2.126437095e-05
-3.229659107e-05
1.969604513e-05
-2.464777166e-05
-2.521437691e-05
2.350138078e-05
-3.595495394e-05
-2.280699545e-05
2.514721732e-05
-5.008053677e-05
-2.707537134e-05
2.416239232e-05
-5.762145366e-05
-3.639610519e-05
1.937319252e-05
-5.264244203e-05
-4.57456648e-05
7.979015888e-06
-3.82888447e-05
-4.380106675e-05
-3.215798128e-06
-3.218832662e-05
-2.024670824e-05
1.818380855e-07
-3.740487663e-05
5.629434148e-06
9.236529278e-07
-3.950168443e-05
1.231469857e-05
-1.148429425e-06
-4.26754411e-05
2.209154312e-05
-1.135790732e-06
-4.54633079e-05
2.784063097e-05
-3.327953972e-07
-4.685823464e-05
3.166737073e-05
-6.52221232e-07
-4.590417167e-05
3.323984724e-05
-1.893607651e-06
-4.306478362e-05
3.417913245e-05
-3.028080229e-06
-3.951857961e-05
3.551966144e-05
-3.619585978e-06
-3.60356479e-05
3.718160224e-05
-4.119579829e-06
-3.235693154e-05
3.852627861e-05
-5.537312015e-06
-2.75318681e-05
3.92133646e-05
-8.686229301e-06
-1.998269346e-05
3.769364934e-05
-1.269183937e-05
-1.041673386e-05
3.590122668e-05
-1.575597081e-05
3.36893002e-05
-1.683947449e-05
-1.276586459e-05
-6.199345821e-05
1.375565163e-05
-1.817029684e-05
-5.633178566e-05
6.914591724e-06
-2.054870415e-05
-5.221909822e-05
5.299658583e-06
-2.201087502e-05
-4.729897001e-05
7.746717474e-06
-2.388733772e-05
-4.251038932e-05
1.209029002e-05
-2.840887471e-05
-3.796348269e-05
1.727066908e-05
-4.065178787e-05
-3.401487336e-05
2.345081488e-05
-5.952149935e-05
-3.267731768e-05
2.447167673e-05
-7.032842226e-05
-3.5246005e-05
9.656833655e-06
-6.132014242e-05
-3.691115799e-05
-1.784268112e-05
-3.241284155e-05
-3.301582601e-05
-3.969231529e-05
-1.891832373e-05
-1.367552857e-05
-2.006557792e-05
-2.957279482e-05
1.143717331e-05
4.846785023e-06
-3.68074349e-05
1.583179119e-05
3.717583069e-06
-4.15407576e-05
2.313269631e-05
3.692195027e-06
-4.466015986e-05
2.579988125e-05
5.160171866e-06
-4.606500471e-05
2.735022345e-05
5.722004463e-06
-4.502138589e-05
2.701194172e-05
5.18428418e-06
-4.188376957e-05
2.65460627e-05
4.495429315e-06
-3.779224753e-05
2.722759508e-05
4.200493702e-06
-3.37807019e-05
2.935993862e-05
3.81003829e-06
-2.96532649e-05
3.259074312e-05
1.80799068e-06
-2.487841611e-05
3.81797415e-05
-3.741395116e-06
-1.794752191e-05
3.830296991e-05
-7.540356075e-06
-1.018584809e-05
3.732694586e-05
-9.187558946e-06
3.331200323e-05
-9.866608975e-06
-1.59247557e-05
-5.908960502e-05
1.302092526e-05
-2.119139211e-05
-5.47741399e-05
3.709012096e-06
-2.236029221e-05
-5.153202616e-05
4.818519364e-07
-2.330361941e-05
-4.853769606e-05
2.18208061e-06
-2.719073423e-05
-4.565390963e-05
7.030667275e-06
-3.606556878e-05
-4.243723444e-05
1.334862289e-05
-5.164448523e-05
-3.884436371e-05
2.04084538e-05
-6.864093324e-05
-3.546258149e-05
1.978178797e-05
-7.218342921e-05
-3.075887121e-05
-9.444823949e-07
-5.786945718e-05
-7.740974022e-06
-4.348378605e-05
-2.897725667e-05
1.493483657e-05
-7.684238415e-05
-1.870071443e-06
1.158469452e-05
-5.236712909e-05
-1.281354434e-05
1.549777905e-05
6.88294605e-06
-3.414814881e-05
2.183084481e-05
1.533563188e-05
-4.217476666e-05
1.998644201e-05
1.117291344e-05
-4.714978906e-05
1.941794952e-05
1.135699315e-05
-4.823216931e-05
1.702193303e-05
1.141069607e-05
-4.609579363e-05
1.363987593e-05
1.12357003e-05
-4.120625472e-05
1.040971898e-05
1.124679562e-05
-3.456739425e-05
8.723524743e-06
1.186517923e-05
-2.705557297e-05
9.026485398e-06
1.282158002e-05
-2.016974874e-05