/*--------------------------------*- C++ -*----------------------------------*\
  =========                 |
  \\      /  F ield         | OpenFOAM: The Open Source CFD Toolbox
   \\    /   O peration     | Website:  https://openfoam.org
    \\  /    A nd           | Version:  8
     \\/     M anipulation  |
\*---------------------------------------------------------------------------*/
FoamFile
{
    version     2.0;
    format      ascii;
    class       volScalarField;
    location    "1.3/wallFilmRegion";
    object      kappa;
}
// * * * * * * * * * * * * * * * * * * * * * * * * * * * * * * * * * * * * * //

dimensions      [1 1 -3 -1 0 0 0];

internalField   nonuniform List<scalar> 
1342
(
0.6088099916
0.6088099935
0.6088099957
0.6088099967
0.6088099887
0.6088099959
0.6088099993
0.6088100151
0.6088100001
0.608810001
0.6088100042
0.6088100134
0.6088100289
0.6088100292
0.6088100183
0.6088100116
0.6088100081
0.608810006
0.6088100046
0.6088100037
0.6088100031
0.6088100028
0.6088100028
0.6088100028
0.6088100027
0.6088100029
0.6088099926
0.6088099932
0.6088099947
0.6088099964
0.6088099941
0.6088099872
0.6088099941
0.6088099994
0.6088100012
0.60881
0.6088100003
0.608810001
0.6088100038
0.608810016
0.6088100404
0.6088100243
0.6088100146
0.60881001
0.6088100074
0.6088100056
0.6088100044
0.6088100036
0.6088100032
0.6088100031
0.6088100032
0.6088100033
0.6088100031
0.608809993
0.6088099948
0.6088099953
0.6088099961
0.6088099967
0.6088099896
0.6088099866
0.6088100002
0.6088100001
0.60881
0.60881
0.6088100001
0.6088100002
0.6088100005
0.6088100015
0.6088100121
0.6088100308
0.6088100186
0.6088100125
0.6088100091
0.6088100068
0.6088100052
0.608810004
0.6088100033
0.608810003
0.608810003
0.6088100032
0.6088100032
0.6088099965
0.6088099976
0.6088099978
0.6088099978
0.6088099988
0.6088100013
0.608810006
0.6088100223
0.6088100073
0.6088100007
0.6088100001
0.6088100049
0.6088100202
0.6088100462
0.6088101359
0.6088100995
0.608810042
0.6088100237
0.6088100157
0.6088100113
0.6088100084
0.6088100061
0.6088100045
0.6088100034
0.6088100029
0.6088100028
0.6088100029
0.6088100032
0.6088099966
0.608809998
0.6088099981
0.6088099986
0.6088099978
0.6088100028
0.6088100005
0.6088100063
0.6088100022
0.6088100015
0.6088100003
0.6088100023
0.6088100037
0.6088100072
0.6088100169
0.6088100993
0.608810042
0.6088100238
0.6088100159
0.6088100116
0.6088100088
0.6088100065
0.6088100048
0.6088100036
0.6088100029
0.6088100027
0.6088100028
0.6088100031
0.6088099919
0.6088099878
0.6088099959
0.6088099975
0.6088099975
0.6088099958
0.608809999
0.6088099981
0.6088105717
0.6088100085
0.6088100024
0.608810001
0.608810005
0.6088100077
0.6088100172
0.6088100798
0.6088100605
0.608810029
0.6088100167
0.6088100112
0.6088100082
0.6088100062
0.6088100049
0.6088100041
0.6088100037
0.6088100036
0.6088100039
0.6088100046
0.6088100028
0.608809996
0.608809993
0.608809998
0.6088099978
0.6088099977
0.6088099959
0.6088099978
0.6088099983
0.6088135162
0.6088135244
0.6088100035
0.6088100027
0.6088100102
0.6088100456
0.6088101616
0.6088104874
0.6088100529
0.6088100236
0.6088100134
0.6088100089
0.6088100065
0.6088100051
0.6088100042
0.6088100037
0.6088100035
0.6088100036
0.6088100038
0.6088100043
0.6088100028
0.6088099962
0.6088099972
0.608809998
0.6088099974
0.6088099992
0.6088099979
0.6088099973
0.6088100016
0.6088100123
0.6088100069
0.6088100047
0.6088100045
0.6088100065
0.6088100085
0.6088100246
0.6088101295
0.6088100501
0.6088100214
0.608810012
0.6088100079
0.6088100058
0.6088100046
0.6088100039
0.6088100035
0.6088100035
0.6088100036
0.6088100037
0.608810004
0.6088100026
0.6088099955
0.6088099971
0.6088099973
0.6088099952
0.6088099993
0.6088100002
0.6088099971
0.6088100081
0.6088100173
0.6088100104
0.6088100071
0.6088100067
0.6088100089
0.6088100069
0.6088100105
0.6088100473
0.6088100217
0.6088100104
0.6088100064
0.6088100046
0.6088100038
0.6088100033
0.6088100031
0.608810003
0.6088100031
0.6088100033
0.6088100035
0.6088100037
0.6088100025
0.6088099958
0.6088099966
0.6088099961
0.60880999
0.6088100002
0.6088099998
0.6088099971
0.6088100174
0.6088100259
0.6088100176
0.6088100125
0.6088100116
0.6088100133
0.6088100089
0.6088100102
0.6088100182
0.6088100041
0.6088100018
0.6088100012
0.6088100011
0.6088100011
0.6088100013
0.6088100015
0.6088100018
0.6088100022
0.6088100027
0.6088100031
0.6088100032
0.6088100024
0.608809999
0.6088099971
0.6088099939
0.608809985
0.6088099935
0.6088099996
0.6088099971
0.6088100139
0.6088100253
0.6088100276
0.6088100253
0.608810023
0.60881002
0.6088100126
0.6088100123
0.6088100154
0.6088100087
0.6088100069
0.6088100042
0.6088100014
0.6088100012
0.6088100012
0.6088100013
0.6088100015
0.6088100019
0.6088100022
0.6088100027
0.6088100029
0.6088100024
0.6088099911
0.6088099898
0.6088099935
0.6088099914
0.6088099968
0.6088099988
0.6088099973
0.6088100043
0.6088100075
0.6088099907
0.6088099885
0.6088100417
0.6088100244
0.6088100096
0.6088100122
0.6088100162
0.6088100132
0.6088100117
0.6088100098
0.6088100027
0.6088100017
0.6088100014
0.6088100015
0.6088100012
0.6088100012
0.6088100015
0.6088100021
0.6088100025
0.6088100024
0.6088099911
0.6088099915
0.6088099978
0.6088099947
0.6088099953
0.6088099957
0.6088099973
0.6088099905
0.6088099914
0.6088099904
0.608809986
0.6088100157
0.6088100073
0.608810006
0.6088100102
0.6088100163
0.6088100132
0.6088100093
0.6088100068
0.608810004
0.6088100025
0.6088100019
0.6088100017
0.6088100009
0.6088100007
0.6088100009
0.6088100015
0.6088100021
0.6088100023
0.6088099978
0.6088099988
0.6088099991
0.6088099989
0.6088099988
0.6088099985
0.6088100024
0.608809994
0.6088099969
0.6088099985
0.6088099954
0.608809996
0.6088099983
0.6088100022
0.608810002
0.608810002
0.6088100022
0.6088100028
0.6088100032
0.608810003
0.6088100026
0.6088100022
0.6088100019
0.6088100009
0.6088100006
0.6088100007
0.6088100013
0.608810002
0.6088100023
0.6088099925
0.608809999
0.6088100018
0.6088100011
0.6088100005
0.6088100001
0.6088100007
0.608809999
0.6088099997
0.6088099997
0.6088099934
0.6088099933
0.6088099944
0.6088100045
0.6088100146
0.6088100022
0.608810002
0.6088100021
0.6088100022
0.6088100023
0.6088100019
0.6088100008
0.6088100008
0.6088100002
0.6088100001
0.6088100002
0.6088100005
0.6088100011
0.6088100022
0.6088099899
0.6088099928
0.6088100035
0.6088100021
0.6088100012
0.6088100005
0.6088100003
0.6088099948
0.6088099987
0.6088100001
0.6088099942
0.6088100094
0.6088100222
0.608810085
0.6088101127
0.6088100031
0.6088100023
0.6088100021
0.608810002
0.6088100019
0.6088100017
0.6088100009
0.6088100007
0.6088100002
0.6088100002
0.6088100003
0.6088100006
0.6088100012
0.6088100022
0.6088099906
0.608809977
0.6088100283
0.6088100105
0.608810003
0.6088100009
0.6088100002
0.6088099976
0.6088100004
0.6088100028
0.6088099995
0.6088100948
0.6088100513
0.6088100474
0.6088100472
0.6088100065
0.6088100031
0.6088100023
0.6088100019
0.6088100018
0.6088100017
0.6088100012
0.608810001
0.6088100004
0.6088100003
0.6088100005
0.6088100008
0.6088100015
0.6088100023
0.6088099904
0.6088099777
0.6088100102
0.6088100069
0.6088100033
0.6088100013
0.6088100002
0.60881
0.6088100028
0.6088100054
0.6088100053
0.6088100045
0.608810005
0.6088100058
0.6088100073
0.608810007
0.6088100041
0.6088100026
0.608810002
0.6088100018
0.6088100016
0.6088100014
0.6088100014
0.6088100007
0.6088100006
0.6088100008
0.6088100013
0.608810002
0.6088100023
0.6088099909
0.6088099817
0.6088100065
0.6088100061
0.6088100038
0.6088100018
0.6088100002
0.608810001
0.6088100028
0.6088100022
0.6088100017
0.6088100016
0.6088100019
0.6088100025
0.6088100035
0.6088100049
0.6088100045
0.608810003
0.6088100022
0.6088100019
0.6088100017
0.6088100016
0.6088100016
0.6088100011
0.6088100011
0.6088100014
0.6088100019
0.6088100024
0.6088100023
0.6088099944
0.60880999
0.6088100044
0.6088100047
0.6088100038
0.6088100021
0.6088100003
0.6088100012
0.6088100022
0.6088100015
0.6088100013
0.6088100014
0.6088100016
0.6088100022
0.6088100031
0.6088100045
0.6088100048
0.6088100035
0.6088100025
0.608810002
0.6088100018
0.6088100017
0.6088100024
0.6088100025
0.6088100026
0.6088100026
0.6088100027
0.6088100028
0.6088100023
0.6088099985
0.6088099978
0.6088100032
0.6088100034
0.6088100034
0.6088100023
0.6088100004
0.6088100014
0.6088100019
0.6088100014
0.6088100014
0.6088100015
0.6088100019
0.6088100025
0.6088100035
0.6088100049
0.6088100052
0.608810004
0.6088100029
0.6088100023
0.608810002
0.6088100023
0.6088100027
0.6088100027
0.6088100025
0.6088100024
0.6088100024
0.6088100026
0.6088100022
0.608810001
0.6088100013
0.6088100027
0.6088100027
0.6088100026
0.6088100024
0.6088100007
0.6088100017
0.6088100018
0.6088100014
0.6088100015
0.6088100018
0.6088100023
0.6088100032
0.6088100044
0.6088100055
0.6088100056
0.6088100044
0.6088100033
0.6088100026
0.6088100021
0.6088100026
0.6088100027
0.6088100025
0.6088100024
0.6088100023
0.6088100025
0.6088100023
0.6088100021
0.6088100019
0.6088100026
0.6088100029
0.6088100026
0.6088100022
0.6088100021
0.6088100013
0.6088100017
0.6088100016
0.6088100015
0.6088100017
0.6088100021
0.6088100031
0.6088100043
0.6088100054
0.608810006
0.6088100058
0.6088100047
0.6088100037
0.6088100029
0.6088100024
0.6088100027
0.6088100025
0.6088100024
0.6088100022
0.6088100022
0.6088100022
0.6088100021
0.608810002
0.6088099999
0.6088100013
0.6088100017
0.6088100017
0.6088099992
0.6088100001
0.6088100007
0.6088100011
0.6088100014
0.6088100016
0.6088100019
0.6088100027
0.6088100041
0.6088100057
0.6088100064
0.6088100062
0.6088100056
0.6088100047
0.6088100038
0.6088100027
0.6088100026
0.6088100026
0.6088100024
0.6088100023
0.6088100021
0.608810002
0.608810002
0.6088100019
0.6088100019
0.6088099999
0.6088100016
0.6088100039
0.6088100062
0.6088099919
0.6088099993
0.6088100012
0.6088100014
0.6088100015
0.6088100018
0.6088100024
0.6088100035
0.6088100055
0.6088100071
0.608810007
0.6088100061
0.6088100053
0.6088100045
0.6088100036
0.6088100025
0.6088100026
0.6088100025
0.6088100023
0.6088100022
0.6088100021
0.608810002
0.6088100018
0.6088100017
0.6088100017
0.6088101819
0.6088102083
0.6088102282
0.6088101689
0.6088100422
0.6088100046
0.6088100016
0.6088100016
0.6088100018
0.6088100022
0.6088100031
0.6088100049
0.6088100074
0.6088100083
0.6088100072
0.6088100059
0.6088100048
0.6088100041
0.6088100033
0.6088100022
0.6088100025
0.6088100025
0.6088100022
0.6088100021
0.608810002
0.608810002
0.6088100019
0.6088100016
0.6088100016
0.6088103227
0.6088105076
0.6088106027
0.6088104649
0.6088101845
0.6088100159
0.6088100019
0.6088100019
0.6088099913
0.6088099934
0.608809999
0.6088100044
0.6088100084
0.6088100089
0.6088100071
0.6088100054
0.6088100043
0.6088100036
0.6088100029
0.6088100018
0.6088100024
0.6088100027
0.6088100022
0.608810002
0.608810002
0.608810002
0.6088100019
0.6088100018
0.6088100015
0.6088100831
0.6088101328
0.6088101628
0.6088101194
0.6088100629
0.6088100134
0.6088100023
0.6088100022
0.6088099847
0.6088099844
0.6088099876
0.6088099948
0.6088100029
0.6088100061
0.6088100056
0.6088100044
0.6088100035
0.6088100028
0.6088100022
0.6088100014
0.6088100021
0.6088100024
0.6088100023
0.6088100019
0.6088100018
0.6088100019
0.6088100019
0.6088100018
0.6088100018
0.6088100307
0.6088100595
0.6088100865
0.6088100752
0.6088100417
0.6088100137
0.6088100028
0.6088100027
0.6088100012
0.608810001
0.6088100012
0.6088100017
0.6088100036
0.6088100043
0.6088100039
0.6088100031
0.6088100025
0.608810002
0.6088100016
0.6088100013
0.6088100018
0.6088100021
0.6088100022
0.6088100021
0.6088100015
0.6088100015
0.6088100015
0.6088100014
0.6088100015
0.6088100012
0.6088100011
0.608810001
0.6088100006
0.6088100006
0.6088100006
0.6088100007
0.6088100008
0.6088100008
0.6088100009
0.608810001
0.6088100011
0.6088100011
0.6088100012
0.6088100012
0.6088100012
0.6088100013
0.6088100013
0.6088100013
0.6088100013
0.6088100015
0.6088100017
0.6088100018
0.6088100017
0.6088100014
0.6088100012
0.6088100009
0.6088100008
0.6088100011
0.608809994
0.6088099997
0.6088099976
0.6088099993
0.6088099973
0.6088099985
0.6088099994
0.6088099998
0.6088085526
0.6088085701
0.6088085749
0.6088086206
0.6088081608
0.608808383
0.6088084556
0.6088084827
0.6088080264
0.6088082831
0.6088083416
0.6088084059
0.6088081519
0.6088084899
0.6088085791
0.6088086314
0.6088099942
0.6088099974
0.6088099972
0.6088099914
0.6088099969
0.6088099961
0.6088099907
0.6088099942
0.6088099884
0.6088099895
0.608809976
0.6088099568
0.6088099814
0.6088099431
0.6088099389
0.6088099878
0.6088099419
0.6088099465
0.6088099882
0.6088099501
0.6088099539
0.6088099886
0.6088099592
0.6088099682
0.6088099902
0.6088099826
0.6088099917
0.6088099928
0.6088099968
0.6088099974
0.6088099973
0.6088099973
0.6088099973
0.6088099973
0.6088099972
0.6088099972
0.6088099973
0.6088099972
0.6088099973
0.6088099971
0.608809997
0.6088099964
0.6088099964
0.608809996
0.6088099968
0.6088099967
0.6088099969
0.6088099955
0.6088099954
0.6088099948
0.6088099951
0.6088099965
0.6088099964
0.6088099965
0.6088099951
0.6088099952
0.6088099958
0.608809996
0.6088099952
0.6088099919
0.6088099946
0.6088099963
0.6088099966
0.6088099961
0.6088099959
0.6088099958
0.6088099955
0.6088099934
0.6088099907
0.6088099919
0.6088099975
0.6088099942
0.6088099975
0.6088099909
0.6088099893
0.6088099895
0.6088099877
0.6088099875
0.6088099873
0.6088099871
0.6088099833
0.6088099842
0.6088099876
0.6088099854
0.6088099874
0.6088099874
0.6088099876
0.6088099879
0.6088099879
0.6088099879
0.608809988
0.6088099882
0.6088099884
0.6088099887
0.6088099881
0.6088100538
0.6088100524
0.6088099897
0.6088099911
0.6088099922
0.608810006
0.6088099965
0.6088099949
0.6088099987
0.6088099989
0.6088090301
0.6088090772
0.6088089123
0.6088089813
0.6088088778
0.6088088452
0.6088089467
0.6088088221
0.6088088138
0.608808817
0.6088099962
0.608809997
0.6088099965
0.6088099871
0.6088099947
0.6088099888
0.6088099593
0.6088099772
0.6088099695
0.6088099498
0.6088099631
0.6088099607
0.6088099546
0.6088099614
0.6088099626
0.6088099596
0.6088099634
0.6088099661
0.6088099757
0.6088099726
0.6088099832
0.6088099935
0.6088099906
0.6088099945
0.6088088249
0.6088087647
0.6088087448
0.6088086643
0.6088087543
0.6088087681
0.6088099966
0.6088099969
0.6088099966
0.608809992
0.6088099958
0.6088099941
0.6088099783
0.6088099901
0.6088099855
0.60880997
0.6088099807
0.6088099777
0.6088099698
0.6088099764
0.6088099763
0.6088099739
0.6088099774
0.6088099829
0.6088099889
0.6088099885
0.6088099926
0.6088099956
0.6088099951
0.6088099964
0.6088085726
0.608808401
0.6088084504
0.6088085694
0.6088084897
0.6088085232
0.6088085932
0.6088099951
0.6088099956
0.6088099954
0.6088099908
0.6088099949
0.6088099939
0.6088099837
0.6088099923
0.6088099884
0.608809983
0.6088099879
0.6088099897
0.6088099899
0.6088099917
0.6088099938
0.6088099948
0.6088099949
0.608809996
0.6088080646
0.6088082539
0.6088084197
0.6088083321
0.6088083597
0.6088084914
0.6088083719
0.6088099952
0.6088099951
0.6088099956
0.6088099929
0.6088099956
0.6088099949
0.6088099939
0.6088099951
0.6088099955
0.6088099956
0.6088099958
0.6088099962
0.608808299
0.6088099969
0.6088099962
0.6088099962
0.6088099976
0.6088092435
0.6088099975
0.6088092565
0.6088099974
0.6088092369
0.6088099922
0.608809993
0.6088099964
0.6088099961
0.6088099911
0.6088099912
0.6088099971
0.6088099903
0.6088099902
0.608809991
0.6088099873
0.6088099871
0.6088099873
0.6088099872
0.6088099873
0.6088099876
0.608809988
0.6088099879
0.6088099881
0.6088099884
0.6088099893
0.6088100215
0.6088099891
0.6088099936
0.6088099963
0.6088099954
0.6088099982
0.6088099973
0.60880906
0.6088090096
0.6088089581
0.608809997
0.6088099943
0.6088099696
0.6088099522
0.6088099519
0.6088099567
0.6088099651
0.6088099877
0.6088099971
0.6088094166
0.6088088081
0.6088087929
0.6088087387
0.608808747
0.6088087394
0.6088087519
0.608809997
0.6088099953
0.6088099845
0.6088099725
0.6088099696
0.60880997
0.6088099816
0.6088099932
0.6088099972
0.6088099967
0.6088099959
0.6088099934
0.6088099875
0.6088099822
0.6088099855
0.6088099927
0.6088099962
0.608809997
0.6088083762
0.6088083367
0.6088082856
0.6088082245
0.6088082777
0.6088081209
0.6088099952
0.6088099953
0.6088099946
0.6088099931
0.6088099947
0.608809996
0.6088099967
0.6088082227
0.6088083264
0.6088084019
0.6088099945
0.6088080049
0.6088080595
0.6088083187
0.6088084427
0.6088084837
0.6088085448
0.6088099952
0.6088080425
0.6088083754
0.6088085422
0.6088086155
0.6088099956
0.6088080415
0.608808368
0.6088085129
0.6088086107
0.608809996
0.6088081125
0.608808351
0.6088084626
0.6088085446
0.6088099975
0.6088094889
0.6088099948
0.6088099965
0.608809175
0.6088091624
0.6088099975
0.6088092876
0.608809997
0.6088099971
0.6088091697
0.6088091484
0.6088099974
0.6088092315
0.608809997
0.608809997
0.6088091222
0.6088091067
0.608809997
0.6088091077
0.6088099982
0.6088099946
0.6088099978
0.6088099995
0.6088099983
0.6088099992
0.6088099979
0.6088099995
0.6088099989
0.6088099974
0.6088099985
0.608809999
0.6088099994
0.6088099996
0.6088099998
0.6088099999
0.6088087285
0.6088087356
0.6088099951
0.6088099967
0.6088099977
0.6088099987
0.6088099991
0.6088099979
0.6088099992
0.6088099997
0.6088099995
0.6088099997
0.6088085508
0.6088085877
0.6088085926
0.6088083291
0.6088082573
0.6088083272
0.6088083284
0.6088083115
0.6088082991
0.6088083118
0.6088082888
0.6088081912
0.6088082518
0.6088083181
0.6088082546
0.6088081878
0.6088082426
0.6088083918
0.6088084319
0.6088082082
0.6088083013
0.608808372
0.6088083969
0.6088083802
0.6088084394
0.6088084632
0.608808429
0.608808196
0.6088083489
0.6088085396
0.608808378
0.6088083973
0.608808394
0.6088084371
0.6088084667
0.6088084869
0.6088083843
0.6088084926
0.6088083596
0.6088083238
0.6088084004
0.6088082255
0.6088080404
0.6088082546
0.6088083946
0.6088083679
0.6088084413
0.6088084977
0.6088085018
0.6088085681
0.6088085774
0.6088082533
0.6088080373
0.6088082526
0.6088084552
0.6088083631
0.608808465
0.6088085806
0.6088085211
0.6088085782
0.6088086075
0.6088082501
0.60880807
0.6088082706
0.6088084482
0.6088083758
0.6088084477
0.6088085357
0.6088084938
0.6088085642
0.6088086048
0.6088082776
0.6088081783
0.608808363
0.6088084384
0.608808443
0.6088085068
0.6088084832
0.6088085585
0.6088086016
0.6088086116
0.6088086345
)
;

boundaryField
{
    walls
    {
        type            zeroGradient;
    }
    wallFilmFace_top
    {
        type            zeroGradient;
    }
    region0_to_wallFilmRegion_wallFilmFace
    {
        type            zeroGradient;
    }
    mirrorFace_top
    {
        type            zeroGradient;
    }
    region0_to_wallFilmRegion_mirrorFace
    {
        type            zeroGradient;
    }
    procBoundary2to0
    {
        type            processor;
        value           nonuniform List<scalar> 
26
(
0.6088099911
0.6088099925
0.6088099949
0.608809996
0.6088099953
0.6088099974
0.6088099994
0.6088100747
0.6088100006
0.6088100031
0.6088100077
0.6088100119
0.6088100178
0.6088100191
0.6088100139
0.6088100092
0.6088100064
0.6088100045
0.6088100032
0.6088100023
0.6088100018
0.6088100014
0.6088100011
0.6088100009
0.6088100005
0.6088100027
)
;
    }
    procBoundary2to1
    {
        type            processor;
        value           nonuniform List<scalar> 
33
(
0.6088099909
0.6088099909
0.6088099908
0.6088099908
0.6088099924
0.608809996
0.608809997
0.608809997
0.608809995
0.6088099969
0.608809996
0.6088099896
0.6088099942
0.608809993
0.6088099911
0.608809988
0.6088099877
0.6088099876
0.6088099896
0.6088099924
0.6088099938
0.608809995
0.6088099972
0.6088099994
0.608810001
0.6088099989
0.6088099938
0.6088099967
0.6088099983
0.6088099999
0.6088100056
0.6088100092
0.6088100013
)
;
    }
    procBoundary2to3
    {
        type            processor;
        value           nonuniform List<scalar> 
64
(
0.6088099998
0.6088099996
0.6088099998
0.6088099999
0.6088099999
0.6088086073
0.6088084885
0.6088084218
0.6088086332
0.6088099958
0.6088099975
0.6088099953
0.6088099974
0.6088099975
0.6088099952
0.6088099878
0.6088099877
0.6088099886
0.6088099884
0.6088099883
0.6088099883
0.6088099888
0.6088100569
0.6088100236
0.6088100236
0.608810009
0.6088100004
0.6088100004
0.6088099995
0.6088100004
0.6088089481
0.6088088219
0.6088089481
0.6088087536
0.6088087815
0.6088099973
0.6088092485
0.6088099958
0.6088099983
0.6088089481
0.6088080367
0.6088085166
0.6088085314
0.6088086268
0.6088086535
0.6088085626
0.6088099972
0.6088091152
0.6088099979
0.6088099997
0.6088099996
0.6088099998
0.6088099999
0.6088099998
0.6088086082
0.6088081292
0.6088082023
0.6088084512
0.6088083487
0.6088084765
0.6088085954
0.6088086417
0.608808626
0.6088086563
)
;
    }
}


// ************************************************************************* //
