/*--------------------------------*- C++ -*----------------------------------*\
  =========                 |
  \\      /  F ield         | OpenFOAM: The Open Source CFD Toolbox
   \\    /   O peration     | Website:  https://openfoam.org
    \\  /    A nd           | Version:  8
     \\/     M anipulation  |
\*---------------------------------------------------------------------------*/
FoamFile
{
    version     2.0;
    format      ascii;
    class       volScalarField;
    location    "1.3/wallFilmRegion";
    object      rho;
}
// * * * * * * * * * * * * * * * * * * * * * * * * * * * * * * * * * * * * * //

dimensions      [1 -3 0 0 0 0 0];

internalField   nonuniform List<scalar> 
1342
(
994.51147
994.5114697
994.5114692
994.511469
994.5114706
994.5114692
994.5114686
994.5114655
994.5114684
994.5114682
994.5114676
994.5114659
994.5114629
994.5114629
994.5114649
994.5114662
994.5114669
994.5114673
994.5114675
994.5114677
994.5114678
994.5114679
994.5114679
994.5114679
994.5114679
994.5114679
994.5114698
994.5114697
994.5114694
994.5114691
994.5114695
994.5114709
994.5114695
994.5114685
994.5114682
994.5114684
994.5114684
994.5114682
994.5114677
994.5114654
994.5114607
994.5114638
994.5114656
994.5114665
994.511467
994.5114673
994.5114676
994.5114677
994.5114678
994.5114678
994.5114678
994.5114678
994.5114678
994.5114698
994.5114694
994.5114693
994.5114692
994.5114691
994.5114704
994.511471
994.5114684
994.5114684
994.5114684
994.5114684
994.5114684
994.5114684
994.5114683
994.5114681
994.5114661
994.5114626
994.5114649
994.511466
994.5114667
994.5114671
994.5114674
994.5114677
994.5114678
994.5114679
994.5114679
994.5114678
994.5114678
994.5114691
994.5114689
994.5114688
994.5114688
994.5114687
994.5114682
994.5114673
994.5114642
994.511467
994.5114683
994.5114684
994.5114675
994.5114646
994.5114596
994.5114426
994.5114495
994.5114604
994.5114639
994.5114654
994.5114663
994.5114668
994.5114673
994.5114676
994.5114678
994.5114679
994.5114679
994.5114679
994.5114678
994.5114691
994.5114688
994.5114688
994.5114687
994.5114688
994.5114679
994.5114683
994.5114672
994.511468
994.5114681
994.5114684
994.511468
994.5114677
994.511467
994.5114652
994.5114495
994.5114604
994.5114639
994.5114654
994.5114662
994.5114668
994.5114672
994.5114675
994.5114677
994.5114679
994.5114679
994.5114679
994.5114678
994.51147
994.5114707
994.5114692
994.5114689
994.5114689
994.5114692
994.5114686
994.5114688
994.5113597
994.5114668
994.511468
994.5114682
994.5114675
994.511467
994.5114651
994.5114533
994.5114569
994.5114629
994.5114652
994.5114663
994.5114669
994.5114672
994.5114675
994.5114676
994.5114677
994.5114677
994.5114677
994.5114675
994.5114679
994.5114692
994.5114698
994.5114688
994.5114688
994.5114689
994.5114692
994.5114688
994.5114687
994.5107999
994.5107983
994.5114678
994.5114679
994.5114665
994.5114598
994.5114377
994.5113758
994.5114584
994.5114639
994.5114659
994.5114667
994.5114672
994.5114675
994.5114676
994.5114677
994.5114678
994.5114677
994.5114677
994.5114676
994.5114679
994.5114691
994.511469
994.5114688
994.5114689
994.5114686
994.5114688
994.5114689
994.5114681
994.5114661
994.5114671
994.5114675
994.5114676
994.5114672
994.5114668
994.5114638
994.5114438
994.5114589
994.5114644
994.5114661
994.5114669
994.5114673
994.5114676
994.5114677
994.5114677
994.5114678
994.5114677
994.5114677
994.5114677
994.5114679
994.5114693
994.511469
994.5114689
994.5114693
994.5114685
994.5114684
994.511469
994.5114669
994.5114651
994.5114664
994.5114671
994.5114671
994.5114667
994.5114671
994.5114664
994.5114594
994.5114643
994.5114664
994.5114672
994.5114675
994.5114677
994.5114678
994.5114678
994.5114678
994.5114678
994.5114678
994.5114677
994.5114677
994.5114679
994.5114692
994.5114691
994.5114692
994.5114703
994.5114684
994.5114685
994.511469
994.5114651
994.5114635
994.5114651
994.511466
994.5114662
994.5114659
994.5114667
994.5114665
994.511465
994.5114676
994.5114681
994.5114682
994.5114682
994.5114682
994.5114682
994.5114681
994.5114681
994.511468
994.5114679
994.5114678
994.5114678
994.511468
994.5114686
994.511469
994.5114696
994.5114713
994.5114696
994.5114685
994.511469
994.5114658
994.5114636
994.5114632
994.5114636
994.511464
994.5114646
994.511466
994.5114661
994.5114655
994.5114668
994.5114671
994.5114676
994.5114681
994.5114682
994.5114682
994.5114682
994.5114681
994.5114681
994.511468
994.5114679
994.5114679
994.511468
994.5114701
994.5114704
994.5114697
994.5114701
994.511469
994.5114687
994.5114689
994.5114676
994.511467
994.5114702
994.5114706
994.5114605
994.5114638
994.5114666
994.5114661
994.5114653
994.5114659
994.5114662
994.5114666
994.5114679
994.5114681
994.5114681
994.5114681
994.5114682
994.5114682
994.5114681
994.511468
994.5114679
994.511468
994.5114701
994.51147
994.5114688
994.5114694
994.5114693
994.5114692
994.5114689
994.5114702
994.51147
994.5114703
994.5114711
994.5114654
994.511467
994.5114673
994.5114665
994.5114653
994.5114659
994.5114667
994.5114671
994.5114677
994.511468
994.5114681
994.5114681
994.5114683
994.5114683
994.5114682
994.5114681
994.511468
994.511468
994.5114688
994.5114687
994.5114686
994.5114686
994.5114686
994.5114687
994.511468
994.5114696
994.511469
994.5114687
994.5114693
994.5114692
994.5114687
994.511468
994.511468
994.511468
994.511468
994.5114679
994.5114678
994.5114678
994.5114679
994.511468
994.5114681
994.5114683
994.5114683
994.5114683
994.5114682
994.511468
994.511468
994.5114699
994.5114686
994.5114681
994.5114682
994.5114683
994.5114684
994.5114683
994.5114686
994.5114685
994.5114685
994.5114697
994.5114697
994.5114695
994.5114676
994.5114657
994.511468
994.511468
994.511468
994.511468
994.511468
994.5114681
994.5114683
994.5114683
994.5114684
994.5114684
994.5114684
994.5114683
994.5114682
994.511468
994.5114703
994.5114698
994.5114678
994.511468
994.5114682
994.5114683
994.5114684
994.5114694
994.5114687
994.5114684
994.5114695
994.5114666
994.5114642
994.5114523
994.511447
994.5114678
994.511468
994.511468
994.511468
994.5114681
994.5114681
994.5114682
994.5114683
994.5114684
994.5114684
994.5114684
994.5114683
994.5114682
994.511468
994.5114702
994.5114728
994.511463
994.5114664
994.5114678
994.5114683
994.5114684
994.5114689
994.5114683
994.5114679
994.5114685
994.5114504
994.5114587
994.5114594
994.5114594
994.5114672
994.5114678
994.511468
994.5114681
994.5114681
994.5114681
994.5114682
994.5114682
994.5114683
994.5114684
994.5114683
994.5114683
994.5114681
994.511468
994.5114702
994.5114727
994.5114665
994.5114671
994.5114678
994.5114682
994.5114684
994.5114684
994.5114679
994.5114674
994.5114674
994.5114676
994.5114675
994.5114673
994.511467
994.5114671
994.5114676
994.5114679
994.511468
994.5114681
994.5114681
994.5114682
994.5114682
994.5114683
994.5114683
994.5114683
994.5114682
994.511468
994.511468
994.5114701
994.5114719
994.5114672
994.5114673
994.5114677
994.5114681
994.5114684
994.5114682
994.5114679
994.511468
994.5114681
994.5114681
994.5114681
994.511468
994.5114678
994.5114675
994.5114676
994.5114678
994.511468
994.5114681
994.5114681
994.5114681
994.5114681
994.5114682
994.5114682
994.5114682
994.5114681
994.511468
994.511468
994.5114695
994.5114703
994.5114676
994.5114675
994.5114677
994.511468
994.5114684
994.5114682
994.511468
994.5114681
994.5114682
994.5114682
994.5114681
994.511468
994.5114678
994.5114676
994.5114675
994.5114678
994.5114679
994.511468
994.5114681
994.5114681
994.511468
994.5114679
994.5114679
994.5114679
994.5114679
994.5114679
994.511468
994.5114687
994.5114688
994.5114678
994.5114678
994.5114678
994.511468
994.5114683
994.5114682
994.5114681
994.5114682
994.5114682
994.5114681
994.5114681
994.5114679
994.5114677
994.5114675
994.5114674
994.5114677
994.5114679
994.511468
994.511468
994.511468
994.5114679
994.5114679
994.5114679
994.511468
994.511468
994.5114679
994.511468
994.5114682
994.5114682
994.5114679
994.5114679
994.5114679
994.511468
994.5114683
994.5114681
994.5114681
994.5114682
994.5114681
994.5114681
994.511468
994.5114678
994.5114676
994.5114674
994.5114674
994.5114676
994.5114678
994.5114679
994.511468
994.5114679
994.5114679
994.5114679
994.511468
994.511468
994.511468
994.511468
994.511468
994.5114681
994.5114679
994.5114679
994.5114679
994.511468
994.511468
994.5114682
994.5114681
994.5114681
994.5114681
994.5114681
994.511468
994.5114678
994.5114676
994.5114674
994.5114673
994.5114673
994.5114675
994.5114677
994.5114679
994.511468
994.5114679
994.5114679
994.511468
994.511468
994.511468
994.511468
994.511468
994.511468
994.5114684
994.5114682
994.5114681
994.5114681
994.5114686
994.5114684
994.5114683
994.5114682
994.5114682
994.5114681
994.5114681
994.5114679
994.5114676
994.5114673
994.5114672
994.5114672
994.5114674
994.5114675
994.5114677
994.5114679
994.5114679
994.5114679
994.511468
994.511468
994.511468
994.511468
994.511468
994.5114681
994.5114681
994.5114684
994.5114681
994.5114677
994.5114672
994.51147
994.5114685
994.5114682
994.5114682
994.5114681
994.5114681
994.511468
994.5114677
994.5114674
994.5114671
994.5114671
994.5114673
994.5114674
994.5114676
994.5114677
994.5114679
994.5114679
994.5114679
994.511468
994.511468
994.511468
994.511468
994.5114681
994.5114681
994.5114681
994.5114338
994.5114288
994.511425
994.5114363
994.5114604
994.5114675
994.5114681
994.5114681
994.5114681
994.511468
994.5114678
994.5114675
994.511467
994.5114668
994.511467
994.5114673
994.5114675
994.5114676
994.5114678
994.511468
994.5114679
994.5114679
994.511468
994.511468
994.511468
994.511468
994.5114681
994.5114681
994.5114681
994.5114071
994.5113719
994.5113538
994.51138
994.5114333
994.5114654
994.5114681
994.5114681
994.5114701
994.5114697
994.5114686
994.5114676
994.5114668
994.5114667
994.5114671
994.5114674
994.5114676
994.5114677
994.5114679
994.5114681
994.511468
994.5114679
994.511468
994.511468
994.511468
994.511468
994.5114681
994.5114681
994.5114681
994.5114526
994.5114432
994.5114375
994.5114457
994.5114565
994.5114659
994.511468
994.511468
994.5114713
994.5114714
994.5114708
994.5114694
994.5114679
994.5114673
994.5114674
994.5114676
994.5114678
994.5114679
994.511468
994.5114681
994.511468
994.511468
994.511468
994.5114681
994.5114681
994.5114681
994.5114681
994.5114681
994.5114681
994.5114626
994.5114571
994.511452
994.5114541
994.5114605
994.5114658
994.5114679
994.5114679
994.5114682
994.5114682
994.5114682
994.5114681
994.5114677
994.5114676
994.5114677
994.5114678
994.511468
994.511468
994.5114681
994.5114682
994.5114681
994.511468
994.511468
994.511468
994.5114681
994.5114681
994.5114681
994.5114682
994.5114681
994.5114682
994.5114682
994.5114682
994.5114683
994.5114683
994.5114683
994.5114683
994.5114683
994.5114683
994.5114682
994.5114682
994.5114682
994.5114682
994.5114682
994.5114682
994.5114682
994.5114682
994.5114682
994.5114682
994.5114682
994.5114681
994.5114681
994.5114681
994.5114681
994.5114682
994.5114682
994.5114682
994.5114683
994.5114682
994.5114696
994.5114685
994.5114689
994.5114685
994.5114689
994.5114687
994.5114685
994.5114685
994.5117436
994.5117403
994.5117394
994.5117307
994.5118181
994.5117758
994.511762
994.5117569
994.5118437
994.5117948
994.5117837
994.5117715
994.5118198
994.5117555
994.5117386
994.5117286
994.5114695
994.5114689
994.5114689
994.51147
994.511469
994.5114692
994.5114702
994.5114695
994.5114706
994.5114704
994.511473
994.5114766
994.511472
994.5114792
994.51148
994.5114707
994.5114795
994.5114786
994.5114707
994.5114779
994.5114772
994.5114706
994.5114762
994.5114745
994.5114703
994.5114717
994.51147
994.5114698
994.511469
994.5114689
994.5114689
994.5114689
994.5114689
994.5114689
994.511469
994.511469
994.5114689
994.511469
994.5114689
994.511469
994.511469
994.5114691
994.5114691
994.5114692
994.511469
994.5114691
994.511469
994.5114693
994.5114693
994.5114694
994.5114694
994.5114691
994.5114691
994.5114691
994.5114694
994.5114693
994.5114692
994.5114692
994.5114693
994.51147
994.5114695
994.5114691
994.5114691
994.5114692
994.5114692
994.5114692
994.5114693
994.5114697
994.5114702
994.51147
994.5114689
994.5114695
994.5114689
994.5114701
994.5114705
994.5114704
994.5114708
994.5114708
994.5114708
994.5114709
994.5114716
994.5114714
994.5114708
994.5114712
994.5114708
994.5114708
994.5114708
994.5114707
994.5114707
994.5114707
994.5114707
994.5114707
994.5114706
994.5114706
994.5114707
994.5114582
994.5114585
994.5114704
994.5114701
994.5114699
994.5114673
994.5114691
994.5114694
994.5114687
994.5114686
994.5116528
994.5116439
994.5116752
994.5116621
994.5116818
994.511688
994.5116687
994.5116924
994.511694
994.5116933
994.5114691
994.511469
994.5114691
994.5114709
994.5114694
994.5114705
994.5114762
994.5114728
994.5114742
994.511478
994.5114754
994.5114759
994.511477
994.5114758
994.5114755
994.5114761
994.5114754
994.5114749
994.511473
994.5114736
994.5114716
994.5114697
994.5114702
994.5114695
994.5116918
994.5117033
994.5117071
994.5117224
994.5117053
994.5117026
994.5114691
994.511469
994.5114691
994.5114699
994.5114692
994.5114696
994.5114725
994.5114703
994.5114712
994.5114741
994.5114721
994.5114727
994.5114742
994.5114729
994.5114729
994.5114734
994.5114727
994.5114717
994.5114705
994.5114706
994.5114698
994.5114693
994.5114694
994.5114691
994.5117398
994.5117724
994.511763
994.5117404
994.5117556
994.5117492
994.5117359
994.5114694
994.5114692
994.5114693
994.5114702
994.5114694
994.5114696
994.5114715
994.5114699
994.5114706
994.5114717
994.5114707
994.5114704
994.5114703
994.51147
994.5114696
994.5114694
994.5114694
994.5114692
994.5118364
994.5118004
994.5117689
994.5117855
994.5117803
994.5117552
994.511778
994.5114693
994.5114693
994.5114693
994.5114698
994.5114693
994.5114694
994.5114696
994.5114693
994.5114693
994.5114693
994.5114692
994.5114692
994.5117918
994.511469
994.5114691
994.5114691
994.5114689
994.5116123
994.5114689
994.5116098
994.5114689
994.5116135
994.5114699
994.5114697
994.5114691
994.5114692
994.5114701
994.5114701
994.511469
994.5114703
994.5114703
994.5114701
994.5114708
994.5114709
994.5114708
994.5114708
994.5114708
994.5114708
994.5114707
994.5114707
994.5114707
994.5114706
994.5114705
994.5114643
994.5114705
994.5114696
994.5114691
994.5114693
994.5114688
994.5114689
994.5116471
994.5116567
994.5116665
994.511469
994.5114695
994.5114742
994.5114775
994.5114776
994.5114767
994.5114751
994.5114708
994.511469
994.5115793
994.511695
994.5116979
994.5117082
994.5117066
994.5117081
994.5117057
994.511469
994.5114693
994.5114714
994.5114736
994.5114742
994.5114741
994.5114719
994.5114697
994.511469
994.511469
994.5114692
994.5114697
994.5114708
994.5114718
994.5114712
994.5114698
994.5114692
994.511469
994.5117772
994.5117847
994.5117944
994.511806
994.5117959
994.5118257
994.5114693
994.5114693
994.5114695
994.5114697
994.5114694
994.5114692
994.511469
994.5118063
994.5117866
994.5117723
994.5114695
994.5118477
994.5118374
994.5117881
994.5117645
994.5117567
994.5117451
994.5114693
994.5118406
994.5117773
994.5117456
994.5117316
994.5114693
994.5118408
994.5117787
994.5117512
994.5117326
994.5114692
994.5118273
994.5117819
994.5117607
994.5117451
994.5114689
994.5115656
994.5114694
994.5114691
994.5116253
994.5116277
994.5114689
994.5116039
994.511469
994.511469
994.5116263
994.5116303
994.5114689
994.5116145
994.511469
994.511469
994.5116353
994.5116383
994.511469
994.5116381
994.5114688
994.5114694
994.5114688
994.5114685
994.5114687
994.5114686
994.5114688
994.5114685
994.5114686
994.5114689
994.5114687
994.5114686
994.5114685
994.5114685
994.5114685
994.5114684
994.5117102
994.5117088
994.5114694
994.511469
994.5114689
994.5114687
994.5114686
994.5114688
994.5114686
994.5114685
994.5114685
994.5114685
994.511744
994.5117369
994.511736
994.5117861
994.5117997
994.5117865
994.5117862
994.5117894
994.5117918
994.5117894
994.5117938
994.5118123
994.5118008
994.5117882
994.5118003
994.511813
994.5118025
994.5117742
994.5117666
994.5118091
994.5117914
994.5117779
994.5117732
994.5117764
994.5117651
994.5117606
994.5117671
994.5118114
994.5117823
994.5117461
994.5117768
994.5117731
994.5117738
994.5117656
994.5117599
994.5117561
994.5117756
994.511755
994.5117803
994.5117871
994.5117725
994.5118058
994.511841
994.5118003
994.5117736
994.5117787
994.5117648
994.511754
994.5117533
994.5117407
994.5117389
994.5118005
994.5118416
994.5118006
994.5117621
994.5117796
994.5117603
994.5117383
994.5117496
994.5117387
994.5117332
994.5118011
994.5118354
994.5117972
994.5117635
994.5117772
994.5117635
994.5117468
994.5117548
994.5117414
994.5117337
994.5117959
994.5118148
994.5117797
994.5117653
994.5117644
994.5117523
994.5117568
994.5117425
994.5117343
994.5117324
994.511728
)
;

boundaryField
{
    walls
    {
        type            zeroGradient;
    }
    wallFilmFace_top
    {
        type            zeroGradient;
    }
    region0_to_wallFilmRegion_wallFilmFace
    {
        type            zeroGradient;
    }
    mirrorFace_top
    {
        type            zeroGradient;
    }
    region0_to_wallFilmRegion_mirrorFace
    {
        type            zeroGradient;
    }
    procBoundary2to0
    {
        type            processor;
        value           nonuniform List<scalar> 
26
(
994.5114701
994.5114698
994.5114694
994.5114692
994.5114693
994.5114689
994.5114685
994.5114542
994.5114683
994.5114678
994.5114669
994.5114662
994.511465
994.5114648
994.5114658
994.5114667
994.5114672
994.5114676
994.5114678
994.511468
994.5114681
994.5114682
994.5114682
994.5114683
994.5114683
994.5114679
)
;
    }
    procBoundary2to1
    {
        type            processor;
        value           nonuniform List<scalar> 
33
(
994.5114702
994.5114702
994.5114702
994.5114702
994.5114699
994.5114692
994.511469
994.511469
994.5114694
994.511469
994.5114692
994.5114704
994.5114695
994.5114698
994.5114701
994.5114707
994.5114708
994.5114708
994.5114704
994.5114699
994.5114696
994.5114694
994.511469
994.5114685
994.5114682
994.5114686
994.5114696
994.511469
994.5114687
994.5114684
994.5114674
994.5114667
994.5114682
)
;
    }
    procBoundary2to3
    {
        type            processor;
        value           nonuniform List<scalar> 
64
(
994.5114685
994.5114685
994.5114685
994.5114684
994.5114684
994.5117332
994.5117558
994.5117685
994.5117283
994.5114692
994.5114689
994.5114693
994.5114689
994.5114689
994.5114693
994.5114707
994.5114708
994.5114706
994.5114706
994.5114707
994.5114706
994.5114705
994.5114576
994.5114639
994.5114639
994.5114667
994.5114683
994.5114683
994.5114685
994.5114683
994.5116684
994.5116924
994.5116684
994.5117054
994.5117001
994.5114689
994.5116113
994.5114692
994.5114687
994.5116684
994.5118417
994.5117505
994.5117476
994.5117295
994.5117244
994.5117417
994.511469
994.5116367
994.5114688
994.5114685
994.5114685
994.5114685
994.5114684
994.5114685
994.511733
994.5118241
994.5118102
994.5117629
994.5117824
994.5117581
994.5117355
994.5117267
994.5117297
994.5117239
)
;
    }
}


// ************************************************************************* //
