/*--------------------------------*- C++ -*----------------------------------*\
  =========                 |
  \\      /  F ield         | OpenFOAM: The Open Source CFD Toolbox
   \\    /   O peration     | Website:  https://openfoam.org
    \\  /    A nd           | Version:  8
     \\/     M anipulation  |
\*---------------------------------------------------------------------------*/
FoamFile
{
    version     2.0;
    format      ascii;
    class       volScalarField;
    location    "1.3/wallFilmRegion";
    object      sigma;
}
// * * * * * * * * * * * * * * * * * * * * * * * * * * * * * * * * * * * * * //

dimensions      [1 0 -2 0 0 0 0];

internalField   nonuniform List<scalar> 
1342
(
0.07244713603
0.07244713576
0.07244713545
0.0724471353
0.07244713646
0.07244713542
0.07244713493
0.07244713263
0.07244713481
0.07244713468
0.07244713422
0.07244713289
0.07244713063
0.07244713059
0.07244713217
0.07244713314
0.07244713365
0.07244713396
0.07244713416
0.07244713429
0.07244713437
0.07244713441
0.07244713442
0.07244713442
0.07244713443
0.07244713441
0.07244713589
0.07244713581
0.07244713559
0.07244713534
0.07244713568
0.07244713668
0.07244713568
0.07244713491
0.07244713464
0.07244713482
0.07244713477
0.07244713468
0.07244713427
0.0724471325
0.07244712897
0.07244713131
0.0724471327
0.07244713337
0.07244713376
0.07244713401
0.07244713418
0.0724471343
0.07244713436
0.07244713438
0.07244713437
0.07244713434
0.07244713437
0.07244713584
0.07244713558
0.07244713551
0.07244713539
0.07244713531
0.07244713632
0.07244713677
0.0724471348
0.07244713481
0.07244713482
0.07244713483
0.07244713482
0.0724471348
0.07244713475
0.07244713461
0.07244713307
0.07244713037
0.07244713213
0.07244713301
0.0724471335
0.07244713383
0.07244713407
0.07244713424
0.07244713435
0.07244713439
0.07244713439
0.07244713436
0.07244713436
0.07244713533
0.07244713517
0.07244713514
0.07244713514
0.072447135
0.07244713464
0.07244713395
0.07244713159
0.07244713376
0.07244713472
0.07244713481
0.07244713412
0.0724471319
0.07244712813
0.07244711513
0.0724471204
0.07244712874
0.07244713139
0.07244713255
0.07244713318
0.07244713361
0.07244713393
0.07244713418
0.07244713433
0.0724471344
0.07244713442
0.0724471344
0.07244713435
0.07244713532
0.07244713512
0.07244713511
0.07244713502
0.07244713514
0.07244713442
0.07244713475
0.07244713392
0.0724471345
0.0724471346
0.07244713478
0.07244713449
0.07244713428
0.07244713378
0.07244713237
0.07244712043
0.07244712874
0.07244713138
0.07244713251
0.07244713314
0.07244713355
0.07244713388
0.07244713413
0.07244713431
0.0724471344
0.07244713443
0.07244713441
0.07244713437
0.07244713599
0.07244713659
0.07244713542
0.07244713518
0.07244713519
0.07244713543
0.07244713497
0.07244713509
0.07244705196
0.0724471336
0.07244713447
0.07244713468
0.0724471341
0.07244713371
0.07244713233
0.07244712326
0.07244712606
0.07244713062
0.0724471324
0.0724471332
0.07244713364
0.07244713392
0.07244713411
0.07244713423
0.07244713429
0.0724471343
0.07244713426
0.07244713415
0.07244713442
0.0724471354
0.07244713584
0.07244713511
0.07244713514
0.07244713515
0.07244713542
0.07244713514
0.07244713507
0.07244662511
0.07244662393
0.07244713432
0.07244713443
0.07244713334
0.07244712821
0.0724471114
0.07244706417
0.07244712716
0.0724471314
0.07244713288
0.07244713353
0.07244713388
0.07244713408
0.07244713421
0.07244713429
0.07244713431
0.07244713431
0.07244713427
0.0724471342
0.07244713442
0.07244713537
0.07244713523
0.07244713511
0.0724471352
0.07244713494
0.07244713513
0.07244713521
0.07244713459
0.07244713305
0.07244713382
0.07244713415
0.07244713417
0.07244713387
0.07244713359
0.07244713126
0.07244711606
0.07244712756
0.07244713172
0.07244713309
0.07244713368
0.07244713398
0.07244713416
0.07244713426
0.07244713431
0.07244713432
0.07244713431
0.07244713428
0.07244713424
0.07244713444
0.07244713548
0.07244713524
0.07244713521
0.07244713551
0.07244713492
0.07244713479
0.07244713524
0.07244713365
0.07244713232
0.07244713332
0.0724471338
0.07244713385
0.07244713353
0.07244713383
0.0724471333
0.07244712796
0.07244713168
0.07244713332
0.0724471339
0.07244713415
0.07244713428
0.07244713434
0.07244713438
0.07244713438
0.07244713437
0.07244713434
0.07244713431
0.07244713429
0.07244713446
0.07244713544
0.07244713531
0.07244713538
0.07244713628
0.07244713479
0.07244713485
0.07244713525
0.0724471323
0.07244713106
0.07244713228
0.07244713301
0.07244713314
0.0724471329
0.07244713353
0.07244713334
0.07244713218
0.07244713422
0.07244713456
0.07244713464
0.07244713466
0.07244713466
0.07244713464
0.07244713461
0.07244713456
0.0724471345
0.07244713444
0.07244713438
0.07244713436
0.07244713447
0.07244713497
0.07244713525
0.07244713571
0.072447137
0.07244713576
0.07244713488
0.07244713524
0.0724471328
0.07244713115
0.07244713083
0.07244713116
0.07244713148
0.07244713192
0.072447133
0.07244713304
0.07244713259
0.07244713356
0.07244713382
0.07244713422
0.07244713461
0.07244713465
0.07244713465
0.07244713463
0.0724471346
0.07244713456
0.0724471345
0.07244713444
0.07244713441
0.07244713448
0.07244713611
0.0724471363
0.07244713576
0.07244713607
0.07244713529
0.072447135
0.07244713522
0.07244713419
0.07244713373
0.07244713618
0.07244713649
0.07244712878
0.07244713129
0.07244713343
0.07244713305
0.07244713248
0.07244713291
0.07244713312
0.07244713341
0.07244713443
0.07244713458
0.07244713461
0.07244713461
0.07244713465
0.07244713465
0.0724471346
0.07244713452
0.07244713446
0.07244713448
0.07244713612
0.07244713605
0.07244713515
0.0724471356
0.0724471355
0.07244713544
0.07244713521
0.0724471362
0.07244713606
0.07244713622
0.07244713685
0.07244713255
0.07244713376
0.07244713396
0.07244713335
0.07244713246
0.07244713292
0.07244713348
0.07244713384
0.07244713425
0.07244713446
0.07244713454
0.07244713457
0.0724471347
0.07244713472
0.07244713469
0.07244713461
0.07244713451
0.07244713449
0.07244713514
0.072447135
0.07244713496
0.07244713499
0.07244713499
0.07244713504
0.07244713448
0.0724471357
0.07244713527
0.07244713504
0.07244713548
0.0724471354
0.07244713507
0.0724471345
0.07244713453
0.07244713453
0.0724471345
0.07244713442
0.07244713436
0.07244713438
0.07244713445
0.07244713451
0.07244713455
0.0724471347
0.07244713474
0.07244713472
0.07244713463
0.07244713453
0.07244713449
0.07244713592
0.07244713496
0.07244713456
0.07244713467
0.07244713475
0.0724471348
0.07244713472
0.07244713497
0.07244713487
0.07244713487
0.07244713579
0.07244713579
0.07244713564
0.07244713417
0.07244713271
0.0724471345
0.07244713453
0.07244713452
0.0724471345
0.07244713449
0.07244713454
0.0724471347
0.07244713471
0.0724471348
0.0724471348
0.07244713479
0.07244713475
0.07244713466
0.0724471345
0.07244713629
0.07244713587
0.07244713432
0.07244713452
0.07244713465
0.07244713475
0.07244713478
0.07244713558
0.07244713502
0.07244713481
0.07244713567
0.07244713347
0.0724471316
0.0724471225
0.07244711849
0.07244713437
0.07244713449
0.07244713453
0.07244713454
0.07244713454
0.07244713457
0.07244713469
0.07244713472
0.0724471348
0.0724471348
0.07244713478
0.07244713474
0.07244713465
0.0724471345
0.07244713618
0.07244713816
0.07244713072
0.07244713331
0.07244713439
0.0724471347
0.07244713479
0.07244713517
0.07244713476
0.07244713442
0.0724471349
0.07244712107
0.07244712739
0.07244712795
0.07244712798
0.07244713388
0.07244713438
0.0724471345
0.07244713454
0.07244713456
0.07244713458
0.07244713465
0.07244713467
0.07244713477
0.07244713478
0.07244713476
0.0724471347
0.07244713461
0.07244713449
0.07244713622
0.07244713806
0.07244713335
0.07244713382
0.07244713435
0.07244713463
0.07244713479
0.07244713482
0.07244713441
0.07244713404
0.07244713405
0.07244713417
0.0724471341
0.07244713398
0.07244713376
0.07244713381
0.07244713423
0.07244713444
0.07244713453
0.07244713457
0.07244713459
0.07244713462
0.07244713463
0.07244713473
0.07244713474
0.07244713471
0.07244713464
0.07244713454
0.07244713449
0.07244713614
0.07244713748
0.07244713388
0.07244713394
0.07244713427
0.07244713457
0.07244713479
0.07244713467
0.07244713442
0.0724471345
0.07244713458
0.07244713459
0.07244713455
0.07244713447
0.07244713431
0.07244713411
0.07244713417
0.07244713438
0.0724471345
0.07244713455
0.07244713458
0.07244713459
0.07244713459
0.07244713466
0.07244713466
0.07244713462
0.07244713455
0.07244713448
0.07244713449
0.07244713563
0.07244713627
0.07244713419
0.07244713414
0.07244713427
0.07244713452
0.07244713478
0.07244713465
0.07244713451
0.07244713461
0.07244713463
0.07244713462
0.07244713459
0.07244713451
0.07244713437
0.07244713417
0.07244713413
0.07244713432
0.07244713446
0.07244713453
0.07244713456
0.07244713457
0.07244713448
0.07244713445
0.07244713445
0.07244713445
0.07244713444
0.07244713441
0.07244713449
0.07244713504
0.07244713514
0.07244713436
0.07244713433
0.07244713433
0.07244713449
0.07244713476
0.07244713462
0.07244713455
0.07244713462
0.07244713463
0.0724471346
0.07244713455
0.07244713446
0.07244713431
0.07244713412
0.07244713406
0.07244713425
0.07244713441
0.07244713449
0.07244713453
0.07244713448
0.07244713443
0.07244713444
0.07244713445
0.07244713447
0.07244713447
0.07244713444
0.07244713451
0.07244713467
0.07244713464
0.07244713444
0.07244713444
0.07244713444
0.07244713447
0.07244713472
0.07244713458
0.07244713457
0.07244713462
0.07244713461
0.07244713457
0.07244713449
0.07244713435
0.07244713419
0.07244713402
0.07244713401
0.07244713418
0.07244713434
0.07244713444
0.07244713452
0.07244713445
0.07244713443
0.07244713446
0.07244713447
0.07244713449
0.07244713446
0.07244713449
0.07244713452
0.07244713455
0.07244713445
0.07244713441
0.07244713444
0.07244713451
0.07244713452
0.07244713463
0.07244713457
0.07244713458
0.07244713461
0.07244713458
0.07244713451
0.07244713438
0.07244713419
0.07244713403
0.07244713395
0.07244713399
0.07244713414
0.07244713429
0.07244713441
0.07244713448
0.07244713444
0.07244713446
0.07244713448
0.0724471345
0.07244713451
0.0724471345
0.07244713452
0.07244713454
0.07244713484
0.07244713464
0.07244713458
0.07244713458
0.07244713494
0.07244713481
0.07244713472
0.07244713466
0.07244713462
0.07244713459
0.07244713454
0.07244713443
0.07244713423
0.072447134
0.0724471339
0.07244713392
0.07244713401
0.07244713414
0.07244713428
0.07244713443
0.07244713445
0.07244713445
0.07244713448
0.0724471345
0.07244713451
0.07244713453
0.07244713454
0.07244713454
0.07244713455
0.07244713483
0.0724471346
0.07244713426
0.07244713392
0.072447136
0.07244713492
0.07244713465
0.07244713462
0.0724471346
0.07244713456
0.07244713448
0.07244713431
0.07244713402
0.0724471338
0.07244713381
0.07244713393
0.07244713406
0.07244713417
0.0724471343
0.07244713446
0.07244713445
0.07244713446
0.07244713449
0.07244713451
0.07244713452
0.07244713453
0.07244713456
0.07244713457
0.07244713457
0.07244710846
0.07244710463
0.07244710175
0.07244711035
0.0724471287
0.07244713415
0.07244713459
0.07244713459
0.07244713456
0.07244713451
0.07244713438
0.07244713412
0.07244713376
0.07244713362
0.07244713378
0.07244713397
0.07244713412
0.07244713423
0.07244713434
0.0724471345
0.07244713446
0.07244713446
0.0724471345
0.07244713452
0.07244713453
0.07244713453
0.07244713455
0.07244713459
0.0724471346
0.07244708805
0.07244706125
0.07244704746
0.07244706743
0.07244710808
0.07244713252
0.07244713455
0.07244713455
0.07244713609
0.07244713578
0.07244713498
0.07244713419
0.07244713361
0.07244713354
0.0724471338
0.07244713404
0.0724471342
0.0724471343
0.0724471344
0.07244713456
0.07244713448
0.07244713444
0.07244713451
0.07244713454
0.07244713454
0.07244713453
0.07244713454
0.07244713457
0.07244713461
0.07244712278
0.07244711557
0.07244711123
0.07244711751
0.07244712571
0.07244713288
0.07244713449
0.0724471345
0.07244713704
0.07244713708
0.07244713662
0.07244713557
0.0724471344
0.07244713394
0.07244713401
0.07244713419
0.07244713432
0.07244713442
0.0724471345
0.07244713461
0.07244713452
0.07244713448
0.07244713449
0.07244713455
0.07244713456
0.07244713455
0.07244713455
0.07244713456
0.07244713457
0.07244713037
0.07244712619
0.07244712228
0.07244712393
0.07244712878
0.07244713284
0.07244713441
0.07244713444
0.07244713465
0.07244713468
0.07244713465
0.07244713458
0.0724471343
0.0724471342
0.07244713426
0.07244713437
0.07244713447
0.07244713454
0.07244713459
0.07244713464
0.07244713456
0.07244713452
0.07244713451
0.07244713452
0.07244713461
0.07244713461
0.07244713461
0.07244713462
0.07244713461
0.07244713464
0.07244713466
0.07244713467
0.07244713474
0.07244713474
0.07244713474
0.07244713472
0.0724471347
0.07244713471
0.07244713469
0.07244713468
0.07244713467
0.07244713466
0.07244713465
0.07244713465
0.07244713464
0.07244713464
0.07244713464
0.07244713464
0.07244713464
0.0724471346
0.07244713458
0.07244713457
0.07244713458
0.07244713462
0.07244713465
0.07244713469
0.0724471347
0.07244713466
0.07244713569
0.07244713487
0.07244713517
0.07244713492
0.07244713521
0.07244713504
0.0724471349
0.07244713485
0.07244734464
0.0724473421
0.0724473414
0.07244733477
0.07244740144
0.07244736921
0.07244735869
0.07244735477
0.07244742091
0.0724473837
0.07244737522
0.0724473659
0.07244740272
0.07244735372
0.07244734079
0.07244733321
0.07244713567
0.07244713521
0.07244713522
0.07244713606
0.07244713528
0.0724471354
0.07244713617
0.07244713567
0.0724471365
0.07244713634
0.07244713831
0.07244714108
0.07244713752
0.07244714308
0.07244714368
0.0724471366
0.07244714324
0.07244714258
0.07244713654
0.07244714206
0.0724471415
0.07244713647
0.07244714074
0.07244713943
0.07244713625
0.07244713734
0.07244713603
0.07244713587
0.07244713529
0.0724471352
0.07244713522
0.07244713521
0.07244713522
0.07244713521
0.07244713524
0.07244713523
0.07244713522
0.07244713523
0.07244713521
0.07244713525
0.07244713526
0.07244713535
0.07244713534
0.07244713541
0.07244713528
0.07244713531
0.07244713527
0.07244713548
0.07244713549
0.07244713557
0.07244713554
0.07244713533
0.07244713535
0.07244713533
0.07244713553
0.07244713552
0.07244713543
0.0724471354
0.07244713552
0.07244713599
0.07244713561
0.07244713536
0.07244713531
0.07244713539
0.07244713541
0.07244713543
0.07244713547
0.07244713577
0.07244713618
0.07244713599
0.07244713519
0.07244713567
0.07244713519
0.07244713614
0.07244713638
0.07244713634
0.0724471366
0.07244713664
0.07244713667
0.0724471367
0.07244713725
0.07244713711
0.07244713662
0.07244713693
0.07244713666
0.07244713664
0.07244713662
0.07244713658
0.07244713658
0.07244713658
0.07244713656
0.07244713653
0.07244713651
0.07244713647
0.07244713654
0.07244712702
0.07244712723
0.07244713632
0.07244713612
0.07244713596
0.07244713396
0.07244713533
0.07244713556
0.07244713502
0.07244713498
0.07244727542
0.07244726858
0.0724472925
0.0724472825
0.07244729749
0.07244730221
0.07244728751
0.07244730557
0.07244730678
0.07244730631
0.07244713537
0.07244713525
0.07244713533
0.07244713669
0.07244713559
0.07244713644
0.07244714072
0.07244713813
0.07244713924
0.0724471421
0.07244714018
0.07244714052
0.0724471414
0.07244714042
0.07244714025
0.07244714068
0.07244714013
0.07244713974
0.07244713835
0.0724471388
0.07244713727
0.07244713577
0.07244713618
0.07244713562
0.07244730516
0.07244731389
0.07244731678
0.07244732844
0.07244731539
0.07244731339
0.07244713532
0.07244713527
0.07244713532
0.07244713598
0.07244713543
0.07244713568
0.07244713797
0.07244713626
0.07244713693
0.07244713917
0.07244713761
0.07244713806
0.0724471392
0.07244713825
0.07244713825
0.0724471386
0.07244713811
0.0724471373
0.07244713643
0.07244713649
0.0724471359
0.07244713546
0.07244713554
0.07244713534
0.07244734174
0.0724473666
0.07244735945
0.07244734221
0.07244735376
0.07244734889
0.07244733875
0.07244713554
0.07244713545
0.07244713549
0.07244713616
0.07244713556
0.07244713571
0.07244713719
0.07244713594
0.0724471365
0.07244713729
0.07244713658
0.07244713632
0.07244713628
0.07244713602
0.07244713572
0.07244713558
0.07244713556
0.0724471354
0.07244741538
0.07244738794
0.07244736389
0.0724473766
0.0724473726
0.07244735351
0.07244737083
0.07244713552
0.07244713553
0.07244713546
0.07244713586
0.07244713546
0.07244713556
0.0724471357
0.07244713553
0.07244713548
0.07244713546
0.07244713544
0.07244713538
0.0724473814
0.07244713528
0.07244713537
0.07244713537
0.07244713517
0.07244724448
0.07244713519
0.0724472426
0.0724471352
0.07244724543
0.07244713595
0.07244713583
0.07244713535
0.07244713539
0.07244713612
0.0724471361
0.07244713524
0.07244713623
0.07244713625
0.07244713613
0.07244713667
0.0724471367
0.07244713667
0.07244713667
0.07244713666
0.07244713662
0.07244713657
0.07244713657
0.07244713655
0.07244713651
0.07244713638
0.0724471317
0.07244713641
0.07244713576
0.07244713536
0.07244713549
0.07244713508
0.07244713521
0.07244727108
0.07244727839
0.07244728586
0.07244713526
0.07244713565
0.07244713923
0.07244714175
0.0724471418
0.0724471411
0.07244713989
0.07244713661
0.07244713525
0.07244721939
0.07244730761
0.0724473098
0.07244731766
0.07244731645
0.07244731756
0.07244731575
0.07244713526
0.0724471355
0.07244713707
0.0724471388
0.07244713923
0.07244713917
0.07244713749
0.0724471358
0.07244713523
0.0724471353
0.07244713542
0.07244713577
0.07244713664
0.07244713741
0.07244713692
0.07244713588
0.07244713538
0.07244713525
0.07244737021
0.07244737593
0.07244738334
0.0724473922
0.07244738448
0.07244740721
0.07244713551
0.0724471355
0.07244713561
0.07244713582
0.07244713559
0.0724471354
0.0724471353
0.07244739246
0.07244737742
0.07244736648
0.07244713562
0.07244742402
0.07244741611
0.07244737854
0.07244736056
0.07244735462
0.07244734577
0.07244713552
0.07244741858
0.07244737032
0.07244734614
0.07244733552
0.07244713547
0.07244741872
0.07244737139
0.07244735039
0.07244733622
0.07244713541
0.07244740843
0.07244737386
0.07244735769
0.07244734579
0.07244713518
0.07244720891
0.07244713557
0.07244713533
0.07244725442
0.07244725624
0.07244713519
0.07244723809
0.07244713525
0.07244713525
0.07244725519
0.07244725827
0.0724471352
0.07244724622
0.07244713525
0.07244713526
0.07244726206
0.07244726431
0.07244713525
0.07244726417
0.07244713508
0.0724471356
0.07244713514
0.0724471349
0.07244713507
0.07244713494
0.07244713513
0.0724471349
0.07244713498
0.0724471352
0.07244713504
0.07244713496
0.07244713491
0.07244713487
0.07244713485
0.07244713484
0.07244731914
0.07244731811
0.07244713554
0.0724471353
0.07244713515
0.07244713502
0.07244713496
0.07244713513
0.07244713494
0.07244713487
0.07244713489
0.07244713487
0.0724473449
0.07244733955
0.07244733884
0.07244737704
0.07244738744
0.07244737731
0.07244737713
0.07244737958
0.07244738138
0.07244737954
0.07244738287
0.07244739702
0.07244738824
0.07244737863
0.07244738784
0.07244739751
0.07244738957
0.07244736795
0.07244736214
0.07244739455
0.07244738106
0.07244737081
0.07244736721
0.07244736963
0.07244736104
0.07244735759
0.07244736256
0.07244739633
0.07244737416
0.07244734651
0.07244736995
0.07244736715
0.07244736762
0.07244736137
0.07244735709
0.07244735416
0.07244736903
0.07244735334
0.07244737261
0.0724473778
0.0724473667
0.07244739205
0.07244741889
0.07244738783
0.07244736754
0.07244737141
0.07244736077
0.07244735259
0.07244735199
0.0724473424
0.07244734104
0.07244738803
0.07244741934
0.07244738812
0.07244735876
0.0724473721
0.07244735734
0.07244734058
0.0724473492
0.07244734092
0.07244733667
0.07244738849
0.0724474146
0.07244738552
0.07244735977
0.07244737026
0.07244735984
0.07244734709
0.07244735316
0.07244734295
0.07244733707
0.0724473845
0.07244739889
0.07244737212
0.07244736119
0.07244736052
0.07244735128
0.0724473547
0.07244734378
0.07244733754
0.07244733609
0.07244733276
)
;

boundaryField
{
    walls
    {
        type            zeroGradient;
    }
    wallFilmFace_top
    {
        type            zeroGradient;
    }
    region0_to_wallFilmRegion_wallFilmFace
    {
        type            zeroGradient;
    }
    mirrorFace_top
    {
        type            zeroGradient;
    }
    region0_to_wallFilmRegion_mirrorFace
    {
        type            zeroGradient;
    }
    procBoundary2to0
    {
        type            processor;
        value           nonuniform List<scalar> 
26
(
0.07244713612
0.07244713591
0.07244713557
0.0724471354
0.07244713551
0.07244713519
0.07244713491
0.072447124
0.07244713474
0.07244713438
0.0724471337
0.07244713311
0.07244713224
0.07244713205
0.07244713281
0.07244713348
0.0724471339
0.07244713417
0.07244713436
0.07244713449
0.07244713457
0.07244713462
0.07244713466
0.0724471347
0.07244713476
0.07244713443
)
;
    }
    procBoundary2to1
    {
        type            processor;
        value           nonuniform List<scalar> 
33
(
0.07244713614
0.07244713614
0.07244713615
0.07244713615
0.07244713592
0.0724471354
0.07244713526
0.07244713526
0.07244713555
0.07244713527
0.0724471354
0.07244713633
0.07244713566
0.07244713585
0.07244713612
0.07244713656
0.07244713661
0.07244713662
0.07244713632
0.07244713593
0.07244713573
0.07244713554
0.07244713523
0.07244713491
0.07244713468
0.07244713499
0.07244713573
0.0724471353
0.07244713506
0.07244713483
0.07244713401
0.07244713349
0.07244713463
)
;
    }
    procBoundary2to3
    {
        type            processor;
        value           nonuniform List<scalar> 
64
(
0.07244713486
0.07244713488
0.07244713486
0.07244713484
0.07244713484
0.0724473367
0.07244735392
0.0724473636
0.07244733296
0.07244713544
0.07244713518
0.07244713551
0.0724471352
0.07244713518
0.07244713551
0.0724471366
0.0724471366
0.07244713648
0.07244713651
0.07244713653
0.07244713651
0.07244713645
0.07244712658
0.0724471314
0.0724471314
0.07244713351
0.07244713477
0.07244713477
0.0724471349
0.07244713477
0.0724472873
0.0724473056
0.0724472873
0.07244731549
0.07244731146
0.07244713521
0.07244724375
0.07244713544
0.07244713507
0.0724472873
0.07244741942
0.07244734986
0.0724473477
0.07244733388
0.07244733002
0.07244734319
0.07244713524
0.07244726309
0.07244713513
0.07244713487
0.07244713488
0.07244713485
0.07244713484
0.07244713485
0.07244733658
0.07244740601
0.07244739542
0.07244735934
0.07244737419
0.07244735567
0.07244733843
0.07244733172
0.072447334
0.0724473296
)
;
    }
}


// ************************************************************************* //
