/*--------------------------------*- C++ -*----------------------------------*\
  =========                 |
  \\      /  F ield         | OpenFOAM: The Open Source CFD Toolbox
   \\    /   O peration     | Website:  https://openfoam.org
    \\  /    A nd           | Version:  8
     \\/     M anipulation  |
\*---------------------------------------------------------------------------*/
FoamFile
{
    version     2.0;
    format      ascii;
    class       volScalarField;
    location    "1.3/wallFilmRegion";
    object      T;
}
// * * * * * * * * * * * * * * * * * * * * * * * * * * * * * * * * * * * * * //

dimensions      [0 0 0 1 0 0 0];

internalField   nonuniform List<scalar> 
1342
(
299.9999939
299.9999953
299.9999969
299.9999976
299.9999918
299.999997
299.9999995
300.000011
300.0000001
300.0000007
300.000003
300.0000097
300.000021
300.0000212
300.0000133
300.0000084
300.0000059
300.0000043
300.0000033
300.0000027
300.0000023
300.0000021
300.000002
300.000002
300.000002
300.0000021
299.9999947
299.9999951
299.9999961
299.9999974
299.9999957
299.9999907
299.9999957
299.9999996
300.0000009
300
300.0000002
300.0000007
300.0000028
300.0000116
300.0000293
300.0000176
300.0000106
300.0000073
300.0000054
300.0000041
300.0000032
300.0000026
300.0000023
300.0000022
300.0000023
300.0000024
300.0000023
299.9999949
299.9999962
299.9999966
299.9999972
299.9999976
299.9999925
299.9999903
300.0000001
300.0000001
300
300
300
300.0000001
300.0000004
300.0000011
300.0000088
300.0000223
300.0000135
300.0000091
300.0000066
300.000005
300.0000038
300.0000029
300.0000024
300.0000022
300.0000022
300.0000023
300.0000023
299.9999975
299.9999982
299.9999984
299.9999984
299.9999991
300.0000009
300.0000044
300.0000162
300.0000053
300.0000005
300.0000001
300.0000035
300.0000147
300.0000336
300.0000987
300.0000723
300.0000305
300.0000172
300.0000114
300.0000082
300.0000061
300.0000045
300.0000032
300.0000025
300.0000021
300.000002
300.0000021
300.0000024
299.9999975
299.9999985
299.9999986
299.999999
299.9999984
300.000002
300.0000004
300.0000045
300.0000016
300.0000011
300.0000002
300.0000017
300.0000027
300.0000052
300.0000123
300.0000721
300.0000305
300.0000173
300.0000116
300.0000085
300.0000064
300.0000047
300.0000035
300.0000026
300.0000021
300.000002
300.0000021
300.0000023
299.9999941
299.9999911
299.999997
299.9999982
299.9999982
299.999997
299.9999993
299.9999987
300.0004153
300.0000062
300.0000018
300.0000007
300.0000036
300.0000056
300.0000125
300.000058
300.0000439
300.0000211
300.0000122
300.0000081
300.0000059
300.0000045
300.0000036
300.000003
300.0000027
300.0000026
300.0000028
300.0000034
300.000002
299.9999971
299.9999949
299.9999986
299.9999984
299.9999983
299.999997
299.9999984
299.9999988
300.0025546
300.0025605
300.0000025
300.000002
300.0000074
300.0000331
300.0001174
300.0003541
300.0000384
300.0000172
300.0000098
300.0000065
300.0000047
300.0000037
300.0000031
300.0000027
300.0000026
300.0000026
300.0000028
300.0000031
300.000002
299.9999973
299.999998
299.9999985
299.9999981
299.9999994
299.9999985
299.9999981
300.0000012
300.0000089
300.000005
300.0000034
300.0000033
300.0000048
300.0000062
300.0000178
300.0000941
300.0000364
300.0000155
300.0000087
300.0000057
300.0000042
300.0000033
300.0000028
300.0000026
300.0000025
300.0000026
300.0000027
300.0000029
300.0000019
299.9999967
299.9999979
299.9999981
299.9999965
299.9999995
300.0000002
299.9999979
300.0000059
300.0000126
300.0000076
300.0000051
300.0000049
300.0000065
300.000005
300.0000076
300.0000344
300.0000157
300.0000075
300.0000046
300.0000034
300.0000027
300.0000024
300.0000022
300.0000022
300.0000023
300.0000024
300.0000026
300.0000027
300.0000018
299.9999969
299.9999976
299.9999972
299.9999927
300.0000002
299.9999999
299.9999979
300.0000126
300.0000188
300.0000128
300.0000091
300.0000084
300.0000097
300.0000065
300.0000074
300.0000132
300.000003
300.0000013
300.0000009
300.0000008
300.0000008
300.0000009
300.0000011
300.0000013
300.0000016
300.0000019
300.0000022
300.0000023
300.0000018
299.9999993
299.9999979
299.9999956
299.9999891
299.9999953
299.9999997
299.9999979
300.0000101
300.0000184
300.00002
300.0000184
300.0000167
300.0000146
300.0000092
300.000009
300.0000112
300.0000063
300.000005
300.000003
300.0000011
300.0000009
300.0000009
300.000001
300.0000011
300.0000013
300.0000016
300.0000019
300.0000021
300.0000017
299.9999935
299.9999926
299.9999953
299.9999937
299.9999976
299.9999991
299.999998
300.0000032
300.0000055
299.9999932
299.9999917
300.0000303
300.0000177
300.000007
300.0000089
300.0000118
300.0000096
300.0000085
300.0000071
300.000002
300.0000012
300.0000011
300.0000011
300.0000009
300.0000009
300.0000011
300.0000015
300.0000018
300.0000017
299.9999935
299.9999938
299.9999984
299.9999961
299.9999966
299.9999969
299.9999981
299.9999931
299.9999938
299.999993
299.9999899
300.0000114
300.0000053
300.0000043
300.0000074
300.0000118
300.0000096
300.0000067
300.0000049
300.0000029
300.0000018
300.0000014
300.0000013
300.0000006
300.0000005
300.0000007
300.0000011
300.0000015
300.0000017
299.9999984
299.9999991
299.9999993
299.9999992
299.9999992
299.9999989
300.0000017
299.9999956
299.9999978
299.9999989
299.9999967
299.9999971
299.9999988
300.0000016
300.0000015
300.0000015
300.0000016
300.000002
300.0000023
300.0000022
300.0000019
300.0000016
300.0000014
300.0000006
300.0000004
300.0000005
300.0000009
300.0000015
300.0000017
299.9999945
299.9999993
300.0000013
300.0000008
300.0000004
300.0000001
300.0000005
299.9999993
299.9999998
299.9999998
299.9999952
299.9999952
299.9999959
300.0000033
300.0000106
300.0000016
300.0000015
300.0000015
300.0000016
300.0000017
300.0000014
300.0000006
300.0000006
300.0000001
300.0000001
300.0000001
300.0000004
300.0000008
300.0000016
299.9999926
299.9999947
300.0000025
300.0000015
300.0000009
300.0000004
300.0000002
299.9999962
299.999999
300.0000001
299.9999958
300.0000068
300.0000162
300.0000618
300.0000818
300.0000023
300.0000017
300.0000015
300.0000014
300.0000014
300.0000013
300.0000007
300.0000005
300.0000001
300.0000001
300.0000002
300.0000004
300.0000009
300.0000016
299.9999932
299.9999833
300.0000206
300.0000076
300.0000022
300.0000006
300.0000001
299.9999983
300.0000003
300.000002
299.9999996
300.0000689
300.0000373
300.0000344
300.0000343
300.0000047
300.0000022
300.0000016
300.0000014
300.0000013
300.0000012
300.0000009
300.0000008
300.0000003
300.0000002
300.0000003
300.0000006
300.0000011
300.0000017
299.999993
299.9999838
300.0000074
300.000005
300.0000024
300.0000009
300.0000002
300
300.0000021
300.0000039
300.0000039
300.0000033
300.0000036
300.0000042
300.0000053
300.0000051
300.000003
300.0000019
300.0000015
300.0000013
300.0000012
300.000001
300.000001
300.0000005
300.0000004
300.0000006
300.0000009
300.0000014
300.0000017
299.9999934
299.9999867
300.0000047
300.0000044
300.0000028
300.0000013
300.0000002
300.0000008
300.000002
300.0000016
300.0000012
300.0000012
300.0000014
300.0000018
300.0000026
300.0000036
300.0000033
300.0000022
300.0000016
300.0000013
300.0000012
300.0000011
300.0000011
300.0000008
300.0000008
300.000001
300.0000013
300.0000017
300.0000017
299.999996
299.9999927
300.0000032
300.0000034
300.0000028
300.0000015
300.0000002
300.0000009
300.0000016
300.0000011
300.0000009
300.000001
300.0000012
300.0000016
300.0000023
300.0000033
300.0000035
300.0000025
300.0000018
300.0000015
300.0000013
300.0000013
300.0000017
300.0000019
300.0000019
300.0000019
300.0000019
300.0000021
300.0000017
299.9999989
299.9999984
300.0000023
300.0000025
300.0000025
300.0000017
300.0000003
300.000001
300.0000014
300.000001
300.000001
300.0000011
300.0000013
300.0000018
300.0000026
300.0000035
300.0000038
300.0000029
300.0000021
300.0000017
300.0000015
300.0000017
300.000002
300.0000019
300.0000018
300.0000018
300.0000018
300.0000019
300.0000016
300.0000008
300.0000009
300.0000019
300.0000019
300.0000019
300.0000018
300.0000005
300.0000012
300.0000013
300.000001
300.0000011
300.0000013
300.0000017
300.0000024
300.0000032
300.000004
300.0000041
300.0000032
300.0000024
300.0000019
300.0000015
300.0000019
300.000002
300.0000018
300.0000017
300.0000017
300.0000018
300.0000017
300.0000015
300.0000014
300.0000019
300.0000021
300.0000019
300.0000016
300.0000015
300.000001
300.0000013
300.0000012
300.0000011
300.0000012
300.0000016
300.0000022
300.0000032
300.000004
300.0000044
300.0000042
300.0000034
300.0000027
300.0000021
300.0000017
300.0000019
300.0000018
300.0000017
300.0000016
300.0000016
300.0000016
300.0000015
300.0000014
299.9999999
300.0000009
300.0000012
300.0000012
299.9999994
300.0000001
300.0000005
300.0000008
300.000001
300.0000012
300.0000014
300.000002
300.000003
300.0000041
300.0000046
300.0000045
300.0000041
300.0000034
300.0000027
300.0000019
300.0000019
300.0000019
300.0000017
300.0000016
300.0000016
300.0000015
300.0000014
300.0000014
300.0000014
300
300.0000011
300.0000028
300.0000045
299.9999941
299.9999995
300.0000008
300.000001
300.0000011
300.0000013
300.0000017
300.0000026
300.000004
300.0000051
300.0000051
300.0000045
300.0000038
300.0000033
300.0000026
300.0000018
300.0000019
300.0000018
300.0000017
300.0000016
300.0000015
300.0000015
300.0000013
300.0000013
300.0000013
300.0001321
300.0001513
300.0001658
300.0001227
300.0000307
300.0000034
300.0000012
300.0000012
300.0000013
300.0000016
300.0000022
300.0000035
300.0000053
300.0000061
300.0000053
300.0000043
300.0000035
300.000003
300.0000024
300.0000016
300.0000018
300.0000018
300.0000016
300.0000015
300.0000015
300.0000015
300.0000014
300.0000011
300.0000011
300.0002344
300.0003688
300.0004378
300.0003378
300.0001341
300.0000116
300.0000014
300.0000014
299.9999937
299.9999952
299.9999992
300.0000032
300.0000061
300.0000064
300.0000051
300.0000039
300.0000031
300.0000026
300.0000021
300.0000013
300.0000017
300.0000019
300.0000016
300.0000014
300.0000014
300.0000014
300.0000014
300.0000013
300.0000011
300.0000604
300.0000965
300.0001183
300.0000868
300.0000457
300.0000097
300.0000017
300.0000016
299.9999889
299.9999887
299.999991
299.9999963
300.0000021
300.0000044
300.0000041
300.0000032
300.0000025
300.000002
300.0000016
300.0000011
300.0000015
300.0000017
300.0000017
300.0000013
300.0000013
300.0000014
300.0000014
300.0000013
300.0000013
300.0000223
300.0000432
300.0000628
300.0000546
300.0000303
300.00001
300.0000021
300.0000019
300.0000009
300.0000007
300.0000009
300.0000012
300.0000026
300.0000031
300.0000028
300.0000023
300.0000018
300.0000014
300.0000012
300.0000009
300.0000013
300.0000015
300.0000016
300.0000015
300.0000011
300.0000011
300.0000011
300.000001
300.0000011
300.0000009
300.0000008
300.0000008
300.0000004
300.0000004
300.0000004
300.0000005
300.0000006
300.0000006
300.0000007
300.0000007
300.0000008
300.0000008
300.0000009
300.0000009
300.0000009
300.0000009
300.0000009
300.0000009
300.0000009
300.0000011
300.0000012
300.0000013
300.0000012
300.000001
300.0000009
300.0000007
300.0000006
300.0000008
299.9999957
299.9999998
299.9999983
299.9999995
299.9999981
299.9999989
299.9999996
299.9999998
299.9989485
299.9989612
299.9989647
299.9989979
299.9986638
299.9988253
299.998878
299.9988976
299.9985662
299.9987527
299.9987952
299.9988419
299.9986574
299.9989029
299.9989677
299.9990057
299.9999958
299.9999981
299.999998
299.9999938
299.9999977
299.9999971
299.9999932
299.9999958
299.9999916
299.9999924
299.9999825
299.9999686
299.9999865
299.9999586
299.9999556
299.9999911
299.9999578
299.9999611
299.9999914
299.9999638
299.9999665
299.9999917
299.9999703
299.9999769
299.9999928
299.9999874
299.9999939
299.9999948
299.9999977
299.9999981
299.999998
299.999998
299.999998
299.9999981
299.9999979
299.999998
299.999998
299.999998
299.9999981
299.9999979
299.9999978
299.9999974
299.9999974
299.9999971
299.9999977
299.9999976
299.9999977
299.9999967
299.9999966
299.9999962
299.9999964
299.9999975
299.9999974
299.9999975
299.9999964
299.9999965
299.9999969
299.9999971
299.9999965
299.9999941
299.9999961
299.9999973
299.9999976
299.9999972
299.9999971
299.999997
299.9999967
299.9999952
299.9999932
299.9999942
299.9999982
299.9999958
299.9999982
299.9999934
299.9999922
299.9999924
299.9999911
299.9999909
299.9999907
299.9999906
299.9999879
299.9999885
299.999991
299.9999894
299.9999908
299.9999909
299.999991
299.9999912
299.9999912
299.9999912
299.9999913
299.9999914
299.9999916
299.9999918
299.9999914
300.0000391
300.000038
299.9999925
299.9999935
299.9999943
300.0000043
299.9999975
299.9999963
299.999999
299.9999992
299.9992954
299.9993296
299.9992097
299.9992599
299.9991847
299.9991611
299.9992348
299.9991442
299.9991382
299.9991405
299.9999973
299.9999978
299.9999974
299.9999907
299.9999962
299.9999919
299.9999704
299.9999834
299.9999778
299.9999635
299.9999732
299.9999714
299.999967
299.999972
299.9999728
299.9999707
299.9999734
299.9999753
299.9999823
299.9999801
299.9999878
299.9999953
299.9999932
299.999996
299.9991463
299.9991026
299.9990881
299.9990296
299.999095
299.999105
299.9999975
299.9999978
299.9999975
299.9999942
299.999997
299.9999957
299.9999842
299.9999928
299.9999895
299.9999782
299.999986
299.9999838
299.999978
299.9999828
299.9999828
299.9999811
299.9999835
299.9999876
299.9999919
299.9999917
299.9999946
299.9999968
299.9999964
299.9999974
299.998963
299.9988384
299.9988742
299.9989606
299.9989027
299.9989271
299.998978
299.9999964
299.9999968
299.9999967
299.9999933
299.9999963
299.9999956
299.9999881
299.9999944
299.9999916
299.9999876
299.9999912
299.9999925
299.9999927
299.999994
299.9999955
299.9999962
299.9999963
299.9999971
299.9985939
299.9987314
299.9988519
299.9987883
299.9988083
299.998904
299.9988172
299.9999965
299.9999965
299.9999968
299.9999948
299.9999968
299.9999963
299.9999956
299.9999965
299.9999967
299.9999968
299.9999969
299.9999972
299.9987642
299.9999977
299.9999972
299.9999972
299.9999983
299.9994504
299.9999981
299.9994599
299.9999981
299.9994456
299.9999943
299.9999949
299.9999974
299.9999972
299.9999935
299.9999936
299.9999979
299.9999929
299.9999929
299.9999934
299.9999908
299.9999906
299.9999908
299.9999907
299.9999908
299.999991
299.9999913
299.9999912
299.9999914
299.9999915
299.9999922
300.0000156
299.9999921
299.9999953
299.9999973
299.9999966
299.9999987
299.9999981
299.9993171
299.9992805
299.999243
299.9999978
299.9999958
299.9999779
299.9999653
299.999965
299.9999685
299.9999746
299.999991
299.9999979
299.9995762
299.999134
299.999123
299.9990837
299.9990897
299.9990841
299.9990932
299.9999978
299.9999966
299.9999888
299.99998
299.9999779
299.9999782
299.9999866
299.9999951
299.999998
299.9999976
299.999997
299.9999952
299.9999909
299.9999871
299.9999895
299.9999947
299.9999972
299.9999978
299.9988203
299.9987916
299.9987545
299.9987101
299.9987488
299.9986349
299.9999965
299.9999966
299.9999961
299.999995
299.9999962
299.9999971
299.9999976
299.9987088
299.9987842
299.998839
299.999996
299.9985506
299.9985902
299.9987786
299.9988686
299.9988984
299.9989428
299.9999965
299.9985779
299.9988197
299.9989409
299.9989942
299.9999968
299.9985772
299.9988144
299.9989196
299.9989907
299.9999971
299.9986287
299.998802
299.9988831
299.9989427
299.9999982
299.9996287
299.9999963
299.9999975
299.9994006
299.9993915
299.9999982
299.9994824
299.9999979
299.9999979
299.9993968
299.9993813
299.9999981
299.9994417
299.9999978
299.9999978
299.9993623
299.999351
299.9999979
299.9993518
299.9999987
299.9999961
299.9999984
299.9999996
299.9999988
299.9999994
299.9999985
299.9999996
299.9999992
299.9999981
299.9999989
299.9999993
299.9999996
299.9999997
299.9999998
299.9999999
299.9990762
299.9990814
299.9999964
299.9999976
299.9999984
299.999999
299.9999993
299.9999985
299.9999994
299.9999998
299.9999996
299.9999998
299.9989471
299.9989739
299.9989775
299.9987861
299.9987339
299.9987847
299.9987856
299.9987733
299.9987643
299.9987735
299.9987568
299.9986859
299.9987299
299.9987781
299.9987319
299.9986834
299.9987232
299.9988316
299.9988607
299.9986983
299.9987659
299.9988173
299.9988353
299.9988232
299.9988663
299.9988835
299.9988586
299.9986894
299.9988005
299.9989391
299.9988216
299.9988356
299.9988333
299.9988646
299.9988861
299.9989007
299.9988262
299.9989048
299.9988083
299.9987823
299.9988379
299.9987108
299.9985763
299.998732
299.9988337
299.9988143
299.9988676
299.9989086
299.9989116
299.9989597
299.9989665
299.998731
299.9985741
299.9987305
299.9988777
299.9988108
299.9988848
299.9989688
299.9989256
299.9989671
299.9989884
299.9987287
299.9985978
299.9987436
299.9988726
299.99882
299.9988723
299.9989362
299.9989058
299.9989569
299.9989864
299.9987486
299.9986765
299.9988107
299.9988655
299.9988688
299.9989152
299.998898
299.9989527
299.998984
299.9989913
299.999008
)
;

boundaryField
{
    walls
    {
        type            zeroGradient;
    }
    wallFilmFace_top
    {
        type            zeroGradient;
    }
    region0_to_wallFilmRegion_wallFilmFace
    {
        type            zeroGradient;
    }
    mirrorFace_top
    {
        type            zeroGradient;
    }
    region0_to_wallFilmRegion_mirrorFace
    {
        type            zeroGradient;
    }
    procBoundary2to0
    {
        type            processor;
        value           nonuniform List<scalar> 
26
(
299.9999935
299.9999946
299.9999963
299.9999971
299.9999966
299.9999981
299.9999996
300.0000543
300.0000004
300.0000022
300.0000056
300.0000086
300.0000129
300.0000139
300.0000101
300.0000067
300.0000046
300.0000033
300.0000023
300.0000017
300.0000013
300.000001
300.0000008
300.0000006
300.0000003
300.000002
)
;
    }
    procBoundary2to1
    {
        type            processor;
        value           nonuniform List<scalar> 
33
(
299.9999934
299.9999934
299.9999933
299.9999933
299.9999945
299.9999971
299.9999978
299.9999978
299.9999964
299.9999978
299.9999971
299.9999924
299.9999958
299.9999949
299.9999935
299.9999913
299.9999911
299.999991
299.9999925
299.9999945
299.9999955
299.9999964
299.9999979
299.9999996
300.0000007
299.9999992
299.9999955
299.9999976
299.9999988
299.9999999
300.0000041
300.0000067
300.000001
)
;
    }
    procBoundary2to3
    {
        type            processor;
        value           nonuniform List<scalar> 
64
(
299.9999998
299.9999997
299.9999998
299.9999999
299.9999999
299.9989882
299.9989019
299.9988534
299.999007
299.9999969
299.9999982
299.9999966
299.9999981
299.9999982
299.9999965
299.9999911
299.9999911
299.9999917
299.9999916
299.9999915
299.9999915
299.9999919
300.0000413
300.0000172
300.0000172
300.0000066
300.0000003
300.0000003
299.9999996
300.0000003
299.9992358
299.9991441
299.9992358
299.9990945
299.9991147
299.9999981
299.9994541
299.9999969
299.9999988
299.9992358
299.9985737
299.9989223
299.9989331
299.9990024
299.9990217
299.9989557
299.9999979
299.9993572
299.9999985
299.9999998
299.9999997
299.9999999
299.9999999
299.9999999
299.9989888
299.9986408
299.9986939
299.9988748
299.9988003
299.9988932
299.9989796
299.9990132
299.9990018
299.9990238
)
;
    }
}


// ************************************************************************* //
