/*--------------------------------*- C++ -*----------------------------------*\
  =========                 |
  \\      /  F ield         | OpenFOAM: The Open Source CFD Toolbox
   \\    /   O peration     | Website:  https://openfoam.org
    \\  /    A nd           | Version:  8
     \\/     M anipulation  |
\*---------------------------------------------------------------------------*/
FoamFile
{
    version     2.0;
    format      ascii;
    class       volScalarField;
    location    "1.2/wallFilmRegion";
    object      alpha;
}
// * * * * * * * * * * * * * * * * * * * * * * * * * * * * * * * * * * * * * //

dimensions      [0 0 0 0 0 0 0];

internalField   nonuniform List<scalar> 
1369
(
5.81142774
0.2085699813
0.04011526291
0.01482687815
0.02534636895
0.05716722918
0.1320764154
6.068092395
0.2259956754
0.042475255
0.01847158628
0.03634897284
0.08571051503
0.1835922092
0.2862684797
0.3046487622
0.2361409739
0.1585438231
6.135891588
0.2202173373
0.04889874031
0.02629233821
0.0562475633
0.1262945308
0.2368728218
0.3157077846
0.291085047
0.1986373297
0.1204420217
0.07538841435
0.0499195789
5.919558743
0.1890598828
0.06231890795
0.04104712909
0.08632088871
0.1712403566
0.2708466468
0.3069258036
0.2457215857
0.1484408288
0.08261123804
0.05024962527
0.03322320996
0.02249299421
0.01949536216
0.04811885705
0.1583681449
5.352046059
0.1368478531
0.08488396015
0.06333888041
0.119540424
0.199017295
0.2594837649
0.2501309762
0.1752090162
0.0964539114
0.05377020654
0.03444289482
0.02342134514
0.01569389929
0.009971079389
0.005892836622
0.003050212317
0.001052050759
0.0102016835
4.50362344
0.0863840691
0.1097552461
0.08397180365
0.1344396489
0.1807984428
0.1919196805
0.1567604464
0.09801548453
0.05464212152
0.03470295686
0.02484571439
0.0178492198
0.01193540509
0.007071104873
0.00359347521
0.001492242327
0.000444113533
0.00101358954
0.3891821094
0.2061174316
0.8757924549
1.719525436
3.665527028
0.05517534084
0.1026477829
0.08026859784
0.1029281293
0.1108698151
0.09528732291
0.06693451132
0.04114747697
0.02697265174
0.02140740395
0.01843616901
0.0149706334
0.01019584507
0.005274024254
0.002047796809
0.0004965891023
0.0001334081054
0.000646685973
0.1714308643
0.1811418078
0.8773879509
1.094834085
0.1707155972
0.05671621519
3.120350928
0.05193925186
0.06358590781
0.04802736228
0.04632906439
0.04002698556
0.03003250663
0.0200328427
0.01299928037
0.0100548494
0.01120402458
0.01612311579
0.02495887352
0.03497166844
0.03720239552
0.0233097109
0.001828651129
0.0006457957845
0.008773475828
0.1288402484
0.3368924593
0.7458764089
0.309430794
0.2659374099
0.1617644092
0.2238960718
3.010162647
0.07291435095
0.02737702688
0.01545748805
0.01217488289
0.01032063778
0.009323475302
0.007744005084
0.004424264635
0.001366675831
0.0004189316956
0.000181629764
0.0001076994427
7.227969829e-05
0.0002046181107
0.006903185782
0.07233936005
0.2082282036
0.4389690984
0.3397811222
0.2907336097
0.3533301413
0.1735360269
0.3997167487
0.3378756654
0.3720431123
2.985970384
0.1490445841
0.2021176973
0.01200747935
0.006425243401
0.00655643318
0.0101704315
0.01764793285
0.02467831792
0.02326015287
0.01264734258
0.003305969379
0.0005451543016
0.0001215372744
6.8755963e-05
0.0009444886402
0.1660041806
0.2361854342
0.3399098271
0.3871338847
0.3410546376
0.2880264523
0.4222259799
0.7131565893
0.714481064
0.8954206148
1.96146553
3.461436695
0.06280757428
0.5245539956
0.0467355537
0.03065791849
0.0340464453
0.05069365545
0.07357949339
0.1160331756
0.1801212329
0.1650991444
0.07359515284
0.0177604686
0.003204251396
0.006302069888
0.03568647281
0.1533049948
0.1454704847
0.28225213
0.5465331174
0.6091724861
0.5757096639
0.1354499719
0.1241328413
0.2818163171
0.6415222403
0.7628137739
5.671760235
0.7835402018
0.7890913834
0.3973662081
0.3139267118
0.2698374801
0.189641633
0.1497953125
0.244087072
0.5748213604
1.034818557
1.170972846
0.7716254472
0.2060988139
0.02700869871
0.06001687451
0.1549914886
0.1089670081
0.2220436048
0.4920366543
0.9363007924
2.484979707
1.453138476
0.4723762073
0.1064176284
0.3430659451
0.591752689
6.585672495
1.23923036
1.309003226
1.028040048
0.7335869104
0.3998898236
0.1921708
0.10168287
0.08734384015
0.1182914767
0.1727246601
0.2308303494
0.266329082
0.2580502322
0.1528701841
0.07125465509
0.1696020368
0.1194560536
0.4988696992
0.896518536
0.9798860779
1.238887989
1.756380453
1.870811588
0.7883960817
0.6754308184
0.918743619
0.7535169261
4.542101409
0.2988224655
0.3790612748
0.3481392793
0.3041257943
0.2169879321
0.1255213835
0.0671096614
0.04651788135
0.04216286296
0.04342618282
0.0469274754
0.05168356707
0.05770939185
0.06487102513
0.08192787451
0.1830084633
0.1300698615
0.1229422769
0.1091304488
0.160263477
0.2726245893
0.6516295711
1.540151454
1.662469946
1.81352352
1.133135402
0.9300549201
0.4737959738
3.149473039
0.103285635
0.1371441502
0.1326298207
0.12715317
0.09930214796
0.06586472052
0.04446165621
0.03485793479
0.03134835248
0.03095723542
0.03202111317
0.03435722512
0.03910467266
0.05264193847
0.09578873029
0.1863755122
0.1337564368
0.03878115196
0.04138939435
0.03688763715
0.05719210711
0.281708114
0.8673834396
1.465156035
1.089194689
0.6690197233
1.236664793
1.0787924
2.281026212
0.03576687444
0.04443691579
0.04052335443
0.04163370813
0.03956654966
0.03633526008
0.0329567082
0.03015972776
0.02883979277
0.02892961579
0.03030458682
0.03368944328
0.04124982526
0.05853336213
0.1102631949
0.1665103273
0.1115188268
0.06593957301
0.06541303955
0.03056536004
0.04729711057
0.4163942677
1.063504469
1.028967242
0.6611108905
0.5075637059
0.7237395137
1.142799204
1.816146603
0.0261262406
0.02791073315
0.02488823873
0.02630492357
0.02745000307
0.02763278693
0.02688819483
0.02584668346
0.0250865669
0.02492102655
0.02581840657
0.02941859068
0.04005180801
0.06436635372
0.1209043525
0.1475532114
0.07581537749
0.1712720094
0.1437439635
0.04524352045
0.08307593367
0.1515642432
0.9803926149
0.8048386671
0.6270935764
0.5388468704
0.6685051577
1.249656024
0.646793644
0.8243233405
0.1940353502
0.2499661414
0.4118402414
1.672620295
0.05091391833
0.05316737862
0.0446740832
0.03766924368
0.03149572375
0.02685127315
0.02370999894
0.02163545729
0.02011981019
0.01870867924
0.01710087628
0.01558305886
0.01675829651
0.03103072073
0.09203600184
0.1295761721
0.1156168064
0.1439982142
0.228927866
0.4896698557
0.401906406
0.1861646912
0.8183953275
0.5220230567
0.3592162262
0.7275761919
0.878665904
0.7438735608
0.6186316133
0.5722696384
0.2930574498
0.6295007334
1.399343081
1.767290215
0.02387880621
0.04681339638
0.04997296344
0.05362117596
0.04865602142
0.04078782477
0.03370101944
0.02855449557
0.02495774002
0.02205835174
0.01903520264
0.01542528596
0.01188688251
0.01154745971
0.04691729585
0.07586020146
0.09748713102
0.1006849104
0.06448047449
0.07587354053
0.05209017144
0.7659266417
1.18039566
0.5834290788
0.3293388693
0.8205637243
0.8592680792
0.6093336443
0.5364268818
0.4643078537
0.2727082986
0.4518964785
1.446154714
2.046885759
0.01195301715
0.02858742351
0.02949668896
0.04798143162
0.0592329339
0.06084543184
0.05788775475
0.05399011675
0.05019201873
0.04593563465
0.03982689494
0.03165313038
0.02413596246
0.02097106792
0.02466841536
0.04014749167
0.0720383281
0.03098727507
0.006952570582
0.02360156013
0.01173701254
0.07493611981
0.6810093691
1.327764877
0.4665693967
0.5772139703
0.5108101055
0.5771163665
0.6163455527
0.573571708
0.3377942949
0.6389172207
2.488983394
0.02558995036
0.01549640492
0.006810363397
0.01492805619
0.02809780745
0.04554286991
0.06647616319
0.08436121261
0.1006732295
0.1125716401
0.1101767402
0.09579037838
0.06809885269
0.05622068361
0.08341812056
0.08172972149
0.0137193432
0.001088704137
0.001167515436
0.001383368823
0.001606836379
0.003404546628
0.07103605345
0.8983380706
0.4688585756
0.1729255787
0.111040088
0.1595077523
0.6693534267
0.6666046198
0.4976496647
2.908110921
0.04768836955
0.01404983904
0.001854062621
0.003182127569
0.006062540252
0.01072929939
0.02403561343
0.07186983955
0.1081482989
0.1719111278
0.2238460009
0.2500172161
0.1877128189
0.07126634108
0.02786200041
0.006926635652
0.001360838602
0.0003516811599
0.0003699291311
0.0003777106684
0.000427622469
0.001552799522
0.06630053684
1.168488792
0.365878497
0.03138552776
0.03003867439
0.0347549806
0.3952542684
0.5104112651
0.5676110149
3.284278267
0.07055092332
0.01356776002
0.0009248321563
0.001049803443
0.001557066577
0.002426290437
0.004957970545
0.02256259136
0.06020467419
0.1429696844
0.2758369145
0.4662570963
0.4389877795
0.1408302691
0.01566186756
0.00442879966
0.001139446181
0.0003795230523
0.0004740426539
0.0004335793271
0.0004404006769
0.002843431762
0.2001410447
0.4297704766
1.408188846
0.6797719234
0.07089748423
0.1173679666
0.3949674682
0.4278491423
0.6189545991
3.725915289
0.09445010132
0.01419129416
0.0008769731968
0.0007393913566
0.0007917925642
0.001049983008
0.001739749244
0.01552854633
0.05190157159
0.1032537074
0.2700676279
0.635927343
0.678341066
0.2609340189
0.009112903599
0.006142178161
0.00139714032
0.0009254321293
0.001251010278
0.0009190073082
0.0009086017513
0.01843245063
0.4397059265
1.406266255
1.836578095
0.7635966636
0.4318855372
0.3969205641
0.3744023378
0.2747341646
4.32280668
0.1257379608
0.01692057512
0.001483805714
0.001443237997
0.001756243557
0.002931932196
0.007209429988
0.0380135524
0.1191606722
0.1993550727
0.3175069139
0.7458770409
0.6624769928
0.01862032787
0.006557625028
0.009340152577
0.001825801128
0.002413119808
0.003455866978
0.001612419441
0.002148088572
0.2599860977
1.578679605
2.421936934
2.721971277
1.875109457
0.9412835323
0.4447330508
0.2163616001
0.119332551
5.01627856
0.1767737376
0.02326271859
0.003058468468
0.003562743695
0.005190075874
0.01131769319
0.04130137781
0.1524650052
0.2653018099
0.3291904032
0.5309957886
0.8807959735
0.4053520886
0.004463939264
0.004446555932
0.01402528127
0.002025201767
0.002745148312
0.003714672697
0.0004202527306
0.02083385675
1.155943259
2.3049589
2.48788574
2.438527774
1.740258337
1.245676878
0.6560540909
0.3878039215
0.3518468792
5.580606586
0.2157121882
0.03499999741
0.00594940485
0.007461555673
0.01251563199
0.03339229951
0.08948529232
0.1327752092
0.1326248964
0.1072083231
0.06454320753
0.04011061447
0.01227112951
0.001342220357
0.0009639704806
0.01802614477
0.001504917957
0.0008981893911
0.001302663285
0.0009184233439
0.4759116071
1.673276292
2.212120046
2.434223832
2.097948363
1.821530647
1.20548275
0.4059692722
0.6690353875
1.168956702
5.829591041
0.2206542331
0.05599460321
0.01225661021
0.01547247276
0.02423895401
0.04495274231
0.06631783723
0.07735824348
0.07735561252
0.05327851181
0.006667006088
0.005061095198
0.002998579137
0.0007961967857
0.003319345983
0.008489726078
0.00165485811
0.0004314476479
0.0004989352168
0.002805105646
0.1917515811
1.082652613
1.901022708
1.758780474
1.381148865
1.3619497
1.453401338
0.559629374
0.3919327323
0.4510769818
5.69682395
0.1903497818
0.1231372494
0.07899888734
0.1006295776
0.1217147801
0.1416808169
0.1619267697
0.1839523345
0.1909383078
0.1334782536
0.0279698094
0.0439438097
0.06430074742
0.02502202398
0.004544575227
0.003460731279
0.005383324025
0.00817528058
0.01148512136
0.01742814361
0.05567724139
0.3703153942
1.595554582
0.859505529
1.114903599
1.373627655
1.439349046
0.5487496176
0.112840871
0.06061566196
5.190517224
0.1727821297
0.1412871389
0.09235445286
0.1068342246
0.1229252997
0.1414289683
0.1646928117
0.1902960027
0.1980629847
0.1416424417
0.03247346365
0.05322153479
0.05785309851
0.0130227711
0.02518080906
0.06917597737
0.07649299128
0.06196148681
0.05281228609
0.04990447264
0.08796405475
0.4134506054
1.019829694
0.3717971605
0.7955069069
1.07187324
1.057679314
0.2109634419
0.03983789854
0.0170594821
4.468321318
0.1605719295
0.1247707661
0.0860042592
0.09302428189
0.1050356295
0.1228089023
0.1449640532
0.1680358736
0.1757282803
0.1306835169
0.0348165825
0.04578437266
0.04195093283
0.03768273544
0.135649709
0.2446593782
0.1580775499
0.0911191915
0.06065150223
0.06066377214
0.0989118327
0.2046681849
0.2322979528
0.2298565519
0.7627763777
1.304686703
0.5880192974
0.2066966988
0.1898057645
0.1565247021
3.789666413
0.1369715866
0.1030443588
0.07829856038
0.08238284219
0.09263162427
0.1098820834
0.1320772512
0.1535805352
0.1603136171
0.1225990807
0.04138908877
0.04708615125
0.05535689603
0.09115986112
0.2058689197
0.2259335792
0.152832496
0.1133641574
0.1015097852
0.0957664537
0.06396151233
0.02390163227
0.02155437583
0.08415362439
0.4061322227
0.754417953
0.7787625144
0.3880286995
0.08971574968
0.06890378534
3.363872134
0.1099354408
0.08612795066
0.07188624876
0.07829377661
0.08985507587
0.1074042384
0.130196266
0.1505751975
0.1549950593
0.1201803021
0.05156857102
0.06007573157
0.08272309741
0.1401895913
0.2003253739
0.1880774109
0.1441510014
0.117390748
0.09479563621
0.0633622381
0.02553049936
0.005245599022
0.003362253227
0.006450724529
0.02216298817
0.2824391762
1.662374249
1.665733496
0.1037351407
0.05133083194
3.217383873
0.08761885131
0.07241557139
0.06427188756
0.07779833928
0.09674148985
0.1195506123
0.1408676302
0.154845117
0.1538599085
0.1205316497
0.0650143918
0.07880545418
0.1139825499
0.1692064475
0.1913653281
0.1689548894
0.1241124926
0.08328595534
0.05524524446
0.03363507824
0.01373586622
0.00401578033
0.002170313279
0.002501138141
0.01147488613
0.120384541
2.126973032
0.8760813428
0.1023602358
0.04695350428
3.24420869
0.07694846775
0.06506025888
0.05238432958
0.07184364578
0.1001230416
0.133711772
0.1565611134
0.1611846697
0.1514770885
0.1211133157
0.08160924729
0.09979548057
0.1371780688
0.1758585892
0.1794215117
0.1499731816
0.1002182204
0.05785981372
0.03396083346
0.01920029104
0.008654573056
0.003190958677
0.001630509013
0.001478034261
0.007133674798
0.01734062656
1.123408651
0.8766857447
0.0510520193
0.01622354004
3.34702838
0.08178591466
0.0668148307
0.03857382259
0.05755781423
0.08686486225
0.1257716754
0.1598096753
0.1660178249
0.1505355701
0.1243013238
0.1001395875
0.1156759992
0.1428742374
0.164183522
0.1599100038
0.1313754586
0.08083636517
0.04303116986
0.0234377666
0.01281871506
0.006272333558
0.002686419984
0.001329010604
0.0009870295706
0.0047433797
0.01342867472
0.2633607636
1.176749299
0.08732536092
0.04450771828
3.485368647
0.1023026285
0.06422008481
0.02764895952
0.04224372064
0.06597535008
0.09983144892
0.13942221
0.162088163
0.1533050212
0.131321661
0.1149685557
0.121085947
0.1295473003
0.1299479136
0.1232194842
0.1031208793
0.06461988444
0.034358052
0.018128043
0.00986502289
0.005120960347
0.002420004705
0.00118495829
0.0007374354573
0.003697039573
0.01364884124
0.0721872853
0.5257813952
0.194100341
0.1247881891
3.637818706
0.1239351634
0.06269660131
0.02406444686
0.03384777223
0.04754422374
0.0734084241
0.1068844615
0.1395807575
0.1497162047
0.1361594952
0.12077577
0.1129831084
0.1030935634
0.09050412321
0.08360306112
0.07399602141
0.05138526496
0.02903450936
0.01550914826
0.008547201301
0.004654133248
0.002377755463
0.001198355607
0.0006679481039
0.003956827501
0.04791278165
0.06152925269
0.2299579233
0.1207165956
0.1406595263
3.825624883
0.145173162
0.1283085807
0.03556558133
0.04082620875
0.04628919105
0.05335319943
0.0787066994
0.1076607309
0.1289420187
0.1288602899
0.1124724572
0.09545478158
0.07788062082
0.06118714023
0.05631863523
0.05398319814
0.04177449507
0.02626267876
0.01486105046
0.0084224758
0.004794336328
0.002659739491
0.001518555232
0.0008928137861
0.005982034185
0.05458276806
0.04796141621
0.1080372514
0.03005305598
0.05754022233
4.387254705
0.2025350735
2.857646488
2.807530882
3.264948908
0.9419490808
0.06736085732
0.05891048992
0.08153442918
0.1019071218
0.1083727462
0.09650564142
0.07793819886
0.05731796163
0.04064127599
0.03843807304
0.04119434186
0.03669207474
0.0266444887
0.01667612645
0.009943556249
0.006289281759
0.006565454859
0.02017713917
0.05633698373
0.0950315942
0.1311332309
0.1355994233
0.152069199
0.1071084432
0.1116273212
6.224541203
1.069808547
3.774812463
3.227835212
3.793796134
3.620428947
1.999477767
0.08255604811
0.06371344172
0.08135934561
0.08959000586
0.08218096883
0.0634985076
0.04236505719
0.0279646565
0.02790333489
0.03416035713
0.03614431208
0.03139124288
0.02280254556
0.01500294859
0.01063080208
0.0121018482
0.0329909362
0.09561430603
0.1754158874
0.2233555224
0.2449387032
0.2898408616
0.2293182616
0.3103044272
7.343601037
0.4228138819
2.709112422
3.613838204
4.275811441
3.794259433
3.497191684
2.289586501
0.09428057188
0.06920894425
0.07858694252
0.07384322772
0.05522850353
0.03349964654
0.02113645845
0.0224245036
0.03120272223
0.03988799912
0.04288437692
0.03867312873
0.03144875487
0.02857734533
0.03977890333
0.08800307859
0.2130240075
0.3789034396
0.4313489758
0.558016663
0.6682414562
0.813893651
1.64998032
8.559963694
0.5070872548
2.083132809
3.962510863
4.813665683
4.310417713
3.301414912
3.07812864
1.475867666
0.07737582914
0.07572397604
0.07383190652
0.05487813655
0.02984479525
0.01806286113
0.02021285381
0.03108097289
0.04781500295
0.06576589347
0.08035448119
0.09147570875
0.1154116379
0.1861766155
0.3167473945
0.4508311577
0.5491946266
0.4540407298
0.5210792927
1.071080622
1.083885919
0.338665923
9.658332778
1.27112129
3.269546072
4.417103237
4.754306469
4.341178994
3.394981319
3.26746025
2.939633316
0.08847991935
0.08548408615
0.08469012797
0.061905052
0.02993133284
0.01721515362
0.01976435342
0.0319670121
0.05686784717
0.09733763931
0.1537412044
0.22176117
0.3426884095
0.6265444892
1.065805079
0.8431351198
0.4685300715
0.3120428526
0.4054233217
1.800620832
1.135174238
0.03906623508
9.767991641
2.377072309
4.269811425
4.494343756
4.203396583
3.280787907
2.574861764
2.100645149
1.947348574
0.1081314707
0.09751125439
0.1055050529
0.07277340806
0.03189879984
0.01751157187
0.01964847455
0.0309847307
0.05885140517
0.1160588252
0.2082444364
0.3179035819
0.4797181346
0.8098403937
1.29454358
1.127375514
0.3291624005
0.3316348171
0.6249679794
0.3063282172
0.04490529739
0.007711545028
9.642921776
3.664717274
4.996286106
4.108858781
2.960479792
2.399513205
1.994693771
2.229338455
2.288511286
0.1821131066
0.1313096066
0.1454982069
0.1056466652
0.05930140149
0.04386916619
0.04334073556
0.0597597287
0.1049432338
0.1974658252
0.3337656266
0.487671262
0.7276366494
1.112392211
1.63551316
1.506986218
0.3911340061
0.291136461
0.1252589886
0.02541747842
0.006801202885
0.00369663371
9.928754176
5.835907868
4.969218201
2.226114586
0.9991581958
0.5470899648
0.3845930505
0.9101055749
1.134441985
0.2556190309
0.1740922019
0.1912507312
0.1483147223
0.0972568866
0.09184648321
0.105211142
0.1128709267
0.1189632162
0.1349442703
0.173277038
0.2041360054
0.1822894143
0.3003145163
0.9600953498
1.427305528
0.3088517309
0.08516678744
0.02439381344
0.008568993495
0.003271304627
0.002161194138
11.7365807
9.424709906
9.540536372
8.31335742
7.764798309
7.027865737
6.476365443
6.21379393
5.03267079
3.657683112
3.245054913
3.256340647
3.164518457
2.984987032
2.818711478
2.666736822
2.510815895
2.373831982
2.294063825
2.306146243
2.447989712
2.785751317
3.506397343
4.774494702
6.176209532
5.215866937
4.234946928
2.935567816
2.391828374
1.955757285
1.873669385
)
;

boundaryField
{
    walls
    {
        type            zeroGradient;
    }
    wallFilmFace_top
    {
        type            zeroGradient;
    }
    region0_to_wallFilmRegion_wallFilmFace
    {
        type            zeroGradient;
    }
    mirrorFace_top
    {
        type            zeroGradient;
    }
    region0_to_wallFilmRegion_mirrorFace
    {
        type            zeroGradient;
    }
    procBoundary1to0
    {
        type            processor;
        value           nonuniform List<scalar> 
52
(
5.442784409
0.1762951736
0.03980447713
0.0135325399
0.01988652828
0.03979453369
0.09209578201
0.2367208597
0.2367208597
0.2904076511
0.2547378485
0.1875445952
0.1079140685
0.1079140685
0.0751176941
0.03305313631
0.03305313631
0.02196248019
0.02003599762
0.03906749628
0.3724940069
0.3724940069
0.6950639404
0.659830113
0.659830113
0.5110151553
0.9537870958
1.527491101
0.2575329481
0.2575329481
0.04883399797
0.08173248084
0.08173248084
0.3525993924
0.5067578398
0.5067578398
0.353870682
0.2977371955
0.5166553946
0.5166553946
0.4441061828
0.4441061828
0.3936474886
0.7526188912
1.309107217
1.309107217
0.8227447164
0.2494607113
0.5954011716
0.5388273825
0.5504793259
1.371537661
)
;
    }
    procBoundary1to2
    {
        type            processor;
        value           nonuniform List<scalar> 
33
(
1.718398435
1.225574046
1.225574046
0.8220417684
0.8220417684
0.9833614097
0.8567736228
0.1594106719
0.1594106719
0.1382045831
0.3508932075
0.9064539603
0.3965415191
0.0628075155
0.008213857655
0.06711270569
0.1464368323
0.2539111254
0.3025071022
0.001408908293
0.03225940769
0.08374304009
0.1236735643
0.08124716798
0.1248000799
0.3705260146
1.34895752
0.2647688872
0.03986506926
0.01021692533
0.004361621198
0.002870690346
1.417984547
)
;
    }
}


// ************************************************************************* //
