/*--------------------------------*- C++ -*----------------------------------*\
  =========                 |
  \\      /  F ield         | OpenFOAM: The Open Source CFD Toolbox
   \\    /   O peration     | Website:  https://openfoam.org
    \\  /    A nd           | Version:  8
     \\/     M anipulation  |
\*---------------------------------------------------------------------------*/
FoamFile
{
    version     2.0;
    format      ascii;
    class       volVectorField;
    location    "1.2/wallFilmRegion";
    object      contactForce:contactAngle;
}
// * * * * * * * * * * * * * * * * * * * * * * * * * * * * * * * * * * * * * //

dimensions      [1 -2 -2 0 0 0 0];

internalField   nonuniform List<vector> 
1369
(
(0 0 0)
(0 -634.55973 0)
(0 0 0)
(0 0 0)
(0 0 0)
(0 0 0)
(625.0245266 572.9391515 0)
(0 0 0)
(0 -406.1729504 0)
(0 0 0)
(0 0 0)
(0 0 0)
(0 0 0)
(0 490.908637 0)
(0 0 0)
(0 0 0)
(0 0 0)
(0 0 0)
(0 0 0)
(0 -647.6818316 -1.915140126e-12)
(0 0 0)
(0 0 0)
(0 0 0)
(998.1147296 914.9385005 -2.705395381e-12)
(0 0 0)
(0 0 0)
(0 0 0)
(0 0 0)
(-879.3125863 -806.0365404 -2.383381541e-12)
(0 0 0)
(0 0 0)
(0 0 0)
(0 -351.2625384 0)
(0 0 0)
(0 0 0)
(0 0 0)
(0 370.8229332 0)
(0 0 0)
(0 0 0)
(0 0 0)
(-908.2189028 -832.5339928 0)
(0 0 0)
(0 0 0)
(0 0 0)
(0 0 0)
(0 0 0)
(0 0 0)
(-6.63119723e-06 1114.409445 0)
(0 0 0)
(-986.3398497 -904.1448606 0)
(0 0 0)
(0 0 0)
(641.9623177 588.4654568 0)
(0 0 0)
(0 0 0)
(0 0 0)
(-639.8917633 -586.5674486 0)
(0 0 0)
(0 0 0)
(0 0 0)
(0 0 0)
(0 0 0)
(0 0 0)
(0 0 0)
(0 0 0)
(0 0 0)
(0 0 0)
(0 -752.1960633 0)
(0 0 0)
(758.4068938 3.597415489e-12 0)
(0 0 0)
(0 293.0496294 0)
(0 0 0)
(-605.549572 0 0)
(-423.9854258 -388.6533084 0)
(0 0 0)
(0 0 0)
(0 0 0)
(0 0 0)
(0 0 0)
(0 0 0)
(0 0 0)
(0 0 0)
(0 0 0)
(0 0 0)
(0 0 0)
(0 356.5018573 0)
(0 0 0)
(0 0 0)
(0 0 0)
(0 -476.4116906 0)
(0 0 0)
(-1996.119901 -1.521701382e-11 0)
(0 0 0)
(-889.9577439 815.7945971 0)
(-961.9878575 -881.8222011 0)
(0 0 0)
(0 0 0)
(0 0 0)
(0 0 0)
(0 0 0)
(0 0 0)
(0 0 0)
(0 0 0)
(0 0 0)
(0 0 0)
(0 0 0)
(0 0 0)
(0 0 0)
(0 765.7070696 0)
(0 0 0)
(0 0 0)
(0 0 0)
(0 -520.3008755 -1.538485483e-12)
(0 0 0)
(0 -667.5327519 0)
(0 0 0)
(0 0 0)
(0 0 0)
(0 0 0)
(0 0 0)
(0 0 0)
(0 0 0)
(0 0 0)
(0 0 0)
(0 0 0)
(0 0 0)
(0 0 0)
(0 0 0)
(0 0 0)
(0 0 0)
(0 0 0)
(0 0 0)
(0 0 0)
(0 461.4052207 0)
(0 0 0)
(0 0 0)
(0 0 0)
(0 0 0)
(627.5061044 0 0)
(335.9874012 0 0)
(0 -745.3334189 0)
(0 0 0)
(0 0 0)
(0 0 0)
(0 0 0)
(0 0 0)
(0 0 0)
(0 0 0)
(0 0 0)
(0 0 0)
(0 0 0)
(0 0 0)
(0 0 0)
(0 0 0)
(0 0 0)
(0 0 0)
(0 0 0)
(512.0906083 469.4163901 0)
(577.965832 0 0)
(0 0 0)
(0 0 0)
(0 0 0)
(0 0 0)
(0 0 0)
(0 0 0)
(0 0 0)
(0 0 0)
(-1301.079456 0 0)
(1092.663034 -1001.607784 0)
(0 0 0)
(0 0 0)
(0 0 0)
(0 0 0)
(0 0 0)
(0 0 0)
(0 0 0)
(0 0 0)
(0 0 0)
(0 0 0)
(0 0 0)
(0 0 0)
(0 0 0)
(990.814982 908.2470701 0)
(0 0 0)
(0 0 0)
(0 0 0)
(0 0 0)
(0 0 0)
(0 0 0)
(0 0 0)
(0 0 0)
(0 0 0)
(0 0 0)
(0 -251.955841 -7.450120149e-13)
(0 0 0)
(0 1061.834467 0)
(0 0 0)
(0 0 0)
(0 0 0)
(0 0 0)
(0 0 0)
(762.0171447 698.5157147 0)
(254.7239814 0 0)
(463.5566579 -424.9269356 0)
(0 0 0)
(0 0 0)
(0 0 0)
(0 0 0)
(0 0 0)
(0 632.2981076 0)
(0 0 0)
(0 0 0)
(0 0 0)
(0 0 0)
(0 0 0)
(0 0 0)
(0 0 0)
(0 0 0)
(0 0 0)
(0 0 0)
(0 0 0)
(494.2814593 0 0)
(0 0 0)
(472.1783462 0 0)
(587.2115103 0 0)
(715.761625 0 0)
(689.6505067 0 0)
(659.34532 0 0)
(-679.4014656 0 0)
(0 0 0)
(0 0 0)
(465.5716553 0 0)
(242.5599964 0 0)
(827.1779185 -758.2464239 0)
(0 0 0)
(0 0 0)
(0 656.804468 0)
(0 0 0)
(0 0 0)
(0 0 0)
(0 0 0)
(0 0 0)
(0 0 0)
(0 0 0)
(0 0 0)
(0 0 0)
(0 0 0)
(0 0 0)
(0 0 0)
(0 0 0)
(0 0 0)
(0 0 0)
(0 0 0)
(0 0 0)
(-736.1350062 -674.7904212 0)
(0 0 0)
(-369.0060505 338.2555456 0)
(-645.221913 0 0)
(-539.8702836 0 0)
(-230.6386037 0 0)
(-257.7109263 0 0)
(-4.142433778e-06 -696.1597322 0)
(0 0 0)
(0 612.5273216 0)
(0 0 0)
(0 0 0)
(0 0 0)
(0 0 0)
(0 0 0)
(0 0 0)
(0 0 0)
(0 0 0)
(0 0 0)
(0 0 0)
(0 0 0)
(0 0 0)
(0 0 0)
(0 0 0)
(0 0 0)
(0 0 0)
(-537.8118082 0 1.457741835e-12)
(-377.7217364 -346.2449244 1.023816824e-12)
(0 0 0)
(0 0 0)
(0 0 0)
(0 0 0)
(0 0 0)
(0 0 0)
(0 0 0)
(0 0 0)
(0 0 0)
(0 276.5902595 8.178538976e-13)
(0 0 0)
(-223.7572202 0 6.064951638e-13)
(-301.7037068 0 8.177695404e-13)
(-357.9359732 0 -9.701874046e-13)
(-323.731494 0 8.774759776e-13)
(0 0 0)
(0 0 0)
(0 0 0)
(0 0 0)
(0 0 0)
(0 0 0)
(0 0 0)
(0 0 0)
(-559.7046258 0 0)
(-634.0065736 0 0)
(-223.348661 0 0)
(-959.5337919 -879.5726458 0)
(0 0 0)
(0 0 0)
(0 0 0)
(0 0 0)
(0 0 0)
(0 0 0)
(0 0 0)
(0 0 0)
(0 0 0)
(0 0 0)
(0 0 0)
(0 347.370224 0)
(0 -332.2463166 0)
(0 0 0)
(0 0 0)
(0 0 0)
(0 0 0)
(0 318.171871 0)
(0 0 0)
(0 0 0)
(0 0 0)
(0 0 0)
(0 0 0)
(0 0 0)
(0 -636.8066533 0)
(0 0 0)
(0 0 0)
(0 0 0)
(0 0 0)
(0 0 0)
(0 0 0)
(0 0 0)
(0 0 0)
(0 0 0)
(0 0 0)
(0 0 0)
(0 0 0)
(0 0 0)
(0 0 0)
(823.2089276 754.6081864 0)
(0 0 0)
(-1113.558287 -1020.761761 0)
(0 0 0)
(0 0 0)
(0 0 0)
(0 0 0)
(0 647.4706292 0)
(0 0 0)
(0 0 0)
(0 0 0)
(0 0 0)
(0 0 0)
(0 0 0)
(0 -582.5164468 -3.444903282e-12)
(0 0 0)
(0 0 0)
(0 0 0)
(0 0 0)
(0 0 0)
(0 0 0)
(0 0 0)
(0 0 0)
(0 0 0)
(0 0 0)
(0 0 0)
(0 0 0)
(0 0 0)
(0 0 0)
(-790.9811069 725.0660134 0)
(0 -423.8779989 0)
(0 0 0)
(960.9464797 880.8676048 0)
(690.9085991 -633.3328813 0)
(0 0 0)
(0 0 0)
(0 354.79187 0)
(0 0 0)
(0 0 0)
(0 0 0)
(0 0 0)
(0 0 0)
(0 0 0)
(0 0 0)
(0 0 0)
(0 0 0)
(0 0 0)
(0 0 0)
(0 -698.8035686 0)
(0 0 0)
(0 0 0)
(0 0 0)
(0 0 0)
(0 0 0)
(0 0 0)
(0 0 0)
(0 0 0)
(0 0 0)
(0 0 0)
(0 0 0)
(0 0 0)
(0 0 0)
(0 0 0)
(0 0 0)
(-735.6149885 674.3137419 0)
(465.7482344 0 0)
(0 0 0)
(-502.4667911 0 0)
(1169.031903 0 0.0005809203629)
(1086.96281 0 0)
(0 0 0)
(0 0 0)
(0 0 0)
(0 0 0)
(0 0 0)
(0 0 0)
(0 0 0)
(0 0 0)
(0 0 0)
(0 0 0)
(0 0 0)
(0 0 0)
(0 -724.7858952 0)
(0 0 0)
(0 0 0)
(0 0 0)
(0 0 0)
(0 0 0)
(0 0 0)
(0 0 0)
(0 0 0)
(0 0 0)
(0 0 0)
(0 0 0)
(0 0 0)
(0 0 0)
(0 0 0)
(0 0 0)
(0 0 0)
(0 0 0)
(-1825.480062 -3.092483497e-13 -4.947973594e-12)
(0 0 0)
(0 0 0)
(0 0 0)
(-670.3336289 614.4724921 -1.816942932e-12)
(0 0 0)
(0 0 0)
(0 0 0)
(0 0 0)
(0 0 0)
(0 0 0)
(0 0 0)
(0 0 0)
(0 0 0)
(0 0 0)
(0 0 0)
(0 -690.6709393 -2.042255286e-12)
(0 0 0)
(0 0 0)
(0 0 0)
(0 0 0)
(0 0 0)
(0 0 0)
(0 0 0)
(0 0 0)
(0 0 0)
(0 0 0)
(0 0 0)
(0 0 0)
(0 0 0)
(0 0 0)
(0 0 0)
(0 0 0)
(0 0 0)
(0 0 0)
(0 0 0)
(0 0 0)
(0 0 0)
(0 0 0)
(-827.22088 758.2858053 0)
(0 0 0)
(0 0 0)
(0 0 0)
(0 0 0)
(0 0 0)
(0 0 0)
(0 0 0)
(0 0 0)
(0 0 0)
(0 -535.9027523 -1.584618889e-12)
(0 0 0)
(0 0 0)
(0 0 0)
(0 0 0)
(0 0 0)
(0 0 0)
(0 0 0)
(0 0 0)
(524.1239345 480.4469391 0)
(574.490356 0 0)
(461.9338751 -423.4393848 0)
(0 0 0)
(0 0 0)
(0 0 0)
(0 0 0)
(0 0 0)
(0 0 0)
(0 0 0)
(0 0 0)
(0 0 0)
(0 0 0)
(0 0 0)
(0 0 0)
(0 503.9181514 0)
(0 0 0)
(-412.6463867 0 0)
(-532.6537763 0 0)
(-371.9413425 0 0)
(0 0 0)
(0 0 0)
(0 0 0)
(0 -431.6166991 -1.276253894e-12)
(0 0 0)
(0 0 0)
(0 0 0)
(0 0 0)
(0 0 0)
(0 0 0)
(0 0 0)
(0 0 0)
(-832.7967807 763.3970476 0)
(0 0 0)
(0 0 0)
(553.4633838 0 0)
(1108.183572 -1015.834945 0)
(0 0 0)
(0 0 0)
(0 0 0)
(0 0 0)
(0 0 0)
(0 0 0)
(0 0 0)
(0 0 0)
(0 0 0)
(0 0 0)
(0 414.4317852 0)
(0 -634.5365965 0)
(0 0 0)
(0 0 0)
(0 0 0)
(0 284.8870069 0)
(0 0 0)
(0 0 0)
(0 -303.9787538 8.98839348e-13)
(0 0 0)
(0 0 0)
(0 0 0)
(0 0 0)
(0 0 0)
(0 0 0)
(0 0 0)
(0 0 0)
(0 0 0)
(0 476.3703073 0)
(0 0 0)
(0 0 0)
(0 0 0)
(702.324629 -643.7975754 0)
(0 0 0)
(0 0 0)
(0 0 0)
(0 0 0)
(0 0 0)
(0 0 0)
(0 0 0)
(0 0 0)
(624.9609549 572.8808743 0)
(0 0 0)
(0 0 0)
(682.6085947 -625.724544 -1.850214313e-12)
(0 0 0)
(569.4032569 521.9529846 0)
(0 0 0)
(0 0 0)
(0 0 0)
(0 -334.5894692 9.893526219e-13)
(0 0 0)
(0 0 0)
(0 0 0)
(0 0 0)
(0 0 0)
(0 0 0)
(0 0 0)
(0 0 0)
(0 0 0)
(0 545.8259238 0)
(0 0 0)
(0 0 0)
(0 0 0)
(-1112.565871 -1019.852052 -3.015615835e-12)
(0 0 0)
(0 0 0)
(0 0 0)
(0 0 0)
(0 0 0)
(0 0 0)
(0 0 0)
(0 0 0)
(0 637.2372797 0)
(0 0 0)
(0 0 0)
(0 0 0)
(308.3544735 0 0)
(0 0 0)
(0 0 0)
(0 0 0)
(0 0 0)
(1069.468117 -980.3457778 0)
(0 0 0)
(0 0 0)
(0 0 0)
(0 0 0)
(0 0 0)
(0 0 0)
(0 0 0)
(427.9212412 392.2611392 0)
(0 0 0)
(0 0 0)
(0 0 0)
(0 -351.5648631 0)
(0 0 0)
(0 0 0)
(0 0 0)
(0 0 0)
(0 0 0)
(0 0 0)
(0 0 0)
(0 0 0)
(833.4249437 763.9728678 0)
(0 0 0)
(0 0 0)
(0 0 0)
(0 0 0)
(0 0 0)
(0 0 0)
(0 0 0)
(0 0 0)
(0 0 0)
(0 -389.9652718 0)
(0 0 0)
(0 0 0)
(0 0 0)
(0 0 0)
(0 0 0)
(0 0 0)
(945.0593245 866.3043792 0)
(0 0 0)
(0 0 0)
(-636.272014 0 0)
(-638.562547 0 0)
(-746.3076405 -684.1153359 0)
(0 0 0)
(0 0 0)
(0 0 0)
(0 0 0)
(0 0 0)
(0 0 0)
(0 0 0)
(0 0 0)
(0 397.9245233 0)
(0 0 0)
(0 0 0)
(0 0 0)
(0 0 0)
(0 0 0)
(0 0 0)
(0 0 0)
(0 0 0)
(0 0 0)
(0 -276.2412486 0)
(0 0 0)
(0 0 0)
(0 0 0)
(0 0 0)
(0 0 0)
(0 0 0)
(-493.1146549 452.0217686 0)
(-366.3939046 0 0)
(-772.3258123 -707.9653305 0)
(0 0 0)
(0 0 0)
(0 0 0)
(0 0 0)
(0 0 0)
(0 0 0)
(0 0 0)
(0 0 0)
(0 0 0)
(0 0 0)
(667.7051439 612.0630475 0)
(0 0 0)
(0 0 0)
(0 0 0)
(0 0 0)
(0 0 0)
(0 0 0)
(0 0 0)
(0 0 0)
(0 0 0)
(0 0 0)
(0 -611.6355152 0)
(0 0 0)
(0 0 0)
(0 0 0)
(0 0 0)
(0 0 0)
(0 0 0)
(0 0 0)
(0 0 0)
(0 0 0)
(0 0 0)
(0 0 0)
(0 0 0)
(0 0 0)
(0 0 0)
(0 0 0)
(0 0 0)
(0 0 0)
(0 0 0)
(0 0 0)
(-495.8934281 454.568975 0)
(0 0 0)
(0 0 0)
(0 0 0)
(0 0 0)
(0 0 0)
(0 0 0)
(0 0 0)
(0 0 0)
(-230.4227511 0 0)
(0 0 0)
(0 0 0)
(1110.505642 -1017.963503 0)
(0 0 0)
(842.8836809 772.6433728 0)
(327.6246468 0 0)
(434.9176575 0 0)
(516.9301294 0 0)
(431.5128514 0 0)
(569.1272308 0 0)
(534.4717326 -489.9324206 0)
(0 0 0)
(0 0 0)
(0 0 0)
(0 0 0)
(0 0 0)
(0 0 0)
(0 0 0)
(0 0 0)
(0 0 0)
(0 0 0)
(0 0 0)
(0 484.1479662 0)
(0 0 0)
(0 0 0)
(0 0 0)
(0 0 0)
(0 0 0)
(0 0 0)
(-910.385751 -834.5202702 0)
(0 0 0)
(0 0 0)
(0 0 0)
(0 -410.8636406 0)
(0 0 0)
(-585.2619331 536.4901073 0)
(0 0 0)
(0 0 0)
(0 0 0)
(0 0 0)
(0 0 0)
(0 -286.2213884 0)
(0 0 0)
(0 0 0)
(0 0 0)
(0 0 0)
(0 0 0)
(0 0 0)
(0 0 0)
(0 0 0)
(0 0 0)
(0 0 0)
(0 0 0)
(0 558.5094595 0)
(0 0 0)
(0 0 0)
(0 0 0)
(0 0 0)
(0 0 0)
(0 -314.0991619 0)
(0 0 0)
(0 0 0)
(0 0 0)
(0 0 0)
(0 -318.9301163 0)
(0 0 0)
(0 0 0)
(-1056.592428 968.543057 0)
(0 0 0)
(0 0 0)
(0 0 0)
(0 0 0)
(0 -444.2716218 0)
(0 0 0)
(0 0 0)
(0 0 0)
(0 0 0)
(554.1285218 507.9511469 0)
(315.1518839 0 0)
(572.0514978 -524.3805415 0)
(0 0 0)
(0 0 0)
(0 0 0)
(0 0 0)
(-740.7263176 678.9991232 0)
(-283.0506752 0 0)
(-463.2311717 0 0)
(0 0 0)
(0 0 0)
(0 0 0)
(0 0 0)
(-976.8569763 0 0)
(-1.145719027e-05 -1925.457119 0)
(0 0 0)
(0 0 0)
(-528.6835743 -484.6266089 0)
(0 0 0)
(0 0 0)
(0 0 0)
(0 575.3993368 0)
(0 0 0)
(0 0 0)
(0 0 0)
(0 -294.1296257 0)
(0 0 0)
(0 0 0)
(0 0 0)
(0 0 0)
(0 496.5431252 0)
(0 0 0)
(0 0 0)
(367.7766897 0 0)
(2.481536188e-11 -1864.958848 0)
(0 0 0)
(0 0 0)
(0 0 0)
(0 0 0)
(0 0 0)
(-822.1992979 753.6826884 0)
(0 0 0)
(0 0 0)
(0 -366.6559032 0)
(0 0 0)
(0 0 0)
(0 0 0)
(-792.1076262 -726.09866 0)
(0 0 0)
(0 0 0)
(0 0 0)
(0 0 0)
(0 263.3871313 0)
(0 0 0)
(0 0 0)
(0 0 0)
(0 -308.9559022 0)
(0 0 0)
(0 0 0)
(0 0 0)
(437.5527244 401.0899966 -1.185989029e-12)
(0 0 0)
(0 0 0)
(0 0 0)
(-544.0797418 -498.7397652 0)
(0 0 0)
(0 0 0)
(0 0 0)
(0 0 0)
(0 0 0)
(0 0 0)
(0 0 0)
(0 472.7367261 0)
(0 0 0)
(0 0 0)
(475.5808811 -435.9491403 0)
(0 0 0)
(0 -621.7216465 0)
(0 0 0)
(0 0 0)
(0 0 0)
(0 0 0)
(0 0 0)
(0 356.3396264 0)
(0 0 0)
(0 0 0)
(0 0 0)
(0 -486.4431787 0)
(0 0 0)
(0 0 0)
(835.9964253 766.3300593 0)
(0 0 0)
(0 0 0)
(0 0 0)
(0 -412.1059482 0)
(0 0 0)
(0 0 0)
(0 0 0)
(0 0 0)
(0 0 0)
(0 0 0)
(0 0 0)
(0 0 0)
(-468.7612664 429.6978267 0)
(0 0 0)
(0 0 0)
(-443.8810856 -406.8909944 0)
(0 0 0)
(0 -572.0642456 0)
(0 0 0)
(0 0 0)
(0 0 0)
(0 0 0)
(0 0 0)
(0 433.7538161 0)
(0 0 0)
(0 0 0)
(0 0 0)
(0 -294.5884345 0)
(0 0 0)
(0 0 0)
(0 622.7407839 0)
(0 0 0)
(0 0 0)
(0 0 0)
(-1041.592462 -954.793088 0)
(0 0 0)
(0 0 0)
(0 0 0)
(0 0 0)
(0 0 0)
(0 0 0)
(0 0 0)
(0 0 0)
(0 0 0)
(0 602.0528666 0)
(0 -781.4902685 0)
(0 0 0)
(0 0 0)
(0 -728.5410124 0)
(0 0 0)
(0 0 0)
(0 0 0)
(0 0 0)
(0 0 0)
(-341.2821897 312.8420084 0)
(0 0 0)
(0 0 0)
(0 0 0)
(0 0 0)
(441.4980221 0 0)
(660.9677024 0 0)
(0 0 0)
(0 0 0)
(0 0 0)
(0 -300.012926 0)
(0 0 0)
(0 0 0)
(0 0 0)
(0 0 0)
(0 0 0)
(0 0 0)
(0 0 0)
(0 0 0)
(0 0 0)
(0 0 0)
(-418.7683923 383.8710277 0)
(0 -257.5850693 0)
(0 0 0)
(0 0 0)
(0 0 0)
(865.7502616 -793.6044094 0)
(0 0 0)
(0 0 0)
(0 0 0)
(0 0 0)
(0 0 0)
(0 570.918505 0)
(0 0 0)
(0 0 0)
(0 0 0)
(0 0 0)
(0 0 0)
(0 0 0)
(-677.0803372 0 -1.835229921e-12)
(-498.6290215 0 0)
(-973.3069382 -892.1980251 0)
(0 0 0)
(0 0 0)
(0 0 0)
(0 0 0)
(0 0 0)
(0 0 0)
(0 0 0)
(0 0 0)
(0 0 0)
(0 0 0)
(0 0 0)
(0 313.7045493 0)
(429.166655 0 0)
(610.126424 -559.2825574 0)
(0 0 0)
(0 -567.9813476 0)
(0 0 0)
(0 0 0)
(0 0 0)
(0 0 0)
(0 0 0)
(-710.552865 651.3401251 0)
(0 0 0)
(0 0 0)
(0 0 0)
(0 0 0)
(-617.9858231 0 0)
(-649.7484058 -595.6027042 0)
(0 0 0)
(0 0 0)
(0 0 0)
(0 0 0)
(0 0 0)
(0 0 0)
(0 0 0)
(0 0 0)
(0 0 0)
(0 0 0)
(0 0 0)
(0 0 0)
(0 0 0)
(0 0 0)
(0 616.6620049 0)
(-588.0497915 0 0)
(-363.0931097 0 0)
(0 0 0)
(0 0 0)
(418.8112035 -383.9102692 0)
(0 0 0)
(0 0 0)
(0 0 0)
(0 0 0)
(0 0 0)
(-610.7330539 559.8386348 -1.65539526e-12)
(0 0 0)
(0 0 0)
(-890.6593676 -816.4377566 0)
(0 0 0)
(0 0 0)
(0 0 0)
(0 0 0)
(0 0 0)
(0 0 0)
(0 0 0)
(0 0 0)
(0 0 0)
(0 0 0)
(0 0 0)
(0 0 0)
(0 0 0)
(0 0 0)
(0 0 0)
(0 0 0)
(0 -1365.885482 0)
(0 0 0)
(0 0 0)
(0 0 0)
(0 0 0)
(0 0 0)
(710.0036011 0 -1.924468617e-12)
(282.1950114 0 0)
(453.2443086 -415.4739511 0)
(0 0 0)
(0 0 0)
(0 0 0)
(-860.4598156 788.7548295 0)
(-946.8759664 -867.9696343 0)
(0 0 0)
(0 0 0)
(0 0 0)
(0 0 0)
(0 0 0)
(0 0 0)
(0 0 0)
(0 0 0)
(0 0 0)
(0 0 0)
(0 0 0)
(0 0 0)
(0 0 0)
(0 0 0)
(0 0 0)
(554.0838256 507.9101754 0)
(375.540913 0 0)
(0 0 0)
(557.9880489 0 0)
(603.2692651 0 0)
(0 0 0)
(0 0 0)
(0 0 0)
(0 0 0)
(0 0 0)
(0 0 0)
(913.2807192 -837.1739911 0)
(0 0 0)
(0 0 0)
(0 0 0)
(0 0 0)
(0 0 0)
(0 0 0)
(0 0 0)
(0 0 0)
(0 0 0)
(0 0 0)
(0 0 0)
(0 0 0)
(0 0 0)
(0 0 0)
(0 0 0)
(0 0 0)
(0 0 0)
(0 0 0)
(887.5017389 813.5432592 0)
(0 0 0)
(0 0 0)
(0 0 0)
(0 0 0)
(0 0 0)
(0 0 0)
(0 0 0)
(0 0 0)
(0 0 0)
(0 0 0)
(0 0 0)
(0 0 0)
(667.4921457 -611.8677991 0)
(0 0 0)
(0 0 0)
(0 0 0)
(0 0 0)
(0 0 0)
(0 0 0)
(0 0 0)
(0 0 0)
(0 0 0)
(0 0 0)
(0 0 0)
(0 0 0)
(0 0 0)
(0 0 0)
(0 0 0)
(0 0 0)
(755.8218518 692.8366962 0)
(0 0 0)
(0 0 0)
(0 0 0)
(0 0 0)
(0 0 0)
(0 0 0)
(0 0 0)
(0 0 0)
(0 0 0)
(0 0 0)
(0 0 0)
(0 0 0)
(0 0 0)
(0 0 0)
(675.2246765 -618.9559557 0)
(0 0 0)
(0 0 0)
(0 0 0)
(0 0 0)
(0 0 0)
(0 0 0)
(0 0 0)
(0 0 0)
(0 0 0)
(0 0 0)
(0 0 0)
(0 0 0)
(491.9523473 450.95632 0)
(250.126378 0 0)
(451.5553194 0 0)
(0 0 0)
(0 0 0)
(0 0 0)
(0 0 0)
(0 0 0)
(0 0 0)
(-245.9955877 0 0)
(0 0 0)
(0 0 0)
(0 0 0)
(0 0 0)
(0 0 0)
(0 0 0)
(0 0 0)
(0 0 0)
(0 -373.1271547 0)
(0 0 0)
(0 0 0)
(0 0 0)
(0 0 0)
(0 0 0)
(0 0 0)
(0 0 0)
(0 0 0)
(0 0 0)
(0 0 0)
(843.0557299 772.8010843 0)
(338.9116208 0 0)
(0 0 0)
(0 0 0)
(0 0 0)
(0 0 0)
(0 0 0)
(0 0 0)
(0 0 0)
(0 0 0)
(-534.5267635 -489.9828656 0)
(0 0 0)
(0 0 0)
(0 0 0)
(0 0 0)
(0 0 0)
(0 0 0)
(0 0 0)
(0 0 0)
(0 0 0)
(0 0 0)
(1090.887277 -999.9800024 0)
(0 0 0)
(1509.534273 2.557250514e-13 0)
(0 0 0)
(0 0 0)
(0 0 0)
(0 0 0)
(0 0 0)
(0 0 0)
(1056.521545 968.4780808 0)
(0 0 0)
(0 0 0)
(0 0 0)
(0 0 0)
(0 0 0)
(0 0 0)
(0 0 0)
(0 0 0)
(0 0 0)
(-687.8281433 -630.5091337 0)
(0 0 0)
(0 0 0)
(0 0 0)
(0 0 0)
(0 0 0)
(0 0 0)
(0 0 0)
(0 0 0)
(0 0 0)
(0 0 0)
(0 0 0)
(0 0 0)
(273.9020903 0 0)
(0 0 0)
(1028.245934 -942.5587764 0)
(0 0 0)
(0 0 0)
(0 0 0)
(0 0 0)
(983.4208909 901.4691533 0)
(0 0 0)
(0 0 0)
(0 0 0)
(0 0 0)
(0 0 0)
(0 0 0)
(0 0 0)
(0 0 0)
(-574.2643355 0 0)
(-755.4611634 -692.5060652 0)
(0 0 0)
(0 0 0)
(0 0 0)
(0 0 0)
(0 0 0)
(0 0 0)
(0 0 0)
(0 0 0)
(0 0 0)
(0 0 0)
(0 0 0)
(0 0 0)
(0 0 0)
(0 0 0)
(0 0 0)
(0 -589.1672458 0)
(0 0 0)
(0 0 0)
(380.1642221 348.4838696 0)
(269.9994819 0 0)
(0 0 0)
(0 0 0)
(0 0 0)
(0 0 0)
(0 0 0)
(0 0 0)
(0 0 0)
(0 0 0)
(0 -398.5483799 0)
(0 0 0)
(0 0 0)
(0 0 0)
(0 0 0)
(0 0 0)
(0 0 0)
(0 0 0)
(0 0 0)
(0 0 0)
(0 0 0)
(0 0 0)
(0 0 0)
(0 0 0)
(0 0 0)
(0 0 0)
(0 0 0)
(0 0 0)
(0 0 0)
(624.7402038 0 0)
(497.8693393 0 -1.349477541e-12)
(0 0 0)
(0 0 0)
(0 0 0)
(0 0 0)
(0 0 0)
(0 0 0)
(0 0 0)
(0 0 0)
(0 0 0)
(0 0 0)
(0 0 0)
(480.4498015 0 0)
(645.4307929 0 0)
(562.627617 0 0)
(520.2953559 0 0)
(447.91087 0 0)
)
;

boundaryField
{
    walls
    {
        type            calculated;
        value           uniform (0 0 0);
    }
    wallFilmFace_top
    {
        type            calculated;
        value           uniform (0 0 0);
    }
    region0_to_wallFilmRegion_wallFilmFace
    {
        type            calculated;
        value           uniform (0 0 0);
    }
    mirrorFace_top
    {
        type            calculated;
        value           nonuniform List<vector> 0();
    }
    region0_to_wallFilmRegion_mirrorFace
    {
        type            calculated;
        value           nonuniform List<vector> 0();
    }
    procBoundary1to0
    {
        type            processor;
        value           uniform (0 0 0);
    }
    procBoundary1to2
    {
        type            processor;
        value           uniform (0 0 0);
    }
}


// ************************************************************************* //
