/*--------------------------------*- C++ -*----------------------------------*\
  =========                 |
  \\      /  F ield         | OpenFOAM: The Open Source CFD Toolbox
   \\    /   O peration     | Website:  https://openfoam.org
    \\  /    A nd           | Version:  8
     \\/     M anipulation  |
\*---------------------------------------------------------------------------*/
FoamFile
{
    version     2.0;
    format      ascii;
    class       volScalarField;
    location    "1.2/wallFilmRegion";
    object      T;
}
// * * * * * * * * * * * * * * * * * * * * * * * * * * * * * * * * * * * * * //

dimensions      [0 0 0 1 0 0 0];

internalField   nonuniform List<scalar> 
1369
(
300.0000019
300.0000019
300.0000039
300.0000046
300.0000033
300.0000022
300.0000016
300.0000019
300.0000019
300.0000036
300.0000037
300.0000025
300.0000017
300.0000013
300.0000011
300.000001
300.000001
300.0000011
300.0000018
300.0000019
300.0000032
300.0000028
300.0000019
300.0000014
300.0000011
300.000001
300.0000009
300.000001
300.0000011
300.0000013
300.0000016
300.0000018
300.0000019
300.0000027
300.0000021
300.0000015
300.0000012
300.000001
300.0000009
300.0000009
300.000001
300.0000012
300.0000015
300.000002
300.0000027
300.0000032
300.0000017
300.0000007
300.0000017
300.0000019
300.0000022
300.0000017
300.0000013
300.0000011
300.000001
300.0000009
300.000001
300.0000011
300.0000015
300.0000019
300.0000024
300.0000033
300.0000048
300.0000074
300.0000125
300.0000244
300.0000042
300.0000017
300.000002
300.0000019
300.0000015
300.0000012
300.0000011
300.000001
300.0000011
300.0000012
300.0000015
300.0000019
300.0000024
300.0000029
300.0000038
300.0000058
300.0000098
300.0000193
300.0000438
300.0000216
300.0000005
299.9999991
299.9999981
299.9999981
300.0000016
300.0000021
300.0000018
300.0000015
300.0000014
300.0000013
300.0000014
300.0000016
300.000002
300.0000025
300.0000028
300.000003
300.0000031
300.0000039
300.0000061
300.0000125
300.0000378
300.000099
300.0000268
300.0000006
299.9999977
299.9999965
299.9999961
299.9999901
299.9999926
300.0000015
300.000002
300.0000019
300.0000019
300.0000019
300.0000021
300.0000025
300.0000033
300.0000046
300.0000055
300.0000049
300.0000036
300.0000025
300.0000019
300.0000018
300.0000023
300.000013
300.0000302
300.0000031
299.9999977
299.9999961
299.9999948
299.9999914
299.9999898
299.9999915
299.9999918
300.0000015
300.0000019
300.0000025
300.0000033
300.000004
300.0000048
300.0000056
300.0000068
300.000011
300.0000308
300.0000858
300.0001666
300.0002062
300.0002263
300.0000905
300.0000073
299.9999967
299.9999921
299.9999913
299.9999923
299.9999935
299.9999942
299.9999915
299.9999904
299.9999914
299.9999923
300.0000014
300.0000021
300.0000014
300.000004
300.0000066
300.000007
300.0000055
300.0000041
300.0000032
300.000003
300.0000043
300.0000125
300.0000429
300.0001281
300.0001544
300.0000157
299.9999956
299.9999918
299.9999923
299.9999935
299.9999942
299.9999945
299.9999942
299.9999922
299.9999922
299.9999935
299.9999942
300.0000012
300.000002
300.0000012
300.0000021
300.0000028
300.0000026
300.000002
300.0000016
300.0000015
300.0000012
300.0000011
300.0000014
300.0000029
300.0000075
300.0000011
299.9999985
299.9999969
299.9999942
299.9999936
299.9999929
299.999993
299.9999938
299.9999957
299.9999919
299.9999925
299.9999931
299.9999932
300.000001
300.0000003
300.0000004
299.9999998
299.9999996
299.9999997
300.0000001
300.0000008
300.0000008
300.0000006
300.0000004
300.0000003
300.0000002
300.0000003
300.0000006
299.9999992
299.9999981
299.9999967
299.9999983
299.9999988
299.9999996
299.9999995
299.9999993
299.9999983
299.9999919
299.9999925
299.9999924
300.000001
300
299.9999999
299.9999999
300.0000001
300.0000004
300.0000008
300.0000009
300.0000004
299.9999998
299.9999994
299.9999991
299.999999
299.9999989
299.9999991
299.9999997
299.999999
299.9999983
300.0000003
299.9999987
299.9999999
300.0000009
300.0000012
300.0000001
299.9999979
299.999994
299.9999935
299.9999941
300.0000014
300.0000013
300.0000012
300.0000012
300.0000012
300.0000012
300.0000012
300.0000011
300.0000007
300.0000004
300.0000002
300
299.9999997
299.9999995
299.9999996
299.9999999
299.9999995
299.9999991
300.0000008
300.0000014
300.0000017
300.0000017
300.0000017
300.000001
299.9999988
299.9999954
299.9999945
299.9999932
299.9999942
300.0000014
300.0000017
300.0000016
300.0000015
300.0000015
300.0000015
300.0000014
300.0000012
300.0000009
300.0000007
300.0000006
300.0000004
300.0000001
299.9999998
299.9999996
299.9999999
299.9999997
299.9999997
300.0000021
299.9999986
300.0000021
300.0000017
300.0000017
300.0000012
299.9999966
299.9999942
299.9999953
299.9999942
299.9999942
300.0000014
300.0000031
300.0000028
300.0000025
300.0000023
300.000002
300.0000016
300.0000012
300.000001
300.0000008
300.0000007
300.0000005
300.0000002
299.9999998
299.9999995
299.9999997
299.9999998
300.0000001
299.9999928
299.999993
299.9999995
300.0000005
300.0000002
299.9999988
299.9999951
299.9999941
299.9999948
299.9999943
299.9999946
300.0000013
300.0000038
300.0000033
300.0000028
300.0000023
300.0000018
300.0000014
300.0000011
300.000001
300.0000009
300.0000008
300.0000007
300.0000004
299.9999999
299.9999994
299.9999994
299.9999998
299.9999999
299.9999896
299.9999913
299.9999961
299.9999954
299.9999986
299.9999979
299.9999935
299.9999936
299.9999941
299.9999937
299.9999931
299.9999948
299.9999936
299.9999932
299.999993
299.9999937
300.0000012
300.0000024
300.0000017
300.0000012
300.000001
300.0000009
300.0000009
300.0000009
300.000001
300.000001
300.0000011
300.0000013
300.0000014
300.000001
300
299.9999993
299.9999992
299.9999981
299.9999968
299.9999962
299.9999953
299.9999957
299.9999998
299.9999965
299.9999926
299.9999929
299.9999937
299.9999935
299.9999936
299.9999931
299.9999929
299.9999925
299.9999927
299.999993
300.0000012
300.0000054
300.0000041
300.0000026
300.0000018
300.0000013
300.000001
300.0000009
300.0000008
300.0000008
300.0000009
300.0000011
300.0000014
300.0000017
300.0000012
299.9999995
299.9999989
299.9999979
299.9999972
299.9999989
299.9999999
300.0000074
300.0000013
299.9999996
299.9999928
299.999993
299.9999939
299.9999936
299.9999939
299.9999933
299.999993
299.9999925
299.9999928
299.999995
300.0000011
300.0000071
300.0000066
300.0000041
300.0000028
300.0000018
300.0000012
300.0000007
300.0000002
299.9999999
299.9999996
299.9999993
299.9999988
299.9999977
299.9999954
299.9999935
299.9999973
299.9999938
299.9999923
300.000015
299.9999986
300.00001
300.0000047
300.0000015
299.9999992
299.9999943
299.9999944
299.9999944
299.9999947
299.999994
299.9999938
299.9999927
299.9999949
300.0000011
300.0000019
300.0000091
300.0000095
300.0000052
300.0000031
300.0000019
300.0000012
300.0000005
299.9999998
299.9999991
299.9999983
299.9999974
299.9999958
299.9999931
299.9999919
299.9999932
299.999997
300.0000569
300.0000751
300.0000818
300.0000824
300.0000544
300.0000035
300.0000012
299.9999957
299.999997
299.9999994
299.9999985
299.999995
299.9999948
299.9999952
300.0000011
300.0000019
300.00001
300.0000251
300.0000142
300.0000072
300.000004
300.0000028
300.0000018
300.0000006
299.9999996
299.9999985
299.9999975
299.9999966
299.9999968
300.0000055
300.0000125
300.0000362
300.0001104
300.0001462
300.0001745
300.0001827
300.000096
299.9999968
300.0000019
299.9999989
300.0000031
300.0000024
299.9999991
299.999996
299.9999963
299.9999976
300.0000012
300.0000019
300.0000104
300.0000473
300.0000378
300.0000223
300.0000122
300.0000078
300.0000042
300.0000022
300.0000009
299.9999992
299.999998
299.9999973
299.9999974
300.000005
300.0000089
300.0000275
300.0000724
300.0000864
300.0001179
300.0001513
300.0000477
299.9999906
300.0000001
300.0000012
300.0000018
300.0000014
299.9999994
299.9999983
299.9999986
299.9999992
300.0000012
300.0000019
300.0000103
300.0000529
300.0000584
300.0000496
300.0000352
300.0000236
300.0000054
300.0000033
300.0000024
299.9999998
299.9999987
299.9999983
299.9999988
300.0000042
300.0000051
300.0000217
300.0000361
300.0000407
300.0000623
300.0000922
300.0000086
299.9999988
299.9999994
300.0000001
299.9999994
299.9999993
299.9999992
299.9999992
299.9999996
300.0000012
300.0000019
300.0000094
300.0000358
300.0000362
300.0000295
300.000019
300.0000101
300.0000042
300.000003
300.0000018
300.0000002
299.9999995
299.9999991
300.0000014
300.000003
300.0000026
300.000018
300.00002
300.0000206
300.0000398
300.0000534
299.9999989
299.9999976
299.9999984
299.9999989
299.9999978
299.9999982
299.9999989
299.9999996
299.9999999
300.0000013
300.0000018
300.0000078
300.0000206
300.0000186
300.0000139
300.0000085
300.0000044
300.0000023
300.0000012
300.0000008
300.0000006
300.0000002
299.9999998
300.0000029
300.0000026
300.0000013
300.0000154
300.0000156
300.0000144
300.00009
300.0000005
299.9999971
299.9999966
299.9999968
299.999998
299.9999961
299.999996
299.9999981
299.9999987
299.9999984
300.0000013
300.0000017
300.0000061
300.0000128
300.0000114
300.0000083
300.0000048
300.0000025
300.0000011
300.0000005
300.0000004
300.0000008
300.0000006
300.0000012
300.0000074
300.0000352
300.0000016
300.0000148
300.0000235
300.0000172
300.000045
299.9999969
299.9999963
299.9999959
299.9999955
299.9999944
299.9999934
299.9999912
299.9999951
299.9999981
299.9999977
300.0000014
300.0000017
300.0000049
300.0000087
300.0000079
300.000006
300.0000034
300.0000015
300.0000005
300.0000003
300.0000003
300.0000026
300.0000027
300.0000043
300.0000122
300.0000115
300.0000043
300.0000102
300.0000316
300.0000323
300.0000128
299.9999974
299.9999967
299.9999969
299.9999967
299.9999945
299.9999933
299.9999919
299.999996
299.9999967
299.9999955
300.0000014
300.0000019
300.000003
300.0000019
300.0000012
300.0000007
300.0000003
300.0000001
300.0000001
300.0000001
300.0000001
300.0000004
300.0000002
300.0000003
300.0000008
300.0000029
300.0000028
300.0000006
299.9999991
299.9999982
299.9999978
299.9999969
299.9999968
299.9999973
299.9999978
299.9999961
299.9999951
299.9999947
299.9999952
299.9999949
299.9999924
300.0000015
300.000002
300.0000021
300.000001
300.0000006
300.0000003
300.0000002
300.0000001
300.0000001
300.0000001
300.0000001
300.0000002
300
300.0000001
300.0000008
299.9999927
299.9999913
299.9999914
299.999992
299.9999928
299.9999937
299.9999946
299.9999962
299.9999969
299.9999982
299.9999973
299.9999965
299.9999956
299.9999885
299.9999884
299.9999884
300.0000015
300.0000018
300.0000013
300.0000004
300.0000001
300
300
300
300
300
300
299.9999993
299.9999987
299.9999972
299.9999931
299.9999893
299.9999881
299.9999886
299.9999896
299.9999908
299.9999919
299.9999932
299.999993
299.9999959
299.9999984
299.9999979
299.9999977
299.9999944
299.9999866
299.9999873
299.9999882
300.0000014
300.0000018
300.000001
300.0000001
299.9999997
299.9999996
299.9999997
299.9999998
299.9999999
299.9999999
299.9999997
299.9999977
299.9999964
299.9999938
299.9999904
299.9999878
299.999987
299.9999871
299.9999877
299.9999884
299.9999888
299.9999895
299.9999919
299.9999982
299.999999
299.9999987
299.9999987
299.9999991
299.9999882
299.9999905
299.9999901
300.0000014
300.000002
300.0000011
300.0000001
299.9999995
299.9999992
299.9999992
299.9999993
299.9999995
299.9999995
299.9999991
299.9999964
299.9999947
299.999992
299.9999891
299.999987
299.9999867
299.9999871
299.9999878
299.9999884
299.9999889
299.9999906
299.999999
300.0000043
300.0000022
300.0000003
300.0000002
299.9999995
299.9999981
299.9999956
299.9999919
300.0000013
300.0000025
300.0000013
300
299.9999991
299.9999986
299.9999985
299.9999986
299.9999988
299.9999989
299.9999983
299.9999956
299.9999937
299.999991
299.9999885
299.9999872
299.9999875
299.9999882
299.999989
299.9999898
299.9999908
299.9999938
300.0000033
300.0000102
300.0000071
300.000002
300.0000007
299.9999995
299.9999995
299.999998
299.9999926
300.0000012
300.0000034
300.0000018
299.9999998
299.9999987
299.9999981
299.9999979
299.9999979
299.9999981
299.9999981
299.9999974
299.9999951
299.9999932
299.9999907
299.9999887
299.9999881
299.9999887
299.9999896
299.9999907
299.9999918
299.9999935
299.9999975
300.0000073
300.0000164
300.0000138
300.0000035
300.0000019
299.9999996
299.9999996
300.0000017
299.9999966
300.0000012
300.0000044
300.0000026
299.9999998
299.9999986
299.9999979
299.9999976
299.9999977
299.9999977
299.9999976
299.9999968
299.999995
299.9999931
299.9999909
299.9999893
299.9999891
299.9999899
299.999991
299.9999924
299.999994
299.9999963
300.0000009
300.0000107
300.0000219
300.0000219
300.0000049
300.0000025
300.0000001
300
300.0000013
300.0000009
300.0000012
300.0000043
300.0000035
300.0000002
299.9999988
299.9999981
299.9999979
299.9999979
299.9999979
299.9999976
299.9999967
299.9999951
299.9999933
299.9999914
299.9999901
299.9999902
299.9999911
299.9999923
299.9999939
299.9999959
299.9999987
300.0000036
300.000013
300.0000258
300.0000308
300.0000065
300.0000031
300.0000009
300.0000002
300.0000011
300.000001
300.0000012
300.0000039
300.0000043
300.000001
299.9999996
299.9999988
299.9999986
299.9999986
299.9999985
299.9999981
299.999997
299.9999955
299.9999937
299.999992
299.9999909
299.9999913
299.9999922
299.9999935
299.9999952
299.9999975
300.0000005
300.0000053
300.000014
300.0000274
300.0000389
300.0000074
300.0000009
300.0000009
300.0000002
300.0000009
300.0000012
300.0000013
300.000004
300.0000053
300.0000028
300.0000013
300.0000001
299.9999996
299.9999995
299.9999993
299.9999988
299.9999977
299.9999961
299.9999943
299.9999927
299.9999918
299.9999925
299.9999934
299.9999947
299.9999964
299.9999986
300.0000015
300.000006
300.0000135
300.0000253
300.0000393
300.0000067
300.0000008
300.0000013
300.0000002
300.000001
300.0000014
300.0000014
300.0000036
300.0000029
300.0000027
300.0000027
300.0000028
300.0000011
300.0000006
300.0000004
299.9999998
299.9999987
299.9999971
299.9999952
299.9999936
299.9999929
299.9999937
299.9999947
299.9999959
299.9999974
299.9999993
300.0000018
300.0000052
300.0000068
300.000003
300.0000011
300.0000005
300.0000003
300.0000002
300.0000001
300.0000001
300.0000003
300.0000017
300.0000028
300.0000026
300.0000026
300.0000026
300.0000027
300.0000028
300.0000021
300.0000014
300.0000009
299.9999999
299.9999984
299.9999966
299.9999948
299.999994
299.999995
299.999996
299.9999972
299.9999984
299.9999998
300.0000016
300.0000037
300.0000047
300.0000026
300.0000011
300.0000005
300.0000003
300.0000002
300
300.0000001
300.0000004
300.0000018
300.0000025
300.0000025
300.0000025
300.0000026
300.0000026
300.0000027
300.0000029
300.0000028
300.000002
300.0000012
300
299.9999984
299.9999964
299.9999954
299.9999963
299.9999973
299.9999983
299.9999992
300.0000002
300.0000012
300.0000022
300.0000025
300.000002
300.0000015
300.0000012
300.0000011
300.0000011
300.0000006
300.0000008
300.0000011
300.0000019
300.0000021
300.0000024
300.0000025
300.0000025
300.0000026
300.0000026
300.0000028
300.000003
300.000003
300.0000023
300.0000015
300.0000003
299.9999985
299.9999971
299.9999976
299.9999985
299.9999993
300
300.0000006
300.0000013
300.0000016
300.0000017
300.0000016
300.0000015
300.0000014
300.0000015
300.0000016
300.0000011
300.0000013
300.0000011
300.0000019
300.0000021
300.0000024
300.0000025
300.0000025
300.0000026
300.0000026
300.0000027
300.0000029
300.0000037
300.000003
300.0000025
300.0000018
300.0000004
299.9999989
299.999999
299.9999997
300.0000002
300.0000006
300.000001
300.0000014
300.0000015
300.0000015
300.0000015
300.0000015
300.0000015
300.0000015
300.0000017
300.0000012
300.0000013
300.0000013
300.0000019
300.0000023
300.0000024
300.0000025
300.0000025
300.0000026
300.0000026
300.0000027
300.0000029
300.0000042
300.0000035
300.000003
300.0000027
300.000002
300.0000008
300.0000005
300.0000007
300.0000009
300.0000011
300.0000013
300.0000015
300.0000015
300.0000015
300.0000014
300.0000015
300.0000015
300.0000013
300.000001
300.0000008
300.0000014
300.0000038
300.000002
300.0000024
300.0000025
300.0000025
300.0000025
300.0000026
300.0000027
300.0000027
300.000003
300.0000045
300.0000038
300.0000035
300.0000035
300.0000042
300.000005
300.0000041
300.0000029
300.0000022
300.0000019
300.0000018
300.0000018
300.0000017
300.0000016
300.0000015
300.0000015
300.0000014
300.0000009
300.0000011
300.000002
300.0000044
300.0000065
300.0000022
300.0000024
300.0000025
300.0000024
300.0000023
300.0000024
300.0000026
300.0000029
300.0000034
300.0000047
300.0000041
300.0000039
300.0000042
300.0000051
300.0000054
300.0000046
300.0000041
300.0000037
300.0000032
300.0000026
300.0000023
300.0000023
300.0000019
300.0000016
300.0000015
300.0000012
300.0000006
300.0000021
300.0000033
300.0000055
300.0000061
300.0000024
300.0000024
300.0000024
300.0000023
300.0000022
300.0000022
300.0000022
300.0000023
300.0000025
300.0000025
300.0000024
300.0000023
300.0000021
300.0000019
300.0000015
300.0000013
300.0000012
300.0000011
300.0000011
300.0000012
300.0000012
300.0000013
300.0000014
300.0000014
300.0000014
300.0000014
300.0000013
300.0000014
300.0000013
300.0000012
300.0000009
)
;

boundaryField
{
    walls
    {
        type            zeroGradient;
    }
    wallFilmFace_top
    {
        type            zeroGradient;
    }
    region0_to_wallFilmRegion_wallFilmFace
    {
        type            zeroGradient;
    }
    mirrorFace_top
    {
        type            zeroGradient;
    }
    region0_to_wallFilmRegion_mirrorFace
    {
        type            zeroGradient;
    }
    procBoundary1to0
    {
        type            processor;
        value           nonuniform List<scalar> 
52
(
300.0000019
300.000002
300.0000041
300.0000054
300.0000042
300.0000029
300.000002
300.0000013
300.0000013
300.0000011
300.0000011
300.0000011
300.0000012
300.0000012
300.0000014
300.0000021
300.0000021
300.0000029
300.0000033
300.0000021
300.0000004
300.0000004
300.0000002
300.0000003
300.0000003
300.0000007
299.9999988
299.9999987
299.999996
299.999996
299.9999944
299.9999928
299.9999928
299.9999918
299.9999932
299.9999932
299.9999938
299.9999921
299.9999931
299.9999931
299.9999942
299.9999942
299.9999932
299.9999936
299.9999952
299.9999952
299.999993
299.9999934
299.9999939
299.9999939
299.9999948
299.9999939
)
;
    }
    procBoundary1to2
    {
        type            processor;
        value           nonuniform List<scalar> 
33
(
299.9999961
299.999997
299.999997
299.9999976
299.9999976
299.9999987
299.9999993
300.0000001
300.0000001
299.9999992
299.999998
299.9999971
299.9999945
299.9999915
299.9999888
299.9999915
299.9999902
299.9999901
299.9999906
300.0000284
300.0000014
300.0000011
300.0000011
300.0000013
300.0000005
300.0000007
300.0000013
300.0000012
300.0000012
300.0000026
300.000005
300.0000051
300.0000012
)
;
    }
}


// ************************************************************************* //
