/*--------------------------------*- C++ -*----------------------------------*\
  =========                 |
  \\      /  F ield         | OpenFOAM: The Open Source CFD Toolbox
   \\    /   O peration     | Website:  https://openfoam.org
    \\  /    A nd           | Version:  8
     \\/     M anipulation  |
\*---------------------------------------------------------------------------*/
FoamFile
{
    version     2.0;
    format      ascii;
    class       volVectorField;
    location    "1.2/wallFilmRegion";
    object      U;
}
// * * * * * * * * * * * * * * * * * * * * * * * * * * * * * * * * * * * * * //

dimensions      [0 1 -1 0 0 0 0];

internalField   nonuniform List<vector> 
1369
(
(-0.4032801699 -0.5313847718 0)
(-0.6737099158 0.5610833231 0)
(-0.9482781944 -1.081938188 0)
(-0.9645269385 -0.8801439747 0)
(-0.8079007507 -0.6801418278 0)
(-0.6811181859 -0.5780561273 0)
(-0.6600104163 -0.5844570795 0)
(-0.3861671435 -0.561912223 0)
(-0.6018867626 0.5920768899 0)
(-0.832791551 -1.053696056 0)
(-0.8121148068 -0.8219070801 0)
(-0.6701476051 -0.6452770756 0)
(-0.6125666129 -0.6035052632 0)
(-0.6304410893 -0.63923936 0)
(-0.6819085283 -0.7301863964 0)
(-0.7306517307 -0.820924843 0)
(-0.7798515571 -0.9096661546 0)
(-0.8257907018 -0.9665770222 0)
(-0.3675143273 -0.6037930028 0)
(-0.5463897103 0.6333847258 0)
(-0.6993246476 -0.9999674467 0)
(-0.6419687515 -0.7520579883 0)
(-0.565281029 -0.6417530891 0)
(-0.5529670155 -0.6349399654 0)
(-0.6013241708 -0.7052170687 0)
(-0.6472384065 -0.797395989 0)
(-0.6939455377 -0.9020268142 0)
(-0.7430846754 -1.013152186 0)
(-0.7967439204 -1.092706108 0)
(-0.8174529762 -1.077295329 0)
(-0.8253975924 -1.014404857 0)
(-0.3484282328 -0.6551044587 0)
(-0.5042417768 0.6825166246 0)
(-0.5691369889 -0.9344240696 0)
(-0.5169502292 -0.7161404097 0)
(-0.5011181734 -0.6660045586 0)
(-0.5222292836 -0.6838239686 0)
(-0.5723474524 -0.7687497167 0)
(-0.6142287982 -0.8641747118 0)
(-0.6583734759 -0.9858903659 0)
(-0.7062540139 -1.123457578 0)
(-0.734321572 -1.187510309 0)
(-0.7220276413 -1.151054646 0)
(-0.7218369289 -1.083409629 0)
(-0.7330230583 -1.002230318 0)
(-0.7331155841 -1.029810695 0)
(-0.5889302916 -1.927377595 0)
(-0.4846138713 -2.459988395 0)
(-0.3311664453 -0.7098226842 0)
(-0.4920169398 0.733486646 0)
(-0.4678497087 -0.8867111427 0)
(-0.451966261 -0.729437898 0)
(-0.4567257458 -0.701319688 0)
(-0.5056817989 -0.7514962979 0)
(-0.5480723955 -0.8314753098 0)
(-0.5874883869 -0.9320949793 0)
(-0.6296042486 -1.069691578 0)
(-0.6681678888 -1.210716059 0)
(-0.635432677 -1.230610246 0)
(-0.6085683384 -1.189318863 0)
(-0.5988616909 -1.121982037 0)
(-0.6068604798 -1.041485534 0)
(-0.6318549844 -0.9458567796 0)
(-0.6714715184 -0.826973885 0)
(-0.7204474332 -0.6796537424 0)
(-0.7734663591 -0.4988327854 0)
(-0.6664312331 0.6294316073 0)
(-0.3173245903 -0.7543091354 0)
(-0.3992520827 0.7733865444 0)
(-0.3816059251 -0.877145887 0)
(-0.4265692729 -0.7764137746 0)
(-0.4547688602 -0.7609363273 0)
(-0.4998868995 -0.8269316268 0)
(-0.5380148673 -0.9010982697 0)
(-0.5805154382 -1.002788478 0)
(-0.6142536755 -1.145200288 0)
(-0.5772613219 -1.217751934 0)
(-0.5244243897 -1.213802938 0)
(-0.4828443111 -1.16587567 0)
(-0.4592433235 -1.103647465 0)
(-0.4578071716 -1.036856785 0)
(-0.4818869627 -0.960634566 0)
(-0.530346957 -0.8583734124 0)
(-0.5919668246 -0.7098043036 0)
(-0.6231423054 -0.4984225627 0)
(-0.4837816784 0.6493483734 0)
(2.060218016 -0.1686739597 0)
(0.05671258919 0.660937135 0)
(-0.2314892295 0.52910306 0)
(-0.124919615 0.2107291788 0)
(-0.3025615662 -0.7648864027 0)
(-0.3418161022 0.3613007882 0)
(-0.3845253867 -0.914361254 0)
(-0.4345372136 -0.8541720769 0)
(-0.5033195767 -0.8353095972 0)
(-0.5282756964 -0.9214320919 0)
(-0.5528521879 -0.9976361756 0)
(-0.5486229279 -1.061512301 0)
(-0.5256566194 -1.128181852 0)
(-0.475077767 -1.154134218 0)
(-0.4069081774 -1.115740886 0)
(-0.3379106834 -1.046917788 0)
(-0.282290433 -0.9804517883 0)
(-0.2558116696 -0.9334771373 0)
(-0.2714088143 -0.904146238 0)
(-0.3343515753 -0.8637371132 0)
(-0.4533107748 -0.7538562021 0)
(-0.4471998227 -0.4993367412 0)
(-0.3532861632 0.7095147585 0)
(2.079417472 -0.02287428309 0)
(-0.08536274323 0.5590096037 0)
(-0.2792933847 0.3425661114 0)
(-0.1722119461 0.2502619633 0)
(-0.1059667143 -0.2521990332 0)
(-0.1094773498 -0.1753741097 0)
(-0.2770667431 -0.7457705897 0)
(-0.2534334338 -0.3149103371 0)
(-0.3216226087 -1.025425956 0)
(-0.3912660487 -1.009132045 0)
(-0.4306040781 -1.004703865 0)
(-0.4488075556 -1.015408722 0)
(-0.4466475388 -1.033466662 0)
(-0.4355356237 -1.040589107 0)
(-0.4204055507 -1.046066565 0)
(-0.3848693295 -1.013816231 0)
(-0.2859251632 -0.8928141501 0)
(-0.127190184 -0.7309686675 0)
(0.02732066208 -0.6070332051 0)
(0.1432350094 -0.5343653652 0)
(0.2306767826 -0.4892315364 0)
(0.3016368554 -0.4459331516 0)
(0.5488015332 -0.5483826066 0)
(0.608629115 -0.4047314125 0)
(0.3230566805 0.6179821588 0)
(0.5156352098 0.3039926254 0)
(-0.1218472264 0.2346107855 0)
(-0.5082658664 0.07590662201 0)
(-0.2107581227 0.009382297865 0)
(-0.1446584385 -0.1708308348 0)
(-0.04366733573 -0.1991884661 0)
(-0.1631576891 -0.1588190742 0)
(-0.2396064294 -0.7239863519 0)
(0.04262702941 -0.4600906813 0)
(-0.1582213873 -1.205952855 0)
(-0.2685584286 -1.219020377 0)
(-0.3021608066 -1.189409653 0)
(-0.2935251404 -1.122481998 0)
(-0.2616700434 -1.023836247 0)
(-0.226114555 -0.9310661674 0)
(-0.206037037 -0.9150824339 0)
(-0.2384104693 -1.010575939 0)
(-0.3053801855 -1.129520875 0)
(-0.3518951401 -1.118410839 0)
(-0.3643752189 -0.9447487256 0)
(-0.3611984386 -0.6741901705 0)
(-0.3629364517 0.4905024581 0)
(-0.4166500903 0.8753313603 0)
(0.2597651921 -0.1890331352 0)
(-0.07610722477 -0.2459046617 0)
(-0.2160919941 -0.3475018961 0)
(-0.2661501815 -0.486510433 0)
(-0.4026825781 -0.4338127121 0)
(-0.5749825824 -0.1494321103 0)
(-0.1577156872 0.2533446629 0)
(-0.1348367011 -0.07304753973 0)
(-0.1403766246 -0.2405408827 0)
(-0.2651745924 -0.2452318579 0)
(-0.2294620242 -0.7119349378 0)
(-0.2295328117 0.7168049037 0)
(0.3629100997 -0.8424908081 0)
(0.3064037166 -0.924250322 0)
(0.2840069684 -0.8855057903 0)
(0.1862100461 -0.7589315402 0)
(0.03654189375 -0.5401996057 0)
(0.03402891667 -0.4018744512 0)
(0.1442408965 -0.3761135013 0)
(0.2769714155 -0.3967557897 0)
(0.4011429257 -0.4593008086 0)
(0.4983384424 -0.5684022498 0)
(0.5796709879 -0.6347745292 0)
(0.5356030836 -0.6222195365 0)
(-0.1110938785 -0.3114081732 0)
(0.4532538232 0.2950477963 0)
(0.3731205461 -0.2706341672 0)
(-0.08415252768 -0.4963113321 0)
(-0.122689369 -0.6800082245 0)
(-0.05439122995 -0.791580074 0)
(-0.01398141887 -0.6319036376 0)
(0.00468322324 -0.142388132 0)
(-0.01654655533 0.6085937329 0)
(-0.06246204461 0.3987612775 0)
(-0.04897406633 -0.4042997181 0)
(-0.0352547986 -0.503756769 0)
(-0.004253323682 -0.0468655838 0)
(-0.1971013765 -0.6837873039 0)
(-0.2029220733 0.7025641936 0)
(0.3597253893 -0.7019048357 0)
(0.4145079924 -0.8161614887 0)
(0.3161188811 -0.7536359054 0)
(0.1690892007 -0.6187498363 0)
(0.07800605112 -0.4936599029 0)
(0.1201213304 -0.3770475185 0)
(0.2853626089 -0.2589756324 0)
(0.3610300037 -0.3197176841 0)
(0.4310226444 -0.4149976143 0)
(0.4924578054 -0.5008720948 0)
(0.5029584801 -0.5096454021 0)
(0.7173484419 -0.4741394549 0)
(0.7267932368 -0.1890674982 0)
(0.6790604077 -0.2086583274 0)
(0.5274809025 -0.2311256902 0)
(0.1924504175 -0.3247335883 0)
(0.1140466017 -0.320632609 0)
(0.1270235447 -0.3296584023 0)
(0.2698629746 -0.296844304 0)
(0.616945091 -0.1688777339 0)
(-0.05605188476 0.0506638544 0)
(0.04364198109 -0.2064875943 0)
(0.04684251213 -0.2528476298 0)
(0.138657198 -0.2666120038 0)
(0.4367543657 -0.1430170694 0)
(-0.1198452426 -0.6560049107 0)
(0.3335144992 -0.5762943837 0)
(0.3537082913 -0.727814218 0)
(0.3179818268 -0.7629550433 0)
(0.1660117223 -0.7518801706 0)
(-0.03284071363 -0.7172654059 0)
(-0.1260166289 -0.6707774675 0)
(-0.114914855 -0.5423004088 0)
(-0.05712861897 -0.3857982606 0)
(0.04283208634 -0.3554450317 0)
(0.1100544162 -0.3697691836 0)
(0.1502005107 -0.3847201148 0)
(0.1835000976 -0.4030450785 0)
(0.3348309107 -0.4543068914 0)
(0.7862799001 -0.1682724788 0)
(0.7798315054 -0.1938213711 0)
(0.6760034964 -0.1965799744 0)
(0.4063926814 -0.2223573072 0)
(0.1688114884 -0.01853471469 0)
(-0.0590433694 0.0606457301 0)
(-0.0281080188 0.09912985156 0)
(0.07249964694 0.1366056263 0)
(-0.06754751399 0.164701914 0)
(-0.09127254789 0.1341361315 0)
(0.1077962679 -0.1092199984 0)
(0.1855601613 -0.07129122379 0)
(0.2834301524 -0.0649032086 0)
(-0.1918616418 -0.6810882351 0)
(-0.2533795238 -0.5727393678 0)
(-0.1976582405 -0.7079395295 0)
(-0.2051408382 -0.6952230387 0)
(-0.24829955 -0.6912534927 0)
(-0.2912892534 -0.704239964 0)
(-0.3360131214 -0.7542126652 0)
(-0.4520812181 -0.8217802289 0)
(-0.56987322 -0.733539288 0)
(-0.715642003 -0.6666338429 0)
(-0.7360322924 -0.6364856007 0)
(-0.7000123494 -0.6005053706 0)
(-0.6199779212 -0.5525530385 0)
(-0.4375785065 -0.498426454 0)
(0.03321866692 -0.4550737113 0)
(0.8505950571 -0.1771493028 0)
(0.7859290975 -0.1672932804 0)
(0.5808361972 -0.1696687301 0)
(0.08606864284 0.09815632727 0)
(-0.08213525198 0.1380550977 0)
(-0.1488260763 0.2338849417 0)
(-0.1656394704 0.2514712728 0)
(-0.1497653284 0.2349706652 0)
(-0.1064104925 0.2171080122 0)
(-0.0200387072 0.1581122419 0)
(0.08849701833 -0.03136229394 0)
(0.1753271416 -0.0440273884 0)
(0.1120681717 -0.06176783883 0)
(-0.1835312799 -0.7676385569 0)
(-0.4528126711 -0.4967906615 0)
(-0.4116214693 -0.711744723 0)
(-0.3851583387 -0.7019017886 0)
(-0.3733143455 -0.7155251287 0)
(-0.3793495587 -0.762532966 0)
(-0.4282434653 -0.8672776656 0)
(-0.4864401829 -0.9506563616 0)
(-0.6239676419 -1.002391617 0)
(-0.7396635579 -0.9736345921 0)
(-0.7790296731 -0.8838402575 0)
(-0.7527794931 -0.7658627905 0)
(-0.6397848495 -0.6336964815 0)
(-0.3902761395 -0.496010719 0)
(0.09106964965 -0.3550994436 0)
(0.9071567122 -0.166656805 0)
(0.8581710559 -0.1474336409 0)
(0.7356788892 -0.160919697 0)
(0.06315902629 0.1477595494 0)
(-0.1206023927 0.3070893532 0)
(-0.2999198086 0.320571696 0)
(-0.3325789942 0.2816027088 0)
(-0.1736799407 0.2055135588 0)
(-0.08776221552 0.188893836 0)
(-0.004183927238 0.1431225794 0)
(-0.02833992209 -0.05103078876 0)
(0.09109015368 -0.0497906903 0)
(-0.01088641002 -0.05552739449 0)
(0.03935891248 -0.1053095493 0)
(-0.1923730265 -0.8841733088 0)
(-0.564657055 -0.5018244214 0)
(-0.5111929659 -0.7649087534 0)
(-0.4768629736 -0.7605837338 0)
(-0.4627475233 -0.7959883933 0)
(-0.4645233562 -0.892628041 0)
(-0.4394608476 -0.9849832453 0)
(-0.4692917975 -1.097615265 0)
(-0.5401573733 -1.139246353 0)
(-0.5906169241 -1.08097891 0)
(-0.5994234248 -0.9700478053 0)
(-0.5546590873 -0.8334717092 0)
(-0.4194064511 -0.6760813714 0)
(-0.1269341354 -0.4953156226 0)
(0.3722251872 -0.3047389942 0)
(0.9702357564 -0.1413047252 0)
(0.8937581004 -0.1526914959 0)
(0.760646416 -0.1766356781 0)
(0.1175697227 0.1738012705 0)
(-0.2454738019 0.1738629396 0)
(-0.3602545102 0.1601673261 0)
(-0.3489301912 0.1500067468 0)
(-0.1402845884 0.09822726971 0)
(-0.07938789881 0.1091527819 0)
(0.05229348801 -0.06903444747 0)
(-0.1038509837 -0.08036290993 0)
(0.0783857074 -0.01071210313 0)
(0.06501519084 -0.01844777256 0)
(0.05088860815 -0.02985053267 0)
(-0.1686041332 -1.00083521 0)
(-0.5009901511 -0.5205252425 0)
(-0.4548854702 -0.9286894426 0)
(-0.4153486939 -0.9435500541 0)
(-0.3807673489 -1.005570515 0)
(-0.3541477879 -1.109171194 0)
(-0.3516229903 -1.218114074 0)
(-0.3773784551 -1.271450042 0)
(-0.4131503395 -1.240358741 0)
(-0.4381262076 -1.146639577 0)
(-0.439657788 -1.019479081 0)
(-0.3982763657 -0.8717339984 0)
(-0.2723390785 -0.7034723367 0)
(-0.00110062607 -0.5121799074 0)
(0.4475638942 -0.3092705954 0)
(0.9756598141 -0.1232039039 0)
(0.9023584952 -0.1841891485 0)
(0.7037284889 -0.157607648 0)
(-0.08664529201 0.1530488192 0)
(-0.1750948805 0.1138896117 0)
(-0.1983061954 0.02571910901 0)
(-0.105587557 -0.04451914888 0)
(-0.02704216818 -0.05606384814 0)
(0.07439187584 -0.06632247338 0)
(0.1183596132 -0.03351520432 0)
(0.1702533093 -0.06721902774 0)
(0.08330792152 -0.01466995012 0)
(0.1385467566 -0.01113314414 0)
(-0.002701866497 -0.05481795426 0)
(-0.1246267462 -1.083521579 0)
(-0.3150598882 -0.8546144021 0)
(-0.2383090524 -1.318105245 0)
(-0.1933932676 -1.386935281 0)
(-0.1779813267 -1.451001508 0)
(-0.1855445012 -1.491595064 0)
(-0.206632235 -1.486671466 0)
(-0.2313441608 -1.43251049 0)
(-0.2533195797 -1.338726823 0)
(-0.2683532308 -1.217117707 0)
(-0.2701014714 -1.076942445 0)
(-0.2404680594 -0.9207886519 0)
(-0.1323207133 -0.7405772642 0)
(0.1172148098 -0.5345995867 0)
(0.4852016618 -0.329482844 0)
(0.8711416855 -0.1472049698 0)
(0.8996927335 -0.237247707 0)
(0.5805051307 0.005581396631 0)
(-0.04073976533 0.1141549197 0)
(-0.04427187262 0.143857262 0)
(-0.01840972197 -0.007446304079 0)
(0.3475494504 -0.02363307494 0)
(0.0874973066 -0.04621148963 0)
(0.1084074596 -0.05189664795 0)
(0.1170999587 -0.05173108943 0)
(0.1058309107 -0.06591820735 0)
(0.10056216 -0.03436850798 0)
(0.1040475953 -0.08769001817 0)
(0.0946179863 -0.04818001753 0)
(0.07990159895 0.07913692961 0)
(0.1348926716 -0.003918420143 0)
(0.09648582469 0.05241853912 0)
(0.1168974185 0.06670397188 0)
(-0.2323404469 0.08255153304 0)
(-0.07559974835 -1.11838412 0)
(-0.07835369033 -1.47524001 0)
(-0.008096378519 -1.831697042 0)
(0.02240050222 -1.930787909 0)
(0.03011484578 -1.938378899 0)
(0.02959248537 -1.884064253 0)
(0.02589787377 -1.781628424 0)
(0.02126150133 -1.64737712 0)
(0.01620639229 -1.496668397 0)
(0.01081117476 -1.341434809 0)
(0.005457447155 -1.189523617 0)
(0.001610899219 -1.043376011 0)
(0.005938051079 -0.8911291954 0)
(0.06296628328 -0.6728816782 0)
(0.3352155207 -0.3260347113 0)
(0.7391485484 -0.04870891823 0)
(0.6254186606 0.116082814 0)
(0.3734674921 0.5597130086 0)
(0.1270836616 0.8417039999 0)
(0.009092324315 0.9478922175 0)
(0.1040564126 0.5629971784 0)
(0.1460418972 0.2237379988 0)
(0.1259025271 0.04390973628 0)
(0.1218733027 -0.0657634077 0)
(0.1338390612 -0.08063413755 0)
(0.1208079144 -0.04797601003 0)
(0.1355751579 0.01023756766 0)
(0.1262991117 0.0001709617297 0)
(0.1946593778 -0.06694679475 0)
(0.1134869722 -0.05768843157 0)
(0.1301607472 0.001588487863 0)
(0.1296078396 0.04018473711 0)
(0.1924190413 -0.08479147613 0)
(0.2298524308 0.09037408541 0)
(-0.01437638023 -1.105529259 0)
(-0.1816317542 -0.3533208068 0)
(-0.005102378295 -1.149950324 0)
(0.1338532749 -1.316235971 0)
(0.2040667176 -1.448270135 0)
(0.2504317967 -1.52217443 0)
(0.2844191182 -1.534081565 0)
(0.3096994272 -1.486119795 0)
(0.3284106966 -1.392019321 0)
(0.342530978 -1.2725048 0)
(0.3536326426 -1.14569767 0)
(0.3630457334 -1.022225635 0)
(0.372499235 -0.9033261408 0)
(0.3839248264 -0.7760283292 0)
(0.4020136657 -0.5500025237 0)
(0.5146745237 0.2502892386 0)
(0.3934086228 0.4569143445 0)
(0.2235988197 0.7005839662 0)
(0.11255497 0.7067547867 0)
(-0.003481976821 0.5719390775 0)
(-0.164253548 0.1412578881 0)
(-0.1688899662 -0.01774165253 0)
(-0.08640978441 0.1535881099 0)
(0.00679546894 0.06191980727 0)
(0.1444522722 -0.08683045924 0)
(0.1777764823 -0.03761849622 0)
(0.1540219123 0.01450932779 0)
(0.1403323937 -0.003682246136 0)
(0.146325367 -0.06793878895 0)
(0.166782069 -0.07150625729 0)
(0.1815019266 -0.01557109991 0)
(0.166500351 0.07684800671 0)
(0.1992266625 -0.008204220638 0)
(0.2136637553 -0.01257661143 0)
(0.05100740241 -1.101919431 0)
(-0.1693607052 0.5957804668 0)
(-0.08220039614 -1.059028816 0)
(0.08821867736 -1.054817068 0)
(0.232484323 -1.138102111 0)
(0.3204370815 -1.208942212 0)
(0.3908416144 -1.237568652 0)
(0.4560737997 -1.218643423 0)
(0.5164136497 -1.158365083 0)
(0.5683187144 -1.075546443 0)
(0.6059161847 -0.9907277907 0)
(0.6227793958 -0.9099024683 0)
(0.6118490833 -0.8163390109 0)
(0.5466006404 -0.6904785495 0)
(0.3651491935 -0.4972562142 0)
(0.09326358988 -0.1411378417 0)
(0.2407922181 0.4827154551 0)
(-0.00457877922 0.055999544 0)
(-0.1119818337 -0.17820414 0)
(-0.2765614192 0.239400806 0)
(-0.1736169594 -0.04109734446 0)
(-0.1880039155 0.1983204843 0)
(-0.2197090086 0.2992912496 0)
(-0.136062317 0.1758525509 0)
(-0.001568518707 0.06557343634 0)
(0.1940460874 -0.01753048514 0)
(0.1360564288 0.003225525137 0)
(0.09410071437 -0.02376188792 0)
(0.129994384 -0.06228665999 0)
(0.182347483 -0.06672054499 0)
(0.2020594411 -0.03583605277 0)
(0.1878744385 0.04183962407 0)
(0.1179898298 -0.03084792859 0)
(0.09505579274 -1.093116288 0)
(0.1037773453 1.10532464 0)
(0.08667078229 -1.053861857 0)
(0.08431929037 -1.025059149 0)
(0.1212945838 -0.9636263077 0)
(0.2401492861 -0.9299136831 0)
(0.3641665193 -0.9062414744 0)
(0.4473238941 -0.8675524215 0)
(0.5175565988 -0.8087495717 0)
(0.6038322747 -0.7186662107 0)
(0.6757343133 -0.738068337 0)
(0.7217273217 -0.7039710819 0)
(0.7426073745 -0.6803200821 0)
(0.6630022277 -0.629608379 0)
(0.3876648748 -0.4786855353 0)
(0.1707652868 -0.3396594214 0)
(0.2469884813 -0.1978369806 0)
(-0.1083096115 -0.2817795797 0)
(-0.3135623717 0.3090027322 0)
(-0.3526788126 0.3917076923 0)
(-0.4174602591 0.4286775669 0)
(-0.4379083182 0.4661846983 0)
(-0.327845754 0.4401699949 0)
(-0.2241518513 0.2491574392 0)
(-0.02091781208 0.1005172711 0)
(0.2021020953 -0.08233862898 0)
(0.04802846152 -0.06044129292 0)
(0.03333259538 -0.05196816727 0)
(-0.080927701 0.06381730378 0)
(0.1644890248 -0.05488665988 0)
(0.1647280465 -0.05499444892 0)
(0.1420381441 -0.05472610134 0)
(0.1349632108 -1.008962538 0)
(0.1788250305 1.022020687 0)
(0.2303109061 -1.112924679 0)
(0.2783221149 -1.049002833 0)
(0.296047798 -0.9793346236 0)
(0.3299836788 -0.8854077047 0)
(0.3968117604 -0.6947746114 0)
(0.363722261 -0.1336886429 0)
(0.4269173047 -0.462093911 0)
(0.479497263 -0.4297702714 0)
(0.5518459027 -0.4386100818 0)
(0.6313128674 -0.4819751166 0)
(0.6750129164 -0.4930447154 0)
(0.685975914 -0.554204036 0)
(0.462020992 -0.5976731522 0)
(-0.3129193812 -0.5489852746 0)
(-0.6863303062 -0.53872966 0)
(-1.071884001 -0.2230456194 0)
(-0.6526698196 0.4039382933 0)
(-0.5450239282 0.5335860241 0)
(-0.46166049 0.5589883141 0)
(-0.3699060152 0.5679107699 0)
(-0.2784932211 0.5276537996 0)
(-0.1149003693 -0.07723927702 0)
(0.04825634088 0.04996307294 0)
(0.09636711831 -0.1855202092 0)
(0.001470283103 -0.09088000167 0)
(0.05335980667 -0.0971100046 0)
(0.07907429026 -0.0501197027 0)
(0.1357118102 0.001338489633 0)
(0.11974332 -0.08368686549 0)
(0.1207799746 -0.1165333825 0)
(0.1753813383 -0.91345898 0)
(0.2457458748 0.9276960031 0)
(0.3666898961 -1.117176066 0)
(0.4839809307 -1.028545266 0)
(0.5236429616 -0.9371828126 0)
(0.5788487673 -0.8003869578 0)
(0.63864494 -0.5289053396 0)
(0.515931918 0.2001205235 0)
(0.3502462918 0.0538493365 0)
(0.3890453504 -0.07350582434 0)
(0.4044395888 -0.1033808382 0)
(0.5391854632 -0.2988069912 0)
(0.5832681148 -0.3656523742 0)
(0.5919318933 -0.4596279227 0)
(0.5083356221 -0.6271778492 0)
(-0.4122298522 -0.515171869 0)
(-0.7634078432 -0.5137233705 0)
(-1.230434767 -0.4030651483 0)
(-0.5123201419 0.4828598008 0)
(-0.3897124942 0.6461009738 0)
(-0.3372597479 0.7178092886 0)
(-0.2799187364 0.7630008071 0)
(-0.1969785063 0.6839738699 0)
(0.02360876013 0.000607050607 0)
(-0.01304604488 0.1083247143 0)
(-0.07016078814 0.07432737999 0)
(0.005851958469 0.0714626606 0)
(0.1448057159 -0.05196926105 0)
(0.3184183163 0.06242386772 0)
(0.1072872043 -0.1040864901 0)
(0.09013696543 -0.1343489835 0)
(0.0759585771 -0.1479485652 0)
(0.2098233334 -0.8341477197 0)
(0.3064622571 0.8505696487 0)
(0.5040753738 -1.10265963 0)
(0.6654107448 -0.9793120014 0)
(0.7044897604 -0.8661100736 0)
(0.7354506952 -0.6965395084 0)
(0.716461247 -0.4280267172 0)
(0.5965329545 -0.07690352436 0)
(0.3854545319 0.1940311239 0)
(0.3521869005 0.1162030223 0)
(0.344560435 0.05917107721 0)
(0.4598304185 -0.1834751863 0)
(0.465910179 -0.3022691544 0)
(0.4013432535 -0.4091175633 0)
(0.0820657801 -0.5656690491 0)
(-0.6120759143 -0.448124582 0)
(-0.6639290872 -0.4521852912 0)
(-1.223389319 -0.4904624893 0)
(-0.3317976879 0.4468996787 0)
(-0.2157139549 0.6227562533 0)
(-0.1764852571 0.7553978141 0)
(-0.1483177682 0.8542137907 0)
(-0.07934000206 0.3438359627 0)
(-0.09669848888 -0.01437600045 0)
(-0.07125299291 -0.1001100862 0)
(-0.02215874333 -0.1186360283 0)
(0.02522755717 -0.1564458252 0)
(0.1160227478 -0.2095669583 0)
(0.1193956399 -0.1775126618 0)
(0.06857962904 -0.2119954335 0)
(0.0008804659344 -0.2514913157 0)
(0.2412062982 -0.7742397657 0)
(0.4412068062 0.7916802768 0)
(0.6326976027 -1.073701091 0)
(0.7827098095 -0.913872094 0)
(0.7923798246 -0.7829370563 0)
(0.7601532606 -0.5971727347 0)
(0.649796711 -0.3573887219 0)
(0.4966780382 -0.1402030469 0)
(0.3896541189 0.0137379585 0)
(0.2357201508 -0.08670238214 0)
(0.157357826 -0.1590400793 0)
(0.4176410102 -0.1828328295 0)
(0.3939597234 -0.2716434541 0)
(0.3326409008 -0.3569167322 0)
(-0.7548696065 -0.4996638514 0)
(-0.5816970288 -0.4406566299 0)
(-0.5555216008 -0.3102538382 0)
(-1.07590133 -0.4962654862 0)
(-0.3515705323 0.07750519333 0)
(-0.2369969007 0.2363705779 0)
(-0.1263918527 0.5252839755 0)
(-0.07753516325 0.7333381205 0)
(-0.06299716282 -0.05675625035 0)
(-0.09236050372 -0.0968651169 0)
(-0.02854696762 -0.1433074376 0)
(0.02013933658 -0.140512273 0)
(-0.01373084879 -0.1862537896 0)
(0.01452532407 -0.2648834141 0)
(0.04951733864 -0.3023488205 0)
(0.04321630361 -0.3327192719 0)
(-0.04454752438 -0.335534636 0)
(0.2762506849 -0.7388690033 0)
(0.4540369767 0.7601801053 0)
(0.737386394 -1.037607314 0)
(0.8334209715 -0.8530830438 0)
(0.8032272405 -0.7189364558 0)
(0.71978786 -0.5478689703 0)
(0.5587101754 -0.3635705302 0)
(0.2171564286 -0.3053774047 0)
(-0.2032804696 -0.4454002486 0)
(-0.4926040765 -0.552582253 0)
(-0.370086311 -0.4536352907 0)
(0.2437162711 -0.2446348867 0)
(0.204908594 -0.3044183369 0)
(0.1016585165 -0.4002754474 0)
(-0.6594466861 -0.5446032979 0)
(-0.5168449089 -0.3546390686 0)
(-0.4583097856 -0.1538132754 0)
(-0.8757247674 -0.4750753698 0)
(-0.5578721163 -0.2318974139 0)
(-0.5013508297 -0.1602492343 0)
(-0.2611678515 -0.1947368345 0)
(-0.02610102907 0.08929319684 0)
(-0.07520705074 -0.09075277102 0)
(-0.08528343996 -0.1089499215 0)
(-0.0510546938 -0.1022997785 0)
(0.02723925329 -0.08064125979 0)
(-0.02914773627 -0.05916416781 0)
(-0.01141430388 -0.1596438955 0)
(0.018065052 -0.3053609778 0)
(0.003976715188 -0.3300995368 0)
(-0.06810357055 -0.2490719212 0)
(0.3156219743 -0.729746664 0)
(0.5005492793 0.7534999853 0)
(0.810787205 -1.00682288 0)
(0.8451461132 -0.8201995027 0)
(0.788696148 -0.7000729586 0)
(0.6449664999 -0.5651775562 0)
(0.2132201425 -0.5410933797 0)
(-0.3086524067 -0.7043631558 0)
(-0.6549648406 -0.8185231202 0)
(-0.779553235 -0.836938579 0)
(-0.7605901477 -0.7527249557 0)
(-0.3759816018 -0.5220245078 0)
(-0.5016604 -0.5879448313 0)
(-0.5694175816 -0.6276996222 0)
(-0.583021841 -0.6283945803 0)
(0.393756742 0.6322271881 0)
(-0.3828489388 0.003007720126 0)
(-0.6932448393 -0.399801738 0)
(-0.7285613911 -0.1441461228 0)
(-0.7892489992 0.006654874862 0)
(-0.01817551427 0.242283289 0)
(-0.07131076827 -0.1214168335 0)
(-0.09254983287 -0.1344861423 0)
(-0.08821761892 -0.1335674421 0)
(-0.09796460067 -0.1066727257 0)
(-0.02390894341 -0.06648086893 0)
(-0.03492196752 -0.01128027954 0)
(-0.03138897552 0.01556456148 0)
(0.003122427636 -0.1257852699 0)
(-0.04000616217 -0.1460158381 0)
(-0.06558281504 -0.1316090817 0)
(0.3515702549 -0.7420526615 0)
(0.5640107574 0.7658542348 0)
(0.8544189468 -0.9855113436 0)
(0.8336559235 -0.8106360838 0)
(0.7460887812 -0.7206366277 0)
(0.4916929239 -0.6909900713 0)
(0.01636876836 -0.8317001007 0)
(-0.3519466804 -1.001515318 0)
(-0.4501308862 -1.016134749 0)
(-0.4561051296 -0.909720881 0)
(-0.4562528056 -0.8177810479 0)
(-0.2767407588 -0.5676622007 0)
(-0.4044777242 -0.5985660612 0)
(-0.4349085813 -0.6001266972 0)
(-0.4619979862 -0.6109604596 0)
(-0.3415484873 0.5814009114 0)
(-0.3473300843 0.2718177492 0)
(-0.3413575936 -0.0505961569 0)
(-0.3587674066 0.4175798941 0)
(-0.368019065 0.565734299 0)
(0.05034932767 0.4383642318 0)
(-0.1405982294 -0.07739122559 0)
(-0.09946376773 -0.1118357914 0)
(-0.1639713972 -0.1112311206 0)
(-0.1916963515 -0.09565642854 0)
(-0.003678580927 -0.06186772695 0)
(-0.01309843248 -0.02691944481 0)
(-0.0283206892 0.05435459084 0)
(-0.03451678453 -0.07890863736 0)
(-0.10817555 -0.1239921354 0)
(-0.1586750787 -0.1092625622 0)
(0.3759613274 -0.7664418759 0)
(0.6799289559 0.7783694724 0)
(0.7591081598 -1.313499389 0)
(0.5306949519 -1.705828664 0)
(0.482655779 -1.801216983 0)
(0.4459517513 -1.770310665 0)
(0.4164914678 -1.640829248 0)
(0.4134739513 -1.436339537 0)
(0.4127069254 -1.200978784 0)
(0.4058467631 -0.989994705 0)
(0.4143833109 -0.8288672196 0)
(0.3932537903 0.7918038454 0)
(0.3981519111 0.9917802434 0)
(0.4026512122 1.067606065 0)
(0.4207104035 0.3440029164 0)
(0.3897765002 0.6816323862 0)
(0.3784131494 0.8776696794 0)
(0.3908552344 1.015233191 0)
(0.399115244 1.128022541 0)
(0.4029657793 1.223526187 0)
(0.3950936878 1.285530149 0)
(0.2897598036 1.037779472 0)
(0.07743071036 0.4528766802 0)
(-0.1961339247 -0.03453849028 0)
(-0.275957287 -0.08674698413 0)
(-0.04512131809 -0.07080087475 0)
(-0.03851646048 -0.02969516089 0)
(-0.01633843262 0.002034002163 0)
(-0.1360995819 -0.1410785407 0)
(-0.2468130282 -0.2399160039 0)
(-0.2521870109 -0.1191767548 0)
(0.3845119235 -0.7908002472 0)
(0.7611432924 0.2438259962 0)
(0.7132312434 -1.398783462 0)
(0.5738205716 -1.669349934 0)
(0.547680366 -1.755775295 0)
(0.5720430479 -1.734703716 0)
(0.6053675893 -1.603102805 0)
(0.6303688707 -1.398956035 0)
(0.6474382601 -1.176854091 0)
(0.6561132352 -0.9731526079 0)
(0.660909098 -0.8010421458 0)
(0.4381888762 0.5314828654 0)
(0.4533779108 0.5961663917 0)
(0.4689771132 0.5061915069 0)
(0.552240991 -0.3099048247 0)
(0.3628534383 0.3865136171 0)
(0.3687956212 0.4010668437 0)
(0.3697093224 0.4169458061 0)
(0.3640130559 0.5332936194 0)
(0.3603196618 0.7025131895 0)
(0.3563314069 0.8861975683 0)
(0.3232915035 1.102072363 0)
(0.1865539034 0.6410612114 0)
(-0.1466700683 0.07877029977 0)
(-0.2469323073 -0.08876372316 0)
(-0.05201730383 -0.07908577701 0)
(-0.07844037675 -0.03977022991 0)
(-0.02580007798 -0.03590050207 0)
(-0.2033038874 -0.2125846262 0)
(0.02502961551 -0.3395164982 0)
(0.1053695348 -0.1873852377 0)
(0.3722437054 -0.8172725798 0)
(0.7556592625 -0.3535741552 0)
(0.671920082 -1.428322387 0)
(0.6271396747 -1.569580992 0)
(0.6529280635 -1.636113713 0)
(0.7108717331 -1.607036508 0)
(0.7977711215 -1.506990599 0)
(0.8664326406 -1.34324839 0)
(0.9078409766 -1.147542781 0)
(0.9276933913 -0.958183451 0)
(0.9218875047 -0.7858749275 0)
(0.5605634036 -0.1054134392 0)
(0.5627762904 -0.03213790054 0)
(0.5508455516 -0.1196896724 0)
(0.4745178794 -0.1836450741 0)
(0.3467944959 0.1061762539 0)
(0.2616496315 0.02128510202 0)
(0.288634829 0.08718574973 0)
(0.3337857969 0.2040446345 0)
(0.3225992184 0.4174319248 0)
(0.314020196 0.6228423906 0)
(0.2277815956 0.7000203208 0)
(-0.1498372142 0.3947766672 0)
(-0.3141868194 0.001414380002 0)
(-0.156564307 -0.1203302676 0)
(-0.02058002766 -0.1384328605 0)
(0.04805943913 -0.08481460923 0)
(0.03495399588 -0.1824025867 0)
(0.1212778728 -0.03436808369 0)
(0.01973287284 0.1889070993 0)
(0.04367305711 0.03828368474 0)
(0.3457286104 -0.8282485642 0)
(0.7277022974 -0.6984944178 0)
(0.6659995319 -1.391476003 0)
(0.6586387547 -1.461136325 0)
(0.7076805762 -1.492052121 0)
(0.8095267239 -1.468285178 0)
(0.9379426061 -1.382346114 0)
(1.059943516 -1.26783397 0)
(1.141794644 -1.112816169 0)
(1.17928028 -0.9494014873 0)
(1.152411941 -0.8005072527 0)
(0.6882877658 -0.498310368 0)
(0.6612111177 -0.3953215536 0)
(0.5905754631 -0.3161818909 0)
(0.4553157274 -0.1822241513 0)
(0.256944891 -0.1138826094 0)
(0.2288038827 -0.144256817 0)
(0.2377771214 -0.1054176417 0)
(0.3051968747 -0.0602275659 0)
(0.3313378305 -0.09457091489 0)
(0.2207835192 -0.1788935406 0)
(0.08141133989 -0.09618650507 0)
(-0.1434349577 -0.2036130581 0)
(-0.2050268814 -0.1327149687 0)
(-0.08667862533 -0.08693015844 0)
(-0.05830854454 -0.05343069815 0)
(0.05574549607 -0.08265466959 0)
(-0.04027396373 0.06319277973 0)
(0.2672189047 -0.08048506199 0)
(0.1133821379 0.09262826666 0)
(0.1425664392 0.0007883750966 0)
(0.3227150059 -0.8125075266 0)
(0.7051452116 -0.7953319509 0)
(0.6870890641 -1.290692648 0)
(0.6742774579 -1.317167402 0)
(0.7180754768 -1.315204076 0)
(0.8193886314 -1.291889641 0)
(0.9702278344 -1.23792001 0)
(1.137638209 -1.172000714 0)
(1.273147621 -1.070344047 0)
(1.342602985 -0.9426196401 0)
(1.298550813 -0.8208253565 0)
(0.787274243 -0.6197898366 0)
(0.7264834215 -0.4912940967 0)
(0.5968715758 -0.3715532715 0)
(0.4263798931 -0.2813945477 0)
(0.2474057327 -0.3220761211 0)
(0.2415319991 -0.3537713822 0)
(0.2412742419 -0.37035685 0)
(0.2066143875 -0.3994757247 0)
(0.2176033285 -0.3793427255 0)
(0.2053017435 -0.3854785967 0)
(0.1525045224 -0.4053989637 0)
(0.1857321058 -0.4745739863 0)
(0.3148623647 -0.4602084148 0)
(0.1598463341 -0.1183131713 0)
(0.07573539302 0.0113211539 0)
(-0.1589207746 0.2457835675 0)
(0.02202120793 0.2731794613 0)
(0.0521318966 0.07426218057 0)
(0.151708121 -0.1102477394 0)
(0.2128364669 -0.08224968474 0)
(0.313453469 -0.7825366802 0)
(0.7252912883 -0.6521255309 0)
(0.6910158612 -1.159654823 0)
(0.6678013215 -1.131965863 0)
(0.694240198 -1.096791403 0)
(0.771225393 -1.0652701 0)
(0.9001295585 -1.041294345 0)
(1.055973386 -1.052052021 0)
(1.23546464 -1.011390082 0)
(1.352116524 -0.9275887001 0)
(1.313284545 -0.8304057441 0)
(0.8681662781 -0.6416019494 0)
(0.781923115 -0.5173926549 0)
(0.6328285238 -0.4172476814 0)
(0.396392756 -0.4504894074 0)
(0.2759589917 -0.514155296 0)
(0.2786284981 -0.5620169357 0)
(0.2718735441 -0.6160237795 0)
(0.2464575302 -0.6021130395 0)
(0.2479055617 -0.5559020194 0)
(0.2498476965 -0.5312901751 0)
(0.2655039339 -0.552409879 0)
(0.3673924006 -0.5833551776 0)
(0.557284307 -0.5270445003 0)
(0.6454374878 -0.1861969888 0)
(0.2077533352 0.1789863908 0)
(-0.4061264211 0.1611084377 0)
(0.03220612446 -0.006047648394 0)
(-0.009371275124 -0.1602447096 0)
(0.01388541819 -0.4951946524 0)
(0.1915458886 -0.09643044063 0)
(0.3156052872 -0.7575489449 0)
(0.7347814433 -0.2423011063 0)
(0.694353535 -1.037128084 0)