/*--------------------------------*- C++ -*----------------------------------*\
  =========                 |
  \\      /  F ield         | OpenFOAM: The Open Source CFD Toolbox
   \\    /   O peration     | Website:  https://openfoam.org
    \\  /    A nd           | Version:  8
     \\/     M anipulation  |
\*---------------------------------------------------------------------------*/
FoamFile
{
    version     2.0;
    format      ascii;
    class       volScalarField;
    location    "2/wallFilmRegion";
    object      delta;
}
// * * * * * * * * * * * * * * * * * * * * * * * * * * * * * * * * * * * * * //

dimensions      [0 1 0 0 0 0 0];

internalField   nonuniform List<scalar> 
1342
(
0.001664590134
0.001213913973
0.0009964839987
0.001180424692
0.001141360287
0.000395108993
0.0001359066307
5.909081186e-05
2.579225784e-05
2.005642039e-05
0.0001114642011
0.0001846341201
0.0001999619401
0.0001849194301
0.0001610694121
0.0002979683396
0.0002194845595
0.000190684336
0.0001350351652
0.0003503330413
0.0002694285269
0.0001711078503
0.0001024109588
7.645501708e-05
0.0003004897921
0.004061724953
0.001928304608
0.001727610043
0.001212511063
0.0007899287242
0.001149094856
0.001037310148
0.0005193173746
0.0001365693672
4.563847656e-05
1.813502561e-05
2.274161553e-05
8.05829004e-05
0.0001351482006
0.0001604877551
0.0001621721961
0.000167933647
0.0008163861048
0.0004181743682
0.0003145054375
0.0002066134887
0.0002943858474
0.0002077488677
0.0001190951229
5.843003757e-05
4.203491228e-05
0.0002598919856
0.004434393674
0.001480861666
0.001432534927
0.001430222485
0.001205858675
0.0008337381124
0.001267713793
0.001002962674
0.0007392201163
0.0002171527573
5.771944252e-05
1.926138919e-05
2.400444379e-05
6.189952821e-05
0.0001179660949
0.000176836738
0.0002639939413
0.0005689839189
0.002783271646
0.000929677851
0.0003556677611
0.0001719527843
0.0002414549409
0.0001598069996
7.628076036e-05
2.904359377e-05
2.843752483e-05
0.0001496547614
0.004310603233
0.00139310138
0.001202778172
0.001161376915
0.001148226474
0.001124178968
0.001483934446
0.001058684672
0.000578742363
0.0003098613014
7.993527085e-05
2.562918898e-05
2.608157944e-05
5.715511841e-05
0.0001762202173
0.0004896054122
0.0005837598712
0.0004736986129
0.0008654138149
0.0002423618753
0.0001355791882
0.0001118649948
0.0001483930014
0.0001005056915
4.64921217e-05
2.075398122e-05
3.630922689e-05
0.0001332666484
0.004046198532
0.001268406979
0.001100710926
0.001062016483
0.001160734621
0.001317445872
0.001627726825
0.001418836231
0.0003047319019
0.0001557747682
5.197063219e-05
2.63440305e-05
3.139155168e-05
5.980489993e-05
0.000152626042
0.0004355275978
0.0008978309421
0.0002383363356
0.0002540316961
0.000108053263
0.000104700496
0.0001439052314
0.0002699601395
0.0004372996064
0.0004543935393
0.0002857629032
0.0003076049532
0.000246044871
0.003990773451
0.001481492458
0.001195146123
0.0007147457634
0.0006063058536
0.0005168069941
0.0004773302169
0.0005806501044
0.0006697701792
0.0001870106185
0.0001216357327
7.229086442e-05
4.381934416e-05
6.106149882e-05
8.375444327e-05
0.0001155111194
9.619405077e-05
0.0001583404537
0.0001420045785
0.0001167797941
0.0001150893759
0.0001356834339
0.0001869894902
0.0002847722013
0.000388968678
0.0004578622672
0.0004731256421
0.001176864544
0.0001788901078
0.003734301961
0.001346754544
0.001359008947
0.0006272341698
0.0003979591439
0.0003077752833
0.0002551814432
0.0002379149258
0.000120885965
0.0001177944605
0.0004245505593
0.00115587171
0.001828054176
0.0006776488195
0.0001935738575
0.000111918516
6.362618654e-05
6.453420965e-05
8.325165129e-05
0.0001248935472
0.0001558649797
0.0001861950766
0.0002228139575
0.0002337653988
0.0001797921293
0.0001350198977
0.0001650673141
0.0004149854092
7.442670088e-05
0.003540511742
0.0005592771913
0.0009464515165
0.0003862348005
0.0002476925953
0.0002228463317
0.0001373991746
6.634202093e-05
2.781253153e-05
2.94892442e-05
0.0003420598261
0.0003036719902
0.0002562716801
0.001069209561
0.0009616091793
0.0002465418347
0.0001039213121
7.879095561e-05
9.338445016e-05
0.0001682237109
0.0002264630649
0.0002579358953
0.00025259407
0.0001919303418
0.0001043491331
5.314736745e-05
7.631600998e-05
0.0003239054832
5.765389579e-05
0.003472169726
8.444307513e-05
0.0003726752934
0.001005042805
0.00156510262
0.0008884488575
0.0001360467375
4.420727299e-05
2.841794214e-05
3.735224717e-05
2.75765684e-05
1.833770097e-05
9.994085262e-06
1.381160128e-05
0.0001763287039
0.000269489203
0.0001947898168
0.0001585109511
0.0001732664333
0.0002623301653
0.000314526181
0.0002978633195
0.0002216381214
0.0001228625046
5.002838022e-05
1.761241043e-05
8.762636846e-06
2.965918791e-05
5.650914103e-05
0.004141300294
0.0004096577868
0.001091882212
0.001297093985
0.001137355206
0.000311232983
4.980701174e-05
2.599435524e-05
1.608229972e-05
0.0001127997903
6.696813956e-05
1.943944988e-05
5.681439437e-06
3.148652522e-06
5.000257747e-05
0.0005383158123
0.0004467536889
0.0003202115703
0.0002693639906
0.0003004501992
0.0002883626764
0.0002160519031
0.0001244886876
5.589862186e-05
2.250449071e-05
1.114979725e-05
9.012553651e-06
2.573678379e-05
6.521564322e-05
0.005335060631
0.001127418398
0.002347696347
0.0004394420504
0.0001313416253
9.106124014e-05
2.705634169e-05
1.619220118e-05
1.846359653e-05
2.165640144e-05
7.635217984e-06
2.987559729e-06
1.455714496e-06
1.102084396e-06
8.857758202e-06
0.0008491337037
0.0006303746618
0.0004081575611
0.0002727682426
0.0002120313485
0.000160279091
0.0001000214285
5.067521432e-05
2.343377836e-05
1.254643757e-05
9.352594272e-06
9.502742425e-06
3.064048244e-05
0.0001150899368
0.006865186132
0.002002705148
0.001665188436
0.0008306407222
4.690293004e-05
3.698529224e-05
1.441778198e-05
6.909201402e-06
6.227133394e-06
5.562637882e-06
2.683944569e-06
1.455897238e-06
8.267346306e-07
5.668264765e-07
6.672471603e-07
3.293620192e-06
0.0002712827902
0.0002413200178
0.0001599883797
0.0001130279883
9.095392429e-05
7.097265553e-05
4.933800333e-05
3.221028202e-05
2.161163095e-05
1.622718366e-05
1.417290757e-05
4.633373607e-05
0.0004434003319
0.008190111962
0.002105634318
0.001084010409
0.001610453101
0.0002197298236
1.758762868e-05
6.282682409e-06
2.811298337e-06
1.703342064e-06
1.851863773e-06
1.7753733e-06
9.903558514e-07
5.244984722e-07
3.146244771e-07
2.470744448e-07
3.401470867e-07
4.150060411e-06
1.717819628e-05
1.340960051e-05
1.723055482e-05
3.843630829e-05
6.891255468e-05
8.097915006e-05
6.763417854e-05
4.663192959e-05
3.114991039e-05
2.267054314e-05
7.742735753e-05
0.001972202164
0.008607463571
0.001060484662
0.000743798986
0.000922600323
0.0007756987043
2.649373354e-05
3.388227556e-06
1.33903904e-06
7.376237574e-07
1.032267624e-06
1.409596342e-06
6.093083581e-07
2.611821553e-07
1.27909773e-07
7.924176631e-08
7.275282549e-08
1.029176512e-07
1.864931909e-07
3.327373124e-07
5.937627919e-07
3.151367681e-06
1.10036521e-05
2.50949176e-05
3.511804162e-05
3.564449906e-05
3.107753632e-05
2.747078828e-05
0.0002029084496
0.003727630205
0.008745084456
0.0009082517153
0.0008792724203
0.0009951154985
0.0008513892073
3.961542759e-05
3.267851271e-06
1.704763775e-06
1.58805959e-06
1.752458167e-06
1.829962597e-06
5.103941487e-08
2.496535133e-08
1.514706169e-08
1.460626527e-08
2.274440707e-08
4.609516694e-08
1.008474264e-07
2.107301486e-07
4.813432717e-07
2.020465503e-06
7.12578732e-06
1.648322501e-05
2.574384799e-05
3.050565704e-05
3.170792479e-05
4.134876704e-05
0.002236993137
0.00499096866
0.008937435212
0.0006226014927
0.001589643882
0.001415080432
0.0006598715302
4.571314294e-05
5.374569257e-06
5.881737933e-06
1.599532435e-05
8.236288465e-07
1.138479938e-08
3.820259054e-08
3.776030385e-08
3.772583828e-08
4.477210419e-08
6.352067307e-08
1.033062476e-07
1.819157494e-07
3.262712011e-07
6.561663453e-07
1.973937472e-06
6.28069803e-06
1.449841409e-05
2.395029045e-05
3.088350617e-05
3.704234037e-05
8.460718723e-05
0.004177583476
0.005619485269
0.009110238835
0.000318292742
0.001474687874
0.001348909387
0.0005226009327
4.830090381e-05
1.371955458e-05
2.576847071e-05
0.0001081078732
4.651851289e-07
1.291713737e-11
2.843481051e-08
5.098109172e-08
7.531766483e-08
1.126706542e-07
1.755977296e-07
2.830855894e-07
4.64665227e-07
7.606833798e-07
1.299954044e-06
2.740825577e-06
6.841218072e-06
1.518228988e-05
2.685788643e-05
3.910759539e-05
6.900834746e-05
0.0003996218169
0.003362265594
0.006851724337
0.007244641884
0.0002827247351
0.0008309208805
0.0009534131274
0.0003726393045
3.845242284e-05
1.439253961e-05
2.071875409e-05
0.0001068072834
3.190612925e-07
6.121359129e-11
2.823640783e-08
7.143967543e-08
1.351435075e-07
2.372051587e-07
4.052169597e-07
6.798808696e-07
1.117179917e-06
1.78410486e-06
2.810340013e-06
5.30367321e-06
1.388161849e-05
3.10883136e-05
5.903440253e-05
0.0001326256823
0.0008606804592
0.003304383308
0.004399421675
0.005450760927
0.00709740132
0.0002583404984
0.0005523550071
0.0005835053762
0.0002155744417
2.402945961e-05
1.020472658e-05
1.047115066e-05
6.039754621e-05
3.167666289e-07
8.371848049e-10
3.259764204e-08
1.014243021e-07
2.244796697e-07
4.389967511e-07
8.044023359e-07
1.404210293e-06
2.340000269e-06
3.706596195e-06
7.652195259e-06
2.316005808e-05
0.0004740260995
0.001401337245
0.002411983752
0.003873348095
0.00478312285
0.003717644493
0.004025385736
0.005060650527
0.007095485612
0.000206782866
0.0002758514433
0.0002488506324
8.737685215e-05
1.471335762e-05
7.557984992e-06
5.662745434e-06
2.482157641e-05
3.639234184e-07
1.033938208e-08
4.346276333e-08
1.447509572e-07
3.521743366e-07
7.39639847e-07
1.422909515e-06
2.554702591e-06
4.29000149e-06
8.039421466e-06
0.000100494397
0.001874363977
0.004648817355
0.005278626422
0.004808454893
0.00421688957
0.003898863999
0.004025368146
0.005063177412
0.005131432864
0.006917989423
0.0002198554142
0.0001055324277
8.390611855e-05
3.322388203e-05
9.398405278e-06
5.191194588e-06
2.893847305e-06
9.876136017e-06
4.368865507e-07
1.641307723e-08
5.951143779e-08
2.052659888e-07
5.285407593e-07
1.159984622e-06
2.296381074e-06
4.173991979e-06
9.7359986e-06
7.04024957e-05
0.003438453713
0.005322228627
0.004657249715
0.004839189004
0.004952911613
0.004758495561
0.005096926038
0.005052245946
0.005746292872
0.004867280402
0.006440770535
0.0002363176954
6.299734792e-05
3.753529892e-05
1.618254792e-05
6.342180367e-06
3.194570987e-06
1.148419622e-06
3.777537713e-06
5.324256996e-07
2.285317539e-08
8.148352794e-08
2.877682773e-07
7.658645852e-07
1.722792029e-06
3.453409545e-06
6.264544549e-06
1.410787316e-05
5.222653803e-05
0.002362101547
0.003290351797
0.004181723476
0.005344148735
0.006572784822
0.006518432048
0.006253033756
0.005270217155
0.005571230951
0.004436653941
0.005825005955
0.000162784993
5.714392945e-05
3.109143948e-05
1.636527119e-05
8.181701281e-06
3.647511193e-06
8.452114615e-07
1.198852733e-06
7.375396663e-07
3.72820432e-08
1.126429283e-07
3.984316654e-07
1.079156494e-06
2.466837235e-06
5.014591308e-06
9.346967403e-06
2.060939131e-05
8.645547869e-05
0.002137993608
0.004750584198
0.004362320756
0.004044554382
0.006071632435
0.006722485987
0.005954456042
0.004960897204
0.005129975635
0.004133050343
0.005306371578
8.872479832e-05
5.514022693e-05
3.757820891e-05
3.64036383e-05
5.344842652e-05
2.180843976e-05
1.447366646e-06
2.241389222e-07
1.045532088e-06
9.286277414e-08
1.892513544e-07
5.888579268e-07
1.531839637e-06
3.495176097e-06
7.461272242e-06
2.036901351e-05
7.597842107e-05
0.0003672423776
0.004434356557
0.005683518766
0.003621642267
0.004837507403
0.006291542977
0.004897947888
0.004603998555
0.004547755799
0.004909831687
0.004271061466
0.005208526628
3.542452811e-05
3.40236584e-05
2.36230182e-05
4.550125367e-05
0.0002797781274
5.160943632e-05
1.829974144e-06
1.860701225e-08
8.411650538e-07
4.101324605e-07
4.61750358e-07
9.980725221e-07
2.300172855e-06
5.079610615e-06
1.356918724e-05
0.0001673442563
0.0008912722651
0.002266098789
0.007095884031
0.004070957419
0.004546200153
0.005904660822
0.00502277173
0.003715151859
0.003789204835
0.004310253909
0.004985107234
0.004921308345
0.00580658727
2.102910705e-05
4.672915484e-05
5.807287134e-05
0.0001312031043
0.0008539401261
0.0001189506199
2.571830923e-06
6.318536554e-08
7.608922277e-07
7.048652377e-07
8.931307754e-07
1.691051789e-06
3.541007199e-06
8.295338222e-06
3.901577669e-05
0.001623508369
0.003583721705
0.005217081456
0.007186131673
0.004282538695
0.005308677038
0.005618170854
0.003737718257
0.003252203546
0.00357419057
0.00428912254
0.005248889212
0.005971465259
0.007146410064
4.947941041e-05
0.0001783042281
0.0003113800296
0.0005820722287
0.001471412134
0.0002309285854
6.200179353e-06
1.683267895e-07
2.2071172e-06
3.346103638e-06
4.548030966e-06
7.135892922e-06
1.220568585e-05
3.617653375e-05
0.0002769564251
0.004894387177
0.005626179358
0.006695076325
0.006043041052
0.004956341181
0.00588989418
0.003917322389
0.00259348974
0.002505178622
0.00284886043
0.003366534473
0.004127624346
0.004694548691
0.005764034339
0.0001027968603
0.0005796548533
0.000871093953
0.0007814707059
0.001771543694
0.0005422467074
5.888985779e-05
5.132317896e-06
0.001944723896
0.001420795092
0.0009761674021
0.001295355613
0.001507492499
0.003585796001
0.005995622414
0.008969299032
0.008095674181
0.009447860962
0.006518851382
0.006368002758
0.006625111966
0.003822623163
0.002757783815
0.002506074793
0.002552700372
0.002739201095
0.00345678034
0.00383917005
0.004698147119
0.0003081067991
0.0003400798279
0.0001993857645
0.0001667960162
0.000921668841
0.0007612920514
0.0007665732666
0.00252813895
0.004459293546
0.004814628013
0.005055976097
0.006502025374
0.006595552545
0.008480236566
0.009714326248
0.009687793414
0.009920948796
0.0107902571
0.008722880334
0.007307248312
0.005671376882
0.004165148219
0.003363143725
0.003052247631
0.003196973884
0.003478104826
0.003971425001
0.004154904267
0.004898294169
0.003914754215
0.004414040665
0.004464489281
0.0042891644
0.00469126387
0.005875402113
0.007461102793
0.01070880213
0.008221129415
0.00556121182
0.00573455742
0.006110122814
0.00607809667
0.007997769041
0.008175370438
0.008939328705
0.008440896526
0.008668354339
0.008720652944
0.008653238349
0.007623049211
0.006182859091
0.004793256066
0.003613265485
0.002896215664
0.002756782308
0.003384368024
0.004010735554
0.004904802311
0.009630873205
6.145286262e-08
1.396164852e-05
3.736144555e-08
1.700996135e-05
8.570476502e-08
2.418884163e-08
5.743190213e-08
1.692231598e-05
5.242721973e-06
4.390870736e-06
4.052822324e-06
1.968300843e-05
5.280984592e-06
4.000548757e-06
3.465305544e-06
3.259384433e-05
1.329939959e-05
7.30693844e-06
3.756973575e-06
9.175567865e-05
3.48508937e-05
2.901671889e-05
2.29729487e-07
0.0006687891243
0.006372229731
5.386278622e-05
0.004367333816
1.405459641e-06
4.101937342e-07
0.004155462963
2.309884124e-07
1.839677328e-07
0.00792738735
1.587540626e-07
1.419464396e-07
1.192440411e-07
6.931430916e-08
5.41534823e-08
1.097477578e-07
4.601204724e-08
5.339159198e-08
0.001914213086
8.298578544e-08
2.298115107e-07
0.001083000132
3.905029161e-07
5.850462061e-07
0.001545859455
1.240807471e-06
5.9747947e-06
0.01433544471
7.742910504e-05
0.0006445314252
7.088366317e-05
0.0002471576583
0.0001927244515
0.0002925641921
0.000168014505
0.0002164174625
0.0003657936999
0.0003264140655
5.518318572e-05
0.0002145219361
0.0002963811676
3.121136349e-05
0.0001693393269
8.38894831e-05
0.0001340286892
0.0001189510107
0.0001837320211
0.0001339898854
3.15983315e-05
0.0001093246851
0.000102060202
0.0001114234413
0.0001133980508
0.0001539571112
3.962433508e-05
1.285319983e-05
4.725219724e-06
6.726246374e-05
0.0005126052877
0.004386646064
0.0008862136582
5.168972333e-05
0.0002048473022
0.0003488430391
8.330647066e-05
0.0003317515886
0.00034651147
0.001286815786
0.006533073184
0.002011188443
0.0006293570413
0.002740441049
0.001926726269
0.003335660588
0.01015683007
0.00184638409
0.000297391362
0.0002560482538
0.0009090350982
0.001747519789
0.002214451292
0.001223524627
0.000157922115
0.000906002231
3.34842628e-05
0.001423539773
0.002548420118
0.001599384602
1.020320357e-05
0.000153066513
6.727232245e-06
0.001843464238
0.004909052184
0.002089962216
3.780043491e-06
4.200275031e-06
1.340201367e-06
0.001697005475
0.006095269911
0.0009935262571
2.673386255e-06
0.00057862587
0.00449616162
0.0002014370562
4.046587584e-05
4.150579314e-06
0.000197710208
4.550466524e-06
3.787843697e-06
4.137488615e-06
4.324858049e-06
4.113209763e-06
4.373902891e-06
4.366513146e-06
4.408183804e-06
4.240417525e-07
5.93928094e-06
1.361453313e-06
1.227772255e-07
4.369995818e-07
2.265965082e-07
9.546536974e-08
1.555171415e-07
1.162497901e-07
5.819659835e-08
8.691021434e-08
6.320997803e-08
5.654484702e-08
4.867384516e-08
6.171416399e-08
1.746104249e-07
1.033145751e-07
2.258866058e-07
5.129150321e-07
4.308771811e-07
9.644909474e-07
7.604142878e-06
3.536458812e-06
1.828316318e-05
4.269263646e-06
4.67288446e-06
4.433387261e-06
1.296793929e-05
4.384925667e-06
4.333170631e-06
3.673092724e-06
3.812377663e-05
1.088623689e-05
3.841278276e-07
2.903132006e-06
9.134163456e-07
1.426631333e-07
3.713588032e-07
1.949577819e-07
7.069297253e-08
1.292161035e-07
8.296908333e-08
6.858026768e-08
5.359087892e-08
7.830284319e-08
3.070999093e-07
1.502486545e-07
4.739841891e-07
2.040039868e-06
1.342487533e-06
5.123078502e-06
3.657627332e-05
2.142848107e-05
6.997286092e-05
5.143305731e-06
1.858240862e-05
5.362273745e-06
4.795687052e-06
5.223053243e-06
4.668709162e-06
4.125725878e-06
2.904771053e-06
2.80925486e-05
1.002600116e-05
3.508329681e-07
3.873050678e-06
1.054144417e-06
1.08708139e-07
4.103053368e-07
1.873932552e-07
9.485254052e-08
6.901270006e-08
1.381200667e-07
1.001817677e-06
3.809857068e-07
3.332199137e-06
1.481573622e-05
1.181269861e-05
4.333541157e-05
2.298139937e-05
7.325199135e-06
4.56384148e-06
6.244958803e-06
5.171514925e-06
3.639124742e-06
4.262555902e-06
4.570910715e-06
5.30031196e-05
1.6569101e-05
5.445922004e-07
8.381575884e-06
3.382839976e-06
3.243159676e-07
4.786284656e-07
1.620479856e-06
1.394036901e-05
4.824753622e-06
4.784219407e-05
3.519500309e-05
0.01908281667
0.01740965812
0.008132291882
0.0009355671155
3.799496964e-06
0.0007313659191
5.300051821e-06
0.0007518797433
6.537350265e-06
0.003161243873
0.003995964976
0.0001978274076
6.137308164e-05
0.00438254647
0.005348089736
0.001965615502
0.005857954239
0.008295253425
0.001192855018
1.916570688e-07
0.004348104842
0.001559837352
1.026659933e-07
0.002095573488
0.000468190978
2.130912004e-07
0.003421758078
2.775384013e-05
0.001142531196
0.005538474281
1.535438467e-06
0.001280114775
0.005880792171
0.0001507824009
0.00378462095
8.564664731e-05
0.0003225098722
0.0005200047583
3.45048283e-06
3.990670417e-06
1.820746596e-06
1.74103655e-07
1.001208563e-07
7.675139124e-08
4.712259113e-08
8.991622825e-08
3.086059429e-07
1.491175832e-06
0.0001025661519
0.0008372453761
1.234264342e-05
4.68607741e-06
5.044055655e-06
4.55515342e-06
4.58527239e-06
4.416189556e-06
1.519493702e-05
1.001469272e-06
2.127993671e-07
1.02289018e-07
5.073248342e-08
1.220137347e-07
6.691355381e-07
8.258368085e-06
0.0002309393717
0.0001011757683
9.30113812e-06
9.858219161e-07
1.923552327e-07
5.816952272e-08
2.052159512e-07
3.645642354e-06
5.316057149e-05
0.0002123836332
5.791496793e-05
6.670678577e-05
3.718124867e-07
5.877526145e-08
9.370300975e-08
1.285184028e-07
7.596381137e-05
1.55325297e-05
1.641034494e-06
1.216792779e-07
1.166935834e-06
3.96520401e-05
0.0001718431084
7.881923038e-05
1.952730736e-06
8.657427376e-07
0.0001009404498
6.071706433e-05
8.013918645e-05
8.685931095e-05
6.86376008e-05
1.194168076e-05
3.138390582e-05
2.383380984e-05
2.311680957e-06
4.066162521e-06
5.8076504e-05
7.104948924e-05
2.570140221e-06
1.406251765e-08
3.20669473e-10
0.0002593678973
1.24118995e-06
8.177869357e-06
4.014952775e-08
7.975814341e-10
0.0006504916417
4.285622513e-07
0.001338134655
5.238521315e-06
0.004018030441
0.0002652335686
0.00179303584
3.385990808e-06
0.0006969720915
4.701234384e-06
0.0001795587438
0.0001637444303
2.661298465e-06
3.078793992e-06
0.0007485378306
5.901499526e-06
0.0001658618292
0.0001553109094
3.377608047e-06
3.620013156e-06
0.0001323301631
3.85204483e-06
0.000117279436
0.0114576666
0.001105857659
1.597342744e-07
2.658112599e-05
9.412425646e-08
0.0003879976043
2.945377329e-08
1.470875263e-07
1.999314097e-05
2.264118294e-07
5.285491317e-08
2.190086202e-08
1.880725061e-08
2.516378944e-08
3.996314691e-08
4.578405291e-06
4.840875134e-06
3.385471319e-05
5.992198678e-07
3.662937842e-07
4.691391469e-08
3.01820786e-08
1.478699127e-07
3.284130519e-08
3.427174071e-08
4.656870783e-08
7.966475028e-08
4.211121473e-06
3.927580001e-06
3.841448797e-06
5.885209437e-06
6.588610968e-05
2.194818718e-06
4.762539062e-06
7.182868761e-07
2.248945074e-07
2.335292667e-07
1.408427113e-07
1.633727275e-07
2.208002182e-07
1.300107129e-06
1.113150401e-07
7.535317436e-08
9.807211327e-08
3.595794763e-06
3.156510442e-06
1.521890913e-05
1.024224691e-05
3.461805061e-05
2.941916295e-05
5.139282226e-06
2.272115589e-05
1.665877699e-05
3.362886198e-05
9.034340747e-05
2.326903965e-05
3.502724358e-05
5.595154929e-06
1.799592161e-05
2.560583997e-06
1.212810372e-05
5.851217893e-06
1.928542725e-07
2.543874137e-07
2.430033414e-07
1.04023379e-05
7.063860206e-07
1.766579474e-07
7.079058171e-05
1.770344091e-05
2.829116372e-05
8.556406398e-05
5.985071057e-05
9.516322472e-05
4.821038935e-05
0.0001127745577
0.0001077681067
8.684043509e-05
1.64408685e-06
1.120396431e-06
6.158959528e-07
1.816015383e-05
1.202731624e-06
3.560016004e-06
5.304998099e-05
0.000119893982
4.8476951e-06
8.122311946e-06
4.489906893e-10
1.332924126e-08
3.852706775e-10
3.775723562e-09
2.330068522e-10
6.768782908e-09
8.172149291e-07
0.0004003953324
4.488567884e-07
5.665739246e-07
1.209569716e-09
5.342142176e-05
3.845724661e-05
3.555382278e-08
6.097118554e-05
0.0001100410797
3.484412107e-07
0.0002078018191
2.75895417e-07
1.915271523e-07
3.365597099e-07
)
;

boundaryField
{
    walls
    {
        type            zeroGradient;
    }
    wallFilmFace_top
    {
        type            zeroGradient;
    }
    region0_to_wallFilmRegion_wallFilmFace
    {
        type            zeroGradient;
    }
    mirrorFace_top
    {
        type            zeroGradient;
    }
    region0_to_wallFilmRegion_mirrorFace
    {
        type            zeroGradient;
    }
    procBoundary2to0
    {
        type            processor;
        value           nonuniform List<scalar> 
26
(
0.001316574993
0.0009620810226
0.0009584394838
0.0009954768531
0.0005939620146
0.0001985011316
5.765926959e-05
1.860017628e-05
8.135976626e-06
4.486259328e-05
0.000164276741
0.0001823018643
0.000149058658
0.0001162324694
9.225576885e-05
8.257524744e-05
0.0001041881997
0.0001353991384
9.312427739e-05
0.0005546677294
0.0004641893651
0.0003182357815
0.0002163863643
0.0001867940901
0.000327811655
0.004830505757
)
;
    }
    procBoundary2to1
    {
        type            processor;
        value           nonuniform List<scalar> 
33
(
0.001796589859
0.001796589859
0.001583720861
0.001583720861
0.001628550137
0.001621252616
0.00160109698
0.00160109698
0.002211374691
0.000921707949
0.0002820264483
1.790056826e-05
0.0003211380354
0.00082278506
0.001804737459
0.002446728065
0.001043230293
0.000149638885
9.878638985e-06
4.087115782e-06
8.141684602e-05
7.845781719e-05
9.415314828e-05
0.0001657366443
0.0001199565714
6.194583231e-05
2.944357582e-05
7.185749011e-06
2.075559248e-05
4.274646629e-05
8.373890297e-05
0.0001930375628
0.001777090442
)
;
    }
    procBoundary2to3
    {
        type            processor;
        value           nonuniform List<scalar> 
64
(
5.086705645e-08
1.866673628e-08
1.623570896e-08
2.836946383e-08
1.015273709e-07
4.178203342e-06
3.437796811e-06
2.94171817e-06
3.809549852e-07
3.668206615e-05
0.0005280128331
6.8815467e-05
0.0006062452191
0.0005280128331
0.0002392853607
0.0005554169565
9.507171671e-05
6.085922123e-06
3.785983574e-06
4.506973798e-06
5.272029826e-06
3.610938229e-06
1.385443501e-06
6.997408281e-07
6.997408281e-07
1.085915453e-06
8.910426211e-06
8.910426211e-06
1.470141774e-05
8.910426211e-06
4.23852862e-06
4.587918809e-06
4.23852862e-06
4.575666278e-06
4.480235899e-06
0.0007382683817
7.2742711e-06
3.668206615e-05
7.138980685e-05
4.23852862e-06
2.306257366e-07
8.486577677e-06
1.97322306e-05
9.136620135e-05
2.751136893e-06
7.504967787e-07
0.0001060415703
4.138067772e-06
0.0002482416333
1.746686171e-08
1.866673628e-08
1.964123244e-08
6.845583777e-08
1.425396772e-07
3.933774729e-06
2.916273216e-07
3.887020724e-07
2.906873752e-06
4.378728946e-07
3.958634051e-07
5.968865317e-05
1.795482567e-05
1.07139791e-06
5.727307723e-07
)
;
    }
}


// ************************************************************************* //
