/*--------------------------------*- C++ -*----------------------------------*\
  =========                 |
  \\      /  F ield         | OpenFOAM: The Open Source CFD Toolbox
   \\    /   O peration     | Website:  https://openfoam.org
    \\  /    A nd           | Version:  8
     \\/     M anipulation  |
\*---------------------------------------------------------------------------*/
FoamFile
{
    version     2.0;
    format      ascii;
    class       volScalarField;
    location    "2/wallFilmRegion";
    object      sigma;
}
// * * * * * * * * * * * * * * * * * * * * * * * * * * * * * * * * * * * * * //

dimensions      [1 0 -2 0 0 0 0];

internalField   nonuniform List<scalar> 
1342
(
0.07244713582
0.07244713574
0.07244713553
0.0724471354
0.0724471352
0.07244713483
0.07244713476
0.07244713474
0.0724471347
0.0724471347
0.07244713479
0.07244713479
0.07244713479
0.07244713478
0.07244713476
0.07244713475
0.0724471347
0.07244713465
0.0724471346
0.07244713479
0.07244713479
0.07244713475
0.07244713464
0.07244713408
0.07244713408
0.07244713452
0.07244713577
0.07244713579
0.07244713579
0.0724471356
0.07244713555
0.07244713522
0.07244713481
0.07244713473
0.07244713469
0.07244713463
0.07244713469
0.07244713477
0.07244713478
0.07244713478
0.07244713477
0.07244713475
0.0724471348
0.07244713473
0.07244713467
0.07244713458
0.07244713473
0.07244713473
0.07244713464
0.07244713438
0.07244713335
0.07244713413
0.07244713458
0.07244713547
0.07244713558
0.07244713565
0.07244713571
0.07244713563
0.07244713557
0.07244713524
0.07244713482
0.07244713473
0.07244713464
0.07244713459
0.07244713469
0.07244713475
0.07244713477
0.07244713477
0.07244713476
0.0724471348
0.07244713482
0.07244713481
0.07244713475
0.07244713463
0.07244713465
0.0724471346
0.0724471344
0.07244713387
0.07244713293
0.07244713406
0.07244713457
0.07244713533
0.0724471354
0.07244713543
0.07244713546
0.07244713543
0.07244713537
0.07244713514
0.07244713482
0.07244713472
0.07244713456
0.0724471345
0.07244713468
0.07244713473
0.07244713477
0.07244713479
0.07244713479
0.07244713477
0.0724471348
0.07244713477
0.07244713474
0.07244713468
0.07244713456
0.07244713437
0.07244713397
0.07244713332
0.0724471333
0.07244713406
0.07244713456
0.07244713513
0.07244713519
0.07244713521
0.0724471352
0.07244713515
0.07244713507
0.072447135
0.07244713473
0.0724471345
0.0724471344
0.07244713433
0.07244713466
0.07244713472
0.07244713476
0.07244713479
0.0724471348
0.07244713477
0.07244713479
0.07244713478
0.07244713478
0.07244713475
0.07244713467
0.07244713457
0.07244713447
0.07244713437
0.0724471342
0.07244713421
0.07244713456
0.07244713501
0.07244713503
0.07244713508
0.07244713511
0.0724471351
0.07244713507
0.07244713494
0.07244713477
0.07244713453
0.07244713456
0.07244713452
0.07244713447
0.07244713468
0.07244713471
0.07244713474
0.07244713473
0.07244713476
0.07244713476
0.07244713478
0.07244713478
0.07244713477
0.07244713474
0.07244713467
0.07244713458
0.07244713449
0.07244713443
0.07244713434
0.07244713438
0.07244713455
0.07244713524
0.07244713518
0.07244713499
0.07244713506
0.0724471351
0.07244713502
0.07244713491
0.07244713473
0.07244713447
0.07244713467
0.0724471347
0.07244713472
0.07244713476
0.07244713474
0.07244713472
0.0724471347
0.07244713471
0.07244713473
0.07244713477
0.07244713478
0.07244713477
0.07244713473
0.07244713468
0.07244713459
0.07244713446
0.07244713437
0.07244713429
0.07244713441
0.07244713454
0.07244713541
0.07244713523
0.07244713496
0.07244713504
0.07244713513
0.07244713503
0.07244713485
0.07244713457
0.07244713411
0.07244713463
0.07244713457
0.07244713447
0.07244713464
0.0724471347
0.07244713471
0.0724471347
0.07244713471
0.07244713472
0.07244713476
0.07244713476
0.07244713474
0.07244713471
0.07244713465
0.07244713455
0.07244713437
0.07244713432
0.07244713432
0.0724471344
0.07244713454
0.07244713636
0.07244713609
0.07244713582
0.0724471356
0.07244713545
0.0724471352
0.07244713477
0.07244713434
0.07244713452
0.07244713417
0.07244713382
0.0724471329
0.07244713265
0.07244713427
0.07244713461
0.07244713468
0.07244713471
0.07244713469
0.0724471347
0.07244713471
0.07244713469
0.07244713465
0.07244713459
0.07244713444
0.07244713413
0.07244713361
0.07244713397
0.07244713428
0.07244713454
0.07244713599
0.07244713587
0.07244713576
0.0724471355
0.07244713533
0.07244713496
0.07244713449
0.07244713387
0.07244713505
0.07244713495
0.0724471345
0.07244713304
0.07244713022
0.07244713395
0.07244713456
0.07244713462
0.07244713465
0.07244713464
0.07244713463
0.07244713463
0.07244713461
0.07244713455
0.07244713442
0.07244713412
0.07244713365
0.0724471334
0.07244713387
0.07244713427
0.07244713453
0.07244713589
0.07244713553
0.07244713519
0.07244713529
0.07244713517
0.07244713467
0.07244713403
0.07244713391
0.07244713443
0.07244713414
0.0724471324
0.07244712906
0.0724471253
0.07244713244
0.07244713443
0.07244713451
0.07244713456
0.07244713456
0.07244713454
0.07244713452
0.07244713446
0.07244713431
0.072447134
0.07244713355
0.07244713327
0.07244713335
0.0724471339
0.07244713434
0.07244713452
0.07244713584
0.0724471354
0.07244713524
0.07244713487
0.07244713484
0.07244713403
0.07244713306
0.07244713336
0.07244713396
0.07244713362
0.07244713086
0.07244712616
0.07244712053
0.07244711957
0.07244712845
0.07244713439
0.07244713442
0.07244713435
0.07244713426
0.07244713419
0.07244713409
0.07244713396
0.07244713382
0.07244713368
0.07244713361
0.07244713364
0.07244713406
0.07244713442
0.07244713451
0.07244713573
0.07244713545
0.07244713528
0.07244713496
0.07244713417
0.07244713288
0.07244713181
0.07244713201
0.0724471331
0.07244713234
0.07244712873
0.07244712272
0.0724471138
0.07244710605
0.07244710963
0.07244713135
0.07244713355
0.07244713325
0.07244713349
0.07244713395
0.07244713412
0.07244713415
0.07244713413
0.07244713408
0.07244713401
0.07244713396
0.07244713422
0.07244713444
0.07244713449
0.0724471356
0.07244713554
0.07244713529
0.07244713518
0.0724471342
0.07244713112
0.07244712939
0.07244712913
0.07244713113
0.07244713016
0.07244712649
0.07244711852
0.07244710298
0.07244708122
0.07244706824
0.07244707784
0.07244709655
0.07244711054
0.07244711951
0.07244713125
0.07244713347
0.07244713398
0.0724471341
0.07244713412
0.07244713411
0.0724471341
0.07244713435
0.07244713447
0.07244713448
0.07244713559
0.07244713565
0.07244713566
0.07244713515
0.07244713427
0.07244713036
0.07244712885
0.07244712865
0.07244712887
0.07244712836
0.07244708784
0.07244702928
0.07244695684
0.07244692824
0.07244696594
0.07244702494
0.07244707074
0.07244709773
0.07244711414
0.0724471284
0.07244713268
0.07244713373
0.07244713402
0.07244713413
0.07244713416
0.07244713422
0.0724471345
0.07244713448
0.07244713445
0.07244713559
0.07244713541
0.07244713538
0.07244713507
0.07244713423
0.07244713141
0.07244713211
0.07244713366
0.072447127
0.07244690964
0.07244702759
0.07244701479
0.07244700479
0.07244701262
0.07244703583
0.07244706412
0.0724470885
0.07244710554
0.07244711747
0.07244712754
0.0724471321
0.07244713349
0.07244713395
0.07244713413
0.07244713421
0.07244713433
0.07244713452
0.07244713449
0.07244713442
0.07244713544
0.07244713526
0.07244713523
0.072447135
0.07244713424
0.07244713339
0.07244713402
0.0724471344
0.07244712333
0.07244659341
0.07244700743
0.072447029
0.07244704787
0.07244706744
0.07244708559
0.07244710053
0.07244711169
0.0724471194
0.07244712481
0.07244712925
0.07244713218
0.07244713346
0.07244713396
0.07244713417
0.07244713431
0.07244713447
0.07244713455
0.07244713452
0.07244713442
0.07244713511
0.07244713517
0.07244713514
0.07244713496
0.07244713422
0.07244713376
0.07244713412
0.07244713447
0.07244711789
0.07244659567
0.07244700297
0.07244704903
0.0724470766
0.07244709545
0.07244710851
0.07244711739
0.07244712329
0.07244712712
0.07244712965
0.07244713164
0.07244713318
0.07244713389
0.07244713422
0.07244713442
0.07244713455
0.07244713457
0.07244713456
0.07244713453
0.07244713443
0.07244713506
0.0724471351
0.07244713508
0.07244713491
0.07244713405
0.07244713363
0.0724471338
0.07244713443
0.07244711449
0.07244663961
0.0724470074
0.0724470666
0.07244709456
0.07244711018
0.07244711947
0.07244712511
0.07244712858
0.07244713072
0.07244713244
0.07244713376
0.07244713468
0.07244713468
0.07244713467
0.07244713464
0.07244713461
0.07244713457
0.07244713453
0.07244713449
0.07244713442
0.07244713492
0.07244713501
0.07244713499
0.07244713476
0.07244713375
0.07244713329
0.07244713317
0.07244713422
0.0724471137
0.07244693339
0.07244701826
0.07244708048
0.07244710596
0.07244711843
0.07244712514
0.07244712893
0.07244713114
0.07244713264
0.07244713465
0.07244713478
0.0724471347
0.07244713463
0.0724471346
0.07244713459
0.07244713457
0.07244713453
0.07244713449
0.07244713446
0.07244713441
0.07244713472
0.07244713487
0.07244713482
0.07244713444
0.07244713338
0.07244713282
0.0724471322
0.07244713371
0.07244711449
0.07244694786
0.07244703296
0.0724470915
0.0724471135
0.07244712336
0.07244712831
0.07244713098
0.07244713275
0.07244713441
0.07244713464
0.07244713454
0.07244713453
0.07244713453
0.07244713453
0.07244713453
0.07244713451
0.07244713449
0.07244713447
0.07244713444
0.0724471344
0.07244713469
0.07244713469
0.07244713456
0.07244713403
0.07244713299
0.07244713218
0.07244713021
0.07244713268
0.07244711616
0.07244697203
0.07244704928
0.0724471004
0.07244711872
0.07244712648
0.07244713021
0.07244713215
0.07244713341
0.07244713446
0.07244713467
0.07244713454
0.07244713454
0.07244713454
0.07244713452
0.07244713451
0.07244713449
0.07244713446
0.07244713444
0.07244713442
0.0724471344
0.07244713471
0.07244713454
0.0724471344
0.07244713399
0.07244713329
0.0724471324
0.07244712986
0.07244713038
0.07244711895
0.07244701821
0.07244706604
0.07244710764
0.07244712247
0.07244712859
0.07244713146
0.07244713295
0.07244713389
0.07244713466
0.07244713471
0.07244713461
0.07244713456
0.07244713455
0.07244713453
0.07244713449
0.07244713447
0.07244713445
0.07244713443
0.07244713441
0.0724471344
0.07244713471
0.07244713447
0.07244713443
0.07244713437
0.07244713445
0.07244713419
0.07244713127
0.07244712285
0.07244712179
0.07244707143
0.0724470855
0.072447114
0.07244712533
0.07244713011
0.07244713241
0.0724471338
0.07244713449
0.07244713479
0.07244713468
0.07244713458
0.07244713455
0.07244713454
0.07244713452
0.07244713449
0.07244713447
0.07244713445
0.07244713443
0.07244713442
0.07244713441
0.07244713468
0.07244713434
0.07244713439
0.07244713451
0.07244713472
0.07244713449
0.07244713177
0.07244703485
0.0724471223
0.07244711322
0.07244710916
0.07244712
0.07244712756
0.07244713124
0.07244713327
0.07244713458
0.07244713473
0.07244713476
0.07244713463
0.07244713455
0.07244713455
0.07244713454
0.07244713452
0.0724471345
0.07244713448
0.07244713446
0.07244713445
0.07244713443
0.07244713442
0.07244713472
0.07244713462
0.07244713466
0.07244713468
0.07244713478
0.07244713464
0.07244713245
0.07244708669
0.07244712308
0.07244712136
0.07244712098
0.07244712528
0.07244712952
0.0724471322
0.07244713401
0.07244713473
0.07244713472
0.07244713471
0.07244713458
0.07244713455
0.07244713455
0.07244713454
0.07244713454
0.07244713453
0.07244713452
0.07244713451
0.07244713449
0.07244713447
0.07244713446
0.07244713476
0.07244713469
0.07244713466
0.07244713465
0.07244713479
0.07244713475
0.07244713368
0.07244711114
0.07244712835
0.07244712967
0.07244713024
0.07244713103
0.07244713212
0.07244713349
0.07244713446
0.07244713471
0.07244713466
0.07244713466
0.07244713455
0.07244713455
0.07244713456
0.07244713456
0.07244713457
0.07244713457
0.07244713457
0.07244713458
0.07244713458
0.07244713458
0.07244713458
0.07244713477
0.07244713465
0.07244713461
0.07244713459
0.07244713483
0.07244713482
0.07244713458
0.07244713231
0.07244713469
0.07244713468
0.07244713467
0.07244713465
0.07244713461
0.07244713459
0.07244713461
0.07244713464
0.07244713459
0.0724471346
0.07244713454
0.07244713455
0.07244713456
0.07244713457
0.07244713458
0.07244713458
0.07244713458
0.07244713458
0.07244713458
0.07244713459
0.07244713459
0.07244713476
0.07244713467
0.07244713466
0.07244713466
0.07244713484
0.07244713483
0.07244713471
0.0724471347
0.0724471347
0.0724471347
0.07244713471
0.07244713468
0.07244713464
0.0724471346
0.07244713459
0.07244713457
0.07244713455
0.07244713456
0.07244713454
0.07244713454
0.07244713454
0.07244713454
0.07244713455
0.07244713457
0.07244713458
0.07244713459
0.07244713459
0.07244713459
0.07244713459
0.07244713471
0.07244713471
0.07244713471
0.0724471347
0.07244713472
0.07244713475
0.07244713475
0.07244713475
0.07244713475
0.07244713475
0.07244713476
0.0724471347
0.07244713464
0.07244713463
0.07244713461
0.07244713458
0.07244713458
0.07244713457
0.07244713456
0.07244713456
0.07244713457
0.07244713458
0.07244713459
0.0724471346
0.07244713461
0.07244713461
0.07244713461
0.07244713461
0.0724471346
0.07244713541
0.07244717125
0.07244713541
0.07244717378
0.07244713526
0.07244715536
0.0724471842
0.07244715698
0.07244714699
0.07244714746
0.07244714745
0.07244714705
0.07244714631
0.07244714661
0.07244714649
0.07244714574
0.07244714536
0.07244714539
0.0724471448
0.07244714321
0.072447135
0.07244713504
0.07244713512
0.07244714066
0.07244713526
0.07244713524
0.07244713514
0.07244713538
0.07244713526
0.07244713551
0.0724471355
0.07244713589
0.07244713622
0.07244713602
0.07244713648
0.07244713667
0.07244713674
0.07244713683
0.07244713681
0.07244713604
0.07244713657
0.0724471361
0.07244713593
0.07244713582
0.07244713558
0.07244713602
0.07244713546
0.07244713533
0.07244713573
0.07244713516
0.07244713502
0.07244713532
0.07244713497
0.07244713496
0.07244713515
0.07244713515
0.07244713517
0.07244713497
0.07244713498
0.07244713498
0.07244713524
0.07244713554
0.07244713512
0.07244713498
0.07244713597
0.07244713583
0.07244713738
0.07244713696
0.07244713498
0.07244713498
0.07244713499
0.07244713881
0.07244713681
0.07244714071
0.07244714004
0.07244713498
0.072447135
0.07244713499
0.07244713583
0.07244713529
0.07244713577
0.07244713504
0.07244713559
0.07244713539
0.0724471358
0.07244713591
0.07244713625
0.07244713634
0.07244713648
0.07244713655
0.07244713673
0.07244713566
0.07244713545
0.07244713559
0.07244713629
0.07244713589
0.07244713591
0.07244713575
0.07244713558
0.07244713562
0.0724471355
0.07244713545
0.07244713539
0.07244713534
0.07244713545
0.07244713543
0.07244713542
0.07244713534
0.07244713536
0.07244713551
0.07244713575
0.07244713563
0.07244713516
0.07244713534
0.072447135
0.07244713578
0.07244713599
0.07244713592
0.07244713484
0.07244713502
0.07244713453
0.07244713603
0.07244713601
0.07244713608
0.07244713469
0.07244713597
0.07244713568
0.07244713566
0.0724471349
0.07244714745
0.07244713586
0.07244714789
0.07244714828
0.07244714813
0.07244714829
0.07244714857
0.07244714839
0.07244714842
0.07244714838
0.07244713533
0.07244713519
0.07244713525
0.07244713595
0.07244713542
0.07244713569
0.07244713646
0.07244713596
0.07244713618
0.07244713667
0.07244713637
0.07244713651
0.07244713607
0.07244713653
0.07244713604
0.07244713551
0.07244713575
0.07244713541
0.07244713521
0.07244713525
0.07244713512
0.07244713499
0.07244713503
0.07244713498
0.07244714792
0.07244714814
0.07244714817
0.07244714716
0.07244714787
0.07244714771
0.07244713523
0.07244713551
0.07244713537
0.07244713545
0.07244713526
0.07244713529
0.07244713592
0.07244713543
0.07244713565
0.07244713632
0.07244713586
0.07244713612
0.072447136
0.07244713652
0.07244713598
0.07244713532
0.07244713568
0.07244713524
0.07244713506
0.0724471351
0.07244713502
0.07244713497
0.07244713498
0.07244713497
0.0724471474
0.07244714675
0.0724471471
0.07244714749
0.07244714716
0.07244714718
0.07244714732
0.0724471353
0.07244713619
0.0724471356
0.07244713541
0.07244713535
0.07244713524
0.07244713589
0.07244713538
0.07244713565
0.07244713596
0.0724471366
0.07244713592
0.07244713516
0.07244713558
0.0724471351
0.072447135
0.07244713502
0.07244713498
0.07244714584
0.07244714599
0.0724471466
0.07244714602
0.07244714597
0.07244714622
0.07244714576
0.07244713516
0.07244713795
0.07244713518
0.07244713542
0.07244713517
0.07244713527
0.07244713583
0.07244713619
0.07244713566
0.07244713506
0.07244713545
0.07244713504
0.07244714493
0.07244713525
0.07244713523
0.07244713519
0.07244713505
0.0724471453
0.07244713509
0.07244714697
0.07244713516
0.07244714801
0.07244713535
0.07244713534
0.07244713556
0.07244713629
0.07244713542
0.07244713542
0.07244713603
0.0724471359
0.07244713561
0.07244713583
0.07244713682
0.07244713532
0.07244713533
0.07244713642
0.07244713559
0.07244713535
0.07244713576
0.07244713589
0.07244713529
0.07244713596
0.07244713604
0.07244713456
0.07244713596
0.07244713587
0.07244713522
0.07244713555
0.07244713492
0.07244713513
0.07244713528
0.07244714801
0.07244714846
0.0724471352
0.07244713563
0.07244713624
0.07244713661
0.07244713655
0.07244713579
0.07244713535
0.07244713507
0.07244713497
0.07244713561
0.07244714707
0.07244714804
0.07244714785
0.07244714819
0.07244714794
0.07244714806
0.07244713526
0.07244713528
0.07244713568
0.07244713611
0.07244713651
0.07244713571
0.07244713517
0.072447135
0.07244713499
0.07244713616
0.07244713546
0.07244713529
0.07244713561
0.07244713655
0.07244713564
0.07244713505
0.07244713497
0.07244713498
0.07244713511
0.07244713508
0.07244714099
0.07244715956
0.07244715183
0.07244714632
0.072447138
0.07244713591
0.07244713524
0.07244713647
0.0724471355
0.072447135
0.07244713499
0.07244713502
0.0724471363
0.07244713749
0.07244714141
0.07244714475
0.0724471431
0.07244714336
0.07244714336
0.07244714237
0.0724471426
0.0724471352
0.07244713557
0.07244713595
0.07244713771
0.07244713994
0.07244713613
0.07244719638
0.07244734345
0.07244713499
0.07244713876
0.07244713567
0.07244717534
0.07244734446
0.07244713495
0.07244713982
0.07244713505
0.07244714361
0.07244713526
0.07244713505
0.07244713522
0.07244714661
0.07244713507
0.07244714617
0.07244713503
0.07244713504
0.0724471476
0.07244714803
0.07244713512
0.07244714757
0.07244713506
0.07244713509
0.07244714835
0.07244714857
0.0724471351
0.0724471487
0.07244713492
0.07244713546
0.07244713494
0.07244715653
0.07244713533
0.07244715326
0.07244713495
0.07244717822
0.07244714906
0.07244713533
0.07244714494
0.07244716501
0.07244719285
0.07244719465
0.07244717931
0.07244716486
0.07244714776
0.07244714792
0.07244713516
0.07244713934
0.07244714167
0.07244716678
0.07244718054
0.07244714788
0.07244717347
0.07244716913
0.07244716124
0.07244715165
0.07244714712
0.07244714694
0.07244714661
0.07244714656
0.07244713505
0.07244713634
0.07244713559
0.07244713836
0.07244714365
0.07244714283
0.07244714567
0.07244714428
0.07244714208
0.07244713719
0.07244715083
0.07244715276
0.07244714935
0.07244714535
0.07244714468
0.07244714541
0.07244714521
0.07244714485
0.07244714454
0.07244714413
0.07244714398
0.07244714326
0.07244713503
0.072447135
0.07244713507
0.07244713506
0.07244713545
0.07244713512
0.07244713592
0.07244713521
0.0724471355
0.07244714283
0.07244714088
0.07244714029
0.07244713524
0.0724471381
0.07244714368
0.07244714328
0.07244714002
0.07244714087
0.07244714342
0.07244714113
0.07244714133
0.0724471431
0.07244714149
0.07244714162
0.07244714158
0.07244713566
0.07244713581
0.07244713558
0.07244713669
0.07244713535
0.07244713518
0.07244713993
0.07244713511
0.07244713904
0.07244713878
0.0724473443
0.07244719862
0.07244734653
0.07244725587
0.07244734935
0.07244721694
0.07244714027
0.07244713497
0.07244714198
0.07244713942
0.0724473349
0.07244713503
0.072447135
0.07244718048
0.07244713499
0.07244713499
0.07244714248
0.07244713497
0.07244714282
0.07244714379
0.07244714015
)
;

boundaryField
{
    walls
    {
        type            zeroGradient;
    }
    wallFilmFace_top
    {
        type            zeroGradient;
    }
    region0_to_wallFilmRegion_wallFilmFace
    {
        type            zeroGradient;
    }
    mirrorFace_top
    {
        type            zeroGradient;
    }
    region0_to_wallFilmRegion_mirrorFace
    {
        type            zeroGradient;
    }
    procBoundary2to0
    {
        type            processor;
        value           nonuniform List<scalar> 
26
(
0.07244713573
0.07244713561
0.07244713543
0.0724471352
0.07244713513
0.07244713481
0.07244713472
0.07244713456
0.07244713443
0.07244713476
0.07244713479
0.07244713479
0.07244713478
0.07244713476
0.07244713474
0.07244713471
0.07244713465
0.07244713474
0.0724471348
0.07244713483
0.07244713482
0.07244713481
0.07244713476
0.07244713459
0.07244713423
0.07244713447
)
;
    }
    procBoundary2to1
    {
        type            processor;
        value           nonuniform List<scalar> 
33
(
0.07244713599
0.07244713599
0.07244713566
0.07244713566
0.07244713532
0.07244713518
0.07244713502
0.07244713502
0.07244713537
0.07244713568
0.07244713581
0.07244713652
0.07244713595
0.07244713597
0.07244713593
0.07244713578
0.07244713548
0.07244713522
0.07244713386
0.0724471323
0.07244713481
0.07244713492
0.07244713483
0.07244713469
0.07244713456
0.07244713441
0.07244713426
0.07244713389
0.07244713464
0.07244713473
0.07244713475
0.07244713471
0.07244713467
)
;
    }
    procBoundary2to3
    {
        type            processor;
        value           nonuniform List<scalar> 
64
(
0.07244717769
0.07244719817
0.07244720039
0.07244717443
0.07244714919
0.07244714661
0.07244714505
0.07244714216
0.07244713943
0.07244713626
0.07244713667
0.07244713655
0.07244713678
0.07244713667
0.07244713584
0.07244713563
0.07244713541
0.07244713529
0.07244713507
0.07244713499
0.07244713495
0.07244713484
0.07244713455
0.07244713438
0.07244713438
0.07244713464
0.07244713484
0.07244713484
0.0724471349
0.07244713484
0.07244714861
0.07244714823
0.07244714861
0.07244714783
0.0724471474
0.07244713521
0.07244714833
0.07244713626
0.07244713492
0.07244714861
0.07244714275
0.07244714141
0.07244714191
0.07244713995
0.07244713839
0.07244713893
0.07244713513
0.07244714874
0.07244713497
0.07244719635
0.07244719817
0.07244718883
0.0724471544
0.07244714591
0.07244714609
0.07244714157
0.0724471403
0.0724471438
0.0724471396
0.07244713923
0.07244714142
0.07244713873
0.07244713867
0.07244713914
)
;
    }
}


// ************************************************************************* //
