/*--------------------------------*- C++ -*----------------------------------*\
  =========                 |
  \\      /  F ield         | OpenFOAM: The Open Source CFD Toolbox
   \\    /   O peration     | Website:  https://openfoam.org
    \\  /    A nd           | Version:  8
     \\/     M anipulation  |
\*---------------------------------------------------------------------------*/
FoamFile
{
    version     2.0;
    format      ascii;
    class       volScalarField;
    location    "2/wallFilmRegion";
    object      T;
}
// * * * * * * * * * * * * * * * * * * * * * * * * * * * * * * * * * * * * * //

dimensions      [0 0 0 1 0 0 0];

internalField   nonuniform List<scalar> 
1342
(
299.999995
299.9999954
299.9999965
299.9999971
299.9999981
300
300.0000003
300.0000004
300.0000006
300.0000006
300.0000002
300.0000002
300.0000002
300.0000002
300.0000003
300.0000003
300.0000006
300.0000009
300.0000011
300.0000002
300.0000002
300.0000004
300.0000009
300.0000037
300.0000037
300.0000015
299.9999952
299.9999952
299.9999952
299.9999961
299.9999964
299.999998
300.0000001
300.0000005
300.0000007
300.0000009
300.0000006
300.0000003
300.0000002
300.0000002
300.0000003
300.0000003
300.0000001
300.0000005
300.0000008
300.0000012
300.0000005
300.0000005
300.0000009
300.0000022
300.0000074
300.0000035
300.0000012
299.9999968
299.9999962
299.9999959
299.9999956
299.999996
299.9999963
299.9999979
300
300.0000005
300.0000009
300.0000012
300.0000007
300.0000004
300.0000003
300.0000003
300.0000003
300.0000001
300
300.0000001
300.0000004
300.000001
300.0000009
300.0000011
300.0000021
300.0000048
300.0000095
300.0000038
300.0000013
299.9999975
299.9999971
299.9999969
299.9999968
299.999997
299.9999973
299.9999984
300
300.0000005
300.0000013
300.0000016
300.0000007
300.0000005
300.0000003
300.0000002
300.0000002
300.0000003
300.0000001
300.0000003
300.0000004
300.0000007
300.0000013
300.0000023
300.0000043
300.0000076
300.0000077
300.0000038
300.0000013
299.9999985
299.9999981
299.999998
299.9999981
299.9999983
299.9999988
299.9999991
300.0000005
300.0000016
300.0000021
300.0000025
300.0000008
300.0000005
300.0000003
300.0000002
300.0000001
300.0000003
300.0000002
300.0000002
300.0000002
300.0000003
300.0000007
300.0000013
300.0000018
300.0000023
300.0000031
300.0000031
300.0000013
299.9999991
299.999999
299.9999987
299.9999986
299.9999986
299.9999988
299.9999994
300.0000003
300.0000015
300.0000013
300.0000015
300.0000018
300.0000007
300.0000006
300.0000004
300.0000004
300.0000003
300.0000003
300.0000002
300.0000002
300.0000003
300.0000004
300.0000007
300.0000012
300.0000017
300.000002
300.0000024
300.0000022
300.0000014
299.9999979
299.9999982
299.9999991
299.9999988
299.9999986
299.999999
299.9999996
300.0000005
300.0000018
300.0000007
300.0000006
300.0000005
300.0000003
300.0000004
300.0000005
300.0000006
300.0000006
300.0000005
300.0000003
300.0000002
300.0000003
300.0000004
300.0000007
300.0000012
300.0000018
300.0000023
300.0000027
300.0000021
300.0000014
299.9999971
299.999998
299.9999993
299.9999989
299.9999985
299.999999
299.9999999
300.0000013
300.0000036
300.000001
300.0000013
300.0000018
300.0000009
300.0000006
300.0000006
300.0000006
300.0000006
300.0000005
300.0000003
300.0000003
300.0000004
300.0000006
300.0000009
300.0000013
300.0000022
300.0000025
300.0000025
300.0000021
300.0000014
299.9999923
299.9999936
299.999995
299.9999961
299.9999969
299.9999981
300.0000003
300.0000024
300.0000015
300.0000033
300.000005
300.0000097
300.0000109
300.0000028
300.0000011
300.0000007
300.0000006
300.0000007
300.0000006
300.0000006
300.0000007
300.0000009
300.0000012
300.0000019
300.0000035
300.0000061
300.0000043
300.0000027
300.0000014
299.9999942
299.9999948
299.9999953
299.9999966
299.9999974
299.9999993
300.0000017
300.0000048
299.9999989
299.9999993
300.0000016
300.000009
300.0000231
300.0000044
300.0000013
300.000001
300.0000009
300.0000009
300.0000009
300.000001
300.0000011
300.0000014
300.000002
300.0000035
300.0000059
300.0000071
300.0000048
300.0000028
300.0000015
299.9999946
299.9999965
299.9999981
299.9999977
299.9999983
300.0000008
300.000004
300.0000046
300.000002
300.0000034
300.0000121
300.0000289
300.0000477
300.0000119
300.000002
300.0000016
300.0000013
300.0000013
300.0000014
300.0000015
300.0000018
300.0000026
300.0000041
300.0000064
300.0000078
300.0000074
300.0000046
300.0000024
300.0000015
299.9999949
299.9999971
299.9999979
299.9999998
299.9999999
300.000004
300.0000088
300.0000074
300.0000043
300.0000061
300.0000199
300.0000434
300.0000717
300.0000764
300.000032
300.0000022
300.000002
300.0000024
300.0000028
300.0000032
300.0000037
300.0000043
300.000005
300.0000057
300.0000061
300.0000059
300.0000038
300.000002
300.0000016
299.9999955
299.9999968
299.9999977
299.9999993
300.0000033
300.0000097
300.0000151
300.0000141
300.0000086
300.0000125
300.0000305
300.0000607
300.0001053
300.0001442
300.0001263
300.0000174
300.0000064
300.0000079
300.0000067
300.0000044
300.0000035
300.0000034
300.0000035
300.0000037
300.0000041
300.0000043
300.000003
300.0000019
300.0000017
299.9999961
299.9999964
299.9999977
299.9999982
300.0000031
300.0000186
300.0000272
300.0000285
300.0000185
300.0000234
300.0000418
300.0000817
300.0001596
300.0002686
300.0003337
300.0002856
300.0001918
300.0001217
300.0000767
300.0000179
300.0000068
300.0000042
300.0000036
300.0000035
300.0000036
300.0000036
300.0000024
300.0000018
300.0000017
299.9999962
299.9999959
299.9999958
299.9999984
300.0000028
300.0000223
300.0000299
300.000031
300.0000298
300.0000324
300.0002355
300.000529
300.000892
300.0010354
300.0008464
300.0005507
300.0003212
300.0001859
300.0001036
300.0000322
300.0000108
300.0000055
300.000004
300.0000035
300.0000033
300.000003
300.0000016
300.0000017
300.0000019
299.9999962
299.9999971
299.9999972
299.9999988
300.000003
300.0000171
300.0000136
300.0000058
300.0000392
300.0011286
300.0005375
300.0006016
300.0006517
300.0006125
300.0004961
300.0003543
300.0002322
300.0001468
300.000087
300.0000365
300.0000137
300.0000067
300.0000044
300.0000035
300.0000031
300.0000025
300.0000015
300.0000017
300.000002
299.9999969
299.9999978
299.999998
299.9999991
300.0000029
300.0000072
300.000004
300.0000021
300.0000576
300.0027135
300.0006385
300.0005304
300.0004358
300.0003377
300.0002467
300.0001719
300.000116
300.0000773
300.0000502
300.0000279
300.0000132
300.0000069
300.0000043
300.0000033
300.0000026
300.0000018
300.0000014
300.0000015
300.000002
299.9999986
299.9999982
299.9999984
299.9999993
300.000003
300.0000053
300.0000035
300.0000018
300.0000849
300.0027021
300.0006608
300.00043
300.0002918
300.0001973
300.0001319
300.0000874
300.0000578
300.0000386
300.0000259
300.000016
300.0000083
300.0000047
300.000003
300.000002
300.0000014
300.0000013
300.0000013
300.0000015
300.000002
299.9999988
299.9999986
299.9999987
299.9999996
300.0000039
300.000006
300.0000051
300.000002
300.0001019
300.0024819
300.0006386
300.0003419
300.0002018
300.0001235
300.000077
300.0000487
300.0000313
300.0000206
300.0000119
300.0000053
300.0000007
300.0000007
300.0000008
300.0000009
300.0000011
300.0000013
300.0000015
300.0000017
300.000002
299.9999995
299.9999991
299.9999992
300.0000003
300.0000054
300.0000077
300.0000083
300.000003
300.0001058
300.0010095
300.0005842
300.0002724
300.0001447
300.0000821
300.0000485
300.0000295
300.0000185
300.0000109
300.0000008
300.0000002
300.0000006
300.000001
300.0000011
300.0000012
300.0000013
300.0000015
300.0000017
300.0000018
300.0000021
300.0000005
299.9999997
300
300.0000019
300.0000072
300.00001
300.0000132
300.0000056
300.0001019
300.000937
300.0005105
300.0002171
300.0001069
300.0000575
300.0000326
300.0000193
300.0000104
300.0000021
300.0000009
300.0000014
300.0000015
300.0000015
300.0000015
300.0000015
300.0000016
300.0000017
300.0000018
300.0000019
300.0000021
300.0000007
300.0000007
300.0000013
300.000004
300.0000092
300.0000132
300.0000231
300.0000107
300.0000936
300.0008159
300.0004287
300.0001725
300.0000807
300.0000418
300.0000231
300.0000134
300.0000071
300.0000018
300.0000008
300.0000014
300.0000014
300.0000014
300.0000015
300.0000016
300.0000017
300.0000018
300.0000019
300.000002
300.0000021
300.0000006
300.0000014
300.0000021
300.0000042
300.0000077
300.0000121
300.0000249
300.0000223
300.0000796
300.0005844
300.0003447
300.0001362
300.0000619
300.0000313
300.0000168
300.0000094
300.0000047
300.0000008
300.0000006
300.000001
300.0000013
300.0000014
300.0000015
300.0000017
300.0000018
300.0000019
300.000002
300.0000021
300.0000021
300.0000006
300.0000018
300.000002
300.0000023
300.0000019
300.0000032
300.0000178
300.00006
300.0000653
300.0003177
300.0002472
300.0001043
300.0000476
300.0000236
300.0000121
300.0000051
300.0000017
300.0000002
300.0000007
300.0000012
300.0000014
300.0000014
300.0000015
300.0000017
300.0000018
300.0000019
300.000002
300.000002
300.0000021
300.0000007
300.0000024
300.0000022
300.0000016
300.0000005
300.0000017
300.0000153
300.000501
300.0000628
300.0001083
300.0001286
300.0000743
300.0000364
300.0000179
300.0000078
300.0000012
300.0000005
300.0000003
300.000001
300.0000014
300.0000014
300.0000014
300.0000015
300.0000016
300.0000017
300.0000018
300.0000019
300.000002
300.000002
300.0000005
300.000001
300.0000008
300.0000007
300.0000002
300.0000009
300.0000119
300.0002412
300.0000589
300.0000675
300.0000694
300.0000478
300.0000266
300.0000132
300.0000041
300.0000005
300.0000005
300.0000006
300.0000012
300.0000014
300.0000014
300.0000014
300.0000014
300.0000015
300.0000015
300.0000016
300.0000017
300.0000018
300.0000018
300.0000003
300.0000007
300.0000008
300.0000009
300.0000002
300.0000004
300.0000057
300.0001187
300.0000324
300.0000258
300.000023
300.000019
300.0000135
300.0000067
300.0000018
300.0000006
300.0000008
300.0000008
300.0000013
300.0000014
300.0000013
300.0000013
300.0000013
300.0000013
300.0000013
300.0000012
300.0000012
300.0000012
300.0000012
300.0000003
300.0000009
300.0000011
300.0000012
299.9999999
300
300.0000012
300.0000126
300.0000007
300.0000007
300.0000008
300.0000009
300.0000011
300.0000012
300.0000011
300.0000009
300.0000012
300.0000011
300.0000014
300.0000014
300.0000013
300.0000013
300.0000012
300.0000012
300.0000012
300.0000012
300.0000012
300.0000012
300.0000012
300.0000003
300.0000008
300.0000008
300.0000008
299.9999999
300
300.0000006
300.0000006
300.0000006
300.0000006
300.0000005
300.0000007
300.0000009
300.0000011
300.0000012
300.0000013
300.0000013
300.0000013
300.0000014
300.0000014
300.0000014
300.0000014
300.0000013
300.0000013
300.0000012
300.0000012
300.0000012
300.0000012
300.0000012
300.0000006
300.0000006
300.0000006
300.0000006
300.0000005
300.0000003
300.0000004
300.0000004
300.0000004
300.0000003
300.0000003
300.0000006
300.0000009
300.000001
300.0000011
300.0000012
300.0000012
300.0000013
300.0000013
300.0000013
300.0000013
300.0000012
300.0000012
300.0000011
300.0000011
300.0000011
300.0000011
300.0000011
300.0000011
299.9999971
299.9998174
299.9999971
299.9998048
299.9999978
299.9998971
299.9997525
299.9998889
299.999939
299.9999367
299.9999367
299.9999387
299.9999424
299.9999409
299.9999415
299.9999453
299.9999472
299.9999471
299.99995
299.999958
299.9999991
299.9999989
299.9999985
299.9999707
299.9999978
299.9999979
299.9999984
299.9999972
299.9999978
299.9999966
299.9999966
299.9999947
299.999993
299.999994
299.9999917
299.9999908
299.9999904
299.99999
299.9999901
299.9999939
299.9999913
299.9999936
299.9999945
299.999995
299.9999962
299.999994
299.9999968
299.9999975
299.9999954
299.9999983
299.999999
299.9999975
299.9999993
299.9999993
299.9999984
299.9999984
299.9999983
299.9999992
299.9999992
299.9999992
299.9999979
299.9999964
299.9999985
299.9999992
299.9999942
299.9999949
299.9999872
299.9999893
299.9999992
299.9999992
299.9999992
299.99998
299.9999901
299.9999705
299.9999738
299.9999992
299.9999991
299.9999992
299.999995
299.9999977
299.9999953
299.9999989
299.9999962
299.9999972
299.9999951
299.9999946
299.9999928
299.9999924
299.9999917
299.9999913
299.9999904
299.9999958
299.9999968
299.9999962
299.9999926
299.9999947
299.9999946
299.9999953
299.9999962
299.999996
299.9999966
299.9999968
299.9999972
299.9999974
299.9999969
299.999997
299.999997
299.9999974
299.9999973
299.9999966
299.9999954
299.999996
299.9999983
299.9999974
299.9999991
299.9999952
299.9999942
299.9999945
299.9999999
299.999999
300.0000015
299.999994
299.999994
299.9999937
300.0000007
299.9999943
299.9999957
299.9999958
299.9999996
299.9999367
299.9999948
299.9999345
299.9999326
299.9999333
299.9999325
299.9999311
299.999932
299.9999318
299.9999321
299.9999974
299.9999982
299.9999979
299.9999943
299.999997
299.9999957
299.9999918
299.9999943
299.9999932
299.9999907
299.9999923
299.9999916
299.9999937
299.9999914
299.9999939
299.9999966
299.9999954
299.9999971
299.999998
299.9999979
299.9999985
299.9999992
299.999999
299.9999992
299.9999343
299.9999333
299.9999331
299.9999382
299.9999346
299.9999354
299.9999979
299.9999965
299.9999973
299.9999969
299.9999978
299.9999976
299.9999945
299.9999969
299.9999958
299.9999925
299.9999948
299.9999935
299.9999941
299.9999915
299.9999942
299.9999975
299.9999957
299.9999979
299.9999988
299.9999986
299.999999
299.9999993
299.9999992
299.9999993
299.999937
299.9999402
299.9999385
299.9999365
299.9999382
299.9999381
299.9999374
299.9999976
299.9999931
299.9999961
299.9999971
299.9999973
299.9999979
299.9999946
299.9999972
299.9999959
299.9999943
299.9999911
299.9999945
299.9999983
299.9999962
299.9999986
299.9999991
299.999999
299.9999992
299.9999448
299.999944
299.999941
299.9999439
299.9999442
299.9999429
299.9999452
299.9999983
299.9999844
299.9999982
299.999997
299.9999983
299.9999978
299.9999949
299.9999931
299.9999958
299.9999988
299.9999969
299.9999989
299.9999493
299.9999978
299.9999979
299.9999982
299.9999989
299.9999475
299.9999987
299.9999391
299.9999983
299.9999339
299.9999974
299.9999974
299.9999963
299.9999926
299.999997
299.999997
299.999994
299.9999946
299.9999961
299.999995
299.99999
299.9999975
299.9999975
299.999992
299.9999962
299.9999974
299.9999953
299.9999946
299.9999977
299.9999943
299.9999939
300.0000013
299.9999943
299.9999947
299.999998
299.9999964
299.9999995
299.9999985
299.9999977
299.9999339
299.9999316
299.9999981
299.999996
299.9999929
299.999991
299.9999913
299.9999952
299.9999973
299.9999987
299.9999992
299.9999961
299.9999386
299.9999338
299.9999347
299.999933
299.9999343
299.9999337
299.9999978
299.9999977
299.9999957
299.9999935
299.9999915
299.9999955
299.9999983
299.9999991
299.9999992
299.9999933
299.9999968
299.9999977
299.9999961
299.9999914
299.9999959
299.9999988
299.9999992
299.9999992
299.9999986
299.9999987
299.9999691
299.999876
299.9999148
299.9999424
299.9999841
299.9999946
299.9999979
299.9999918
299.9999966
299.9999991
299.9999992
299.999999
299.9999926
299.9999866
299.999967
299.9999503
299.9999585
299.9999572
299.9999572
299.9999622
299.999961
299.9999981
299.9999962
299.9999943
299.9999855
299.9999744
299.9999934
299.9996915
299.9989544
299.9999991
299.9999803
299.9999958
299.999797
299.9989493
299.9999994
299.9999749
299.9999989
299.999956
299.9999978
299.9999989
299.999998
299.9999409
299.9999988
299.9999431
299.999999
299.9999989
299.999936
299.9999338
299.9999985
299.9999361
299.9999988
299.9999987
299.9999322
299.9999311
299.9999986
299.9999305
299.9999995
299.9999968
299.9999994
299.9998912
299.9999975
299.9999076
299.9999993
299.9997825
299.9999287
299.9999974
299.9999493
299.9998487
299.9997092
299.9997002
299.999777
299.9998495
299.9999352
299.9999344
299.9999983
299.9999773
299.9999657
299.9998398
299.9997709
299.9999346
299.9998063
299.999828
299.9998676
299.9999157
299.9999384
299.9999393
299.9999409
299.9999412
299.9999988
299.9999924
299.9999961
299.9999823
299.9999558
299.9999599
299.9999456
299.9999526
299.9999636
299.9999881
299.9999198
299.9999101
299.9999272
299.9999473
299.9999506
299.9999469
299.9999479
299.9999497
299.9999513
299.9999533
299.9999541
299.9999577
299.999999
299.9999991
299.9999988
299.9999988
299.9999969
299.9999985
299.9999945
299.9999981
299.9999966
299.9999599
299.9999696
299.9999726
299.9999979
299.9999836
299.9999556
299.9999576
299.9999739
299.9999697
299.9999569
299.9999684
299.9999674
299.9999585
299.9999666
299.9999659
299.9999661
299.9999958
299.999995
299.9999962
299.9999906
299.9999973
299.9999982
299.9999744
299.9999986
299.9999789
299.9999802
299.9989501
299.9996803
299.9989389
299.9993933
299.9989248
299.9995884
299.9999727
299.9999993
299.9999641
299.999977
299.9989973
299.999999
299.9999991
299.9997712
299.9999992
299.9999992
299.9999616
299.9999993
299.9999599
299.9999551
299.9999733
)
;

boundaryField
{
    walls
    {
        type            zeroGradient;
    }
    wallFilmFace_top
    {
        type            zeroGradient;
    }
    region0_to_wallFilmRegion_wallFilmFace
    {
        type            zeroGradient;
    }
    mirrorFace_top
    {
        type            zeroGradient;
    }
    region0_to_wallFilmRegion_mirrorFace
    {
        type            zeroGradient;
    }
    procBoundary2to0
    {
        type            processor;
        value           nonuniform List<scalar> 
26
(
299.9999955
299.9999961
299.9999969
299.9999981
299.9999985
300.0000001
300.0000005
300.0000013
300.000002
300.0000003
300.0000002
300.0000002
300.0000002
300.0000003
300.0000004
300.0000006
300.0000008
300.0000004
300.0000001
300
300
300.0000001
300.0000003
300.0000012
300.000003
300.0000017
)
;
    }
    procBoundary2to1
    {
        type            processor;
        value           nonuniform List<scalar> 
33
(
299.9999942
299.9999942
299.9999958
299.9999958
299.9999975
299.9999982
299.999999
299.999999
299.9999973
299.9999957
299.9999951
299.9999915
299.9999944
299.9999943
299.9999945
299.9999952
299.9999967
299.999998
300.0000048
300.0000127
300.0000001
299.9999995
299.9999999
300.0000006
300.0000013
300.0000021
300.0000028
300.0000047
300.0000009
300.0000005
300.0000004
300.0000006
300.0000008
)
;
    }
    procBoundary2to3
    {
        type            processor;
        value           nonuniform List<scalar> 
64
(
299.9997852
299.9996825
299.9996714
299.9998015
299.999928
299.9999409
299.9999488
299.9999632
299.9999769
299.9999928
299.9999907
299.9999913
299.9999902
299.9999907
299.9999949
299.9999959
299.9999971
299.9999976
299.9999988
299.9999992
299.9999994
299.9999999
300.0000013
300.0000022
300.0000022
300.0000009
299.9999999
299.9999999
299.9999996
299.9999999
299.9999309
299.9999328
299.9999309
299.9999348
299.999937
299.9999981
299.9999323
299.9999928
299.9999995
299.9999309
299.9999603
299.999967
299.9999645
299.9999743
299.9999821
299.9999794
299.9999985
299.9999303
299.9999993
299.9996916
299.9996825
299.9997293
299.9999019
299.9999444
299.9999435
299.9999662
299.9999725
299.999955
299.999976
299.9999779
299.999967
299.9999804
299.9999807
299.9999784
)
;
    }
}


// ************************************************************************* //
