/*--------------------------------*- C++ -*----------------------------------*\
  =========                 |
  \\      /  F ield         | OpenFOAM: The Open Source CFD Toolbox
   \\    /   O peration     | Website:  https://openfoam.org
    \\  /    A nd           | Version:  8
     \\/     M anipulation  |
\*---------------------------------------------------------------------------*/
FoamFile
{
    version     2.0;
    format      ascii;
    class       scalarField;
    location    "1.5/lagrangian/reactingCloud1";
    object      age;
}
// * * * * * * * * * * * * * * * * * * * * * * * * * * * * * * * * * * * * * //


100
(
0.2569166722
0.2455047293
0.210106875
0.1920839021
0.1861049994
0.1634401799
0.164439143
0.1320697773
0.1588721381
0.1240625949
0.1583831452
0.1624255793
0.1666175279
0.1579864777
0.113852395
0.157584831
0.1128010972
0.1512898846
0.1523144809
0.1571783996
0.1881230853
0.1299306717
0.1291890584
0.128752463
0.08812529313
0.1278117303
0.2157548346
0.1309104143
0.1007476424
0.1274986772
0.106192817
0.08411189206
0.14367345
0.1023259984
0.1222378933
0.1072958876
0.06809321706
0.1210755666
0.120645805
0.1049842823
0.1181194274
0.06009775544
0.1195382672
0.09555117718
0.05412312478
0.1066991684
0.1179957453
0.1051919608
0.05016932508
0.1894684759
0.1173154937
0.04814849412
0.2645336299
0.1691592498
0.1761009019
0.1166352422
0.1216880553
0.1663372169
0.1284393903
0.04015303251
0.03813220155
0.2255106476
0.1753101428
0.1126774151
0.03611137059
0.2573511506
0.2478780858
0.1091042254
0.03013673994
0.02899400024
0.02810780354
0.02810808863
0.1185521086
0.1103387645
0.02702383499
0.02450300357
0.02414917652
0.02354731957
0.02212024029
0.2533445467
0.02012813755
0.2485213626
0.2399994233
0.2552436053
0.2463840477
0.01613372238
0.1124300509
0.2433406338
0.01407791365
0.247373281
0.1129866203
0.0120685315
0.1087414473
0.01005276507
0.008065519785
0.006084922121
0.004095620658
0.130176258
0.002106319196
0.0001170177331
)


// ************************************************************************* //
