/*--------------------------------*- C++ -*----------------------------------*\
  =========                 |
  \\      /  F ield         | OpenFOAM: The Open Source CFD Toolbox
   \\    /   O peration     | Website:  https://openfoam.org
    \\  /    A nd           | Version:  8
     \\/     M anipulation  |
\*---------------------------------------------------------------------------*/
FoamFile
{
    version     2.0;
    format      ascii;
    class       scalarField;
    location    "1.5/lagrangian/reactingCloud1";
    object      nParticle;
}
// * * * * * * * * * * * * * * * * * * * * * * * * * * * * * * * * * * * * * //


100
(
101.1324496
105.7953052
4686.154388
2122.542382
1060.537944
103.690733
102.914233
5161.841682
100.9066686
2462.821433
368.4826248
178.4853671
102.668932
100.7681006
101.6370198
103.3664596
102.5665757
341.5597306
244.2823317
101.7410627
878.5538563
105.2875106
103.5494091
102.8360119
2652.930602
102.5680025
1063.915577
100.4781611
101.2940012
100.1144433
101.7658945
970.434853
101.1308589
100.1472014
100.3760666
100.6110528
1526.115308
100.1696295
112.4373792
101.365427
100.7911951
4174.966983
103.4888597
100.692055
5469.571219
100.5055676
100.1748527
182.0752434
3539.695492
160.101802
102.2321649
2496.329606
101.4900867
145.9901178
5421.084789
108.6335057
100.2026429
163.1393037
102.8649141
3777.31679
5400.664536
162.3984598
100.1963926
101.5362302
6285.80527
100.0485096
101.3662955
100.5132774
3610.765111
100.004235
102.9739248
734.8943221
100.0644425
100.3244538
104.7058477
101.7518087
1369.813099
107.6395033
6200.638552
102.1240619
1567.082465
100.3019646
164.9539149
158.9079301
247.2090031
872.1433559
116.9260918
101.5848686
3303.151203
100.7456556
107.980943
7552.72673
100.1668015
6649.637837
3196.341873
4876.910083
1365.774312
101.5741859
1265.41549
1109.367841
)


// ************************************************************************* //
