/*--------------------------------*- C++ -*----------------------------------*\
  =========                 |
  \\      /  F ield         | OpenFOAM: The Open Source CFD Toolbox
   \\    /   O peration     | Website:  https://openfoam.org
    \\  /    A nd           | Version:  8
     \\/     M anipulation  |
\*---------------------------------------------------------------------------*/
FoamFile
{
    version     2.0;
    format      ascii;
    class       labelField;
    location    "1.5/lagrangian/reactingCloud1";
    object      origId;
}
// * * * * * * * * * * * * * * * * * * * * * * * * * * * * * * * * * * * * * //


100
(
513
946
692
701
704
973
971
733
978
737
980
976
970
981
743
982
744
991
990
983
703
1005
1006
1007
757
1009
954
1003
1065
1010
1053
759
994
1063
1014
1049
767
1016
1017
1056
1023
771
1020
1069
774
1052
1024
1055
776
960
1025
777
506
967
710
1027
1015
715
1008
781
782
542
963
1035
783
512
944
1045
786
787
788
789
1021
1043
790
792
793
794
795
943
796
521
534
514
524
798
1036
531
799
522
1034
800
1046
801
802
803
804
1004
805
806
)


// ************************************************************************* //
