/*--------------------------------*- C++ -*----------------------------------*\
  =========                 |
  \\      /  F ield         | OpenFOAM: The Open Source CFD Toolbox
   \\    /   O peration     | Website:  https://openfoam.org
    \\  /    A nd           | Version:  8
     \\/     M anipulation  |
\*---------------------------------------------------------------------------*/
FoamFile
{
    version     2.0;
    format      ascii;
    class       vectorField;
    location    "1.5/lagrangian/reactingCloud1";
    object      U;
}
// * * * * * * * * * * * * * * * * * * * * * * * * * * * * * * * * * * * * * //


100
(
(0.7812154913 -0.02609023032 -2.038348453)
(-0.009563410042 -0.7991649801 -2.181789889)
(0.5578861205 -0.6727974995 -3.210395233)
(0.9877813758 -0.5395767709 -2.901543096)
(0.3429157633 -0.8631062687 -3.187197788)
(-0.02507827786 -0.8569079858 -1.469341742)
(-0.03055844241 -0.8664772298 -1.514867303)
(0.7477479527 -0.8187349229 -2.581457123)
(0.07344482312 -0.7361423297 -1.536040423)
(0.9457745878 -0.6774517445 -2.596849173)
(0.1143691784 -0.7672454693 -1.500362688)
(0.03613804668 -0.7224427996 -1.552048865)
(0.3905256229 -0.7300063435 -1.462202558)
(0.1360553621 -0.6592802154 -1.473099115)
(1.046496419 0.09238794466 -1.119305229)
(0.1423821111 -0.5511130017 -1.453663136)
(0.8177767283 0.0608619602 -1.116146814)
(0.312724575 -0.7765153686 -1.391642085)
(0.272033211 -0.7536889196 -1.464823208)
(0.2014740072 -0.4181180953 -1.447222436)
(-0.04280810861 -1.015307059 -3.122115161)
(-0.01855916244 -1.02004979 -1.236229453)
(0.03052943271 -0.9957298894 -1.231209342)
(0.0560992958 -0.9342735204 -1.219238306)
(0.8915428397 -0.8842156264 -2.161522041)
(0.1168984395 -0.9850794957 -1.222864915)
(0.2337064004 -0.127684092 -2.022062031)
(-0.09495738889 -1.071329747 -1.258980287)
(-0.3426342719 -0.5773688572 -1.019694944)
(0.1242314438 -0.8579145411 -1.218958515)
(-0.2959082215 -0.5753979752 -1.061598882)
(0.3184661755 -0.8525313638 -2.470984675)
(0.3748308854 -0.6470601168 -1.378033081)
(-0.2826080464 -0.4641066731 -1.023109665)
(0.2776630463 -0.960238828 -1.189975738)
(0.02495260594 -0.07573707962 -1.053138037)
(0.9978133598 -0.6820792814 -2.146608191)
(0.188977803 -0.7936469795 -1.172006231)
(0.1838671513 -0.7063626356 -1.162039438)
(-0.1647841454 -0.2705159917 -1.039475122)
(-0.04009088604 -0.1989692727 -1.148506147)
(0.6037988837 -0.9528449693 -2.096939669)
(0.224534304 -0.7269164555 -1.161543329)
(-0.3944097565 -0.5482656702 -0.9391661171)
(0.5457317326 -0.03361312006 -2.395890469)
(-0.2113838834 -0.3201216532 -1.04158276)
(0.2622659559 -0.6839930582 -1.153637385)
(0.1329742308 -0.5602431813 -1.035864194)
(0.1905163088 -1.118428599 -2.011071628)
(0.04311861064 -0.1349650105 -1.681633259)
(0.2598938237 -0.619900629 -1.148517043)
(1.003896495 -0.2410773136 -2.10923272)
(0.03382598788 0.05325207897 -1.958047273)
(0.09271338728 -0.3268101904 -1.60625334)
(0.06103407526 -0.6239943393 -3.300348805)
(0.2688172935 -0.5919791927 -1.145967733)
(0.02030769148 -0.4209618628 -1.13008661)
(-0.06333003141 -0.131841104 -1.60539956)
(-0.1491375259 -0.4799380358 -1.155023372)
(0.683205147 -0.3111520262 -2.220124087)
(-0.3883801559 -0.6484436053 -2.160796492)
(0.1905073025 -0.08114242722 -1.911506453)
(-0.38451368 -0.4393790575 -1.682154217)
(-0.06747118556 -0.1474028554 -1.086480546)
(0.8847363875 -0.1481338927 -2.108404278)
(0.1197156391 -0.08384570517 -2.273166878)
(0.09993296223 -0.01882308653 -1.855285032)
(-0.1058610052 -0.2156282695 -1.06540763)
(-0.1946161447 -0.950082925 -2.010585808)
(0.6140762994 0.04969781327 -0.2867123367)
(0.5730335439 0.04742905542 -0.2774117912)
(-0.2190216704 -1.055788251 -1.941861033)
(0.2248687036 -0.187068518 -1.171650497)
(0.3593294196 -0.5532423383 -1.08973012)
(0.6454477209 0.05179297792 -0.2673681723)
(0.8480283458 0.06245198179 -0.2437444634)
(0.6917824126 -0.08229358471 -2.097451383)
(0.9563483323 0.0642239234 -0.2381225746)
(1.217687609 -0.1334254379 -1.738265588)
(-0.002283293019 -0.09332750399 -1.743393753)
(0.5231592495 -0.430414438 -2.067527836)
(0.1155497107 -0.005409462278 -1.990480286)
(0.1142479691 -0.1721346904 -2.154134749)
(0.1078046158 -0.1671174453 -2.271670455)
(0.09839438483 -0.1530183868 -2.138580639)
(-0.4511702007 0.1500915597 -2.091277662)
(-0.08262280808 -0.1598048561 -1.079441983)
(0.1059361513 -0.04809896232 -1.972035958)
(1.074587107 0.6625362013 -1.656447489)
(0.2546891484 0.1300020014 -2.021180954)
(-0.03191103763 -0.1160598602 -1.092839373)
(-0.6696065871 -1.195502163 -1.530036823)
(0.5330137766 -0.4516863211 -1.096768189)
(0.66484366 0.2318472496 -1.95968044)
(0.4687210018 1.05743181 -1.700953321)
(-1.173424152 -0.3246184051 -1.633177297)
(0.04153749426 0.08252089342 -2.036100015)
(-0.3090337597 -0.5258993458 -1.196772651)
(-0.3419880043 -0.7461897694 -1.842863467)
(1.131052985 -0.4145443951 -1.597461957)
)


// ************************************************************************* //
