/*--------------------------------*- C++ -*----------------------------------*\
  =========                 |
  \\      /  F ield         | OpenFOAM: The Open Source CFD Toolbox
   \\    /   O peration     | Website:  https://openfoam.org
    \\  /    A nd           | Version:  8
     \\/     M anipulation  |
\*---------------------------------------------------------------------------*/
FoamFile
{
    version     2.0;
    format      ascii;
    class       volScalarField;
    location    "1.5/wallFilmRegion";
    object      alpha;
}
// * * * * * * * * * * * * * * * * * * * * * * * * * * * * * * * * * * * * * //

dimensions      [0 0 0 0 0 0 0];

internalField   nonuniform List<scalar> 
1369
(
3.702202538
0.3966649314
0.5340290913
0.06655226419
0.05115263952
0.04784517297
0.03998205446
3.459070725
0.4191347505
0.3839868863
0.05856296108
0.04566062755
0.04211514192
0.03468238
0.0248791753
0.0148248343
0.006781738154
0.002017155369
3.30331762
0.4236807167
0.2331996842
0.05054563183
0.04112427671
0.03685249023
0.02991402805
0.02141531002
0.01284886082
0.005909499545
0.001740438788
0.0002307646574
0.0008858477494
3.152196436
0.4257863743
0.130276379
0.04234415554
0.03679444624
0.03230268474
0.02609408955
0.01880967129
0.01144558746
0.005341612453
0.001622018358
0.0002691323196
0.002187101554
0.01215394533
0.07086321382
0.3373531639
0.488617779
3.001930149
0.4513392533
0.0817607043
0.03525141877
0.0321275912
0.02790713803
0.02262678182
0.01654825855
0.01030988564
0.005002555202
0.001718294361
0.0005207272297
0.006748174627
0.02962691723
0.1677899419
0.5098148651
0.5016978249
0.6615303712
0.7426543044
2.868766339
0.4769216713
0.06163571279
0.02838034162
0.02591664204
0.02247560597
0.0184143174
0.01377383299
0.008954252676
0.00483124621
0.002390660394
0.002070197328
0.02524668804
0.07133386533
0.2975726918
0.5125340454
0.3803418361
0.5176838087
0.7391215145
0.4943576399
0.4433999629
0.5993803593
1.110501155
2.71830761
0.4031814534
0.04233579898
0.01907276231
0.01734879458
0.01509394486
0.01252277066
0.009624198778
0.006738052424
0.004822152642
0.005677289247
0.01471478112
0.08821996142
0.1402805426
0.3052916176
0.3058879477
0.2599960952
0.3760665242
0.4709511374
0.4437288233
0.4071839628
0.3767219586
1.001870939
1.068811306
1.239721416
2.456517364
0.3065817146
0.01943820509
0.008268312167
0.007411686319
0.006398498164
0.005266633866
0.004012706255
0.002940048763
0.003465319387
0.01157349605
0.05238235655
0.2090105024
0.1452808419
0.1354609395
0.1057913506
0.13635576
0.2481569548
0.3412791622
0.3068246599
0.4598831971
0.67457446
1.149869287
0.709776249
0.9080774898
2.300817022
2.076540014
0.3657565317
0.01292494605
0.004532817885
0.004002351694
0.003647267022
0.003438391094
0.003622646809
0.005253955933
0.01374641443
0.0608721634
0.1377811038
0.1507365859
0.0533859549
0.02982941422
0.02910355164
0.04792158529
0.1174723546
0.3044695807
0.5681604574
0.2047639984
0.9263102427
0.9551039038
0.4926195508
0.4722850655
1.754148676
1.989003377
0.3237617325
0.02256130299
0.008875625177
0.008491865256
0.008946427798
0.01123839094
0.01937293533
0.04845996191
0.134721
0.2133725347
0.1621752125
0.06342849993
0.02638693748
0.0138873961
0.01032423884
0.01192429477
0.0219219486
0.05562757926
0.06723919524
0.01880116496
0.3704736853
0.9763719596
0.4536511351
0.3412597181
0.8679371161
1.416406876
2.194663777
0.3321720397
0.05829076364
0.0282035602
0.02758793147
0.03116050783
0.04307610043
0.07740512551
0.164936546
0.2170090185
0.1630431067
0.07639906109
0.03655240619
0.01855708371
0.01004081603
0.00613928369
0.004195676587
0.003427152995
0.003093701896
0.002426138829
0.002756413011
0.07195733023
0.7441616497
0.2579901182
0.4757085015
0.9627116694
1.969333167
2.943132711
0.5512663751
0.4339815043
0.4187636173
0.4726066711
0.5414502098
0.5944673477
0.581902979
0.4393521268
0.2360623305
0.0880413941
0.03703384859
0.02533583849
0.0164842084
0.01053939704
0.006613395847
0.003876929345
0.002632790819
0.002117971338
0.001387575626
0.001073944276
0.01445294045
0.1383466696
0.6188371533
0.8773564435
0.8286994947
1.278277644
2.47455021
0.1689440423
0.1647367223
0.1406554768
0.1487719216
0.1595500107
0.1516095363
0.1237403468
0.08318116232
0.04735695783
0.02796585492
0.02276723756
0.02088910372
0.01757623597
0.01355949614
0.009276680877
0.004724495422
0.00278842703
0.002163129305
0.001314500957
0.001184861869
0.012443968
0.04388300673
0.3185910142
0.5711576385
0.9114007335
1.279087998
1.235274084
2.32883424
0.1269462471
0.1881123004
0.06219900649
0.04736392782
0.04461388685
0.03977043932
0.03207498827
0.0229132325
0.01591783597
0.01446172171
0.0178370954
0.02012325661
0.02106981244
0.02005575589
0.0162496452
0.00652132529
0.003244037296
0.002533886387
0.001448859937
0.001041364333
0.004713461116
0.03644054895
0.3655544808
0.5517586713
0.6559236273
1.273632924
1.285198413
0.5745643573
1.787008329
0.03390463791
0.6528777963
0.05676848375
0.03996481171
0.03734410571
0.0331113059
0.0263072894
0.01811215265
0.01174042448
0.01074348517
0.015766367
0.02077548774
0.02626838683
0.03240358488
0.03647859073
0.009946235556
0.00404056139
0.003275507911
0.002002676242
0.0007565825366
0.06179699591
0.1704344847
0.1841233588
0.3088406123
0.7168557361
1.274977059
1.471352088
0.7992862924
2.052827675
0.3517011846
0.5423845466
0.04727666737
0.03711061559
0.03536019609
0.0314811937
0.0245633334
0.01593339601
0.008993662915
0.007467007683
0.01406016356
0.02095435177
0.03022003553
0.0505562962
0.1034336369
0.01590418502
0.005468884189
0.004836018891
0.003147863561
0.0001031003233
0.1255137061
0.4877213132
0.3477154925
0.4874471111
0.8520617486
1.232979461
1.085220506
0.6664892948
2.616177792
0.1018772214
0.05116720139
0.03642422123
0.03617192824
0.03500668697
0.03105496002
0.02370543736
0.01441515613
0.00661700719
0.003834342676
0.01188298697
0.0200570031
0.02783404061
0.0612960928
0.3336978948
0.02486081796
0.008514818185
0.009330192495
0.007204126402
0.0009411831182
0.1547980687
0.9109180918
0.7686420793
0.6570492268
0.9156648335
1.083650752
0.8470756696
0.6809659248
0.2730162188
0.1067202123
0.1183491103
0.2189634701
0.2682221484
2.751447095
0.06079052916
0.03893539168
0.03595810253
0.0364213185
0.03522311275
0.03096877013
0.02313116087
0.01331755749
0.004990763064
0.002201509416
0.01025067743
0.02146753854
0.03080364008
0.06869581037
0.6347464579
0.03638823929
0.01780674989
0.0272793678
0.02457466284
0.001589530994
0.2507930998
1.449020843
1.417066473
1.143111504
1.444678309
1.067680468
0.7677353787
0.5042147481
0.07978943267
0.02728541183
0.05659353236
0.1702684811
0.2123770139
2.810090887
0.05339113184
0.03851492192
0.03783942576
0.03880889982
0.03777882198
0.0332999781
0.02492179969
0.01449083563
0.005482228938
0.005176971391
0.0170019021
0.03381789614
0.04901196046
0.07236944181
0.6038193539
0.0534981624
0.04996966364
0.08713641397
0.1087578452
0.2527268053
0.4049558809
0.9075805973
1.11332264
1.326612302
2.18846077
1.284491814
0.8023129769
0.4392280781
0.06438188385
0.01004644102
0.06302185339
0.2171354327
0.3885343721
3.345475012
0.05835180041
0.04106068929
0.03609503956
0.03561750238
0.034919106
0.03278581927
0.0287220964
0.02425871769
0.02236450073
0.02216381474
0.01921958373
0.01447371147
0.01111846508
0.01743071664
0.2507166955
0.07814837025
0.1347749863
0.2154395149
0.1738480382
0.4484530255
0.6431216502
0.3943984327
1.273359705
1.369357061
0.7246044756
1.261220616
1.192585276
0.648329937
0.1801453996
0.03895269487
0.3038835536
0.9103678966
4.949302261
0.3822824561
0.201909583
0.1120895669
0.07049327234
0.04936468898
0.03889009516
0.03172020856
0.02449914893
0.01685426444
0.01047094735
0.007252884936
0.00710143082
0.01075471477
0.02179125869
0.05509351413
0.1372475977
0.2857701848
0.43496166
0.4056443147
0.5987776843
1.000862725
0.6330968194
1.19690465
1.609584135
0.9960197119
1.308222162
1.730593034
1.42402938
0.9959892798
1.12807518
1.769806847
5.729422163
0.8970368479
0.7416067226
0.463242671
0.232824532
0.1070315059
0.05751068188
0.03651740028
0.02272348329
0.01110063665
0.00384315938
0.003405065265
0.005817569784
0.01437815288
0.03778835954
0.1003665555
0.2299371094
0.4299157688
0.6698880842
1.01791872
0.9073626222
1.236030859
1.02664822
1.187596104
1.307957221
2.383375943
1.835137124
2.798988259
2.552161872
1.758674937
1.39840768
1.00178071
4.587827133
0.3806837232
0.3873130163
0.367394375
0.2945889422
0.1780893564
0.09508551019
0.05125983467
0.02728222046
0.012432977
0.005165824324
0.004630353173
0.008573419877
0.02339703928
0.06113833836
0.1429640238
0.2760910254
0.4563068195
0.7419626335
1.493903694
1.143666761
1.315882394
1.068201286
1.15317466
1.119683928
1.693054689
2.212116552
2.962331245
2.5480118
1.717305593
1.28585198
1.013617293
3.827297928
0.1921489257
0.2168014624
0.2556654437
0.2757567622
0.2233357792
0.142674223
0.07775096054
0.03782954945
0.01594781679
0.006757202584
0.006824700101
0.01448268152
0.03632188382
0.0804456196
0.1511487814
0.2364298883
0.3452440632
0.5667051749
1.293835245
1.464970523
1.398197791
1.234760191
1.405051751
1.630193876
2.359091787
2.59758476
3.208227497
2.997963208
2.653772336
2.081281016
3.378545856
0.09421245674
0.1101532757
0.1499304509
0.2048065427
0.2142125195
0.1686126128
0.1029286717
0.0501152272
0.02068107092
0.009886082089
0.0121341909
0.0245474871
0.0466346023
0.07934903052
0.1151879234
0.1461406048
0.1829428314
0.2825811833
0.6814231673
2.199773793
1.536669902
1.273561199
1.318059445
1.349641708
1.723038479
2.258745352
2.958761288
2.823022814
1.167959015
0.3516798252
3.068338786
0.04155248835
0.04599743214
0.06524831607
0.1121140685
0.1518317014
0.1501963539
0.1088267762
0.05943160146
0.02672207693
0.01503541574
0.01733265257
0.02746470713
0.04234368033
0.05797095031
0.06629512752
0.06825526543
0.0708568166
0.09594227214
0.2660685375
1.647864592
1.098077217
0.9995884247
1.096270228
1.020492179
1.228755663
1.058008467
1.24224619
1.323134636
0.09070315217
0.0610392136
3.225746537
0.02339954048
0.01480860459
0.01745068597
0.0316649815
0.056216652
0.09091452148
0.1552788347
0.2815158618
0.117601974
0.08100556425
0.07997205291
0.07632879668
0.06804592908
0.05857453887
0.04908067312
0.03918975808
0.02976441221
0.02150089547
0.01443486502
0.2473301491
0.5227246058
1.222608009
1.752050064
1.365944992
1.179073223
1.192914765
0.8739894634
0.5556754986
0.01538697086
0.01106754692
3.533738807
0.03879208744
0.01661658213
0.01041285739
0.01028422792
0.01247933832
0.02046751428
0.09270151318
0.4299157729
0.1380267306
0.09044822091
0.09145816711
0.0928623192
0.08974837765
0.08322265939
0.07591919473
0.0674039013
0.0588717587
0.05490829533
0.0739865089
0.2136256541
0.3912042639
0.3779508527
0.2215664909
0.584224991
1.345317428
1.281552321
0.5835886453
0.0671335816
0.001066270079
0.004588229784
3.821862939
0.05527023405
0.02179955055
0.0121030385
0.009173144803
0.008012907465
0.01117980574
0.09079029594
0.2283854649
0.1030621894
0.07885163672
0.08314897673
0.08807054304
0.09106394412
0.09040093398
0.08682208287
0.08145595112
0.07476796466
0.06939786754
0.06719715911
0.007006199642
0.01930170556
0.2634739429
0.8026727725
0.4845216496
0.8768568633
0.4723613391
0.04166529246
0.001621262778
8.997958006e-05
0.001382126058
4.047815006
0.0744629286
0.0283261974
0.01618568091
0.0131552194
0.01390231232
0.02275452326
0.05779554631
0.09072667197
0.06755153493
0.06508199596
0.07470626649
0.08233285488
0.08772299498
0.09083718068
0.09067675811
0.08782544435
0.08326156146
0.07823169645
0.07133786742
0.007061037682
0.2516545561
0.6774872465
1.362133596
0.5306795901
0.3557192943
0.1043722418
0.003555435276
0.00871257702
0.006603449527
0.005323203675
4.23541819
0.09706363671
0.03540777497
0.02011800809
0.01615578592
0.01595582947
0.02056646756
0.03269337793
0.04302719067
0.04358290561
0.05250786266
0.06880556948
0.08162465916
0.08889360121
0.09222849733
0.09320577941
0.09164118645
0.0884741529
0.08466084953
0.08144919332
0.08184186786
0.02770346438
0.2551636251
1.18775325
0.4595860108
0.1456954102
0.1500341952
0.0327732398
0.06450359584
0.03704535357
0.02108258758
4.438572625
0.1241296579
0.04303886383
0.02311719598
0.01708280436
0.01467689316
0.01566640256
0.02033581472
0.02607155242
0.03188950124
0.04457662455
0.06593611964
0.08655163934
0.09796388259
0.09896453054
0.09728548807
0.09557371389
0.09285673784
0.08735156321
0.07515968649
0.001998585407
0.009825775882
0.08419736636
0.9011608758
0.6744223803
0.74804079
0.4313835866
0.4107521882
1.162502893
0.145658906
0.07166026489
4.708439836
0.1568304451
0.05120336932
0.025303547
0.01695091594
0.01284338197
0.01223879193
0.0147738187
0.01977039357
0.02813245177
0.04413203081
0.0714780096
0.104738059
0.1205242773
0.110053379
0.100837271
0.09951090341
0.09800470673
0.08995380236
0.07044091025
0.000100282776
0.0006084931377
0.01018827786
0.8047189182
1.281658714
2.428252694
1.408740099
1.92043211
1.950865731
0.454478765
0.2272299725
5.005466692
0.1985941498
0.06126097082
0.02786113814
0.01725449707
0.01142233785
0.01028282725
0.01223058747
0.01720641049
0.02780015942
0.04951344274
0.08776175629
0.1370574811
0.1525919436
0.1226084151
0.101106738
0.1000090481
0.1022121361
0.09273861002
0.06610083596
4.646331326e-06
1.865838537e-05
0.00242632685
0.377191334
1.660391941
1.267914513
1.075174812
1.129979765
0.7030363622
0.6200777859
0.2618201882
5.833576368
0.3738574174
0.1217311593
0.05157476984
0.02834543511
0.01476815997
0.009253240448
0.01107344312
0.01591238954
0.02777443667
0.05501711006
0.1057148718
0.1701960015
0.1861158606
0.1379477833
0.09952640622
0.09641350899
0.1025259133
0.09341208498
0.06152280677
3.659074317e-06
6.868820458e-06
0.0009765100396
0.04702835541
0.07289377435
0.1350395626
0.8279137057
0.563210953
0.4319073868
0.7307661198
0.2171467848
7.463868723
1.986475108
2.215680972
1.990551297
2.174229719
0.7890624587
0.02779315019
0.02637499581
0.03439154923
0.04265683842
0.05671795497
0.1175930424
0.1963498066
0.2204335626
0.1660779812
0.1090663553
0.09593586401
0.1023046847
0.09198192143
0.05608058428
2.593773956e-06
3.158022344e-06
0.0004705225919
0.01394048335
0.005679081225
0.00737237339
0.5682264114
0.5605577631
0.3374555955
0.9231752193
0.2496939648
6.906186127
1.671232982
3.452338618
3.156927389
3.647810183
3.662865008
1.151119091
0.576043419
0.2516516934
0.08218745815
0.05070759451
0.1187498944
0.2097705819
0.2535203795
0.2102940261
0.1472023851
0.1195142736
0.1116444323
0.08809309214
0.04737625055
0.001906081648
0.001523849324
0.002266508558
0.005084865735
0.0003967565062
0.0001314436035
0.1126481606
0.189960316
0.2219237353
1.024021736
0.7333616564
5.581061291
0.5357960957
2.948715348
2.22485893
3.124115397
3.901917234
4.231009494
0.8491763932
0.1166466413
0.02905294024
0.04668835035
0.1097139398
0.2064371358
0.2754202061
0.2574534549
0.2033792565
0.1656238851
0.1280666904
0.07767247369
0.03550373981
0.006671753642
0.004910504607
0.004506394882
0.004206631473
0.001297085731
0.0005078086701
0.03841288462
0.1053892916
0.1972564041
0.8631064326
1.161384331
4.919755477
0.4853735979
2.254230047
2.521292559
3.370145713
3.652008881
4.763231688
3.107978662
0.1092832888
0.02685563018
0.04256361424
0.09268265754
0.1836586903
0.273365073
0.2836145432
0.2434550125
0.1965728323
0.1333155891
0.06951084607
0.03525249266
0.01908592879
0.0147716693
0.01073720283
0.00684566067
0.002996555329
0.001243092892
0.03217986592
0.09966871775
0.2101699646
0.7047746797
0.7717978395
4.55069015
0.4630022237
1.521723688
2.743133031
3.559585788
4.725815114
6.907202413
3.810408739
0.2470018572
0.01910984332
0.03161308618
0.09222894196
0.1908675301
0.249465766
0.2709795025
0.2417716548
0.1886657667
0.1221190197
0.0753001913
0.05798075414
0.05200057501
0.04465507906
0.03012967867
0.01557692894
0.006212740337
0.002912583353
0.04367040429
0.1028764689
0.1830505763
0.3137698595
0.2042564076
4.563342194
0.4390352324
2.779663385
3.309045451
3.922409941
4.252887633
4.53353929
6.375610102
2.914855671
0.08038953254
0.03989329496
0.1671635052
0.2226509965
0.1989395356
0.2193347422
0.1968971394
0.1436741223
0.09921392825
0.08433752985
0.09584959608
0.1196279527
0.1249499452
0.09129212707
0.04228990115
0.01316585194
0.00761831377
0.05559959695
0.07959861386
0.106096796
0.1039641892
0.09615891224
4.890117401
0.5061778442
3.113327034
3.799429617
4.089414599
4.302926221
4.289557957
4.111048986
5.540329
1.169488567
0.2012662536
0.3412013963
0.2090119309
0.1343589296
0.1492080365
0.1322753491
0.09369985551
0.07148037652
0.07538228135
0.1118488909
0.1907348363
0.2748400387
0.2418603624
0.1057159463
0.02897112874
0.02033262235
0.05347515783
0.04795966758
0.06266751453
0.03629908672
0.05707756343
5.435748648
0.9076792637
3.424349444
4.064352817
4.11894266
4.036113381
4.005076898
3.612583582
3.992315468
4.481840343
1.039824501
0.4217710826
0.1569174925
0.08433894309
0.09146709489
0.08134358392
0.05876547467
0.045847126
0.05181752925
0.08834519171
0.1962313157
0.4102330966
0.523099089
0.3703170557
0.06169304489
0.04294962444
0.0440964636
0.02767118847
0.04811230027
0.01065223487
0.02718388987
6.160979092
2.37175481
4.716338757
4.58738655
4.250547542
3.798580679
3.429036912
3.009213272
2.828675603
5.696161348
2.506096589
0.3842212901
0.1045958146
0.05494396796
0.05705731303
0.051279523
0.03821221872
0.02915915833
0.03097068006
0.05368545449
0.1463641024
0.4502941618
0.9037644031
0.8787821357
0.1197675699
0.07712666812
0.04311903703
0.02305465805
0.02303515757
0.003916990037
0.04233973002
6.929491559
4.054727948
5.532949639
4.71346793
4.186076484
3.631895809
2.954106121
2.595814201
2.241880497
3.706004333
3.217326096
0.3325648788
0.06944076051
0.03801774001
0.03782898861
0.0344415364
0.02700591147
0.02068024369
0.01935407219
0.02629716277
0.0508548381
0.1047736519
0.1496585184
0.2246614686
0.1928544019
0.1285256157
0.06075103976
0.04156962365
0.01589751231
0.003271754609
0.1249455567
7.866040241
5.404755542
6.077323418
4.711883417
4.372891516
3.281669415
2.090477867
2.159957221
2.829081808
3.886722137
3.836234915
0.4200192901
0.08538367613
0.05318006434
0.05471338037
0.06243662866
0.0845911364
0.1195409679
0.1474676701
0.1617602488
0.1603388845
0.135566835
0.08590904056
0.06166530729
0.3554681154
0.8493142689
0.9734838899
0.3187133106
0.08746579881
0.01800374224
0.1167854252
9.036556343
7.325834216
6.122218063
3.903326293
1.676264966
0.998674217
1.001628212
1.219891667
1.502142313
2.40481143
3.781269428
0.9342431512
0.3293746247
0.2261647538
0.2156306011
0.2242704258
0.2572217494
0.3244855538
0.4247729639
0.5175105518
0.5236959839
0.4172074341
0.2969591257
0.2131269423
0.4869013805
1.128353347
1.321108588
0.5290442408
0.08566327982
0.0257849487
0.03782065163
10.42918435
9.762900605
8.612586313
6.706456801
5.933376139
5.38736418
5.546847422
6.150920823
7.013940045
7.890855017
8.108646542
6.383270465
5.289902585
4.95336637
4.742052229
4.575465919
4.391022593
4.167105757
3.920224701
3.732345428
3.728456575
3.992814925
4.472511553
5.430667025
5.349352161
6.75816914
8.757642419
9.317253244
5.333411568
2.635639691
0.5427478396
)
;

boundaryField
{
    walls
    {
        type            zeroGradient;
    }
    wallFilmFace_top
    {
        type            zeroGradient;
    }
    region0_to_wallFilmRegion_wallFilmFace
    {
        type            zeroGradient;
    }
    mirrorFace_top
    {
        type            zeroGradient;
    }
    region0_to_wallFilmRegion_mirrorFace
    {
        type            zeroGradient;
    }
    procBoundary1to0
    {
        type            processor;
        value           nonuniform List<scalar> 
52
(
4.226484772
0.5685774421
1.001708519
0.12317477
0.08753481628
0.07701139755
0.06030316654
0.02903695717
0.02903695717
0.01736612295
0.007976057233
0.002449436366
0.0003068893195
0.0003068893195
0.0004936678696
0.005389247144
0.005389247144
0.03027119633
0.2020708887
0.3805802052
0.2966774408
0.2966774408
0.3398175144
0.4454344192
0.4454344192
0.3810837703
0.5249209398
1.293558791
1.156116586
1.156116586
0.9794957588
2.158135657
2.158135657
1.53003305
1.159626798
1.159626798
0.2418466395
1.17793264
1.258701694
1.258701694
1.552147673
1.552147673
0.8538236674
0.6608861171
0.7174918631
0.7174918631
0.3544717641
0.4306428166
0.2694173059
0.5127869664
0.2517254197
0.2529685741
)
;
    }
    procBoundary1to2
    {
        type            processor;
        value           nonuniform List<scalar> 
33
(
0.8319319793
1.60441693
1.60441693
1.864946952
1.864946952
1.06403764
1.019393954
1.413204412
1.413204412
0.1065609437
0.08166637224
0.03252992595
0.008732142951
0.001102925696
0.004353122742
0.01544851973
0.02873287667
0.09282445557
0.1492612999
0.09996392918
0.08198090116
0.114385996
0.1722721118
0.1925627789
0.1497117273
0.07552404939
0.06145161085
0.2285047185
0.01220056385
0.00341399868
0.01709278431
0.05137302091
0.07914537389
)
;
    }
}


// ************************************************************************* //
