/*--------------------------------*- C++ -*----------------------------------*\
  =========                 |
  \\      /  F ield         | OpenFOAM: The Open Source CFD Toolbox
   \\    /   O peration     | Website:  https://openfoam.org
    \\  /    A nd           | Version:  8
     \\/     M anipulation  |
\*---------------------------------------------------------------------------*/
FoamFile
{
    version     2.0;
    format      ascii;
    class       volScalarField;
    location    "1.5/wallFilmRegion";
    object      delta;
}
// * * * * * * * * * * * * * * * * * * * * * * * * * * * * * * * * * * * * * //

dimensions      [0 1 0 0 0 0 0];

internalField   nonuniform List<scalar> 
1369
(
0.003702202538
0.0003966649314
0.0005340290913
6.655226419e-05
5.115263952e-05
4.784517297e-05
3.998205446e-05
0.003459070725
0.0004191347505
0.0003839868863
5.856296108e-05
4.566062755e-05
4.211514192e-05
3.468238e-05
2.48791753e-05
1.48248343e-05
6.781738154e-06
2.017155369e-06
0.00330331762
0.0004236807167
0.0002331996842
5.054563183e-05
4.112427671e-05
3.685249023e-05
2.991402805e-05
2.141531002e-05
1.284886082e-05
5.909499545e-06
1.740438788e-06
2.307646574e-07
8.858477494e-07
0.003152196436
0.0004257863743
0.000130276379
4.234415554e-05
3.679444624e-05
3.230268474e-05
2.609408955e-05
1.880967129e-05
1.144558746e-05
5.341612453e-06
1.622018358e-06
2.691323196e-07
2.187101554e-06
1.215394533e-05
7.086321382e-05
0.0003373531639
0.000488617779
0.003001930149
0.0004513392533
8.17607043e-05
3.525141877e-05
3.21275912e-05
2.790713803e-05
2.262678182e-05
1.654825855e-05
1.030988564e-05
5.002555202e-06
1.718294361e-06
5.207272297e-07
6.748174627e-06
2.962691723e-05
0.0001677899419
0.0005098148651
0.0005016978249
0.0006615303712
0.0007426543044
0.002868766339
0.0004769216713
6.163571279e-05
2.838034162e-05
2.591664204e-05
2.247560597e-05
1.84143174e-05
1.377383299e-05
8.954252676e-06
4.83124621e-06
2.390660394e-06
2.070197328e-06
2.524668804e-05
7.133386533e-05
0.0002975726918
0.0005125340454
0.0003803418361
0.0005176838087
0.0007391215145
0.0004943576399
0.0004433999629
0.0005993803593
0.001110501155
0.00271830761
0.0004031814534
4.233579898e-05
1.907276231e-05
1.734879458e-05
1.509394486e-05
1.252277066e-05
9.624198778e-06
6.738052424e-06
4.822152642e-06
5.677289247e-06
1.471478112e-05
8.821996142e-05
0.0001402805426
0.0003052916176
0.0003058879477
0.0002599960952
0.0003760665242
0.0004709511374
0.0004437288233
0.0004071839628
0.0003767219586
0.001001870939
0.001068811306
0.001239721416
0.002456517364
0.0003065817146
1.943820509e-05
8.268312167e-06
7.411686319e-06
6.398498164e-06
5.266633866e-06
4.012706255e-06
2.940048763e-06
3.465319387e-06
1.157349605e-05
5.238235655e-05
0.0002090105024
0.0001452808419
0.0001354609395
0.0001057913506
0.00013635576
0.0002481569548
0.0003412791622
0.0003068246599
0.0004598831971
0.00067457446
0.001149869287
0.000709776249
0.0009080774898
0.002300817022
0.002076540014
0.0003657565317
1.292494605e-05
4.532817885e-06
4.002351694e-06
3.647267022e-06
3.438391094e-06
3.622646809e-06
5.253955933e-06
1.374641443e-05
6.08721634e-05
0.0001377811038
0.0001507365859
5.33859549e-05
2.982941422e-05
2.910355164e-05
4.792158529e-05
0.0001174723546
0.0003044695807
0.0005681604574
0.0002047639984
0.0009263102427
0.0009551039038
0.0004926195508
0.0004722850655
0.001754148676
0.001989003377
0.0003237617325
2.256130299e-05
8.875625177e-06
8.491865256e-06
8.946427798e-06
1.123839094e-05
1.937293533e-05
4.845996191e-05
0.000134721
0.0002133725347
0.0001621752125
6.342849993e-05
2.638693748e-05
1.38873961e-05
1.032423884e-05
1.192429477e-05
2.19219486e-05
5.562757926e-05
6.723919524e-05
1.880116496e-05
0.0003704736853
0.0009763719596
0.0004536511351
0.0003412597181
0.0008679371161
0.001416406876
0.002194663777
0.0003321720397
5.829076364e-05
2.82035602e-05
2.758793147e-05
3.116050783e-05
4.307610043e-05
7.740512551e-05
0.000164936546
0.0002170090185
0.0001630431067
7.639906109e-05
3.655240619e-05
1.855708371e-05
1.004081603e-05
6.13928369e-06
4.195676587e-06
3.427152995e-06
3.093701896e-06
2.426138829e-06
2.756413011e-06
7.195733023e-05
0.0007441616497
0.0002579901182
0.0004757085015
0.0009627116694
0.001969333167
0.002943132711
0.0005512663751
0.0004339815043
0.0004187636173
0.0004726066711
0.0005414502098
0.0005944673477
0.000581902979
0.0004393521268
0.0002360623305
8.80413941e-05
3.703384859e-05
2.533583849e-05
1.64842084e-05
1.053939704e-05
6.613395847e-06
3.876929345e-06
2.632790819e-06
2.117971338e-06
1.387575626e-06
1.073944276e-06
1.445294045e-05
0.0001383466696
0.0006188371533
0.0008773564435
0.0008286994947
0.001278277644
0.00247455021
0.0001689440423
0.0001647367223
0.0001406554768
0.0001487719216
0.0001595500107
0.0001516095363
0.0001237403468
8.318116232e-05
4.735695783e-05
2.796585492e-05
2.276723756e-05
2.088910372e-05
1.757623597e-05
1.355949614e-05
9.276680877e-06
4.724495422e-06
2.78842703e-06
2.163129305e-06
1.314500957e-06
1.184861869e-06
1.2443968e-05
4.388300673e-05
0.0003185910142
0.0005711576385
0.0009114007335
0.001279087998
0.001235274084
0.00232883424
0.0001269462471
0.0001881123004
6.219900649e-05
4.736392782e-05
4.461388685e-05
3.977043932e-05
3.207498827e-05
2.29132325e-05
1.591783597e-05
1.446172171e-05
1.78370954e-05
2.012325661e-05
2.106981244e-05
2.005575589e-05
1.62496452e-05
6.52132529e-06
3.244037296e-06
2.533886387e-06
1.448859937e-06
1.041364333e-06
4.713461116e-06
3.644054895e-05
0.0003655544808
0.0005517586713
0.0006559236273
0.001273632924
0.001285198413
0.0005745643573
0.001787008329
3.390463791e-05
0.0006528777963
5.676848375e-05
3.996481171e-05
3.734410571e-05
3.31113059e-05
2.63072894e-05
1.811215265e-05
1.174042448e-05
1.074348517e-05
1.5766367e-05
2.077548774e-05
2.626838683e-05
3.240358488e-05
3.647859073e-05
9.946235556e-06
4.04056139e-06
3.275507911e-06
2.002676242e-06
7.565825366e-07
6.179699591e-05
0.0001704344847
0.0001841233588
0.0003088406123
0.0007168557361
0.001274977059
0.001471352088
0.0007992862924
0.002052827675
0.0003517011846
0.0005423845466
4.727666737e-05
3.711061559e-05
3.536019609e-05
3.14811937e-05
2.45633334e-05
1.593339601e-05
8.993662915e-06
7.467007683e-06
1.406016356e-05
2.095435177e-05
3.022003553e-05
5.05562962e-05
0.0001034336369
1.590418502e-05
5.468884189e-06
4.836018891e-06
3.147863561e-06
1.031003233e-07
0.0001255137061
0.0004877213132
0.0003477154925
0.0004874471111
0.0008520617486
0.001232979461
0.001085220506
0.0006664892948
0.002616177792
0.0001018772214
5.116720139e-05
3.642422123e-05
3.617192824e-05
3.500668697e-05
3.105496002e-05
2.370543736e-05
1.441515613e-05
6.61700719e-06
3.834342676e-06
1.188298697e-05
2.00570031e-05
2.783404061e-05
6.12960928e-05
0.0003336978948
2.486081796e-05
8.514818185e-06
9.330192494e-06
7.204126402e-06
9.411831182e-07
0.0001547980687
0.0009109180918
0.0007686420793
0.0006570492268
0.0009156648335
0.001083650752
0.0008470756696
0.0006809659248
0.0002730162188
0.0001067202123
0.0001183491103
0.0002189634701
0.0002682221484
0.002751447095
6.079052916e-05
3.893539168e-05
3.595810253e-05
3.64213185e-05
3.522311275e-05
3.096877013e-05
2.313116087e-05
1.331755749e-05
4.990763064e-06
2.201509416e-06
1.025067743e-05
2.146753854e-05
3.080364008e-05
6.869581037e-05
0.0006347464579
3.638823929e-05
1.780674989e-05
2.72793678e-05
2.457466284e-05
1.589530994e-06
0.0002507930998
0.001449020843
0.001417066473
0.001143111504
0.001444678309
0.001067680468
0.0007677353787
0.0005042147481
7.978943267e-05
2.728541183e-05
5.659353236e-05
0.0001702684811
0.0002123770139
0.002810090887
5.339113184e-05
3.851492192e-05
3.783942576e-05
3.880889982e-05
3.777882198e-05
3.32999781e-05
2.492179969e-05
1.449083563e-05
5.482228938e-06
5.176971391e-06
1.70019021e-05
3.381789614e-05
4.901196046e-05
7.236944181e-05
0.0006038193539
5.34981624e-05
4.996966364e-05
8.713641397e-05
0.0001087578452
0.0002527268053
0.0004049558809
0.0009075805973
0.00111332264
0.001326612302
0.00218846077
0.001284491814
0.0008023129769
0.0004392280781
6.438188385e-05
1.004644102e-05
6.302185339e-05
0.0002171354327
0.0003885343721
0.003345475012
5.835180041e-05
4.106068929e-05
3.609503956e-05
3.561750238e-05
3.4919106e-05
3.278581927e-05
2.87220964e-05
2.425871769e-05
2.236450073e-05
2.216381474e-05
1.921958373e-05
1.447371147e-05
1.111846508e-05
1.743071664e-05
0.0002507166955
7.814837025e-05
0.0001347749863
0.0002154395149
0.0001738480382
0.0004484530255
0.0006431216502
0.0003943984327
0.001273359705
0.001369357061
0.0007246044756
0.001261220616
0.001192585276
0.000648329937
0.0001801453996
3.895269487e-05
0.0003038835536
0.0009103678966
0.004949302261
0.0003822824561
0.000201909583
0.0001120895669
7.049327234e-05
4.936468898e-05
3.889009516e-05
3.172020856e-05
2.449914893e-05
1.685426444e-05
1.047094735e-05
7.252884936e-06
7.10143082e-06
1.075471477e-05
2.179125869e-05
5.509351413e-05
0.0001372475977
0.0002857701848
0.00043496166
0.0004056443147
0.0005987776843
0.001000862725
0.0006330968194
0.00119690465
0.001609584135
0.0009960197119
0.001308222162
0.001730593034
0.00142402938
0.0009959892798
0.00112807518
0.001769806847
0.005729422163
0.0008970368479
0.0007416067226
0.000463242671
0.000232824532
0.0001070315059
5.751068188e-05
3.651740028e-05
2.272348329e-05
1.110063665e-05
3.84315938e-06
3.405065265e-06
5.817569784e-06
1.437815288e-05
3.778835954e-05
0.0001003665555
0.0002299371094
0.0004299157688
0.0006698880842
0.00101791872
0.0009073626222
0.001236030859
0.00102664822
0.001187596104
0.001307957221
0.002383375943
0.001835137124
0.002798988259
0.002552161872
0.001758674937
0.00139840768
0.00100178071
0.004587827133
0.0003806837232
0.0003873130163
0.000367394375
0.0002945889422
0.0001780893564
9.508551019e-05
5.125983467e-05
2.728222046e-05
1.2432977e-05
5.165824324e-06
4.630353173e-06
8.573419877e-06
2.339703928e-05
6.113833836e-05
0.0001429640238
0.0002760910254
0.0004563068195
0.0007419626335
0.001493903694
0.001143666761
0.001315882394
0.001068201286
0.00115317466
0.001119683928
0.001693054689
0.002212116552
0.002962331245
0.0025480118
0.001717305593
0.00128585198
0.001013617293
0.003827297928
0.0001921489257
0.0002168014624
0.0002556654437
0.0002757567622
0.0002233357792
0.000142674223
7.775096054e-05
3.782954945e-05
1.594781679e-05
6.757202584e-06
6.824700101e-06
1.448268152e-05
3.632188382e-05
8.04456196e-05
0.0001511487814
0.0002364298883
0.0003452440632
0.0005667051749
0.001293835245
0.001464970523
0.001398197791
0.001234760191
0.001405051751
0.001630193876
0.002359091787
0.00259758476
0.003208227497
0.002997963208
0.002653772336
0.002081281016
0.003378545856
9.421245674e-05
0.0001101532757
0.0001499304509
0.0002048065427
0.0002142125195
0.0001686126128
0.0001029286717
5.01152272e-05
2.068107092e-05
9.886082089e-06
1.21341909e-05
2.45474871e-05
4.66346023e-05
7.934903052e-05
0.0001151879234
0.0001461406048
0.0001829428314
0.0002825811833
0.0006814231673
0.002199773793
0.001536669902
0.001273561199
0.001318059445
0.001349641708
0.001723038479
0.002258745352
0.002958761288
0.002823022814
0.001167959015
0.0003516798252
0.003068338786
4.155248835e-05
4.599743214e-05
6.524831607e-05
0.0001121140685
0.0001518317014
0.0001501963539
0.0001088267762
5.943160146e-05
2.672207693e-05
1.503541574e-05
1.733265257e-05
2.746470713e-05
4.234368033e-05
5.797095031e-05
6.629512752e-05
6.825526543e-05
7.08568166e-05
9.594227214e-05
0.0002660685375
0.001647864592
0.001098077217
0.0009995884247
0.001096270228
0.001020492179
0.001228755663
0.001058008467
0.00124224619
0.001323134636
9.070315217e-05
6.10392136e-05
0.003225746537
2.339954048e-05
1.480860459e-05
1.745068597e-05
3.16649815e-05
5.6216652e-05
9.091452148e-05
0.0001552788347
0.0002815158618
0.000117601974
8.100556425e-05
7.997205291e-05
7.632879668e-05
6.804592908e-05
5.857453887e-05
4.908067312e-05
3.918975808e-05
2.976441221e-05
2.150089547e-05
1.443486502e-05
0.0002473301491
0.0005227246058
0.001222608009
0.001752050064
0.001365944992
0.001179073223
0.001192914765
0.0008739894634
0.0005556754986
1.538697086e-05
1.106754692e-05
0.003533738807
3.879208744e-05
1.661658213e-05
1.041285739e-05
1.028422792e-05
1.247933832e-05
2.046751428e-05
9.270151318e-05
0.0004299157729
0.0001380267306
9.044822091e-05
9.145816711e-05
9.28623192e-05
8.974837765e-05
8.322265939e-05
7.591919473e-05
6.74039013e-05
5.88717587e-05
5.490829533e-05
7.39865089e-05
0.0002136256541
0.0003912042639
0.0003779508527
0.0002215664909
0.000584224991
0.001345317428
0.001281552321
0.0005835886453
6.71335816e-05
1.066270079e-06
4.588229784e-06
0.003821862939
5.527023405e-05
2.179955055e-05
1.21030385e-05
9.173144803e-06
8.012907465e-06
1.117980574e-05
9.079029594e-05
0.0002283854649
0.0001030621894
7.885163672e-05
8.314897673e-05
8.807054304e-05
9.106394412e-05
9.040093398e-05
8.682208287e-05
8.145595112e-05
7.476796466e-05
6.939786754e-05
6.719715911e-05
7.006199642e-06
1.930170556e-05
0.0002634739429
0.0008026727725
0.0004845216496
0.0008768568633
0.0004723613391
4.166529246e-05
1.621262778e-06
8.997958006e-08
1.382126058e-06
0.004047815006
7.44629286e-05
2.83261974e-05
1.618568091e-05
1.31552194e-05
1.390231232e-05
2.275452326e-05
5.779554631e-05
9.072667197e-05
6.755153493e-05
6.508199596e-05
7.470626649e-05
8.233285488e-05
8.772299498e-05
9.083718068e-05
9.067675811e-05
8.782544435e-05
8.326156146e-05
7.823169645e-05
7.133786742e-05
7.061037682e-06
0.0002516545561
0.0006774872465
0.001362133596
0.0005306795901
0.0003557192943
0.0001043722418
3.555435276e-06
8.71257702e-06
6.603449527e-06
5.323203675e-06
0.00423541819
9.706363671e-05
3.540777497e-05
2.011800809e-05
1.615578592e-05
1.595582947e-05
2.056646756e-05
3.269337793e-05
4.302719067e-05
4.358290561e-05
5.250786266e-05
6.880556948e-05
8.162465916e-05
8.889360121e-05
9.222849733e-05
9.320577941e-05
9.164118645e-05
8.84741529e-05
8.466084953e-05
8.144919332e-05
8.184186786e-05
2.770346438e-05
0.0002551636251
0.00118775325
0.0004595860108
0.0001456954102
0.0001500341952
3.27732398e-05
6.450359584e-05
3.704535357e-05
2.108258758e-05
0.004438572625
0.0001241296579
4.303886383e-05
2.311719598e-05
1.708280436e-05
1.467689316e-05
1.566640256e-05
2.033581472e-05
2.607155242e-05
3.188950124e-05
4.457662455e-05
6.593611964e-05
8.655163934e-05
9.796388259e-05
9.896453054e-05
9.728548807e-05
9.557371389e-05
9.285673784e-05
8.735156321e-05
7.515968649e-05
1.998585407e-06
9.825775882e-06
8.419736636e-05
0.0009011608758
0.0006744223803
0.00074804079
0.0004313835866
0.0004107521882
0.001162502893
0.000145658906
7.166026489e-05
0.004708439836
0.0001568304451
5.120336932e-05
2.5303547e-05
1.695091594e-05
1.284338197e-05
1.223879193e-05
1.47738187e-05
1.977039357e-05
2.813245177e-05
4.413203081e-05
7.14780096e-05
0.000104738059
0.0001205242773
0.000110053379
0.000100837271
9.951090341e-05
9.800470673e-05
8.995380236e-05
7.044091025e-05
1.00282776e-07
6.084931377e-07
1.018827786e-05
0.0008047189182
0.001281658714
0.002428252694
0.001408740099
0.00192043211
0.001950865731
0.000454478765
0.0002272299725
0.005005466692
0.0001985941498
6.126097082e-05
2.786113814e-05
1.725449707e-05
1.142233785e-05
1.028282725e-05
1.223058747e-05
1.720641049e-05
2.780015942e-05
4.951344274e-05
8.776175629e-05
0.0001370574811
0.0001525919436
0.0001226084151
0.000101106738
0.0001000090481
0.0001022121361
9.273861002e-05
6.610083596e-05
4.646331326e-09
1.865838537e-08
2.42632685e-06
0.000377191334
0.001660391941
0.001267914513
0.001075174812
0.001129979765
0.0007030363622
0.0006200777859
0.0002618201882
0.005833576368
0.0003738574174
0.0001217311593
5.157476984e-05
2.834543511e-05
1.476815997e-05
9.253240448e-06
1.107344312e-05
1.591238954e-05
2.777443667e-05
5.501711006e-05
0.0001057148718
0.0001701960015
0.0001861158606
0.0001379477833
9.952640622e-05
9.641350899e-05
0.0001025259133
9.341208498e-05
6.152280677e-05
3.659074317e-09
6.868820458e-09
9.765100396e-07
4.702835541e-05
7.289377435e-05
0.0001350395626
0.0008279137057
0.000563210953
0.0004319073868
0.0007307661198
0.0002171467848
0.007463868723
0.001986475108
0.002215680972
0.001990551297
0.002174229719
0.0007890624587
2.779315019e-05
2.637499581e-05
3.439154923e-05
4.265683842e-05
5.671795497e-05
0.0001175930424
0.0001963498066
0.0002204335626
0.0001660779812
0.0001090663553
9.593586401e-05
0.0001023046847
9.198192143e-05
5.608058428e-05
2.593773956e-09
3.158022344e-09
4.705225919e-07
1.394048335e-05
5.679081225e-06
7.37237339e-06
0.0005682264114
0.0005605577631
0.0003374555955
0.0009231752193
0.0002496939648
0.006906186127
0.001671232982
0.003452338618
0.003156927389
0.003647810183
0.003662865008
0.001151119091
0.000576043419
0.0002516516934
8.218745815e-05
5.070759451e-05
0.0001187498944
0.0002097705819
0.0002535203795
0.0002102940261
0.0001472023851
0.0001195142736
0.0001116444323
8.809309214e-05
4.737625055e-05
1.906081648e-06
1.523849324e-06
2.266508558e-06
5.084865735e-06
3.967565062e-07
1.314436035e-07
0.0001126481606
0.000189960316
0.0002219237353
0.001024021736
0.0007333616564
0.005581061291
0.0005357960957
0.002948715348
0.00222485893
0.003124115397
0.003901917234
0.004231009494
0.0008491763932
0.0001166466413
2.905294024e-05
4.668835035e-05
0.0001097139398
0.0002064371358
0.0002754202061
0.0002574534549
0.0002033792565
0.0001656238851
0.0001280666904
7.767247369e-05
3.550373981e-05
6.671753642e-06
4.910504607e-06
4.506394882e-06
4.206631473e-06
1.297085731e-06
5.078086701e-07
3.841288462e-05
0.0001053892916
0.0001972564041
0.0008631064326
0.001161384331
0.004919755477
0.0004853735979
0.002254230047
0.002521292559
0.003370145713
0.003652008881
0.004763231688
0.003107978662
0.0001092832888
2.685563018e-05
4.256361424e-05
9.268265754e-05
0.0001836586903
0.000273365073
0.0002836145432
0.0002434550125
0.0001965728323
0.0001333155891
6.951084607e-05
3.525249266e-05
1.908592879e-05
1.47716693e-05
1.073720283e-05
6.84566067e-06
2.996555329e-06
1.243092892e-06
3.217986592e-05
9.966871775e-05
0.0002101699646
0.0007047746797
0.0007717978395
0.00455069015
0.0004630022237
0.001521723688
0.002743133031
0.003559585788
0.004725815114
0.006907202413
0.003810408739
0.0002470018572
1.910984332e-05
3.161308618e-05
9.222894196e-05
0.0001908675301
0.000249465766
0.0002709795025
0.0002417716548
0.0001886657667
0.0001221190197
7.53001913e-05
5.798075414e-05
5.200057501e-05
4.465507906e-05
3.012967867e-05
1.557692894e-05
6.212740337e-06
2.912583353e-06
4.367040429e-05
0.0001028764689
0.0001830505763
0.0003137698595
0.0002042564076
0.004563342194
0.0004390352324
0.002779663385
0.003309045451
0.003922409941
0.004252887633
0.00453353929
0.006375610102
0.002914855671
8.038953254e-05
3.989329496e-05
0.0001671635052
0.0002226509965
0.0001989395356
0.0002193347422
0.0001968971394
0.0001436741223
9.921392825e-05
8.433752985e-05
9.584959608e-05
0.0001196279527
0.0001249499452
9.129212707e-05
4.228990115e-05
1.316585194e-05
7.61831377e-06
5.559959695e-05
7.959861386e-05
0.000106096796
0.0001039641892
9.615891224e-05
0.004890117401
0.0005061778442
0.003113327034
0.003799429617
0.004089414599
0.004302926221
0.004289557957
0.004111048986
0.005540329
0.001169488567
0.0002012662536
0.0003412013963
0.0002090119309
0.0001343589296
0.0001492080365
0.0001322753491
9.369985551e-05
7.148037652e-05
7.538228135e-05
0.0001118488909
0.0001907348363
0.0002748400387
0.0002418603624
0.0001057159463
2.897112874e-05
2.033262235e-05
5.347515783e-05
4.795966758e-05
6.266751453e-05
3.629908672e-05
5.707756343e-05
0.005435748648
0.0009076792637
0.003424349444
0.004064352817
0.00411894266
0.004036113381
0.004005076898
0.003612583582
0.003992315468
0.004481840343
0.001039824501
0.0004217710826
0.0001569174925
8.433894309e-05
9.146709489e-05
8.134358392e-05
5.876547467e-05
4.5847126e-05
5.181752925e-05
8.834519171e-05
0.0001962313157
0.0004102330966
0.000523099089
0.0003703170557
6.169304489e-05
4.294962444e-05
4.40964636e-05
2.767118847e-05
4.811230027e-05
1.065223487e-05
2.718388987e-05
0.006160979092
0.00237175481
0.004716338757
0.00458738655
0.004250547542
0.003798580679
0.003429036912
0.003009213272
0.002828675603
0.005696161348
0.002506096589
0.0003842212901
0.0001045958146
5.494396796e-05
5.705731303e-05
5.1279523e-05
3.821221872e-05
2.915915833e-05
3.097068006e-05
5.368545449e-05
0.0001463641024
0.0004502941618
0.0009037644031
0.0008787821357
0.0001197675699
7.712666812e-05
4.311903703e-05
2.305465805e-05
2.303515757e-05
3.916990037e-06
4.233973002e-05
0.006929491559
0.004054727948
0.005532949639
0.00471346793
0.004186076484
0.003631895809
0.002954106121
0.002595814201
0.002241880497
0.003706004333
0.003217326096
0.0003325648788
6.944076051e-05
3.801774001e-05
3.782898861e-05
3.44415364e-05
2.700591147e-05
2.068024369e-05
1.935407219e-05
2.629716277e-05
5.08548381e-05
0.0001047736519
0.0001496585184
0.0002246614686
0.0001928544019
0.0001285256157
6.075103976e-05
4.156962365e-05
1.589751231e-05
3.271754609e-06
0.0001249455567
0.007866040241
0.005404755542
0.006077323418
0.004711883417
0.004372891516
0.003281669415
0.002090477867
0.002159957221
0.002829081808
0.003886722137
0.003836234915
0.0004200192901
8.538367613e-05
5.318006434e-05
5.471338037e-05
6.243662866e-05
8.45911364e-05
0.0001195409679
0.0001474676701
0.0001617602488
0.0001603388845
0.000135566835
8.590904056e-05
6.166530729e-05
0.0003554681154
0.0008493142689
0.0009734838899
0.0003187133106
8.746579881e-05
1.800374224e-05
0.0001167854252
0.009036556343
0.007325834216
0.006122218063
0.003903326293
0.001676264966
0.000998674217
0.001001628212
0.001219891667
0.001502142313
0.00240481143
0.003781269428
0.0009342431512
0.0003293746247
0.0002261647538
0.0002156306011
0.0002242704258
0.0002572217494
0.0003244855538
0.0004247729639
0.0005175105518
0.0005236959839
0.0004172074341
0.0002969591257
0.0002131269423
0.0004869013805
0.001128353347
0.001321108588
0.0005290442408
8.566327982e-05
2.57849487e-05
3.782065163e-05
0.01042918435
0.009762900605
0.008612586313
0.006706456801
0.005933376139
0.00538736418
0.005546847422
0.006150920823
0.007013940045
0.007890855017
0.008108646542
0.006383270465
0.005289902585
0.00495336637
0.004742052229
0.004575465919
0.004391022593
0.004167105757
0.003920224701
0.003732345428
0.003728456575
0.003992814925
0.004472511553
0.005430667025
0.005349352161
0.00675816914
0.008757642419
0.009317253244
0.005333411568
0.002635639691
0.0005427478396
)
;

boundaryField
{
    walls
    {
        type            zeroGradient;
    }
    wallFilmFace_top
    {
        type            zeroGradient;
    }
    region0_to_wallFilmRegion_wallFilmFace
    {
        type            zeroGradient;
    }
    mirrorFace_top
    {
        type            zeroGradient;
    }
    region0_to_wallFilmRegion_mirrorFace
    {
        type            zeroGradient;
    }
    procBoundary1to0
    {
        type            processor;
        value           nonuniform List<scalar> 
52
(
0.004226484772
0.0005685774421
0.001001708519
0.00012317477
8.753481628e-05
7.701139755e-05
6.030316654e-05
2.903695717e-05
2.903695717e-05
1.736612295e-05
7.976057233e-06
2.449436366e-06
3.068893195e-07
3.068893195e-07
4.936678696e-07
5.389247144e-06
5.389247144e-06
3.027119633e-05
0.0002020708887
0.0003805802052
0.0002966774408
0.0002966774408
0.0003398175144
0.0004454344192
0.0004454344192
0.0003810837703
0.0005249209398
0.001293558791
0.001156116586
0.001156116586
0.0009794957588
0.002158135657
0.002158135657
0.00153003305
0.001159626798
0.001159626798
0.0002418466395
0.00117793264
0.001258701694
0.001258701694
0.001552147673
0.001552147673
0.0008538236674
0.0006608861171
0.0007174918631
0.0007174918631
0.0003544717641
0.0004306428166
0.0002694173059
0.0005127869664
0.0002517254197
0.0002529685741
)
;
    }
    procBoundary1to2
    {
        type            processor;
        value           nonuniform List<scalar> 
33
(
0.0008319319793
0.00160441693
0.00160441693
0.001864946952
0.001864946952
0.00106403764
0.001019393954
0.001413204412
0.001413204412
0.0001065609437
8.166637224e-05
3.252992595e-05
8.732142951e-06
1.102925696e-06
4.353122742e-06
1.544851973e-05
2.873287667e-05
9.282445557e-05
0.0001492612999
9.996392918e-05
8.198090116e-05
0.000114385996
0.0001722721118
0.0001925627789
0.0001497117273
7.552404939e-05
6.145161085e-05
0.0002285047185
1.220056385e-05
3.41399868e-06
1.709278431e-05
5.137302091e-05
7.914537389e-05
)
;
    }
}


// ************************************************************************* //
