/*--------------------------------*- C++ -*----------------------------------*\
  =========                 |
  \\      /  F ield         | OpenFOAM: The Open Source CFD Toolbox
   \\    /   O peration     | Website:  https://openfoam.org
    \\  /    A nd           | Version:  8
     \\/     M anipulation  |
\*---------------------------------------------------------------------------*/
FoamFile
{
    version     2.0;
    format      ascii;
    class       volVectorField;
    location    "1.5/wallFilmRegion";
    object      U;
}
// * * * * * * * * * * * * * * * * * * * * * * * * * * * * * * * * * * * * * //

dimensions      [0 1 -1 0 0 0 0];

internalField   nonuniform List<vector> 
1369
(
(-0.2855961301 -0.3934693854 0)
(-0.4243917418 0.2558314374 0)
(-0.6405896204 -0.6809474711 0)
(-0.964108937 -1.184631094 0)
(-1.026203418 -1.115425519 0)
(-1.068097851 -1.066492763 0)
(-1.106665135 -1.021279149 0)
(-0.2705723745 -0.3831286963 0)
(-0.434836302 0.1093433082 0)
(-0.6358882998 -0.7887528826 0)
(-0.9001769526 -1.209591115 0)
(-0.9532921531 -1.141864949 0)
(-0.9919000143 -1.089467037 0)
(-1.026517589 -1.039462211 0)
(-1.059461727 -0.9911789675 0)
(-1.098904462 -0.942788272 0)
(-1.159815091 -0.8913978544 0)
(-1.23887708 -0.8326459409 0)
(-0.2519617331 -0.3658669545 0)
(-0.4252662178 -0.02252320963 0)
(-0.642001955 -0.9800357549 0)
(-0.8223351285 -1.241440383 0)
(-0.8638300366 -1.173757307 0)
(-0.8967664955 -1.11557288 0)
(-0.9254444101 -1.058839468 0)
(-0.9531207787 -1.00381838 0)
(-0.9893752486 -0.9498585294 0)
(-1.052146823 -0.8948048808 0)
(-1.148985584 -0.8349603351 0)
(-0.7791828598 -0.731758349 0)
(-0.6013868645 0.6059716535 0)
(-0.2315204989 -0.3424300929 0)
(-0.3896254191 -0.0997856023 0)
(-0.6625983837 -1.242203656 0)
(-0.732542804 -1.27762049 0)
(-0.7638385379 -1.208203101 0)
(-0.7901198744 -1.142402943 0)
(-0.8120336839 -1.07786882 0)
(-0.8329499271 -1.015660247 0)
(-0.8618219579 -0.9558922306 0)
(-0.9160905879 -0.8965892716 0)
(-1.011144306 -0.832267863 0)
(-0.6418288299 -0.7500467814 0)
(-0.4993889165 0.6870635092 0)
(-0.3996644229 0.5816803192 0)
(-0.3330535765 0.3880531753 0)
(-0.3254443206 0.138612737 0)
(-0.2093790322 0.04338820053 0)
(-0.2103911117 -0.3137002317 0)
(-0.3339845631 -0.1372505623 0)
(-0.6082575448 -1.42279242 0)
(-0.638396261 -1.317844562 0)
(-0.6625605298 -1.243244243 0)
(-0.6823366048 -1.168643363 0)
(-0.6977079328 -1.095980977 0)
(-0.7111297129 -1.026764153 0)
(-0.7287233675 -0.9612528582 0)
(-0.762330137 -0.897084508 0)
(-0.8248665481 -0.8257765961 0)
(-0.4976106791 -0.7021146175 0)
(-0.3915813517 0.4660472212 0)
(-0.3517064929 0.4705462931 0)
(-0.3177100923 0.3380742467 0)
(-0.327617599 -0.01048461332 0)
(-0.1788994464 -0.07971699272 0)
(-0.02771612845 -0.0920031247 0)
(0.1595959212 -0.08724280798 0)
(-0.1897615319 -0.2895885809 0)
(-0.2775355768 -0.1888900523 0)
(-0.5012781407 -1.493172574 0)
(-0.5476538796 -1.363938768 0)
(-0.5659781479 -1.280422467 0)
(-0.5801295084 -1.196338255 0)
(-0.5899089965 -1.11524208 0)
(-0.5963022713 -1.038651536 0)
(-0.6010210075 -0.9663335597 0)
(-0.6040785867 -0.8950209721 0)
(-0.5793798473 -0.8123455645 0)
(0.3286229532 -0.5662312786 0)
(-0.3622782022 0.1767868254 0)
(-0.3554112394 0.3477287068 0)
(-0.4025202595 0.234597026 0)
(-0.3540158579 -0.1153905361 0)
(-0.2380637001 -0.1209706681 0)
(-0.1353982547 -0.09685940634 0)
(0.006986706839 -0.08498406646 0)
(0.1965011303 -0.1074110685 0)
(0.1480156387 -0.09328319775 0)
(0.04068934344 -0.06970948308 0)
(-0.09656448035 -0.04122873977 0)
(-0.169612398 -0.2856387633 0)
(-0.2436854458 -0.2910821401 0)
(-0.4227049242 -1.568593608 0)
(-0.4601096761 -1.423051233 0)
(-0.4739750317 -1.32868067 0)
(-0.4841583558 -1.23435747 0)
(-0.4904667685 -1.143739763 0)
(-0.4926059779 -1.057977288 0)
(-0.4872475988 -0.9751968998 0)
(-0.4516518464 -0.8865876429 0)
(-0.2515670354 -0.736223094 0)
(0.1275199098 -0.2986718543 0)
(-0.3970855631 -0.04661972524 0)
(-0.3933072098 0.1669782806 0)
(-0.4675049076 0.08192898635 0)
(-0.423799061 -0.1889143504 0)
(-0.3187503011 -0.146060463 0)
(-0.2126216566 -0.1089071281 0)
(-0.09450243612 -0.08865099248 0)
(0.1636136023 -0.09255653447 0)
(0.09929993946 -0.08823448395 0)
(-0.07416337107 -0.03983423534 0)
(-0.1009506211 -0.06517027562 0)
(-0.04467149434 -0.07096477107 0)
(0.08125143277 -0.08211212308 0)
(-0.142757557 -0.2896582929 0)
(-0.1733639342 -0.2303373871 0)
(-0.3382836157 -1.668552819 0)
(-0.3664898599 -1.529998195 0)
(-0.3778388111 -1.423416275 0)
(-0.386056716 -1.315605641 0)
(-0.3917519594 -1.21085089 0)
(-0.3957270206 -1.111736049 0)
(-0.3986748156 -1.017053218 0)
(-0.3961840713 -0.9102390569 0)
(-0.3629060131 -0.5867964727 0)
(-0.3972489972 -0.05525984557 0)
(-0.437549804 -0.1878977516 0)
(-0.5649620885 -0.1579151039 0)
(-0.5891749315 -0.1693606579 0)
(-0.5588703988 -0.2449716272 0)
(-0.4380936149 -0.1649023246 0)
(-0.2938724262 -0.1126414084 0)
(-0.1767786354 -0.0941516722 0)
(-0.03282585995 -0.04569398613 0)
(-0.1426556446 0.05474612832 0)
(-0.07304566977 0.05789799722 0)
(-0.09426690323 -0.06158386562 0)
(-0.09044472562 -0.050340498 0)
(-0.01444554671 -0.07705790961 0)
(0.1012591427 -0.04550065341 0)
(-0.1157177155 -0.3048435554 0)
(-0.07392637135 0.1956291711 0)
(0.3325712077 -1.48776992 0)
(0.3653175427 -1.483409614 0)
(0.3834957265 -1.409624522 0)
(0.3980250725 -1.309629382 0)
(0.4095636887 -1.199407582 0)
(0.419558396 -1.088187501 0)
(0.4161225433 -0.9643440548 0)
(0.1716961934 -0.6982573488 0)
(-0.2990803008 -0.4447788097 0)
(-0.475881282 -0.4077786478 0)
(-0.6047154384 -0.4853121077 0)
(-0.6700277788 -0.5347362029 0)
(-0.6742214231 -0.4442953938 0)
(-0.6189059514 -0.3077953804 0)
(-0.5186416933 -0.1797698942 0)
(-0.4363327611 -0.05834504003 0)
(-0.2380347523 -0.09202680935 0)
(-0.1140300436 -0.05372244569 0)
(-0.2354319471 0.01572958662 0)
(-0.1094225204 0.01412541134 0)
(-0.08956527205 -0.07360933455 0)
(-0.10150414 -0.06864354743 0)
(-0.1125310819 -0.07974515209 0)
(-0.1089576729 0.02506942965 0)
(-0.09446744923 -0.312123025 0)
(-0.0146736729 0.1559569179 0)
(0.4548239965 -1.396095948 0)
(0.5155453525 -1.361608781 0)
(0.5382277623 -1.281195057 0)
(0.5419778237 -1.160961977 0)
(0.4826088977 -0.9832899315 0)
(0.2725027226 -0.7376777458 0)
(-0.01409487981 -0.541508898 0)
(-0.2010713411 -0.4649548358 0)
(-0.3738096285 -0.4729727059 0)
(-0.5748214323 -0.5384130528 0)
(-0.668454402 -0.5940261176 0)
(-0.6799339561 -0.5767380652 0)
(-0.7324949957 -0.5421134095 0)
(-0.75028413 -0.4518812318 0)
(-0.6843149594 -0.3125664725 0)
(-0.5581942418 -0.1840100659 0)
(-0.4524513377 -0.1224894933 0)
(-0.4037320773 -0.1838234177 0)
(-0.2150846923 0.02235785502 0)
(-0.1055634719 0.07020031996 0)
(-0.06850841182 -0.083645957 0)
(-0.05159469096 -0.09716465346 0)
(-0.05169130566 -0.07423349705 0)
(-0.08793891318 0.01981592918 0)
(-0.474998873 0.01246784993 0)
(-0.07440063356 -0.3235131699 0)
(0.1118052385 -0.2572996475 0)
(0.6168812257 -1.267485305 0)
(0.665939602 -1.20790114 0)
(0.6516479115 -1.111665148 0)
(0.5820272298 -0.9728356693 0)
(0.4259302144 -0.8057483602 0)
(0.178718003 -0.6551237707 0)
(-0.07595195647 -0.5734082988 0)
(-0.2817513857 -0.5598516299 0)
(-0.5153931378 -0.5806111343 0)
(-0.7142500919 -0.6006202729 0)
(-0.6687919221 -0.5860445377 0)
(-0.6624654198 -0.5832122484 0)
(-0.7279998886 -0.587152793 0)
(-0.8214663099 -0.5738765809 0)
(-0.9063295421 -0.5213339573 0)
(-0.9315329395 -0.4364286855 0)
(-0.8572315829 -0.3431267151 0)
(-0.6309913571 -0.2186861108 0)
(-0.1579995646 0.06993788784 0)
(-0.2779289718 0.2584814076 0)
(-0.05738608992 0.01581004547 0)
(-0.03793336644 -0.00369066408 0)
(-0.04079378199 -0.1615303401 0)
(-0.05132364884 -0.4523767508 0)
(-0.02831759756 -0.02930629605 0)
(-0.07027447291 -0.4315643765 0)
(-0.06377462205 -0.7698341048 0)
(0.0316284477 -0.9180469103 0)
(0.02200295183 -0.9019969542 0)
(-0.01023774196 -0.8603350263 0)
(-0.07957683604 -0.8103021833 0)
(-0.1622350482 -0.7578960297 0)
(-0.2484259708 -0.7085327678 0)
(-0.3465021594 -0.6652015856 0)
(-0.4753219745 -0.631724342 0)
(-0.6600747745 -0.6269379287 0)
(-0.7191809271 -0.5769115788 0)
(-0.6393872619 -0.5602572108 0)
(-0.6109441139 -0.5582255741 0)
(-0.6635156483 -0.5707516137 0)
(-0.7690204754 -0.5868530689 0)
(-0.9127800197 -0.576710658 0)
(-1.02034459 -0.5189469501 0)
(-1.082451947 -0.4509486067 0)
(-0.9884405678 -0.3115882231 0)
(-0.1118871019 0.192394956 0)
(-0.1789973015 0.2461810572 0)
(-0.1763939679 0.2378549335 0)
(0.00482963986 0.08747540395 0)
(0.02070241468 0.07107591473 0)
(0.002582288133 0.08431961134 0)
(0.377785895 0.07632722426 0)
(-0.05834507221 -0.4785049753 0)
(-0.3743568981 -0.6222053758 0)
(-0.6000336674 -0.861145689 0)
(-0.9212875842 -0.9811500873 0)
(-1.000295319 -0.9292453791 0)
(-1.044034422 -0.8833605766 0)
(-1.074316505 -0.8381324214 0)
(-1.093288493 -0.8065974817 0)
(-1.074334465 -0.7703425312 0)
(-0.9704371319 -0.6903165709 0)
(-0.7959858805 -0.5985318457 0)
(-0.6755889158 -0.5474483497 0)
(-0.5774747519 -0.518139754 0)
(-0.530084848 -0.5067828693 0)
(-0.5559788327 -0.510457597 0)
(-0.6434340718 -0.5389063575 0)
(-0.8542223992 -0.6014892586 0)
(-0.9965698345 -0.5463249569 0)
(-1.099221502 -0.4939266468 0)
(-1.131317367 -0.399453703 0)
(0.02202424175 0.1610779458 0)
(0.04202277105 0.1360961576 0)
(0.05044652772 0.07234144251 0)
(-0.06215922957 0.09924508917 0)
(-0.04667314546 0.1304526081 0)
(-0.006546518444 0.06948108269 0)
(-0.04104847363 0.09700247973 0)
(-0.04957336915 0.15158581 0)
(-0.01538635934 -0.5785271467 0)
(-0.2757927739 -0.5056784059 0)
(-0.3182778687 -0.7355006812 0)
(-0.8353429606 -1.176765427 0)
(-0.9100212661 -1.124319909 0)
(-0.9485120314 -1.055859567 0)
(-0.9730951223 -0.9831030542 0)
(-0.9849699526 -0.9069105659 0)
(-0.9750093104 -0.8192059202 0)
(-0.9035073574 -0.7015854502 0)
(-0.7284800655 -0.5688102326 0)
(-0.6079581048 -0.4991731572 0)
(-0.4966446786 -0.4543847954 0)
(-0.4330503708 -0.4244517924 0)
(-0.4258631847 -0.4020769738 0)
(-0.4656154216 -0.411055469 0)
(-0.7408278202 -0.617181392 0)
(-0.9183568 -0.5614907295 0)
(-1.027974725 -0.5126279504 0)
(-1.158183735 -0.4513669626 0)
(-0.2359726435 0.3687426714 0)
(-0.12328162 0.1518435712 0)
(-0.07009835576 -0.06071214563 0)
(-0.03382383946 -0.04646835712 0)
(-0.007982034258 -0.02295145495 0)
(0.0004401975695 -0.05998825391 0)
(0.03575318676 0.03832333781 0)
(0.03533561573 0.05565990352 0)
(0.07766462212 0.08103083437 0)
(0.06643814798 -0.6964933576 0)
(0.06637346271 0.7006460635 0)
(-0.159665029 -0.5641197295 0)
(-0.735676897 -1.24061857 0)
(-0.7757579218 -1.180801381 0)
(-0.7962838682 -1.097547371 0)
(-0.8113620356 -1.014727111 0)
(-0.8250508955 -0.931088529 0)
(-0.8359374949 -0.8356015433 0)
(-0.8125934136 -0.7010384121 0)
(-0.6657723218 -0.5201827842 0)
(-0.5355016984 -0.4166846521 0)
(-0.4185586422 -0.3631020734 0)
(-0.3434872082 -0.3174704787 0)
(-0.3133009714 -0.2685184348 0)
(-0.3104169386 -0.2384612679 0)
(-0.6085333834 -0.6031199389 0)
(-0.7881249633 -0.5644913404 0)
(-0.872577456 -0.5072102606 0)
(-0.9391523984 -0.4225431479 0)
(-0.08537215736 0.04907372295 0)
(0.2965604872 0.08631081157 0)
(0.2151049948 -0.08867805592 0)
(0.110094545 -0.1103284812 0)
(0.09020009258 0.06472559584 0)
(0.07244371376 -0.03962940441 0)
(0.1241188153 0.003529618768 0)
(0.07264011455 -0.001024160511 0)
(0.08812873921 0.08338901249 0)
(0.05876165074 -0.7476729103 0)
(-0.08349940346 -0.6064200412 0)
(-0.1151653375 -0.7235460125 0)
(-0.6040003714 -1.295256036 0)
(-0.6162920789 -1.216004151 0)
(-0.6275765886 -1.122789344 0)
(-0.6384016558 -1.034871635 0)
(-0.6521632718 -0.9484515292 0)
(-0.6723854336 -0.8488338894 0)
(-0.6870385515 -0.6938979989 0)
(-0.5884810631 -0.4169907637 0)
(-0.46213961 -0.2615015691 0)
(-0.3563644177 -0.2227520431 0)
(-0.2742163165 -0.1886315974 0)
(-0.2310345338 -0.1308961772 0)
(-0.1949385464 -0.0675172782 0)
(-0.4998248136 -0.5494092556 0)
(-0.6135431355 -0.5312734867 0)
(-0.6399939067 -0.4569109848 0)
(-0.7125081081 -0.4132654998 0)
(-0.2084736008 0.3399720409 0)
(0.2686738507 0.1691750752 0)
(0.126190847 -0.06087765242 0)
(0.1518362722 -0.06258828197 0)
(0.08384531423 0.0003191800833 0)
(0.1007152995 -0.05211523141 0)
(0.1203336436 -0.01857097886 0)
(0.1026167189 -0.0125689805 0)
(0.10267386 0.07363017743 0)
(0.04403429486 -0.7760868366 0)
(-0.3511772974 -1.277685991 0)
(-0.3935109447 -1.452452732 0)
(-0.4337954826 -1.34799553 0)
(-0.4412403142 -1.241240027 0)
(-0.4481026229 -1.142548315 0)
(-0.455922011 -1.052275147 0)
(-0.467418126 -0.9655354727 0)
(-0.4876074991 -0.8666541111 0)
(-0.5202151296 -0.7014558484 0)
(-0.4653805313 -0.1804624018 0)
(-0.3644847735 0.04040390759 0)
(-0.2991957897 0.04958851332 0)
(-0.2271642409 0.02552010216 0)
(-0.1692493707 0.0368202621 0)
(-0.1575481884 0.0815622826 0)
(-0.4188764903 -0.4691487754 0)
(-0.4045462817 -0.4221391489 0)
(-0.3341507916 -0.3064556936 0)
(-0.2744737443 -0.2387344061 0)
(0.1656850076 -0.04073919089 0)
(0.1372001388 0.1081060781 0)
(0.0491227415 -0.06343406439 0)
(0.09470580242 -0.05270663635 0)
(0.07080605908 -0.04777428611 0)
(0.09856049949 -0.06161965327 0)
(0.1245719203 -0.03125943015 0)
(0.1219184239 -0.02028651918 0)
(0.1090167099 0.05484158242 0)
(0.005480983904 -0.05871962858 0)
(0.06868044095 0.001839732235 0)
(0.06451578431 0.1713603869 0)
(0.1092477085 0.1196724255 0)
(0.1039455736 0.09110759832 0)
(0.06012930638 -0.822198329 0)
(-0.2424953678 -1.363292933 0)
(-0.2495433061 -1.501233501 0)
(-0.2525875237 -1.374841732 0)
(-0.2553384655 -1.262627241 0)
(-0.2583146922 -1.161356466 0)
(-0.2622901643 -1.071149795 0)
(-0.2686320016 -0.9870213597 0)
(-0.2803650946 -0.8962677971 0)
(-0.3032603026 -0.7572092659 0)
(-0.208202871 0.4056882761 0)
(-0.1862211647 0.4943143356 0)
(-0.1795186709 0.4873811327 0)
(-0.1768570669 0.4424403177 0)
(-0.134876519 0.3375660966 0)
(-0.2438495503 0.2341352411 0)
(-0.3716418997 -0.3835618455 0)
(-0.2823026949 -0.2874314559 0)
(-0.2224803924 -0.1799540728 0)
(-0.1025439362 -0.1082310744 0)
(0.1676476232 -0.01881337191 0)
(0.08938727017 0.1622173212 0)
(0.07987764217 -0.02133139191 0)
(0.02648188279 -0.01243054427 0)
(0.03754956031 -0.03957290416 0)
(0.05713465233 -0.06080340819 0)
(0.1241599765 -0.03027189941 0)
(0.1108289831 -0.02493201237 0)
(0.1170077985 -0.01242416339 0)
(0.07216855299 -0.1196329428 0)
(0.1156915187 -0.006201299417 0)
(0.1187749842 0.2076960081 0)
(0.1362203505 0.2003115253 0)
(0.125691037 0.1205254069 0)
(0.0521505733 -0.8984502295 0)
(-0.04550795776 -1.441162412 0)
(-0.03409243209 -1.528107555 0)
(-0.0271513464 -1.39715157 0)
(-0.02145407745 -1.283737582 0)
(-0.0165872503 -1.184750604 0)
(-0.01226359064 -1.099323042 0)
(-0.007734951921 -1.021132882 0)
(-0.002991077341 -0.9379581787 0)
(-0.004021025646 -0.8188790784 0)
(-0.03073925533 0.6107819514 0)
(-0.06424427295 0.5816102719 0)
(-0.08591178464 0.6387576576 0)
(-0.1190471578 0.6241331164 0)
(-0.1724581223 0.54324589 0)
(-0.2607372378 0.384288069 0)
(-0.3957795473 -0.3079797994 0)
(-0.4430485913 -0.2482250204 0)
(-0.3851193766 -0.1599135664 0)
(-0.005199317054 0.01823332167 0)
(-0.0141488945 -0.06413694023 0)
(-0.1712043711 -0.05795108374 0)
(0.05293713293 0.0463694879 0)
(0.03639399756 0.03276658066 0)
(0.02607662877 -0.008446483924 0)
(-0.03749811711 0.003236063229 0)
(0.09657733932 -0.0207121799 0)
(0.08931517067 -0.01117873139 0)
(0.1299622268 -0.02528615384 0)
(0.1678188818 -0.1996129713 0)
(0.1971556966 -0.004602023119 0)
(0.1912136569 0.2563503058 0)
(0.1556253589 0.2077128946 0)
(0.1050800428 0.1119031789 0)
(0.04385794584 -0.9592643631 0)
(0.2332748702 -1.258459657 0)
(0.2554139126 -1.497893625 0)
(0.2631595798 -1.374272071 0)
(0.265817016 -1.26148022 0)
(0.2653427007 -1.156161916 0)
(0.2602097922 -1.058290939 0)
(0.2412231604 -0.9600626138 0)
(0.1786955981 -0.8497950751 0)
(0.02209143591 -0.7332702866 0)
(-0.1921045031 -0.654373858 0)
(-0.2905929108 -0.5952998195 0)
(-0.3859616172 -0.5132508428 0)
(-0.4503215591 -0.3828665585 0)
(-0.3736316013 0.03075951899 0)
(-0.3905337811 0.3353433588 0)
(-0.5873464985 -0.3584272845 0)
(-0.6603235824 -0.2632722394 0)
(-0.6053076242 -0.1917574514 0)
(-0.1980633499 -0.06311201961 0)
(-0.1635883799 -0.07938773077 0)
(-0.1724585482 -0.07152798072 0)
(-0.1006552264 -0.02302258828 0)
(0.06928215906 0.02510051911 0)
(0.05122971909 -0.04303281303 0)
(0.0638793082 0.009858594346 0)
(0.08077599322 0.02760497635 0)
(0.08068852005 0.02714923173 0)
(0.1123491465 0.01102917117 0)
(0.2295957583 -0.1775655437 0)
(0.1583398424 -0.0145624008 0)
(0.0916883397 0.1526366362 0)
(-0.008841442761 0.01952302975 0)
(0.06415711447 -0.8401195645 0)
(0.1942302501 -1.054069903 0)
(0.3507823909 -1.293606967 0)
(0.4728523253 -1.319285068 0)
(0.504993071 -1.260415079 0)
(0.4969578216 -1.163729145 0)
(0.4671801102 -1.063495844 0)
(0.4139905836 -0.973102171 0)
(0.3062537197 -0.8976853394 0)
(0.08785502273 -0.8559917048 0)
(-0.2365981359 -0.8574635352 0)
(-0.3492732723 -0.828347105 0)
(-0.4504490547 -0.7900240606 0)
(-0.5126446699 -0.7217311989 0)
(-0.5256409496 -0.5806958552 0)
(-0.6390861242 -0.441730643 0)
(-0.7278529585 -0.3457170645 0)
(-0.7731694611 -0.2938163572 0)
(-0.7086042868 -0.2183222333 0)
(-0.3067431716 -0.08834275378 0)
(-0.1512729216 -0.1055781491 0)
(-0.1584098239 -0.08591310804 0)
(-0.1288849021 -0.03066617077 0)
(-0.01293892903 0.04580163725 0)
(0.06233964167 0.03508071263 0)
(-0.211364115 0.0513567573 0)
(0.1008615445 0.05958369555 0)
(0.06247496614 0.05185362146 0)
(0.02889516383 0.06180509412 0)
(0.04052651719 -0.02540769762 0)
(0.01495938743 -0.08980517855 0)
(-0.04912910449 -0.09389085389 0)
(0.01336226416 -0.7779142678 0)
(-0.2070823735 -0.909487525 0)
(-0.06626646491 -1.060576929 0)
(0.1307835081 -1.096111461 0)
(0.3598187407 -1.130557607 0)
(0.5792809275 -1.151664018 0)
(0.644031434 -1.081278978 0)
(0.6154993582 -0.9963503871 0)
(0.536386608 -0.9275423177 0)
(0.4127935581 -0.8904908679 0)
(0.2193597784 -0.9062393609 0)
(0.1175955914 -0.8664868783 0)
(-0.1968207984 -0.8152435292 0)
(-0.5130147001 -0.6984908854 0)
(-0.6129945181 -0.5337385102 0)
(-0.7263447973 -0.445142769 0)
(-0.8086461683 -0.3807094539 0)
(-0.8412354673 -0.3245057296 0)
(-0.754548931 -0.2242119107 0)
(-0.4298210442 -0.08478114318 0)
(-0.1366977408 -0.1224097411 0)
(-0.1258947764 -0.09797562686 0)
(-0.1058988725 -0.05271833303 0)
(-0.07573523589 -0.0768825187 0)
(0.05033177988 -0.2023850439 0)
(0.2430288445 0.04204982209 0)
(0.1157338934 0.2240444701 0)
(0.05752590266 0.03591979985 0)
(0.0484202492 -0.03734271831 0)
(0.04097713811 -0.06784859066 0)
(0.03467737004 -0.09072174313 0)
(0.042705561 -0.09485518067 0)
(0.04257401576 -0.7167508218 0)
(-0.3574109494 -0.8443447514 0)
(-0.1737777851 -1.035130064 0)
(0.05618789872 -1.050743421 0)
(0.2938239621 -1.073852052 0)
(0.5353608713 -1.093071554 0)
(0.7240506382 -1.092844842 0)
(0.7551706246 -1.020093277 0)
(0.7071497486 -0.9545433694 0)
(0.5961033906 -0.9177681168 0)
(0.3841583551 -0.9214908661 0)
(0.305149877 -0.8866240016 0)
(-0.03789243303 -0.8282775511 0)
(-0.5106009604 -0.6796749979 0)
(-0.652121307 -0.5609488886 0)
(-0.7520467628 -0.4860878469 0)
(-0.8545583579 -0.4447500217 0)
(-0.8771503236 -0.3563746854 0)
(-0.7911623008 -0.2303856334 0)
(-0.5432149488 -0.08124394176 0)
(-0.121281266 -0.1048679934 0)
(-0.09331454061 -0.1009356001 0)
(-0.08707171222 -0.06766801053 0)
(-0.07429835288 -0.09363153075 0)
(-0.04406937893 -0.07426681556 0)
(0.2843694612 0.01519194356 0)
(0.0501970829 -0.02313876406 0)
(0.07171415096 -0.02169325542 0)
(0.07672026353 -0.04301373862 0)
(0.04408771512 -0.06478602958 0)
(0.04196957299 -0.08114702818 0)
(0.05376051855 -0.07596575263 0)
(0.07096240116 -0.6886181957 0)
(-0.401944597 -0.8058493233 0)
(-0.183234745 -1.038575335 0)
(0.06201546429 -1.041281254 0)
(0.2786219963 -1.050715242 0)
(0.4932414761 -1.059908329 0)
(0.6824894532 -1.069514539 0)
(0.7906229954 -1.044531741 0)
(0.7772359496 -0.9851458839 0)
(0.6742750327 -0.9468817249 0)
(0.4881624557 -0.9397180729 0)
(0.3944306015 -0.9069299384 0)
(-0.05735020296 -0.8309137645 0)
(-0.5069867463 -0.7239989109 0)
(-0.6541689172 -0.6476657246 0)
(-0.7660399248 -0.5770816439 0)
(-0.8533423914 -0.5202286034 0)
(-0.881992304 -0.3976562939 0)
(-0.8131851032 -0.2418038657 0)
(-0.6144706571 -0.08798824681 0)
(-0.1132927903 -0.06928491163 0)
(-0.0782517951 -0.08761334635 0)
(-0.07911289993 -0.0926847494 0)
(-0.06053730297 -0.1145466907 0)
(-0.02420779477 -0.1239490082 0)
(0.02874787496 -0.1105026557 0)
(0.06865007385 -0.1002149159 0)
(0.1045990912 -0.06734819863 0)
(0.09676286599 -0.07223598979 0)
(0.09119394539 -0.07942652152 0)
(0.0801482514 -0.06376393589 0)
(0.1054959627 -0.6749140144 0)
(-0.3782398242 -0.7126978021 0)
(-0.2014376137 -1.020139561 0)
(0.01849278582 -1.023657753 0)
(0.2356632325 -1.045997991 0)
(0.4324627566 -1.052228573 0)
(0.5990326782 -1.056843861 0)
(0.7272672202 -1.072069208 0)
(0.7374398367 -1.018955151 0)
(0.6676835968 -0.9755387797 0)
(0.5252089085 -0.9617620998 0)
(0.3303398887 -0.9408739151 0)
(-0.1415607818 -0.8950423641 0)
(-0.4582499322 -0.8371032269 0)
(-0.5990004712 -0.7823752901 0)
(-0.7202020913 -0.7001993084 0)
(-0.7905865935 -0.6226440499 0)
(-0.8345189865 -0.462113693 0)
(-0.7888749222 -0.2656073524 0)
(-0.5855247274 -0.109170389 0)
(-0.01538647011 -0.03432309997 0)
(-0.06027468106 -0.03171538164 0)
(-0.06510637168 -0.07933840879 0)
(-0.05828376489 -0.09143747163 0)
(-0.03243674965 -0.09463834285 0)
(-0.01201752992 -0.1058732825 0)
(0.01569953103 -0.104155956 0)
(0.05598992308 -0.06991402045 0)
(0.03641613641 -0.0427181348 0)
(-0.02533008585 -0.07455358492 0)
(0.02958841079 -0.2175760428 0)
(0.1400516791 -0.6652869948 0)
(-0.256986944 -0.4974938414 0)
(-0.09548949306 -1.062092468 0)
(0.09343693395 -1.033945299 0)
(0.2174446101 -1.020153354 0)
(0.34660917 -1.029772673 0)
(0.4821288274 -1.055395943 0)
(0.5971537397 -1.078149383 0)
(0.6469554204 -1.033440672 0)
(0.6119297127 -0.9977928473 0)
(0.4916675311 -0.9840155023 0)
(0.2392279374 -0.9790928272 0)
(-0.1366381895 -0.9783951832 0)
(-0.3415083553 -0.9825795736 0)
(-0.4170185591 -0.9696316455 0)
(-0.4861507551 -0.8951009035 0)
(-0.5638352099 -0.7632847384 0)
(-0.6237288258 -0.5645497443 0)
(-0.6237250121 -0.2958210865 0)
(-0.3847236155 -0.122064317 0)
(-2.481997708e-05 -0.05469308104 0)
(-0.04844610432 -0.04950505194 0)
(-0.06299476016 -0.02629945166 0)
(-0.06814931731 -0.02212770778 0)
(-0.02407679493 -0.0418881487 0)
(-0.005221615332 -0.03049967616 0)
(-0.0007847600951 -0.03704694682 0)
(0.02523343335 -0.02613412414 0)
(-0.04529567508 -0.005318277799 0)
(-0.2865972376 -0.1503887347 0)
(-0.09674044345 -0.3579143829 0)
(0.1916730275 -0.7537281457 0)
(0.2764072772 -0.3228684091 0)
(0.2351876362 -1.175602912 0)
(0.2015186026 -0.9950797287 0)
(0.2279572429 -0.8784822665 0)
(0.3024166232 -0.7985644991 0)
(0.3740214329 -0.6859513312 0)
(0.3872279082 -0.5311044778 0)
(0.4050406004 -0.6583247063 0)
(0.4064743454 -1.760852909 0)
(0.3218013726 -1.838704316 0)
(0.3058693633 -1.807111423 0)
(0.2942261696 -1.743024041 0)
(0.2789343259 -1.635956459 0)
(0.2584791253 -1.481796588 0)
(0.2391911818 -1.305511102 0)
(0.2286506003 -1.107923858 0)
(0.2185880514 -0.8804646171 0)
(0.2072697444 -0.6089857231 0)
(0.1959901879 -0.248561718 0)
(0.1112535886 0.5173477148 0)
(0.08905233324 0.8670509146 0)
(0.04558343196 0.8356570656 0)
(-0.004394843469 0.5574898373 0)
(-0.0273466881 0.1438589913 0)
(-0.04911342389 -0.004800392385 0)
(-0.02011692822 -0.00340009573 0)
(-0.05022360707 0.01677349121 0)
(-0.08867840906 -0.05892387191 0)
(-0.2376229707 0.07281772556 0)
(-0.1912032805 -0.1285414824 0)
(0.2424966347 -0.767891077 0)
(0.4215990516 -0.4914463514 0)
(0.4254761457 -1.178145633 0)
(0.419452239 -1.026384599 0)
(0.3961902296 -0.8626549356 0)
(0.3620653099 -0.6352935411 0)
(0.2883357956 -0.1538304059 0)
(0.3004028804 -0.007246818264 0)
(0.3103558064 -0.4125139998 0)
(0.3906667626 -1.732382973 0)
(0.3964713808 -1.806816567 0)
(0.4012691991 -1.747013044 0)
(0.4185494862 -1.651867375 0)
(0.4470203271 -1.556909595 0)
(0.4693531071 -1.397231967 0)
(0.4855859312 -1.219777251 0)
(0.5023614502 -1.017091168 0)
(0.5136840822 -0.7770144456 0)
(0.4945646723 -0.4854722242 0)
(0.3378794439 -0.1855968383 0)
(-0.1170449252 -0.1049384614 0)
(-0.0139911582 -0.03225181078 0)
(0.06360157997 0.09776217365 0)
(0.04182379074 -0.05036894557 0)
(0.00378912706 0.02325623462 0)
(-0.005804176569 -0.005621223685 0)
(-0.01708204537 0.03601653256 0)
(-0.09798592364 -0.02315297222 0)
(-0.2778350802 -0.2231287612 0)
(-0.208552421 0.04685538801 0)
(-0.08886243465 -0.02844820115 0)
(0.2836500404 -0.7320169457 0)
(0.5502511028 -0.5885363846 0)
(0.5680472856 -1.144533475 0)
(0.5726283182 -0.9873183967 0)
(0.552401903 -0.8077090723 0)
(0.4730949454 -0.5292181505 0)
(0.2668037531 -0.0502918353 0)
(0.2602134603 -0.03842657638 0)
(0.2613794733 -0.5316508579 0)
(0.4654275354 -1.55854811 0)
(0.510564202 -1.671296206 0)
(0.5328060106 -1.641670858 0)
(0.5579824113 -1.558214173 0)
(0.5918923982 -1.449540308 0)
(0.636387836 -1.31743876 0)
(0.6754306121 -1.156465502 0)
(0.7035234794 -0.9661520917 0)
(0.7238232562 -0.7447397444 0)
(0.7213835554 -0.4894825554 0)
(0.6540300361 -0.2348777116 0)
(0.1247622459 0.1251348795 0)
(0.04499856788 0.1621503164 0)
(0.05830585466 0.1885180154 0)
(0.09276737096 0.002504544932 0)
(-0.0002720972619 -0.04074273164 0)
(0.06681217383 0.004721245602 0)
(0.01604143986 -0.06737593526 0)
(-0.2171582881 -0.272842546 0)
(-0.1017982595 -0.2076613527 0)
(-0.01645638025 0.150974096 0)
(-0.0646711741 0.1241252413 0)
(0.3128340272 -0.6830893658 0)
(0.6627741236 -0.6619370418 0)
(0.6859626193 -1.121962486 0)
(0.6765586535 -0.9661805294 0)
(0.6151983405 -0.7958863393 0)
(0.4711463454 -0.5818725483 0)
(0.3272046593 -0.3764910597 0)
(0.3185837044 -0.3244295031 0)
(0.3564357982 -0.6608087304 0)
(0.5392121614 -1.287717802 0)
(0.6157676366 -1.43172581 0)
(0.6659645176 -1.467390433 0)
(0.7109749118 -1.432905328 0)
(0.7564981435 -1.348186289 0)
(0.8065467927 -1.231296784 0)
(0.8558392303 -1.092454215 0)
(0.8909644055 -0.9214252549 0)
(0.9188242363 -0.7191290349 0)
(0.9289663616 -0.4904956275 0)
(0.8986396408 -0.2621222759 0)
(0.3991552781 0.1319265801 0)
(0.1630464318 0.2684514825 0)
(0.1015046995 0.137608527 0)
(0.09490895772 -0.02630852294 0)
(0.02253799614 -0.001217702047 0)
(0.03159990707 -0.009603344859 0)
(0.05459531943 -0.2616022527 0)
(0.1382158944 -0.0750822164 0)
(0.1893058025 0.02339038632 0)
(0.1689943608 0.0834563138 0)
(0.1653256887 0.1439992562 0)
(0.3301460149 -0.6344777725 0)
(0.7568173125 -0.7210161221 0)
(0.7890669254 -1.119619328 0)
(0.7677340917 -0.986185393 0)
(0.6823713663 -0.8634001491 0)
(0.5268807474 -0.7418716909 0)
(0.4049267764 -0.6205434106 0)
(0.4007362333 -0.5411977972 0)
(0.4460203367 -0.6862321487 0)
(0.5809476462 -0.9631265441 0)
(0.6785213068 -1.088802851 0)
(0.7580152213 -1.19093328 0)
(0.8303620997 -1.235337495 0)
(0.8986591169 -1.21569417 0)
(0.9640274825 -1.138263536 0)
(1.02442373 -1.024633092 0)
(1.070669692 -0.8765941663 0)
(1.101180844 -0.6922636054 0)
(1.09859206 -0.4802315788 0)
(0.9664999125 -0.2671309433 0)
(-0.2579946142 -0.07392367044 0)
(-0.2936378112 -0.1095537731 0)
(-0.03567295225 0.1045356181 0)
(0.09915439243 -0.05685844802 0)
(0.06601374121 -0.02064464927 0)
(0.05414399868 0.02104308415 0)
(0.103396707 -0.1755261247 0)
(0.2694134191 -0.08908780759 0)
(0.3543264908 0.07060003282 0)
(0.3382008391 0.06047697543 0)
(0.3160388688 0.09223145373 0)
(0.337915635 -0.5874664766 0)
(0.8017247093 -0.7418056656 0)
(0.8774901171 -1.131108737 0)
(0.8558082164 -1.024261444 0)
(0.7689036996 -0.9461608234 0)
(0.6214298015 -0.8896005597 0)
(0.5071066779 -0.8103804374 0)
(0.5017748212 -0.6913922645 0)
(0.5321577519 -0.6741336368 0)
(0.6148782388 -0.709669831 0)
(0.7030177377 -0.752345269 0)
(0.7926369187 -0.8524458709 0)
(0.8839089511 -0.9533857191 0)
(0.9817129129 -1.018976439 0)
(1.094926006 -1.012339081 0)
(1.168372284 -0.9568879727 0)
(1.233905936 -0.8292304781 0)
(1.273737371 -0.6676872346 0)
(1.271509319 -0.4768440051 0)
(1.175063511 -0.2770447072 0)
(-0.5595818611 -0.2856929755 0)
(-0.4639590384 -0.2042626663 0)
(0.08476452583 -0.05749901931 0)
(0.1084780812 -0.04384935205 0)
(0.0928695547 -0.06361729026 0)
(-0.0266379074 -0.09370131414 0)
(0.07955463962 -0.1324193048 0)
(0.03015614032 -0.1100665105 0)
(-0.1136563597 -0.0439116408 0)
(0.3666824651 0.01392611928 0)
(0.4429823757 -0.08339719874 0)
(0.3414193009 -0.5417017932 0)
(0.8242760925 -0.7356312345 0)
(0.9415684168 -1.149130809 0)
(0.9322236721 -1.063127901 0)
(0.859000425 -1.015055523 0)
(0.7319129478 -0.9951871213 0)
(0.6278198954 -0.9369468272 0)
(0.6172356907 -0.7849714357 0)
(0.6207115939 -0.6654066204 0)
(0.6621556508 -0.5851436935 0)
(0.7283264217 -0.5498859116 0)
(0.8131697316 -0.5797436203 0)
(0.9217624492 -0.6476411918 0)
(0.9924130482 -0.8061748815 0)
(1.115769081 -0.8945003092 0)
(1.250579714 -0.8757345693 0)
(1.356228885 -0.7722064823 0)
(1.421850698 -0.6405333543 0)
(1.429466619 -0.4744357566 0)
(1.355980365 -0.2796869002 0)
(-0.6474211152 -0.3465130864 0)
(-0.6214822868 -0.3016648397 0)
(0.1192264919 0.06108511131 0)
(0.09845361273 -0.03761668814 0)
(0.029162724 -0.1040092442 0)
(-0.2071121398 -0.07582484919 0)
(0.03164556264 -0.1346074502 0)
(-0.05955474525 -0.1274942322 0)
(-0.1993687839 -0.05117295001 0)
(0.1917329555 0.002352042795 0)
(0.3578952619 -0.169987304 0)
(0.3396039983 -0.5012762251 0)
(0.8119787177 -0.7121568228 0)
(0.9742666188 -1.17004759 0)
(0.9868374514 -1.097091554 0)
(0.9341649142 -1.06602335 0)
(0.833444124 -1.058900276 0)
(0.7513770731 -1.004407526 0)
(0.7368254268 -0.8398752507 0)
(0.709103895 -0.6658880501 0)
(0.7108984275 -0.5349081318 0)
(0.7458498238 -0.4698409694 0)
(0.7970150146 -0.4622986587 0)
(0.854763123 -0.4997399828 0)
(0.9150948735 -0.6521094071 0)
(1.060855982 -0.7789693651 0)
(1.255584811 -0.787291707 0)
(1.407577043 -0.7039547452 0)
(1.514376462 -0.6009029913 0)
(1.546522582 -0.4725053391 0)
(1.502366464 -0.2791061668 0)
(0.6441628603 -0.5565457921 0)
(0.6363853745 -0.3691557336 0)
(0.4000141869 0.3404391959 0)
(0.008069748724 -0.03568023916 0)
(-0.004812011025 -0.04964512474 0)
(-0.4530437168 -0.02975022611 0)