/*--------------------------------*- C++ -*----------------------------------*\
  =========                 |
  \\      /  F ield         | OpenFOAM: The Open Source CFD Toolbox
   \\    /   O peration     | Website:  https://openfoam.org
    \\  /    A nd           | Version:  8
     \\/     M anipulation  |
\*---------------------------------------------------------------------------*/
FoamFile
{
    version     2.0;
    format      ascii;
    class       volScalarField;
    location    "1.7/wallFilmRegion";
    object      Cp;
}
// * * * * * * * * * * * * * * * * * * * * * * * * * * * * * * * * * * * * * //

dimensions      [0 2 -2 -1 0 0 0];

internalField   nonuniform List<scalar> 
1342
(
4182.948105
4182.948111
4182.948109
4182.948105
4182.9481
4182.9481
4182.9481
4182.948481
4182.948412
4182.948126
4182.94874
4182.949087
4182.948839
4182.948873
4182.948711
4182.948686
4182.94811
4182.9481
4182.948106
4182.948102
4182.948103
4182.948099
4182.948099
4182.948099
4182.948099
4182.948749
4182.948756
4182.948741
4182.948875
4182.949024
4182.949118
4182.949113
4182.949052
4182.949006
4182.948596
4182.948111
4182.948125
4182.948133
4182.948131
4182.948123
4182.948099
4182.948099
4182.948101
4182.94903
4182.9491
4182.949205
4182.949263
4182.949271
4182.949253
4182.949188
4182.948526
4182.948155
4182.948155
4182.948157
4182.948163
4182.948174
4182.948194
4182.948229
4182.948258
4182.948348
4182.948271
4182.948099
4182.948099
4182.948286
4182.948762
4182.948766
4182.94876
4182.948766
4182.948801
4182.948881
4182.949022
4182.949144
4182.949146
4182.949187
4182.948099
4182.948108
4182.949016
4182.949012
4182.949009
4182.949037
4182.949011
4182.94901
4182.949126
4182.949152
4182.94918
4182.949284
4182.949298
4182.948099
4182.9481
4182.948986
4182.948971
4182.948938
4182.948915
4182.948917
4182.948917
4182.948929
4182.948994
4182.94914
4182.948102
4182.948108
4182.948103
4182.948102
4182.948102
4182.948101
4182.948111
4182.948107
4182.948104
4182.948103
4182.948102
4182.9481
4182.948099
4182.948103
4182.948102
4182.948102
4182.948102
4182.948102
4182.948101
4182.948102
4182.948102
4182.948102
4182.948102
4182.948102
4182.948101
4182.948101
4182.948098
4182.948094
4182.948101
4182.948092
4182.948097
4182.948101
4182.9481
4182.948101
4182.948101
4182.948101
4182.948101
4182.948102
4182.948101
4182.948102
4182.948103
4182.948104
4182.948103
4182.948101
4182.948101
4182.948101
4182.948102
4182.948101
4182.948101
4182.948101
4182.948101
4182.948101
4182.948101
4182.948101
4182.948101
4182.9481
4182.948101
4182.948099
4182.948097
4182.948097
4182.948098
4182.948086
4182.948088
4182.948072
4182.9481
4182.948091
4182.948097
4182.948102
4182.948101
4182.948104
4182.948103
4182.948105
4182.948106
4182.948104
4182.948106
4182.948107
4182.948105
4182.948108
4182.948108
4182.948103
4182.948108
4182.948108
4182.948101
4182.948101
4182.948101
4182.948101
4182.948101
4182.948101
4182.948101
4182.948101
4182.948101
4182.9481
4182.948097
4182.948097
4182.948091
4182.94809
4182.94794
4182.948091
4182.948046
4182.948083
4182.94807
4182.948086
4182.948068
4182.948095
4182.948089
4182.948094
4182.9481
4182.948096
4182.948096
4182.948107
4182.948097
4182.948097
4182.948109
4182.948098
4182.948098
4182.94811
4182.948102
4182.948108
4182.948108
4182.948109
4182.948109
4182.948101
4182.948102
4182.948101
4182.9481
4182.948098
4182.948099
4182.9481
4182.948094
4182.948016
4182.94809
4182.948058
4182.948067
4182.947999
4182.948041
4182.947995
4182.948082
4182.948023
4182.948078
4182.948071
4182.948085
4182.948075
4182.948094
4182.94809
4182.948094
4182.948096
4182.948095
4182.948096
4182.948097
4182.948096
4182.948097
4182.948098
4182.948097
4182.948099
4182.948111
4182.948099
4182.948101
4182.948105
4182.948103
4182.948105
4182.948109
4182.948106
4182.948108
4182.948102
4182.948103
4182.948102
4182.948099
4182.948099
4182.9481
4182.947962
4182.948102
4182.947951
4182.948035
4182.948002
4182.948006
4182.947987
4182.947987
4182.947979
4182.948064
4182.948013
4182.948055
4182.948078
4182.948077
4182.948079
4182.948095
4182.948088
4182.948094
4182.948095
4182.948095
4182.948095
4182.948096
4182.948095
4182.948095
4182.948099
4182.948096
4182.948099
4182.948102
4182.948104
4182.948105
4182.948105
4182.948105
4182.948106
4182.948108
4182.948107
4182.948105
4182.948102
4182.948098
4182.94809
4182.947985
4182.94779
4182.947766
4182.947949
4182.947756
4182.947951
4182.947984
4182.947967
4182.947969
4182.947972
4182.947962
4182.947967
4182.948047
4182.948097
4182.948069
4182.948074
4182.948067
4182.94807
4182.948093
4182.948087
4182.948091
4182.948094
4182.948091
4182.948091
4182.948094
4182.948092
4182.948094
4182.948097
4182.948097
4182.9481
4182.948104
4182.948102
4182.948103
4182.948106
4182.948104
4182.948105
4182.948101
4182.948101
4182.948093
4182.9481
4182.948096
4182.947775
4182.947909
4182.947925
4182.947952
4182.947943
4182.947965
4182.94796
4182.947949
4182.947951
4182.947963
4182.947951
4182.947967
4182.948098
4182.9481
4182.948098
4182.948075
4182.948074
4182.948079
4182.94809
4182.948087
4182.948088
4182.948086
4182.948085
4182.94808
4182.948071
4182.948072
4182.948063
4182.9481
4182.948094
4182.948098
4182.948103
4182.948103
4182.948104
4182.948105
4182.948104
4182.948102
4182.948101
4182.948102
4182.948084
4182.948102
4182.948102
4182.948047
4182.948102
4182.948102
4182.948043
4182.948102
4182.948102
4182.948034
4182.948102
4182.948103
4182.94802
4182.948104
4182.948103
4182.948092
4182.948103
4182.948082
4182.948081
4182.948077
4182.948083
4182.948086
4182.948086
4182.948085
4182.948077
4182.948082
4182.948073
4182.948061
4182.948052
4182.948101
4182.9481
4182.948101
4182.948101
4182.948102
4182.948104
4182.948102
4182.948104
4182.948104
4182.948102
4182.948104
4182.948104
4182.948102
4182.948104
4182.948104
4182.948102
4182.948104
4182.948104
4182.948102
4182.948105
4182.948105
4182.948103
4182.948105
4182.948106
4182.948103
4182.948106
4182.948106
4182.948103
4182.948107
4182.948107
4182.948112
4182.948112
4182.948111
4182.948113
4182.948103
4182.948111
4182.948107
4182.948107
4182.948107
4182.948108
4182.948108
4182.94811
4182.948112
4182.948115
4182.948112
4182.948112
4182.948113
4182.948114
4182.948115
4182.948116
4182.948132
4182.948114
4182.948139
4182.948156
4182.948126
4182.948162
4182.948125
4182.948186
4182.948171
4182.948156
4182.948155
4182.948156
4182.948191
4182.948193
4182.94816
4182.948195
4182.948168
4182.948183
4182.948222
4182.948237
4182.94821
4182.94826
4182.948292
4182.948247
4182.948249
4182.948434
4182.949048
4182.94843
4182.949222
4182.949136
4182.948672
4182.948754
4182.949015
4182.948761
4182.949024
4182.949018
4182.949003
4182.948946
4182.949017
4182.949069
4182.949097
4182.949149
4182.949161
4182.949431
4182.949271
4182.94898
4182.948952
4182.948974
4182.949209
4182.949159
4182.948103
4182.9481
4182.948102
4182.9481
4182.948102
4182.9481
4182.948101
4182.9481
4182.948101
4182.9481
4182.948101
4182.9481
4182.9481
4182.9481
4182.9481
4182.9481
4182.948101
4182.9481
4182.9481
4182.948103
4182.948102
4182.948102
4182.948102
4182.948101
4182.948101
4182.948101
4182.948101
4182.948101
4182.948103
4182.948101
4182.94811
4182.948103
4182.94811
4182.948101
4182.948101
4182.948101
4182.948101
4182.948101
4182.948099
4182.94809
4182.948098
4182.948101
4182.948102
4182.948104
4182.948105
4182.948103
4182.94811
4182.948111
4182.94811
4182.948101
4182.948101
4182.948101
4182.9481
4182.948099
4182.948058
4182.948086
4182.94809
4182.948097
4182.948104
4182.948108
4182.948109
4182.948109
4182.948109
4182.948102
4182.9481
4182.948101
4182.948084
4182.94807
4182.948031
4182.948086
4182.948089
4182.948096
4182.948097
4182.948098
4182.9481
4182.948107
4182.948107
4182.948102
4182.948098
4182.948088
4182.948028
4182.94801
4182.948018
4182.948084
4182.94809
4182.948095
4182.948095
4182.948097
4182.948102
4182.948103
4182.948107
4182.948103
4182.948099
4182.947934
4182.947982
4182.947971
4182.948007
4182.948072
4182.948078
4182.948094
4182.948094
4182.948095
4182.948104
4182.948104
4182.948106
4182.9481
4182.947794
4182.947783
4182.947958
4182.947957
4182.9481
4182.94808
4182.948088
4182.948088
4182.948081
4182.948102
4182.948102
4182.948104
4182.948101
4182.948102
4182.948098
4182.948059
4182.948045
4182.948039
4182.948027
4182.948101
4182.948074
4182.948086
4182.948083
4182.948069
4182.9481
4182.948103
4182.948101
4182.948106
4182.948105
4182.948105
4182.948108
4182.94811
4182.948111
4182.948108
4182.948106
4182.948103
4182.948101
4182.948102
4182.948099
4182.9481
4182.948102
4182.948102
4182.948102
4182.948102
4182.948102
4182.948102
4182.948102
4182.948103
4182.948103
4182.948104
4182.948105
4182.948108
4182.948106
4182.948107
4182.948105
4182.948113
4182.948099
4182.9481
4182.948107
4182.948107
4182.948112
4182.948107
4182.948113
4182.948108
4182.948109
4182.948111
4182.94812
4182.948114
4182.948127
4182.948115
4182.948099
4182.948099
4182.948099
4182.948124
4182.948235
4182.948965
4182.948466
4182.948286
4182.948456
4182.948099
4182.949189
4182.949191
4182.949232
4182.949281
4182.949228
4182.949287
4182.949303
4182.949236
4182.949303
4182.949259
4182.949208
4182.949216
4182.94932
4182.949294
4182.949112
4182.948099
4182.948099
4182.948099
4182.949182
4182.949119
4182.94908
4182.949087
4182.949178
4182.949095
4182.948326
4182.949204
4182.948981
4182.948945
4182.948912
4182.948974
4182.948941
4182.948984
4182.948958
4182.948967
4182.94901
4182.949008
4182.948925
4182.948854
4182.948737
4182.948886
4182.948826
4182.948782
4182.948843
4182.948942
4182.949114
4182.948833
4182.948781
4182.948847
4182.948846
4182.948825
4182.948769
4182.948746
4182.948887
4182.949016
4182.948876
4182.948814
4182.948891
4182.948865
4182.948863
4182.948802
4182.948832
4182.948923
4182.94904
4182.948103
4182.9481
4182.948103
4182.948101
4182.948102
4182.9481
4182.948103
4182.948103
4182.948101
4182.948101
4182.948102
4182.9481
4182.948103
4182.948103
4182.948101
4182.948101
4182.948101
4182.9481
4182.948102
4182.948102
4182.948101
4182.948101
4182.948101
4182.9481
4182.948102
4182.948102
4182.948101
4182.948101
4182.948101
4182.9481
4182.948102
4182.948102
4182.948101
4182.948101
4182.9481
4182.9481
4182.948102
4182.948102
4182.948101
4182.948101
4182.9481
4182.9481
4182.948102
4182.948102
4182.948101
4182.948101
4182.948099
4182.9481
4182.948103
4182.948103
4182.948101
4182.948102
4182.948103
4182.9481
4182.948102
4182.9481
4182.948101
4182.948103
4182.948102
4182.948101
4182.948105
4182.948102
4182.948109
4182.948109
4182.94811
4182.94811
4182.948107
4182.94811
4182.948109
4182.948107
4182.948105
4182.948104
4182.948106
4182.948101
4182.9481
4182.948105
4182.948099
4182.948099
4182.948099
4182.9481
4182.948101
4182.948099
4182.948104
4182.948103
4182.9481
4182.948101
4182.9481
4182.948101
4182.948101
4182.948099
4182.948099
4182.948099
4182.948107
4182.948117
4182.948492
4182.948606
4182.948106
4182.948117
4182.948116
4182.948461
4182.948603
4182.948596
4182.948105
4182.948116
4182.948115
4182.948313
4182.948574
4182.948534
4182.948107
4182.948117
4182.948117
4182.948111
4182.948471
4182.948467
4182.948109
4182.948118
4182.948118
4182.949055
4182.948743
4182.948826
4182.948111
4182.948118
4182.948119
4182.948917
4182.948846
4182.948853
4182.948109
4182.948119
4182.948119
4182.948721
4182.948911
4182.948848
4182.948107
4182.948119
4182.948119
4182.94876
4182.948941
4182.94889
4182.948105
4182.94812
4182.94812
4182.948648
4182.948847
4182.948807
4182.948102
4182.94812
4182.948119
4182.948757
4182.948826
4182.948884
4182.948101
4182.948108
4182.948102
4182.948105
4182.94858
4182.948143
4182.9481
4182.948102
4182.948102
4182.948101
4182.948106
4182.948099
4182.9481
4182.948106
4182.948114
4182.948107
4182.948116
4182.948138
4182.948103
4182.948112
4182.948121
4182.948111
4182.948103
4182.948111
4182.948109
4182.948099
4182.948099
4182.948099
4182.948099
4182.948099
4182.948099
4182.948099
4182.948099
4182.948099
4182.948099
4182.948099
4182.948099
4182.948099
4182.948099
4182.948742
4182.948755
4182.948753
4182.94892
4182.948763
4182.948931
4182.948961
4182.948956
4182.949017
4182.949075
4182.949065
4182.949141
4182.949187
4182.949068
4182.949229
4182.949196
4182.949093
4182.949229
4182.949225
4182.949015
4182.949194
4182.949156
4182.949022
4182.949131
4182.94912
4182.948165
4182.94858
4182.94817
4182.948103
4182.948122
4182.948103
4182.9481
4182.948101
4182.948112
4182.948113
4182.948118
4182.948123
4182.948124
4182.94816
4182.948168
4182.948207
4182.948215
4182.948329
4182.948163
4182.948132
4182.948122
4182.94817
4182.94815
4182.948143
4182.948118
4182.94814
4182.948178
4182.948099
4182.948099
4182.948099
4182.948099
4182.948099
4182.948099
4182.948099
4182.948099
4182.948099
4182.948099
4182.9481
4182.948099
4182.9481
4182.948099
4182.948099
4182.949055
4182.949014
4182.949063
4182.949073
4182.949112
4182.949137
4182.949174
4182.94915
4182.949208
4182.949226
4182.94924
4182.949244
4182.949236
4182.949234
4182.949251
4182.949256
4182.949276
4182.949216
4182.949218
4182.949242
4182.949192
4182.949166
4182.949177
4182.948263
4182.94916
4182.948416
4182.948104
4182.94823
4182.948108
4182.948102
4182.948193
4182.948192
4182.948191
4182.948199
4182.948205
4182.948212
4182.948338
4182.948401
4182.94848
4182.948554
4182.948767
4182.948764
4182.948779
4182.948834
4182.949026
4182.949389
4182.949153
4182.948805
4182.948348
4182.948277
4182.948459
4182.949049
4182.948372
4182.948099
4182.948099
4182.948099
4182.948099
4182.948099
4182.948099
4182.948099
4182.948099
4182.9481
4182.948099
4182.948099
4182.949179
4182.949202
4182.949181
4182.949209
4182.949221
4182.949181
4182.949174
4182.949221
4182.949165
4182.949175
4182.949243
4182.94918
4182.949237
4182.949223
4182.949164
4182.949165
4182.949196
4182.949176
4182.948104
4182.948115
4182.948212
4182.948261
4182.9481
4182.9481
4182.948104
4182.949173
4182.949187
4182.949217
4182.949259
4182.949288
4182.949226
4182.949287
4182.949223
4182.949312
4182.949284
4182.949239
4182.949199
4182.948444
4182.948858
4182.948976
4182.948993
4182.949002
4182.949013
4182.949045
4182.949054
4182.949038
4182.949199
4182.949222
4182.949329
4182.949352
4182.949006
4182.948985
4182.949017
4182.948988
4182.949012
4182.948968
4182.949022
4182.948945
4182.948956
4182.949028
4182.948987
4182.949
4182.94906
4182.948984
4182.949009
4182.949154
4182.949032
4182.949035
4182.9494
4182.949021
4182.949375
4182.949323
4182.949265
4182.949231
4182.949331
4182.949184
4182.949228
4182.949314
4182.949297
4182.949015
4182.94933
4182.949368
4182.949363
4182.9493
4182.949318
4182.948099
4182.948099
4182.948099
4182.948099
4182.948883
4182.948099
4182.948099
4182.948104
4182.948102
4182.949068
4182.949125
4182.949068
4182.949123
4182.949065
4182.949058
4182.949048
4182.948926
4182.949103
4182.949034
4182.949022
4182.949011
4182.94908
4182.949008
4182.948918
4182.949012
4182.949013
4182.948919
4182.949094
4182.949012
4182.949093
4182.949014
4182.949024
4182.949049
4182.949132
4182.949085
4182.949129
4182.94914
4182.948205
4182.94822
4182.948852
4182.9481
4182.948106
4182.949179
4182.949127
4182.949184
4182.949113
4182.949092
4182.949166
4182.949093
4182.94917
4182.949108
4182.949141
4182.949165
4182.948988
4182.948976
4182.948964
4182.948975
4182.948958
4182.948926
4182.948926
4182.948875
4182.948921
4182.948839
4182.94885
4182.948952
4182.948872
4182.948911
4182.948958
4182.948892
4182.948887
4182.948994
4182.948883
4182.948909
4182.949004
4182.94895
4182.948943
4182.949255
4182.948949
4182.949013
4182.949112
4182.94895
4182.94889
4182.948897
4182.948906
4182.948903
4182.948826
4182.948876
4182.94884
4182.948777
4182.948757
4182.948829
4182.94885
4182.948829
4182.948841
4182.948814
4182.948814
4182.948798
4182.948796
4182.948768
4182.948754
4182.9489
4182.94877
4182.948821
4182.949003
4182.948915
4182.94898
4182.949218
4182.949085
4182.949193
4182.949212
4182.948793
4182.948845
4182.948821
4182.948849
4182.948815
4182.948925
4182.94877
4182.948916
4182.948845
4182.948842
4182.94886
4182.94883
4182.948848
4182.948838
4182.948788
4182.948825
4182.948806
4182.948741
4182.948776
4182.94875
4182.948801
4182.948773
4182.948823
4182.948932
4182.948887
4182.948928
4182.949075
4182.949007
4182.949064
4182.948099
4182.948906
4182.948894
4182.94899
4182.948987
4182.948843
4182.948992
4182.948983
4182.948981
4182.948898
4182.948961
4182.948949
4182.948956
4182.94888
4182.948949
4182.948947
4182.948873
4182.948937
4182.948927
4182.948914
4182.948844
4182.948926
4182.948889
4182.94881
4182.948877
4182.948894
4182.948859
4182.948889
4182.948925
4182.948953
4182.948972
4182.948973
4182.94903
4182.949036
4182.94906
)
;

boundaryField
{
    walls
    {
        type            zeroGradient;
    }
    wallFilmFace_top
    {
        type            zeroGradient;
    }
    region0_to_wallFilmRegion_wallFilmFace
    {
        type            zeroGradient;
    }
    mirrorFace_top
    {
        type            zeroGradient;
    }
    region0_to_wallFilmRegion_mirrorFace
    {
        type            zeroGradient;
    }
    procBoundary3to2
    {
        type            processor;
        value           nonuniform List<scalar> 
64
(
4182.948497
4182.948735
4182.948866
4182.948901
4182.94899
4182.948157
4182.948741
4182.948986
4182.948987
4182.948101
4182.948101
4182.948101
4182.948101
4182.948101
4182.948101
4182.948101
4182.948102
4182.948102
4182.948103
4182.948103
4182.948103
4182.948103
4182.9481
4182.9481
4182.948101
4182.948102
4182.948102
4182.948102
4182.948102
4182.948102
4182.948102
4182.948104
4182.948104
4182.948107
4182.948112
4182.948103
4182.9481
4182.948103
4182.948107
4182.948101
4182.949153
4182.948974
4182.948985
4182.94895
4182.948784
4182.948887
4182.948103
4182.948101
4182.948118
4182.948608
4182.948852
4182.948882
4182.948901
4182.949021
4182.948196
4182.949177
4182.949176
4182.94895
4182.949126
4182.949068
4182.948978
4182.948884
4182.94884
4182.948995
)
;
    }
}


// ************************************************************************* //
