/*--------------------------------*- C++ -*----------------------------------*\
  =========                 |
  \\      /  F ield         | OpenFOAM: The Open Source CFD Toolbox
   \\    /   O peration     | Website:  https://openfoam.org
    \\  /    A nd           | Version:  8
     \\/     M anipulation  |
\*---------------------------------------------------------------------------*/
FoamFile
{
    version     2.0;
    format      ascii;
    class       volScalarField;
    location    "1.7/wallFilmRegion";
    object      kappa;
}
// * * * * * * * * * * * * * * * * * * * * * * * * * * * * * * * * * * * * * //

dimensions      [1 1 -3 -1 0 0 0];

internalField   nonuniform List<scalar> 
1342
(
0.608809989
0.6088099798
0.6088099828
0.6088099891
0.6088099973
0.6088099985
0.6088099987
0.6088093443
0.6088094626
0.6088099526
0.6088089001
0.6088083037
0.6088087294
0.6088086721
0.6088089498
0.6088089918
0.6088099807
0.6088099976
0.6088099877
0.6088099938
0.608809993
0.6088099991
0.6088099998
0.6088099997
0.6088099994
0.6088088846
0.6088088718
0.6088088977
0.6088086688
0.6088084122
0.6088082505
0.6088082588
0.6088083635
0.6088084439
0.6088091473
0.6088099785
0.6088099544
0.6088099409
0.6088099452
0.6088099584
0.6088099994
0.6088099998
0.6088099957
0.6088084015
0.6088082813
0.6088081017
0.6088080016
0.608807988
0.6088080186
0.6088081316
0.6088092677
0.6088099038
0.6088099037
0.6088098993
0.6088098893
0.6088098711
0.6088098359
0.608809777
0.6088097272
0.6088095723
0.6088097038
0.6088099996
0.608809999
0.6088096795
0.6088088615
0.6088088545
0.6088088645
0.6088088544
0.6088087957
0.608808657
0.6088084151
0.6088082064
0.6088082032
0.6088081321
0.6088099992
0.6088099847
0.6088084261
0.6088084322
0.6088084383
0.6088083901
0.6088084352
0.6088084365
0.6088082374
0.6088081933
0.6088081454
0.6088079654
0.6088079428
0.6088099989
0.6088099976
0.6088084776
0.6088085039
0.6088085597
0.6088085993
0.6088085962
0.6088085961
0.6088085757
0.608808464
0.6088082133
0.6088099939
0.6088099838
0.6088099929
0.6088099939
0.6088099939
0.6088099956
0.6088099795
0.6088099853
0.6088099909
0.608809993
0.6088099944
0.608809998
0.6088099994
0.6088099936
0.6088099949
0.6088099941
0.6088099947
0.6088099951
0.6088099954
0.6088099942
0.6088099952
0.6088099949
0.6088099947
0.6088099954
0.6088099969
0.6088099963
0.6088100011
0.608810008
0.6088099965
0.6088100109
0.6088100034
0.6088099963
0.6088099983
0.6088099969
0.6088099961
0.6088099965
0.6088099961
0.6088099946
0.6088099957
0.6088099949
0.6088099933
0.6088099915
0.6088099921
0.6088099966
0.6088099962
0.6088099965
0.6088099952
0.6088099965
0.6088099961
0.6088099955
0.6088099956
0.6088099955
0.6088099956
0.6088099964
0.6088099962
0.6088099987
0.608809997
0.608809999
0.6088100035
0.6088100024
0.6088100015
0.6088100222
0.6088100188
0.6088100456
0.6088099981
0.6088100136
0.6088100039
0.6088099953
0.6088099965
0.6088099918
0.608809992
0.6088099897
0.6088099883
0.6088099904
0.608809987
0.6088099858
0.6088099894
0.6088099849
0.6088099843
0.6088099925
0.6088099837
0.6088099837
0.6088099964
0.6088099957
0.6088099964
0.6088099964
0.6088099969
0.6088099966
0.6088099956
0.608809996
0.6088099959
0.608809998
0.6088100028
0.6088100029
0.6088100133
0.6088100144
0.6088102721
0.6088100129
0.6088100902
0.6088100269
0.6088100501
0.6088100222
0.6088100525
0.6088100065
0.6088100169
0.6088100075
0.6088099977
0.608810005
0.6088100041
0.6088099866
0.6088100035
0.608810003
0.6088099823
0.608810002
0.6088100006
0.6088099815
0.6088099951
0.6088099839
0.6088099834
0.6088099821
0.6088099827
0.6088099962
0.6088099943
0.6088099956
0.6088099973
0.6088100006
0.60881
0.6088099983
0.6088100082
0.6088101425
0.6088100155
0.6088100707
0.6088100544
0.6088101718
0.6088100993
0.6088101777
0.608810029
0.6088101304
0.6088100356
0.6088100476
0.6088100237
0.6088100413
0.6088100077
0.6088100151
0.6088100075
0.6088100046
0.6088100059
0.6088100054
0.608810003
0.6088100049
0.6088100038
0.6088100008
0.6088100023
0.6088100004
0.6088099785
0.608809999
0.6088099968
0.6088099894
0.6088099933
0.6088099892
0.608809983
0.6088099868
0.6088099837
0.6088099948
0.6088099935
0.6088099942
0.6088099991
0.6088099988
0.6088099973
0.6088102351
0.6088099941
0.6088102531
0.6088101089
0.6088101666
0.6088101595
0.6088101918
0.6088101923
0.608810206
0.6088100595
0.6088101481
0.6088100759
0.6088100364
0.6088100368
0.6088100334
0.6088100074
0.6088100177
0.6088100078
0.6088100062
0.6088100068
0.608810007
0.6088100054
0.6088100072
0.6088100068
0.6088099992
0.6088100046
0.6088099991
0.6088099943
0.6088099905
0.6088099896
0.6088099887
0.6088099891
0.6088099881
0.6088099843
0.6088099868
0.6088099887
0.6088099942
0.6088100006
0.6088100145
0.6088101954
0.6088105305
0.6088105711
0.6088102562
0.6088105875
0.6088102544
0.6088101976
0.6088102255
0.6088102228
0.6088102181
0.6088102348
0.608810227
0.608810089
0.6088100036
0.608810051
0.6088100429
0.6088100543
0.6088100502
0.6088100092
0.6088100201
0.6088100127
0.6088100085
0.6088100134
0.6088100133
0.6088100083
0.6088100118
0.6088100087
0.6088100032
0.6088100022
0.6088099984
0.6088099905
0.6088099946
0.6088099923
0.6088099885
0.608809991
0.6088099887
0.608809997
0.6088099963
0.6088100105
0.6088099975
0.6088100056
0.6088105554
0.6088103256
0.608810298
0.6088102516
0.6088102667
0.6088102293
0.6088102387
0.6088102566
0.608810254
0.6088102325
0.6088102533
0.6088102268
0.6088100022
0.6088099977
0.6088100008
0.608810041
0.608810043
0.6088100339
0.6088100158
0.6088100196
0.6088100189
0.6088100225
0.6088100231
0.6088100315
0.6088100475
0.6088100464
0.6088100621
0.6088099981
0.6088100078
0.6088100013
0.6088099921
0.6088099935
0.6088099918
0.608809989
0.6088099916
0.6088099951
0.6088099958
0.6088099948
0.6088100253
0.6088099949
0.6088099951
0.608810089
0.6088099953
0.6088099954
0.6088100963
0.6088099952
0.6088099949
0.608810112
0.6088099942
0.6088099934
0.6088101352
0.6088099919
0.6088099928
0.608810011
0.6088099924
0.6088100293
0.6088100306
0.6088100375
0.6088100272
0.6088100225
0.6088100218
0.6088100231
0.6088100369
0.6088100294
0.6088100449
0.6088100651
0.6088100803
0.6088099964
0.6088099979
0.6088099968
0.6088099969
0.6088099947
0.6088099916
0.6088099948
0.6088099917
0.6088099917
0.6088099949
0.6088099917
0.6088099916
0.6088099947
0.6088099915
0.6088099913
0.6088099945
0.608809991
0.6088099906
0.6088099941
0.6088099902
0.6088099896
0.6088099936
0.6088099888
0.6088099881
0.6088099931
0.6088099874
0.6088099869
0.6088099921
0.6088099867
0.6088099857
0.608809977
0.6088099775
0.6088099788
0.6088099761
0.6088099935
0.6088099791
0.608809986
0.6088099861
0.6088099857
0.6088099849
0.6088099836
0.6088099811
0.6088099771
0.6088099723
0.6088099771
0.6088099772
0.6088099749
0.6088099737
0.6088099724
0.6088099704
0.6088099432
0.6088099733
0.6088099315
0.6088099024
0.6088099534
0.6088098922
0.6088099543
0.6088098501
0.6088098762
0.6088099025
0.6088099043
0.6088099022
0.6088098412
0.6088098388
0.6088098951
0.6088098344
0.6088098818
0.6088098563
0.6088097882
0.6088097622
0.6088098092
0.6088097241
0.608809669
0.6088097449
0.6088097428
0.608809425
0.6088083712
0.608809431
0.6088080721
0.6088082193
0.6088090165
0.6088088755
0.6088084271
0.6088088638
0.6088084122
0.608808422
0.6088084478
0.6088085455
0.6088084235
0.6088083359
0.6088082878
0.6088081984
0.6088081778
0.6088077144
0.6088079888
0.6088084871
0.6088085359
0.6088084982
0.6088080949
0.6088081803
0.6088099936
0.6088099979
0.6088099943
0.6088099981
0.6088099953
0.6088099982
0.6088099959
0.6088099983
0.6088099963
0.6088099984
0.6088099969
0.6088099984
0.608809998
0.6088099985
0.6088099988
0.6088099986
0.6088099958
0.6088099983
0.6088099982
0.6088099932
0.6088099948
0.608809994
0.6088099944
0.6088099956
0.6088099965
0.6088099964
0.6088099962
0.6088099956
0.6088099933
0.6088099957
0.6088099807
0.6088099932
0.6088099815
0.6088099964
0.608809996
0.6088099954
0.6088099957
0.6088099966
0.6088100001
0.6088100151
0.6088100018
0.6088099965
0.6088099937
0.6088099909
0.60880999
0.6088099928
0.60880998
0.6088099796
0.608809981
0.608809996
0.6088099967
0.6088099959
0.6088099981
0.60881
0.6088100693
0.6088100219
0.6088100147
0.6088100025
0.6088099914
0.6088099836
0.6088099817
0.6088099822
0.6088099819
0.6088099951
0.608809998
0.6088099966
0.6088100254
0.6088100497
0.6088101172
0.6088100227
0.6088100165
0.6088100055
0.6088100039
0.608810002
0.6088099985
0.6088099866
0.6088099868
0.6088099937
0.6088100013
0.6088100187
0.6088101221
0.6088101516
0.6088101391
0.6088100258
0.6088100149
0.6088100062
0.6088100061
0.6088100032
0.6088099948
0.6088099921
0.6088099867
0.6088099935
0.6088099989
0.608810282
0.6088102011
0.608810219
0.6088101578
0.6088100459
0.6088100349
0.6088100081
0.6088100088
0.608810006
0.6088099905
0.6088099903
0.608809987
0.6088099987
0.6088105227
0.6088105425
0.6088102421
0.6088102442
0.6088099987
0.6088100323
0.608810019
0.6088100182
0.6088100309
0.608809995
0.6088099941
0.6088099913
0.6088099966
0.6088099948
0.6088100009
0.6088100687
0.6088100931
0.6088101033
0.6088101239
0.608809996
0.6088100424
0.6088100217
0.6088100278
0.6088100504
0.6088099986
0.6088099932
0.6088099961
0.6088099874
0.6088099893
0.6088099886
0.6088099843
0.6088099808
0.6088099786
0.6088099834
0.6088099877
0.6088099926
0.6088099956
0.6088099941
0.6088099989
0.6088099979
0.6088099945
0.6088099948
0.6088099949
0.6088099948
0.6088099946
0.6088099943
0.6088099938
0.6088099933
0.6088099928
0.6088099908
0.6088099898
0.6088099851
0.608809987
0.6088099852
0.608809989
0.6088099756
0.6088099988
0.6088099978
0.6088099861
0.608809986
0.6088099768
0.6088099854
0.6088099758
0.6088099843
0.6088099825
0.6088099794
0.6088099641
0.6088099746
0.6088099524
0.6088099722
0.6088099998
0.6088099997
0.6088099995
0.6088099564
0.6088097659
0.6088085128
0.6088093693
0.6088096789
0.6088093865
0.6088099998
0.6088081294
0.6088081258
0.608808056
0.6088079707
0.6088080623
0.608807961
0.6088079332
0.6088080489
0.608807933
0.6088080095
0.6088080959
0.608808083
0.6088079047
0.6088079491
0.6088082607
0.6088099997
0.6088099994
0.6088099994
0.608808141
0.6088082488
0.6088083155
0.6088083033
0.6088081483
0.6088082901
0.6088096103
0.6088081034
0.6088084862
0.6088085479
0.6088086049
0.6088084978
0.6088085548
0.6088084812
0.6088085264
0.6088085093
0.608808437
0.6088084405
0.6088085821
0.6088087041
0.6088089054
0.6088086484
0.6088087519
0.6088088276
0.608808723
0.6088085537
0.6088082583
0.6088087405
0.6088088294
0.608808716
0.6088087173
0.6088087543
0.6088088498
0.6088088885
0.6088086479
0.6088084269
0.6088086657
0.608808772
0.6088086412
0.6088086856
0.6088086887
0.6088087935
0.6088087421
0.6088085851
0.6088083848
0.6088099934
0.6088099977
0.6088099924
0.6088099962
0.6088099939
0.608809998
0.6088099926
0.608809993
0.6088099963
0.6088099964
0.6088099948
0.6088099982
0.6088099931
0.6088099933
0.6088099964
0.6088099965
0.6088099957
0.6088099983
0.6088099937
0.6088099939
0.6088099965
0.6088099965
0.6088099961
0.6088099984
0.6088099942
0.6088099946
0.6088099964
0.6088099964
0.6088099965
0.6088099984
0.6088099948
0.6088099948
0.6088099963
0.6088099962
0.6088099974
0.6088099985
0.6088099947
0.6088099948
0.6088099961
0.608809996
0.6088099985
0.6088099985
0.6088099948
0.6088099946
0.6088099958
0.6088099957
0.6088099988
0.6088099985
0.6088099929
0.6088099928
0.6088099954
0.6088099949
0.6088099929
0.6088099988
0.6088099943
0.608809998
0.6088099969
0.6088099924
0.608809994
0.6088099958
0.6088099889
0.6088099938
0.6088099819
0.6088099817
0.6088099816
0.6088099814
0.6088099863
0.608809981
0.6088099823
0.608809986
0.6088099887
0.6088099906
0.6088099875
0.6088099958
0.6088099978
0.6088099901
0.6088099997
0.6088099998
0.6088099998
0.6088099983
0.6088099958
0.6088099998
0.6088099919
0.6088099932
0.6088099988
0.608809997
0.6088099986
0.6088099964
0.6088099962
0.6088099997
0.6088099996
0.6088099995
0.6088099866
0.6088099684
0.6088093259
0.60880913
0.6088099884
0.6088099691
0.6088099701
0.608809378
0.6088091345
0.6088091459
0.6088099897
0.6088099711
0.6088099723
0.6088096322
0.6088091851
0.6088092539
0.6088099867
0.608809969
0.6088099682
0.6088099788
0.6088093608
0.6088093687
0.6088099824
0.6088099676
0.608809967
0.6088083593
0.6088088944
0.6088087528
0.6088099796
0.6088099664
0.6088099659
0.608808596
0.6088087178
0.6088087049
0.608809982
0.6088099654
0.6088099651
0.6088089325
0.6088086055
0.608808714
0.6088099853
0.6088099648
0.6088099646
0.6088088656
0.6088085556
0.6088086414
0.6088099902
0.6088099643
0.6088099641
0.6088090571
0.6088087152
0.6088087855
0.6088099947
0.6088099639
0.6088099647
0.6088088703
0.6088087518
0.6088086533
0.608809996
0.6088099838
0.6088099943
0.6088099902
0.6088091746
0.6088099238
0.6088099987
0.6088099953
0.6088099944
0.6088099956
0.6088099871
0.6088099991
0.6088099984
0.6088099884
0.6088099741
0.6088099862
0.6088099704
0.6088099327
0.6088099936
0.6088099777
0.608809962
0.6088099787
0.6088099926
0.6088099789
0.6088099824
0.6088099997
0.6088099993
0.6088099997
0.6088099998
0.6088099998
0.6088099998
0.6088099998
0.6088099997
0.6088099998
0.6088099998
0.6088099995
0.6088099993
0.6088099995
0.6088099996
0.6088088968
0.6088088737
0.6088088774
0.6088085902
0.6088088605
0.6088085722
0.60880852
0.6088085296
0.6088084251
0.608808324
0.6088083427
0.6088082111
0.6088081328
0.6088083373
0.608808061
0.6088081174
0.6088082944
0.6088080597
0.6088080667
0.6088084269
0.6088081212
0.6088081854
0.608808415
0.6088082288
0.6088082477
0.6088098866
0.6088091734
0.6088098773
0.6088099933
0.6088099602
0.6088099929
0.6088099986
0.6088099968
0.6088099771
0.6088099764
0.6088099677
0.6088099592
0.6088099575
0.6088098946
0.6088098807
0.6088098139
0.6088098006
0.6088096054
0.6088098895
0.6088099428
0.6088099597
0.6088098776
0.6088099126
0.608809924
0.6088099665
0.6088099286
0.6088098637
0.6088099997
0.6088099998
0.6088099995
0.6088099996
0.6088099998
0.6088099998
0.6088099998
0.6088099997
0.6088099996
0.6088099995
0.6088099979
0.6088099991
0.6088099982
0.6088099994
0.608809999
0.6088083598
0.6088084289
0.608808346
0.6088083279
0.6088082618
0.6088082177
0.6088081544
0.6088081966
0.6088080965
0.6088080661
0.6088080423
0.6088080341
0.6088080488
0.6088080513
0.6088080221
0.6088080135
0.6088079794
0.6088080836
0.6088080794
0.6088080377
0.6088081241
0.6088081678
0.6088081499
0.6088097185
0.608808179
0.6088094552
0.6088099914
0.608809775
0.6088099834
0.6088099942
0.6088098377
0.6088098404
0.6088098417
0.6088098278
0.6088098185
0.6088098062
0.6088095901
0.6088094811
0.608809345
0.6088092189
0.6088088539
0.6088088586
0.6088088325
0.6088087385
0.6088084086
0.6088077861
0.6088081916
0.6088087883
0.6088095719
0.6088096948
0.6088093814
0.6088083691
0.6088095314
0.6088099997
0.6088099997
0.6088099998
0.6088099997
0.6088099998
0.6088099997
0.6088099996
0.6088099997
0.6088099974
0.6088099996
0.6088099991
0.608808147
0.6088081074
0.6088081433
0.608808094
0.6088080745
0.6088081424
0.6088081543
0.6088080749
0.6088081699
0.6088081532
0.6088080372
0.6088081441
0.6088080462
0.6088080701
0.6088081728
0.60880817
0.608808118
0.608808151
0.6088099918
0.6088099717
0.608809806
0.6088097214
0.6088099977
0.6088099973
0.6088099914
0.6088081569
0.6088081321
0.6088080807
0.6088080092
0.6088079594
0.6088080653
0.6088079611
0.6088080704
0.6088079188
0.6088079661
0.6088080431
0.6088081114
0.6088094083
0.6088086964
0.6088084943
0.6088084663
0.6088084507
0.6088084312
0.6088083771
0.6088083609
0.6088083883
0.6088081112
0.608808072
0.6088078896
0.6088078489
0.6088084428
0.60880848
0.6088084248
0.6088084749
0.6088084322
0.6088085088
0.6088084158
0.6088085473
0.6088085293
0.6088084061
0.6088084762
0.6088084527
0.6088083503
0.6088084802
0.6088084373
0.6088081897
0.6088083984
0.6088083937
0.6088077669
0.6088084166
0.6088078104
0.6088078988
0.608807999
0.6088080563
0.6088078858
0.6088081379
0.6088080622
0.6088079143
0.6088079431
0.6088084271
0.6088078879
0.6088078228
0.6088078298
0.608807939
0.6088079079
0.6088099997
0.6088099992
0.6088099991
0.6088099996
0.6088086536
0.6088099991
0.6088099989
0.6088099912
0.6088099939
0.6088083362
0.6088082382
0.608808337
0.6088082419
0.6088083426
0.6088083541
0.6088083718
0.6088085808
0.6088082771
0.6088083953
0.6088084154
0.6088084351
0.6088083159
0.608808439
0.6088085944
0.6088084335
0.6088084311
0.6088085932
0.6088082926
0.6088084325
0.6088082944
0.6088084294
0.6088084118
0.6088083702
0.6088082269
0.6088083073
0.6088082327
0.608808214
0.6088098181
0.6088097926
0.6088087075
0.6088099978
0.6088099875
0.6088081467
0.6088082361
0.6088081386
0.6088082597
0.6088082961
0.6088081684
0.6088082941
0.6088081616
0.6088082682
0.6088082121
0.6088081697
0.6088084733
0.6088084947
0.6088085146
0.6088084968
0.6088085253
0.6088085812
0.6088085811
0.6088086684
0.6088085887
0.6088087305
0.6088087107
0.608808535
0.6088086734
0.608808607
0.6088085252
0.6088086388
0.6088086468
0.608808464
0.6088086536
0.608808609
0.608808446
0.6088085398
0.6088085511
0.6088080155
0.6088085407
0.6088084305
0.608808262
0.6088085388
0.6088086426
0.6088086302
0.6088086142
0.6088086192
0.6088087517
0.6088086656
0.6088087283
0.6088088358
0.6088088703
0.6088087471
0.60880871
0.6088087463
0.6088087264
0.6088087732
0.6088087734
0.6088087999
0.608808803
0.6088088514
0.6088088762
0.6088086253
0.6088088483
0.6088087604
0.6088084476
0.6088085987
0.6088084885
0.6088080794
0.6088083085
0.6088081227
0.6088080895
0.608808808
0.6088087188
0.6088087599
0.6088087119
0.6088087705
0.6088085815
0.6088088481
0.6088085969
0.6088087189
0.6088087242
0.6088086941
0.6088087452
0.6088087143
0.6088087321
0.6088088165
0.6088087543
0.6088087856
0.6088088971
0.6088088382
0.608808883
0.6088087946
0.6088088436
0.6088087578
0.6088085705
0.6088086472
0.6088085768
0.6088083246
0.608808441
0.6088083444
0.608809999
0.608808615
0.6088086352
0.6088084712
0.6088084761
0.6088087226
0.6088084679
0.6088084828
0.6088084865
0.608808629
0.6088085202
0.6088085403
0.6088085292
0.6088086599
0.6088085408
0.6088085448
0.6088086714
0.608808562
0.608808578
0.6088086018
0.6088087217
0.6088085799
0.6088086439
0.6088087799
0.6088086637
0.6088086346
0.6088086954
0.6088086438
0.6088085817
0.608808534
0.6088085008
0.6088085
0.6088084026
0.6088083923
0.6088083507
)
;

boundaryField
{
    walls
    {
        type            zeroGradient;
    }
    wallFilmFace_top
    {
        type            zeroGradient;
    }
    region0_to_wallFilmRegion_wallFilmFace
    {
        type            zeroGradient;
    }
    mirrorFace_top
    {
        type            zeroGradient;
    }
    region0_to_wallFilmRegion_mirrorFace
    {
        type            zeroGradient;
    }
    procBoundary3to2
    {
        type            processor;
        value           nonuniform List<scalar> 
64
(
0.608809317
0.608808909
0.6088086839
0.6088086229
0.6088084712
0.6088099002
0.6088088974
0.6088084769
0.6088084763
0.6088099965
0.6088099965
0.6088099966
0.6088099966
0.6088099958
0.6088099959
0.6088099955
0.608809995
0.6088099943
0.6088099936
0.6088099933
0.6088099932
0.6088099933
0.6088099986
0.6088099986
0.6088099956
0.6088099949
0.6088099949
0.6088099946
0.6088099947
0.6088099947
0.6088099944
0.6088099915
0.6088099915
0.6088099859
0.6088099769
0.6088099933
0.6088099976
0.6088099924
0.6088099861
0.608809996
0.6088081918
0.6088084988
0.6088084799
0.6088085396
0.6088088245
0.6088086476
0.6088099924
0.608809996
0.6088099676
0.6088091267
0.6088087078
0.6088086557
0.6088086229
0.6088084178
0.6088098337
0.6088081502
0.6088081521
0.6088085388
0.6088082376
0.6088083374
0.6088084918
0.6088086525
0.608808728
0.6088084618
)
;
    }
}


// ************************************************************************* //
