/*--------------------------------*- C++ -*----------------------------------*\
  =========                 |
  \\      /  F ield         | OpenFOAM: The Open Source CFD Toolbox
   \\    /   O peration     | Website:  https://openfoam.org
    \\  /    A nd           | Version:  8
     \\/     M anipulation  |
\*---------------------------------------------------------------------------*/
FoamFile
{
    version     2.0;
    format      ascii;
    class       volScalarField;
    location    "1.7/wallFilmRegion";
    object      T;
}
// * * * * * * * * * * * * * * * * * * * * * * * * * * * * * * * * * * * * * //

dimensions      [0 0 0 1 0 0 0];

internalField   nonuniform List<scalar> 
1342
(
299.999992
299.9999853
299.9999875
299.9999921
299.999998
299.9999989
299.999999
299.9995236
299.9996096
299.9999655
299.9992009
299.9987677
299.9990769
299.9990353
299.9992371
299.9992676
299.999986
299.9999983
299.999991
299.9999955
299.9999949
299.9999993
299.9999998
299.9999998
299.9999995
299.9991896
299.9991804
299.9991992
299.9990328
299.9988465
299.998729
299.998735
299.9988111
299.9988695
299.9993805
299.9999843
299.9999669
299.9999571
299.9999602
299.9999698
299.9999996
299.9999999
299.9999969
299.9988387
299.9987513
299.9986209
299.9985481
299.9985383
299.9985605
299.9986426
299.999468
299.9999301
299.9999301
299.9999269
299.9999196
299.9999064
299.9998808
299.999838
299.9998018
299.9996892
299.9997848
299.9999997
299.9999993
299.9997672
299.9991729
299.9991678
299.9991751
299.9991677
299.9991251
299.9990243
299.9988485
299.9986969
299.9986947
299.998643
299.9999994
299.9999889
299.9988566
299.998861
299.9988654
299.9988304
299.9988632
299.9988641
299.9987195
299.9986874
299.9986526
299.9985219
299.9985055
299.9999992
299.9999983
299.998894
299.9989131
299.9989536
299.9989824
299.9989801
299.9989801
299.9989652
299.9988841
299.998702
299.9999955
299.9999882
299.9999948
299.9999955
299.9999956
299.9999968
299.9999851
299.9999893
299.9999934
299.9999949
299.999996
299.9999985
299.9999996
299.9999954
299.9999963
299.9999957
299.9999961
299.9999965
299.9999967
299.9999958
299.9999965
299.9999963
299.9999962
299.9999966
299.9999977
299.9999973
300.0000008
300.0000058
299.9999975
300.0000079
300.0000025
299.9999973
299.9999987
299.9999977
299.9999971
299.9999974
299.9999972
299.9999961
299.9999968
299.9999963
299.9999952
299.9999939
299.9999943
299.9999975
299.9999973
299.9999975
299.9999965
299.9999975
299.9999971
299.9999967
299.9999968
299.9999967
299.9999968
299.9999974
299.9999972
299.999999
299.9999978
299.9999993
300.0000025
300.0000017
300.0000011
300.0000161
300.0000137
300.0000331
299.9999987
300.0000099
300.0000028
299.9999966
299.9999974
299.999994
299.9999942
299.9999925
299.9999915
299.9999931
299.9999905
299.9999897
299.9999923
299.999989
299.9999886
299.9999945
299.9999881
299.9999881
299.9999974
299.9999969
299.9999974
299.9999974
299.9999977
299.9999975
299.9999968
299.9999971
299.999997
299.9999986
300.000002
300.0000021
300.0000097
300.0000105
300.0001977
300.0000094
300.0000655
300.0000195
300.0000364
300.0000162
300.0000381
300.0000047
300.0000122
300.0000055
299.9999983
300.0000037
300.000003
299.9999902
300.0000026
300.0000021
299.9999872
300.0000015
300.0000004
299.9999866
299.9999964
299.9999883
299.999988
299.999987
299.9999874
299.9999972
299.9999959
299.9999968
299.999998
300.0000005
300
299.9999988
300.000006
300.0001035
300.0000113
300.0000514
300.0000396
300.0001248
300.0000722
300.0001291
300.0000211
300.0000947
300.0000259
300.0000346
300.0000172
300.00003
300.0000056
300.000011
300.0000054
300.0000033
300.0000043
300.0000039
300.0000022
300.0000035
300.0000028
300.0000006
300.0000017
300.0000003
299.9999844
299.9999993
299.9999977
299.9999923
299.9999951
299.9999922
299.9999877
299.9999904
299.9999882
299.9999962
299.9999953
299.9999958
299.9999993
299.9999992
299.9999981
300.0001708
299.9999957
300.0001839
300.0000791
300.0001211
300.0001159
300.0001393
300.0001397
300.0001497
300.0000432
300.0001076
300.0000552
300.0000264
300.0000267
300.0000243
300.0000054
300.0000129
300.0000057
300.0000045
300.000005
300.0000051
300.0000039
300.0000052
300.0000049
299.9999994
300.0000034
299.9999993
299.9999958
299.9999931
299.9999924
299.9999918
299.9999921
299.9999914
299.9999886
299.9999904
299.9999918
299.9999958
300.0000004
300.0000106
300.000142
300.0003854
300.0004149
300.0001862
300.0004268
300.0001849
300.0001436
300.0001638
300.0001619
300.0001584
300.0001706
300.0001649
300.0000647
300.0000026
300.0000371
300.0000312
300.0000394
300.0000365
300.0000067
300.0000146
300.0000093
300.0000062
300.0000097
300.0000097
300.000006
300.0000086
300.0000063
300.0000023
300.0000016
299.9999989
299.9999931
299.999996
299.9999944
299.9999916
299.9999934
299.9999918
299.9999978
299.9999973
300.0000076
299.9999982
300.0000041
300.0004035
300.0002366
300.0002165
300.0001828
300.0001937
300.0001666
300.0001734
300.0001864
300.0001845
300.0001689
300.000184
300.0001648
300.0000016
299.9999983
300.0000006
300.0000298
300.0000312
300.0000246
300.0000115
300.0000143
300.0000137
300.0000164
300.0000168
300.0000229
300.0000345
300.0000337
300.0000451
299.9999986
300.0000057
300.000001
299.9999943
299.9999952
299.9999941
299.999992
299.9999939
299.9999965
299.999997
299.9999962
300.0000184
299.9999963
299.9999965
300.0000646
299.9999966
299.9999966
300.0000699
299.9999965
299.9999963
300.0000813
299.9999958
299.9999952
300.0000982
299.9999941
299.9999947
300.000008
299.9999945
300.0000213
300.0000222
300.0000272
300.0000198
300.0000164
300.0000159
300.0000168
300.0000268
300.0000214
300.0000326
300.0000473
300.0000583
299.9999974
299.9999985
299.9999977
299.9999978
299.9999961
299.9999939
299.9999962
299.999994
299.999994
299.9999963
299.999994
299.9999939
299.9999962
299.9999938
299.9999937
299.999996
299.9999935
299.9999932
299.9999957
299.9999928
299.9999924
299.9999953
299.9999919
299.9999913
299.999995
299.9999908
299.9999905
299.9999942
299.9999904
299.9999896
299.9999833
299.9999836
299.9999846
299.9999827
299.9999953
299.9999848
299.9999899
299.9999899
299.9999896
299.9999891
299.9999881
299.9999863
299.9999834
299.9999799
299.9999834
299.9999834
299.9999818
299.9999809
299.9999799
299.9999785
299.9999587
299.9999806
299.9999502
299.9999291
299.9999662
299.9999217
299.9999668
299.9998911
299.9999101
299.9999292
299.9999305
299.9999289
299.9998846
299.9998829
299.9999238
299.9998797
299.9999142
299.9998956
299.9998461
299.9998273
299.9998614
299.9997996
299.9997595
299.9998147
299.9998132
299.9995823
299.9988167
299.9995866
299.9985993
299.9987063
299.9992854
299.9991831
299.9988573
299.9991745
299.9988465
299.9988536
299.9988723
299.9989433
299.9988547
299.998791
299.9987561
299.9986911
299.9986761
299.9983395
299.9985388
299.9989009
299.9989363
299.998909
299.998616
299.998678
299.9999954
299.9999984
299.9999958
299.9999986
299.9999966
299.9999987
299.9999971
299.9999988
299.9999973
299.9999988
299.9999977
299.9999989
299.9999986
299.9999989
299.9999991
299.999999
299.9999969
299.9999988
299.9999987
299.999995
299.9999962
299.9999957
299.9999959
299.9999968
299.9999974
299.9999974
299.9999972
299.9999968
299.9999951
299.9999969
299.999986
299.9999951
299.9999865
299.9999974
299.9999971
299.9999966
299.9999969
299.9999976
300.0000001
300.000011
300.0000013
299.9999975
299.9999954
299.9999934
299.9999928
299.9999948
299.9999855
299.9999852
299.9999862
299.9999971
299.9999976
299.999997
299.9999986
300
300.0000503
300.0000159
300.0000106
300.0000018
299.9999938
299.9999881
299.9999867
299.9999871
299.9999869
299.9999965
299.9999986
299.9999975
300.0000185
300.0000361
300.0000852
300.0000165
300.000012
300.000004
300.0000028
300.0000015
299.9999989
299.9999903
299.9999904
299.9999955
300.0000009
300.0000136
300.0000887
300.0001101
300.000101
300.0000187
300.0000109
300.0000045
300.0000044
300.0000024
299.9999962
299.9999943
299.9999903
299.9999952
299.9999992
300.0002049
300.0001461
300.0001591
300.0001147
300.0000334
300.0000254
300.0000059
300.0000064
300.0000044
299.9999931
299.999993
299.9999906
299.999999
300.0003798
300.0003941
300.0001759
300.0001774
299.9999991
300.0000235
300.0000138
300.0000133
300.0000225
299.9999964
299.9999957
299.9999937
299.9999975
299.9999962
300.0000007
300.0000499
300.0000677
300.000075
300.00009
299.9999971
300.0000308
300.0000158
300.0000202
300.0000366
299.999999
299.999995
299.9999972
299.9999908
299.9999922
299.9999917
299.9999886
299.999986
299.9999845
299.999988
299.9999911
299.9999946
299.9999968
299.9999957
299.9999992
299.9999984
299.999996
299.9999962
299.9999963
299.9999962
299.9999961
299.9999958
299.9999955
299.9999952
299.9999947
299.9999934
299.9999926
299.9999891
299.9999905
299.9999892
299.999992
299.9999823
299.9999991
299.9999984
299.9999899
299.9999898
299.9999832
299.9999894
299.9999824
299.9999886
299.9999873
299.999985
299.9999739
299.9999815
299.9999654
299.9999798
299.9999998
299.9999998
299.9999996
299.9999683
299.9998299
299.9989195
299.9995418
299.9997667
299.9995543
299.9999998
299.998641
299.9986384
299.9985877
299.9985257
299.9985922
299.9985186
299.9984985
299.9985825
299.9984984
299.9985539
299.9986166
299.9986073
299.9984777
299.99851
299.9987364
299.9999998
299.9999996
299.9999996
299.9986494
299.9987278
299.9987762
299.9987674
299.9986547
299.9987577
299.9997169
299.9986221
299.9989002
299.9989451
299.9989865
299.9989087
299.9989501
299.9988966
299.9989294
299.998917
299.9988645
299.998867
299.9989699
299.9990585
299.9992048
299.999018
299.9990932
299.9991482
299.9990722
299.9989493
299.9987347
299.999085
299.9991496
299.9990672
299.9990681
299.999095
299.9991644
299.9991925
299.9990177
299.9988571
299.9990306
299.9991079
299.9990129
299.9990451
299.9990473
299.9991235
299.9990861
299.998972
299.9988265
299.9999952
299.9999983
299.9999945
299.9999972
299.9999956
299.9999985
299.9999946
299.9999949
299.9999973
299.9999974
299.9999962
299.9999987
299.999995
299.9999951
299.9999974
299.9999974
299.9999969
299.9999988
299.9999954
299.9999955
299.9999974
299.9999974
299.9999972
299.9999988
299.9999958
299.9999961
299.9999974
299.9999974
299.9999974
299.9999989
299.9999962
299.9999962
299.9999973
299.9999972
299.9999981
299.9999989
299.9999962
299.9999962
299.9999971
299.9999971
299.9999989
299.9999989
299.9999962
299.999996
299.999997
299.9999968
299.9999992
299.9999989
299.9999948
299.9999947
299.9999966
299.9999963
299.9999948
299.9999991
299.9999959
299.9999985
299.9999977
299.9999945
299.9999956
299.999997
299.9999919
299.9999955
299.9999869
299.9999867
299.9999867
299.9999865
299.99999
299.9999862
299.9999871
299.9999898
299.9999918
299.9999931
299.9999909
299.999997
299.9999984
299.9999928
299.9999998
299.9999998
299.9999999
299.9999988
299.9999969
299.9999998
299.9999941
299.9999951
299.9999991
299.9999978
299.999999
299.9999974
299.9999972
299.9999998
299.9999997
299.9999996
299.9999903
299.999977
299.9995102
299.9993679
299.9999916
299.9999776
299.9999783
299.9995481
299.9993712
299.9993795
299.9999925
299.999979
299.9999799
299.9997328
299.999408
299.9994579
299.9999903
299.9999775
299.9999769
299.9999846
299.9995356
299.9995414
299.9999872
299.9999764
299.999976
299.9988081
299.9991968
299.9990939
299.9999852
299.9999756
299.9999752
299.99898
299.9990685
299.9990591
299.9999869
299.9999749
299.9999746
299.9992244
299.9989869
299.9990657
299.9999894
299.9999744
299.9999743
299.9991759
299.9989506
299.999013
299.9999929
299.9999741
299.9999739
299.999315
299.9990666
299.9991176
299.9999962
299.9999737
299.9999743
299.9991793
299.9990932
299.9990216
299.9999971
299.9999882
299.9999959
299.9999929
299.9994003
299.9999447
299.9999991
299.9999966
299.9999959
299.9999968
299.9999907
299.9999993
299.9999988
299.9999915
299.9999812
299.99999
299.9999785
299.9999511
299.9999953
299.9999838
299.9999724
299.9999845
299.9999946
299.9999847
299.9999872
299.9999997
299.9999995
299.9999998
299.9999999
299.9999999
299.9999998
299.9999999
299.9999998
299.9999998
299.9999998
299.9999997
299.9999995
299.9999996
299.9999997
299.9991985
299.9991817
299.9991844
299.9989758
299.9991721
299.9989627
299.9989248
299.9989317
299.9988559
299.9987824
299.998796
299.9987004
299.9986435
299.9987921
299.9985913
299.9986323
299.9987609
299.9985904
299.9985955
299.9988571
299.9986351
299.9986817
299.9988485
299.9987132
299.998727
299.9999176
299.9993995
299.9999108
299.9999952
299.9999711
299.9999948
299.999999
299.9999977
299.9999833
299.9999829
299.9999766
299.9999703
299.9999691
299.9999234
299.9999134
299.9998648
299.9998551
299.9997133
299.9999197
299.9999584
299.9999707
299.9999111
299.9999365
299.9999448
299.9999756
299.9999482
299.9999009
299.9999998
299.9999998
299.9999997
299.9999997
299.9999999
299.9999998
299.9999998
299.9999998
299.9999997
299.9999996
299.9999985
299.9999993
299.9999987
299.9999996
299.9999993
299.9988084
299.9988586
299.9987984
299.9987852
299.9987372
299.9987051
299.9986591
299.9986898
299.9986171
299.9985951
299.9985777
299.9985718
299.9985824
299.9985843
299.9985631
299.9985568
299.998532
299.9986077
299.9986047
299.9985744
299.9986372
299.9986689
299.9986559
299.9997955
299.9986771
299.9996042
299.9999937
299.9998365
299.999988
299.9999958
299.9998821
299.9998841
299.999885
299.9998749
299.9998682
299.9998592
299.9997022
299.999623
299.9995242
299.9994325
299.9991674
299.9991707
299.9991518
299.9990835
299.9988438
299.9983916
299.9986862
299.9991197
299.999689
299.9997783
299.9995506
299.9988151
299.9996595
299.9999998
299.9999998
299.9999998
299.9999998
299.9999998
299.9999998
299.9999997
299.9999998
299.9999981
299.9999997
299.9999994
299.9986538
299.998625
299.9986511
299.9986153
299.9986011
299.9986505
299.9986591
299.9986014
299.9986705
299.9986583
299.9985741
299.9986517
299.9985806
299.998598
299.9986725
299.9986705
299.9986327
299.9986567
299.999994
299.9999794
299.9998591
299.9997976
299.9999983
299.999998
299.9999937
299.998661
299.998643
299.9986056
299.9985537
299.9985175
299.9985944
299.9985188
299.9985982
299.998488
299.9985224
299.9985783
299.9986279
299.9995701
299.9990529
299.9989061
299.9988858
299.9988744
299.9988602
299.998821
299.9988092
299.9988291
299.9986278
299.9985993
299.9984668
299.9984372
299.9988687
299.9988957
299.9988556
299.998892
299.998861
299.9989167
299.9988491
299.9989446
299.9989316
299.9988421
299.9988929
299.9988759
299.9988015
299.9988959
299.9988647
299.9986848
299.9988364
299.998833
299.9983776
299.9988497
299.9984093
299.9984735
299.9985462
299.9985879
299.998464
299.9986472
299.9985922
299.9984847
299.9985057
299.9988573
299.9984655
299.9984183
299.9984233
299.9985027
299.9984801
299.9999997
299.9999994
299.9999994
299.9999997
299.9990218
299.9999994
299.9999992
299.9999936
299.9999955
299.9987912
299.9987201
299.9987918
299.9987227
299.9987959
299.9988042
299.9988171
299.998969
299.9987483
299.9988342
299.9988488
299.9988631
299.9987765
299.9988659
299.9989788
299.9988619
299.9988602
299.998978
299.9987596
299.9988612
299.9987609
299.998859
299.9988462
299.9988159
299.9987119
299.9987703
299.998716
299.9987024
299.9998678
299.9998493
299.999061
299.9999984
299.9999909
299.9986536
299.9987185
299.9986477
299.9987357
299.9987621
299.9986693
299.9987607
299.9986644
299.9987418
299.9987011
299.9986703
299.9988908
299.9989064
299.9989209
299.9989079
299.9989286
299.9989692
299.9989691
299.9990326
299.9989747
299.9990777
299.9990633
299.9989357
299.9990362
299.998988
299.9989286
299.9990111
299.9990169
299.9988841
299.9990219
299.9989894
299.998871
299.9989392
299.9989474
299.9985582
299.9989398
299.9988598
299.9987373
299.9989384
299.9990138
299.9990049
299.9989932
299.9989968
299.9990931
299.9990306
299.9990761
299.9991542
299.9991793
299.9990898
299.9990628
299.9990892
299.9990747
299.9991087
299.9991089
299.9991281
299.9991304
299.9991655
299.9991836
299.9990013
299.9991633
299.9990994
299.9988722
299.9989819
299.9989019
299.9986047
299.9987711
299.9986362
299.998612
299.999134
299.9990692
299.9990991
299.9990642
299.9991068
299.9989694
299.9991632
299.9989807
299.9990693
299.9990732
299.9990513
299.9990884
299.9990659
299.9990789
299.9991402
299.999095
299.9991178
299.9991988
299.999156
299.9991885
299.9991243
299.9991599
299.9990975
299.9989614
299.9990172
299.9989661
299.9987828
299.9988674
299.9987972
299.9999992
299.9989938
299.9990085
299.9988893
299.9988929
299.999072
299.9988869
299.9988977
299.9989004
299.999004
299.9989249
299.9989395
299.9989315
299.9990264
299.9989399
299.9989428
299.9990348
299.9989553
299.9989669
299.9989842
299.9990713
299.9989683
299.9990148
299.9991136
299.9990292
299.999008
299.9990522
299.9990147
299.9989696
299.9989349
299.9989108
299.9989103
299.9988395
299.998832
299.9988018
)
;

boundaryField
{
    walls
    {
        type            zeroGradient;
    }
    wallFilmFace_top
    {
        type            zeroGradient;
    }
    region0_to_wallFilmRegion_wallFilmFace
    {
        type            zeroGradient;
    }
    mirrorFace_top
    {
        type            zeroGradient;
    }
    region0_to_wallFilmRegion_mirrorFace
    {
        type            zeroGradient;
    }
    procBoundary3to2
    {
        type            processor;
        value           nonuniform List<scalar> 
64
(
299.9995038
299.9992074
299.9990438
299.9989995
299.9988893
299.9999275
299.9991989
299.9988934
299.998893
299.9999974
299.9999975
299.9999975
299.9999975
299.9999969
299.999997
299.9999968
299.9999964
299.9999958
299.9999953
299.9999951
299.9999951
299.9999951
299.999999
299.999999
299.9999968
299.9999963
299.9999963
299.9999961
299.9999962
299.9999962
299.9999959
299.9999938
299.9999938
299.9999898
299.9999832
299.9999951
299.9999982
299.9999945
299.9999899
299.9999971
299.9986863
299.9989094
299.9988956
299.998939
299.999146
299.9990175
299.9999945
299.9999971
299.9999765
299.9993656
299.9990612
299.9990234
299.9989995
299.9988505
299.9998792
299.9986561
299.9986575
299.9989384
299.9987196
299.9987921
299.9989043
299.9990211
299.9990759
299.9988825
)
;
    }
}


// ************************************************************************* //
