/*--------------------------------*- C++ -*----------------------------------*\
  =========                 |
  \\      /  F ield         | OpenFOAM: The Open Source CFD Toolbox
   \\    /   O peration     | Website:  https://openfoam.org
    \\  /    A nd           | Version:  8
     \\/     M anipulation  |
\*---------------------------------------------------------------------------*/
FoamFile
{
    version     2.0;
    format      ascii;
    class       volScalarField;
    location    "0.6/wallFilmRegion";
    object      alpha;
}
// * * * * * * * * * * * * * * * * * * * * * * * * * * * * * * * * * * * * * //

dimensions      [0 0 0 0 0 0 0];

internalField   nonuniform List<scalar> 
1369
(
22.89567181
10.21921227
4.455674565
1.912566251
1.647563059
1.490489137
1.434725487
1.459704308
1.584029325
1.797618144
2.064548038
2.367832905
2.746088231
3.207288296
3.655058697
3.936895336
3.910989652
3.562042545
3.051467046
2.61623778
2.404819969
2.403413966
2.652583512
3.63698663
4.070474818
2.662231117
1.564031252
2.179580411
3.930224227
2.800061342
1.497487863
1.338479041
0.8334388793
1.039240952
1.188824239
1.863955916
1.90697401
2.692396441
3.125186949
2.10359925
1.471568503
1.3528689
1.406546945
1.508742908
1.621204597
1.749125838
1.80689939
1.782818653
1.736109504
1.695705665
1.634614034
1.566640687
1.511489568
1.478966358
1.471680366
1.513647348
1.585229377
4.125052422
8.703649351
17.7902502
14.10974212
0.0222045519
0.1219868548
0.02467744409
0.02382760784
0.03055401708
0.0457359797
0.07077538671
0.1008991523
0.1248609842
0.1236879267
0.09376965008
0.06596661111
0.05525899475
0.04825949229
0.04246526806
0.03655294299
0.0296708503
0.02104812072
0.0106678308
0.008255836922
0.01670718353
0.02443097712
0.03295004332
0.04381683678
0.09485618809
0.4758903475
0.1678287757
0.2309650868
0.09756025465
0.06784677149
0.05373380418
0.04028359091
0.03634341904
0.04169926282
0.07702820551
0.0926524272
0.1917052569
0.22998631
0.1083886143
0.02966580192
0.01365955229
0.01406400092
0.01571837011
0.01751365327
0.04966877681
0.07397653193
0.07841947972
0.06459041117
0.05366584533
0.05037592051
0.05860886397
0.06967917108
0.07599349874
0.07584521533
0.07179558475
0.06717259986
0.1307394306
0.2111465997
10.08215479
6.857971552
0.1887612122
0.1793876064
0.01741542619
0.02031588501
0.02881867863
0.04460056641
0.06649081445
0.08939618742
0.1061751786
0.1064349152
0.08497791844
0.06130985528
0.05397763314
0.0472809342
0.03783345586
0.02766872311
0.02231959869
0.01654010472
0.008776724699
0.007704859833
0.01293954667
0.01693498241
0.02139017716
0.02796614569
0.04594755694
0.5520417269
0.1986004202
0.1935014594
0.07064622454
0.04416513968
0.0309750515
0.02151963043
0.02033308904
0.02501994056
0.04237822401
0.05373299299
0.1550785668
0.1257274608
0.04936564049
0.01455010191
0.009778640858
0.01147485374
0.01300868895
0.01501405596
0.05101913548
0.08150311639
0.1059350134
0.09517007176
0.06544556459
0.04969293645
0.05103397841
0.06048314859
0.06976429084
0.07383126088
0.07283808849
0.06941494737
0.08671649056
0.1141622751
7.054709991
1.982901717
0.01693480344
0.01829677881
0.01277936762
0.01839066841
0.0286862938
0.0432084244
0.05924392668
0.07311598096
0.08056601593
0.07819809204
0.06520743544
0.048476757
0.04449710777
0.03746818177
0.02411614024
0.009308813912
0.006984377441
0.005597604595
0.003122149317
0.00229184798
0.004161266776
0.005996177664
0.007959951889
0.009988895201
0.01520579907
0.8023803911
0.1341896767
0.1053476416
0.03017156771
0.01463965513
0.008025407928
0.003572620965
0.002306487862
0.008590607612
0.01136911644
0.01721168056
0.1124781903
0.02966898031
0.002389734928
0.001965365772
0.00475050898
0.006500152818
0.007477474522
0.009076536237
0.05122118885
0.08754908065
0.1367407734
0.137362972
0.0665230722
0.03534134028
0.03628820356
0.05063863692
0.06537250479
0.07350793823
0.0747893448
0.07194664284
0.06913452884
0.06565178922
1.537632066
1.690518774
0.01037077545
0.01314910113
0.01487241093
0.02293201187
0.03390895288
0.04572520936
0.05633473426
0.06388039745
0.06569348945
0.05945067603
0.04857691188
0.04270385458
0.05138204061
0.05452772157
0.03956928492
0.005044245235
0.003113641015
0.00264646878
0.001761675371
0.001344213514
0.001913344154
0.002520841212
0.003267445101
0.005048857981
0.006319850354
0.02414904801
0.05270100684
0.04717123815
0.012895093
0.006264749967
0.00362379656
0.002001789129
0.001878029724
0.009654701167
0.02962412639
0.05119942469
0.06251307562
0.02309483874
0.002520171441
0.001216892926
0.003030866293
0.003846733722
0.004693243223
0.006157016313
0.0561492863
0.09678180672
0.1685597215
0.2033769456
0.06863412286
0.02082205505
0.02633911126
0.04562046938
0.06439119599
0.07533087787
0.07819186836
0.07606741971
0.07290700936
0.06984124595
1.412899865
1.577843499
0.01059897116
0.01617800098
0.02048642627
0.03006509527
0.04011133691
0.04928654199
0.0569271112
0.06172260502
0.06053118458
0.05017553049
0.03464134287
0.03026237719
0.05258532692
0.07904594729
0.08293394298
0.002093057603
0.0008951280071
0.0008340746275
0.0008128933599
0.0007296513151
0.0006988647942
0.0008457161456
0.001273289278
0.00565685305
0.004239388964
0.005659112916
0.02090808085
0.0184125407
0.004793270836
0.002454570717
0.001594077327
0.001164688637
0.001975045271
0.01426900953
0.07148371513
0.06378142858
0.02721810019
0.01531666711
0.00270021616
0.000744017898
0.00218251914
0.002698083076
0.004377859803
0.00573636528
0.06571378577
0.1079232394
0.1847826679
0.2610651288
0.09018322397
0.01313314625
0.02186038436
0.04415707562
0.06523018458
0.07793124363
0.08164157958
0.07980018077
0.07638097288
0.07450621295
1.27339911
1.528957463
0.01369615696
0.02279899889
0.02850136153
0.03779459452
0.04629461841
0.05409006616
0.06108059791
0.06549412631
0.06291703533
0.04887610941
0.02744670895
0.01628784801
0.04065433505
0.09125410676
0.1569591442
0.001405568474
0.000560584517
0.0006531757947
0.0006757189765
0.0003736520814
0.0002780149919
0.000487552513
0.00182171286
0.01632004819
0.005054007101
0.003674178311
0.007627603587
0.006392003474
0.001540561956
0.0008835593865
0.0006669120249
0.0006627057884
0.002438415576
0.02647851262
0.118538816
0.01539658658
0.00561504405
0.007210720394
0.002653857972
0.0004463763357
0.002381640235
0.003817729684
0.008037764169
0.007987564912
0.07886991764
0.1204363861
0.1806357948
0.268428679
0.1652052611
0.02642808901
0.02345835124
0.04489129143
0.06613049854
0.07965361553
0.0839470126
0.08214626708
0.0784400029
0.0784203802
1.225694646
1.474548644
0.02024036113
0.03144434163
0.03696015278
0.04499264557
0.05253360219
0.06030326849
0.0680175188
0.07308546583
0.069667127
0.05234881352
0.02583380055
0.007699619269
0.0207214331
0.06617057116
0.1925443477
0.008791449725
0.002477008889
0.002137804991
0.001292062967
0.0001776233319
0.0001913291815
0.0006627398534
0.004327584375
0.04660603616
0.006737015878
0.002618312525
0.002070480271
0.001569443969
0.0004339935113
0.0003353373836
0.000283799513
0.0003650858946
0.003573411561
0.04112820145
0.03505175875
0.008523414828
0.002145826266
0.002560271644
0.002279020969
0.0006614279235
0.003613105925
0.007342233593
0.01619253369
0.01031580489
0.09224855907
0.1336692616
0.1679779262
0.2434242962
0.239586865
0.07566748481
0.03471956413
0.0467477383
0.06487871892
0.07714223851
0.08167814727
0.08023890197
0.07654228407
0.078481902
1.1631744
1.41627834
0.02911036438
0.03942919921
0.04413284867
0.0511337109
0.05862039402
0.0672148202
0.07616835423
0.08205457965
0.07757690146
0.05734887083
0.02701915451
0.00465318449
0.008640988559
0.02517384999
0.159743374
0.02602626841
0.006213987888
0.004336563922
0.001945240799
7.150464099e-05
6.048250147e-05
9.595558717e-05
0.0001822482219
0.000447694793
0.004300788846
0.001596581542
0.0004378400712
0.0001800263101
0.0001237626548
0.0002469803185
0.0002369529123
0.0002710479087
0.001597021854
0.05156047428
0.03145936081
0.01130579415
0.002193884841
0.001571542877
0.001869303445
0.03425827186
0.005910878641
0.01310890105
0.02344947706
0.01218125051
0.1000342704
0.1418181603
0.1552830245
0.2025970488
0.2478208377
0.1400910708
0.06045131369
0.04965802819
0.05898592585
0.06729444671
0.07065034984
0.06979197471
0.06689375731
0.07047342485
1.084668417
1.352395822
0.03687645035
0.04424326534
0.04826762635
0.0548141437
0.0627113121
0.07217321544
0.08199129469
0.08817565428
0.08242213789
0.06052139648
0.02808765134
0.004004235672
0.007575865777
0.01519104386
0.09665810975
0.04218842427
0.01318716968
0.007994215284
0.003074337607
9.807162875e-05
8.164083918e-05
0.0001126930207
0.0001866717526
0.0003496925393
0.006248122479
0.0008362169111
6.884396278e-05
6.823371471e-05
8.999167179e-05
0.0004823545235
0.0003376996239
0.0002556622002
0.003284109439
0.06037410276
0.04960330486
0.01852290491
0.002062380439
0.001342186299
0.001664840649
0.003506949881
0.006155808143
0.01803399932
0.02285985458
0.01177360334
0.09062444803
0.1288157678
0.1303612798
0.1471971524
0.1852983075
0.151988586
0.08155298618
0.0496276999
0.04575958389
0.04833518621
0.04974174846
0.04924269967
0.04765643686
0.05175210632
0.9897916628
1.279945321
0.03903121182
0.04312027624
0.04648774544
0.0525936089
0.06035154794
0.06944312557
0.07828284377
0.08314789334
0.0775837707
0.05716975071
0.02596232059
0.003222475543
0.007393249197
0.01016228215
0.07551840246
0.1400032088
0.1364273425
0.1165762513
0.05578498714
0.01248418365
0.0003083324854
0.0001470532934
0.0001047459956
0.0001938625792
0.005974308705
0.002428717046
0.0002613020262
0.0001399360314
0.0001648351564
0.001599515398
0.0009309653193
0.0004804554081
0.00512013537
0.09324347607
0.09473422358
0.03540157709
0.002276500561
0.001258197698
0.001110468926
0.001614190881
0.004859702548
0.01149372407
0.01133728055
0.006682971462
0.05178784003
0.07440173925
0.0744386435
0.07456230095
0.08515272673
0.08440896795
0.05808754118
0.03383242881
0.02420256558
0.02244623901
0.02287687145
0.02346448158
0.02355640629
0.02630179701
0.9057053335
1.198333061
0.03185109354
0.03339919773
0.0356074116
0.04042433247
0.04658317399
0.05341583374
0.0595615675
0.06249539435
0.05822341665
0.0428016975
0.01907691615
0.003207585428
0.005215785697
0.008213028755
0.01801008471
0.000731192054
8.242704802e-05
4.179144225e-05
1.422724892e-05
0.0002003012107
0.05286127431
0.0002941629057
0.0001189612274
0.00022421542
0.00452625754
0.006404064034
0.001107526573
0.0005036922284
0.0003234099776
0.006652421541
0.00405260493
0.002070915691
0.007244598516
0.09330190929
1.490712773
0.06538075985
0.00304001202
0.00172434886
0.001370248056
0.0009778313926
0.0003748587506
4.291492465e-05
0.0001419092118
0.002703846758
0.005865024085
0.01109107137
0.01078503799
0.007137431052
0.005601102468
0.008399411611
0.009429207544
0.01177807769
0.01453488987
0.01602685099
0.01476731284
0.01139994229
0.008550322233
0.007529875616
0.9195855795
0.03063386586
0.03108971277
0.02769153011
0.01972679364
0.009376276879
0.007389435158
0.002885002436
0.00386054149
0.006320912419
0.0001245796112
1.080538956e-05
5.226536034e-06
1.289383743e-06
4.484973258e-05
0.3466566398
0.00114859299
0.0001716400757
0.0001209714104
0.002243927497
0.006674521407
0.002325812997
0.0006399179426
0.0003480957965
0.04066410466
0.007466717837
0.003542397071
0.009230375914
0.1064142611
1.439173253
0.04585169679
0.004191440421
0.00269598376
0.002367789665
0.001894566842
0.0006735076978
3.642793458e-05
9.752311687e-05
0.01199299445
0.01650073824
0.02596191037
0.02080364062
0.009289204881
0.00536978228
0.007224794324
0.01936401949
0.04469423558
0.08412444145
0.1214169835
0.1223267453
0.08964561038
0.05413313822
0.02483311198
1.195774315
0.01104589693
0.0218090625
7.108669549e-05
0.0001217826939
0.001046896247
5.543965302e-05
8.020208726e-06
4.685879413e-06
1.494504821e-06
5.793582053e-05
2.23603823
0.01839602316
0.0003555337324
4.7617101e-05
0.0002397863518
0.006403981857
0.003079931183
0.00316620033
0.004268775459
0.2127930378
0.0153387413
0.007324127186
0.01223349447
0.2018249873
0.7850942308
0.02446422049
0.005466422582
0.004434994311
0.004488643034
0.004419719026
0.001420484413
4.898336654e-05
7.140898008e-05
0.0386813279
0.04706025278
0.03518391948
0.01538634317
0.005674746572
0.004014196468
0.006593519112
0.06511254542
0.1936972396
0.3194535085
0.3875830727
0.414108404
0.4110892241
0.374241144
0.2815543198
1.962216798
5.635039889e-05
6.075646866e-05
0.0002212696755
2.21233431e-05
5.195371205e-06
3.762991183e-06
6.858330115e-07
3.25255091e-08
0.0001332369324
0.1270247731
0.001906163827
0.0004083538773
0.0003534557313
0.007398582559
0.006101979164
0.09114224212
0.1733689194
0.1922188209
0.01806402749
0.01564697382
0.03161258202
1.763232678
0.1342877277
0.01260960157
0.006473999147
0.006957589085
0.008712657197
0.01250789094
0.00363101806
0.0001202220881
7.065802972e-05
0.07784106198
0.1186390403
0.05294187486
0.0166134069
0.005491858837
0.004225248348
0.007689292237
0.02565392864
0.04296012383
0.05374554761
0.06601817754
0.0932504319
0.1467276908
0.2312037438
0.3231841729
2.624045375
2.748957975e-06
2.820316831e-06
6.093599218e-07
2.597471682e-08
3.380346965e-08
0.02699641212
0.02120091537
0.003158941564
0.001854219472
0.01306840219
0.05866827012
0.2622128758
0.0131646684
0.001784259892
0.006051662662
0.02220384411
0.1906382163
0.3043366153
0.008125624951
0.004912234085
0.005154885039
0.008515712535
0.01530395621
0.03017314409
0.009285273659
0.0004955335253
0.0001190015239
0.1111305094
0.1854417907
0.09820267007
0.03175569013
0.009243292284
0.006252456694
0.01041706142
0.01513694546
0.01875460247
0.0226061993
0.02937405756
0.04229544895
0.06536923784
0.1026909019
0.1403541742
1.73594369
4.981208898e-07
1.743564582e-08
1.608974715e-08
6.294961317e-07
0.08336813194
0.02022699085
0.01814759448
0.01855145068
0.02113980522
0.03443408952
0.01070211853
0.003287839414
0.02075677544
0.0469738184
0.3789736102
0.01303280641
4.692406959e-05
8.271187696e-05
0.0001160741733
0.005034189816
0.04489032028
0.04105547382
0.0147561244
0.006582613379
0.004036289623
0.1169814506
0.2745150877
0.2130832509
0.07287534199
0.01609567481
0.01192510734
0.018740611
0.02247515139
0.02326005942
0.02528056667
0.03263882297
0.04801117688
0.07177879032
0.1031312352
0.1185785692
1.236537468
0.1831587149
0.04620767168
0.07979539549
0.05627289987
0.03560950414
0.02799235779
0.01415008738
0.01247095642
0.05748705577
0.05198173365
0.2863967337
0.001775290229
8.953526031e-05
5.576690135e-05
7.672152293e-10
0.006086880162
0.01324291182
0.008173767938
0.008656282229
0.01408876439
0.03875153961
0.09425684579
0.2799842283
0.3722884059
0.2848337957
0.1472724827
0.08766465542
0.06096171894
0.04217323453
0.03090946362
0.02957464566
0.04030709345
0.06354587121
0.09753841989
0.1291853028
0.1269540819
1.048860242
0.1850894716
0.1903344977
0.3036252529
0.0833768883
0.03187519602
0.01959784989
0.07391645301
0.04961117855
0.1083839543
0.002011201083
0.0002254305933
3.542227192e-08
1.847532561e-07
8.493029413e-05
0.0007190738596
0.01091520613
0.01730075006
0.01583525675
0.01177873694
0.04895033093
0.1686757796
0.2646537023
0.3270800412
0.3524658954
0.2774008916
0.1443559997
0.06612595832
0.03565351715
0.0333876063
0.05279543623
0.08845120777
0.1255345477
0.1443763941
0.1237940016
0.8967256151
0.3103350302
0.3112007509
0.2198707265
0.1087420029
0.03307445127
0.05652195725
0.06645033065
0.05906037802
0.01727957162
0.00122670043
4.221019632e-05
0.001512881468
0.00363713696
0.004342945128
0.04006366075
0.05136486938
0.03884790518
0.02036150162
0.03042561968
0.08397890742
0.1231420836
0.1397404277
0.1340859581
0.1129337009
0.08577939467
0.05794828309
0.03655401718
0.04124289127
0.07582397385
0.1169008954
0.1355767304
0.1334590469
0.102429964
0.8375050315
0.2922926262
0.499756635
0.6970572161
0.2790003257
0.09473422725
0.03781790018
0.06427003953
0.08876147619
0.1982664734
0.009634188542
0.004549370085
0.005345405445
0.008771559929
0.03940296216
0.176617827
0.1141929767
0.06220787455
0.02883817742
0.0214159506
0.04483277788
0.06380563181
0.07732813008
0.08704096384
0.09132709943
0.08952334982
0.08375222337
0.07803959674
0.09443773859
0.1307713955
0.1426969156
0.1241222216
0.1002546448
0.07191945354
0.8794385132
0.8625089722
0.7279520296
0.7278647664
0.1102922886
0.0456659366
0.03296695519
0.04535085147
0.08841565065
0.02564222162
0.01604402022
0.01453834878
0.01512926553
0.05143405482
0.2781698869
0.09939868948
0.05051919096
0.02672011555
0.01776645975
0.02839785521
0.03595001442
0.04240034122
0.04949797312
0.05774723803
0.06868082584
0.09602686613
0.1576747711
0.2217239997
0.2145380114
0.1493092127
0.09271566418
0.06312852601
0.04621470313
1.009170796
0.1626076802
0.3233674309
0.188064118
0.03131755437
0.01911502762
0.01285920763
0.01254525335
0.01527988741
0.009034549165
0.006765523655
0.006087116768
0.006795920435
0.00937157582
0.01241508292
0.01629558727
0.02027884338
0.02579428795
0.03209242349
0.03633136093
0.03995276194
0.04255036399
0.04192709217
0.03871640435
0.04530645938
0.11287858
0.1878694487
0.1862991157
0.1297515795
0.07520480611
0.04457012271
0.03224327927
0.02718330185
1.239793113
0.0142851968
0.08150995675
0.09823812833
0.03276608271
0.02032074217
0.01433924732
0.01205411598
0.01178819729
0.01245821995
0.0152378485
0.02055252925
0.02790735656
0.0340833201
0.03849273029
0.04061124362
0.03984717908
0.03843557908
0.04296046462
0.05210852974
0.06298872954
0.07115576635
0.06822282981
0.05896059902
0.07838395563
0.1198381625
0.1049539494
0.06840163237
0.04070370329
0.02523572787
0.01754300696
0.01626331405
0.0176301738
1.544898133
0.03448485733
0.06227242824
0.04791296574
0.04354014331
0.04737995737
0.06394547052
0.07840492255
0.08865229245
0.08818332827
0.07716358566
0.05873735162
0.04081836634
0.03117212736
0.02652651442
0.0229866378
0.01885785942
0.0366729872
0.06037640717
0.09108643255
0.1223563819
0.1199601945
0.1124277174
0.1306000764
0.1108352545
0.07421986542
0.04602904904
0.02827072102
0.0181730806
0.01290982215
0.01267982537
0.01491375597
1.762321671
0.07985015223
0.1870771114
0.1921887827
0.07650856726
0.03725173033
0.02919454001
0.04153206234
0.01178248985
0.006933478991
0.005469893009
0.005652457621
0.009653024796
0.01532694722
0.01478205818
0.01229750057
0.0358385769
0.07199600523
0.2036547267
0.5038359487
0.7060487511
0.6519692898
0.4530655568
0.2385283497
0.1174528676
0.06545858183
0.03928032576
0.02402155365
0.01541121769
0.0136745628
0.01495327603
1.777774617
0.09032818528
0.120024369
0.01625217884
0.01442671547
0.0434241485
0.01841996929
0.02727097549
0.008264821785
0.005291839666
0.00232162858
0.004196161416
0.01192980162
0.02220533622
0.01770587091
0.0141558216
0.04128052172
0.1144059524
1.838929313
0.5380555069
0.2894221573
0.1812399977
0.1154715289
0.07910488469
0.06021778838
0.04809686316
0.03777863985
0.0277292805
0.01895410248
0.017175254
0.01631224742
1.995630918
0.009615506731
0.005637833191
0.00626204086
0.01043147481
0.09471663126
0.01582379905
0.006333881636
0.00617688692
0.009188671951
0.001017438559
0.003445398994
0.01935915101
0.03682318147
0.02180871197
0.01619668186
0.04939181293
0.1294280501
0.1692956389
0.1007639177
0.05990815931
0.04230941121
0.03399925608
0.03096060891
0.03072198226
0.03186899978
0.03165161905
0.02877732279
0.02273410465
0.02290796059
0.01599598574
2.300978701
0.04021351212
0.003498790485
0.004041876459
0.01573445652
0.0005592987282
0.004642246685
0.04245513524
0.0552931624
0.02384980303
0.01156860202
0.04988829466
0.1132921834
0.08595761339
0.05607504626
0.03458733522
0.02290023365
0.01875070905
0.01792256787
0.01991536518
0.02514644039
0.02679246422
0.02903346073
0.02862834025
0.0361620083
0.02536203832
2.697233907
0.04709401671
0.003559336903
0.007615249105
0.008734689937
0.0002298083166
0.008884050221
0.09815154847
0.07186982881
0.02687060108
0.007375829967
0.03436175945
0.07920570339
0.06180940287
0.07557053334
0.04927304147
0.02277996287
0.01270706208
0.01075704082
0.01614093814
0.03318211538
0.02061815774
0.02305350924
0.0290103711
0.05812134298
0.05382023148
3.882503117
)
;

boundaryField
{
    walls
    {
        type            zeroGradient;
    }
    wallFilmFace_top
    {
        type            zeroGradient;
    }
    region0_to_wallFilmRegion_wallFilmFace
    {
        type            zeroGradient;
    }
    mirrorFace_top
    {
        type            zeroGradient;
    }
    region0_to_wallFilmRegion_mirrorFace
    {
        type            zeroGradient;
    }
    procBoundary0to1
    {
        type            processor;
        value           nonuniform List<scalar> 
52
(
1.122095157
0.01669487458
0.01680411775
0.01744339018
0.02023665019
0.02390042646
0.02772078834
0.02772078834
0.009947967124
0.01050629066
0.009971861399
0.00756044396
0.00756044396
0.07663126112
0.04263286734
0.04263286734
4.573134734e-05
2.746618817e-05
2.490726711e-05
6.481050263e-06
6.481050263e-06
1.024090505e-06
1.70887942e-06
1.70887942e-06
2.824717615e-06
4.688002248e-07
3.310744185e-07
2.022508441e-06
2.022508441e-06
0.2159256104
0.06014344275
0.06014344275
0.1733550894
0.1733550894
0.01827679547
0.2804015142
0.2804015142
0.06209873236
0.03810882346
0.007759511
0.007759511
0.02364931738
0.02364931738
0.01712029165
0.009066166524
0.02177305117
0.002275344868
2.609763345e-06
0.0001483224939
0.08765501108
0.08765501108
1.589618235e-05
)
;
    }
    procBoundary0to2
    {
        type            processor;
        value           nonuniform List<scalar> 
26
(
0.146528644
0.007905166776
0.0181503241
0.003034281379
0.0009078404172
0.02702769529
0.1440204261
0.09577458064
0.05185178462
0.03520095367
0.03053330272
0.05646054339
0.02945244212
0.07817581198
0.07187954829
0.03776602943
0.01505542308
0.01002166769
0.04703731421
0.09356247851
0.008484715948
0.01039610631
0.01407712083
0.02397368237
0.04381813129
3.040031909
)
;
    }
}


// ************************************************************************* //
