/*--------------------------------*- C++ -*----------------------------------*\
  =========                 |
  \\      /  F ield         | OpenFOAM: The Open Source CFD Toolbox
   \\    /   O peration     | Website:  https://openfoam.org
    \\  /    A nd           | Version:  8
     \\/     M anipulation  |
\*---------------------------------------------------------------------------*/
FoamFile
{
    version     2.0;
    format      ascii;
    class       surfaceScalarField;
    location    "0.6/wallFilmRegion";
    object      phi;
}
// * * * * * * * * * * * * * * * * * * * * * * * * * * * * * * * * * * * * * //

dimensions      [1 0 -1 0 0 0 0];

internalField   nonuniform List<scalar> 
2648
(
-0.008254399219
0.006157146875
-0.014016433
1.514769346e-05
-0.01200863081
0.0001065765697
-0.01087003346
-0.0002279663682
-0.009694408008
-0.0002312620929
-0.008954866821
-0.0003140228192
-0.008780413494
-0.0004962185006
-0.009277057455
-0.0008010421252
-0.01036280747
-0.00116590922
-0.01174129788
-0.001426378834
-0.01311009647
-0.001326862472
-0.0144533831
-0.0008807353168
-0.01578031304
-0.0005085456471
-0.01673456857
-0.0003548188017
-0.0167870613
-0.0002404644093
-0.01557211329
-0.0001641291173
-0.01325569101
-0.0001353622781
-0.01053260267
-0.0001325428162
-0.008169457776
-0.0001092416098
-0.006535614164
-4.977987891e-05
-0.005535044581
-2.838666022e-05
-0.005630536622
-9.684176012e-05
-0.01105170336
-0.0001658122173
-0.0209467283
-0.0001906613499
-0.01730595827
-0.0001685080112
-0.006287742183
-0.000537016154
0.003741841919
0.0001859731229
0.01200111197
-0.0007984345852
0.01114826502
-0.002082585474
-0.0002197559224
-0.000972855788
-0.001708224883
-0.0007284473066
-0.001495527129
-0.0005972687046
-0.00168434504
-0.0004737040599
-0.000959097571
-0.0004734295154
0.0008184769312
-0.000532130031
0.005274500997
-0.00103256489
0.008067997605
-0.001167567411
0.01145441631
-0.002164310558
0.01073220715
-0.002441316419
0.006388525234
-0.001135655106
0.004689520925
-0.0003170152709
0.004867096082
-0.0001536538608
0.005617982847
-0.0001632620299
0.006470391193
-0.0001814669132
0.007291634767
-0.0001972569049
0.008145492976
-0.0007919574019
0.008603754761
-0.001207953432
0.008620118893
-0.00114129712
0.008531765198
-0.0007872184097
0.008446861813
-0.0005782749508
0.008239404722
-0.0005181050882
0.008090310097
-0.0006699900142
0.008153332065
-0.0008977976714
0.008438424787
-0.001028556864
0.008915077521
-0.001024493225
0.009511931325
-0.0009380444679
0.01006445821
-0.0008370211513
0.01010574162
-0.001380142142
-0.002795271294
-0.0005997843708
-0.0001246255777
3.032934628e-05
-0.006276388542
2.053084213e-05
5.749175806e-05
-0.0001576624174
0.0007159671239
-0.0001843038404
-0.000154716537
-0.000227540088
-0.0001919528754
-0.0003356388507
-0.0002976525857
-0.0005234639747
-0.0005114097286
-0.0007551952264
-0.0008344504939
-0.0009456586788
-0.00118725727
-0.0009927780909
-0.001427893164
-0.0008214161786
-0.001320086239
-0.0006020488735
-0.000841629434
-0.000491644214
-0.0004352918274
-0.0004004174201
-0.0003132075012
-0.0003212064705
-0.0002087416146
-0.0002459559399
-0.0001306989995
-0.0001725774568
-9.70357613e-05
-0.0001036562063
-8.976866699e-05
-4.338860367e-05
-7.462225175e-05
-1.668295995e-06
-3.540791114e-05
3.006627854e-05
-2.081889694e-05
7.347146943e-05
-6.601385935e-05
0.0001202735593
-0.0001091443545
0.0001667310641
-0.0001340622516
0.0002054189269
-0.0001404960839
0.0001551992877
-0.0003326162342
0.0001527552232
0.003266561916
-0.0001075867428
-0.0005220908652
-0.0003772450527
-0.001765385204
-0.0003835598085
-0.0006316435959
-0.0003809654578
-0.0004017828969
-0.0003151189798
-0.000294510104
-0.0002369878119
-0.0002159280056
-0.0001707567956
-0.0002061713748
-2.34450425e-05
-0.0002519637471
0.0002803751301
-0.0004186932215
0.000530421072
-0.0005024919875
0.001162895078
-0.001472353215
0.001224966847
-0.001228534849
0.0005015338202
-0.000485428502
0.0001296404273
-0.0001439720107
6.533815151e-05
-9.758334112e-05
7.808657805e-05
-0.0001144199649
0.0001007111018
-0.0001281849096
0.0001196293652
-0.0001452409946
0.0003598016715
-0.0009720532856
0.0005730551769
-0.001611788904
0.0005927887327
-0.001738959645
0.0004835664616
-0.001139218301
0.0004181380952
-0.0006270934122
0.0003920313176
-0.0004421539123
0.0004519599542
-0.0005904985849
0.0005592689858
-0.0008581393394
0.0006499133195
-0.001053489
0.0006891374263
-0.001103538487
0.0006852107668
-0.001035448179
0.0006759437446
-0.000918389524
0.0001829025682
-0.0009674177384
-0.001124931404
-0.0004216720413
-0.01026816236
-0.0009217567518
-0.0112168311
-0.0006719208312
-0.000116894119
-0.000136495801
-9.092787981e-05
-0.0001625576896
-0.0001372082928
-0.000222916157
-0.0002042191065
-0.0003399920119
-0.000342359145
-0.000503121134
-0.0005666085137
-0.000664531324
-0.0008424262544
-0.000765489287
-0.001095344546
-0.000777652178
-0.001226706134
-0.0006538419817
-0.001116329654
-0.0004903885154
-0.0007468724967
-0.000427194401
-0.0003979513161
-0.0003527723992
-0.0003532975097
-0.0002669492897
-0.0002945672725
-0.0001837219904
-0.0001987281387
-0.0001315006997
-9.081109575e-05
-8.185329742e-05
-6.99070323e-05
-3.606502311e-05
-5.625726728e-05
-8.165656529e-07
-3.14860833e-05
3.005565288e-05
-2.252144502e-05
6.063846875e-05
-4.075537912e-05
8.947270189e-05
-5.866094721e-05
0.0001177331031
-7.821989219e-05
0.0001413416157
-9.902453905e-05
8.654667101e-05
-0.0001494267523
0.0002221959868
0.004740009374
-0.0001791860581
-0.0005119970441
-0.0003088722025
-0.001073714525
-0.0002511005808
-0.0002810907921
-0.000211796666
-0.0001349790548
-0.0001607980304
-7.549973411e-05
-0.0001261138778
-3.499197235e-05
-9.056613587e-05
-2.530203809e-05
-1.221739066e-06
-8.437714792e-05
0.0001505905363
-1.069846045e-05
0.0002627021692
-3.766476362e-05
0.0006868861055
-0.001050096775
0.000512932608
-0.0002869490049
0.0001989414216
-2.466091298e-05
6.091147019e-05
-2.126559347e-05
4.728340072e-05
-5.173051246e-05
6.472896673e-05
-7.038782918e-05
8.508395477e-05
-8.06344483e-05
0.0001013496212
-9.730534717e-05
0.0003576214501
-0.001023285828
0.0006057304205
-0.001772059544
0.0006847377819
-0.002292265681
0.0005428496197
-0.001639462376
0.000399650611
-0.0006428631002
0.0003295733362
-0.0003201599329
0.0003715768979
-0.0004596347241
0.0004914022673
-0.0007541655894
0.0006209810388
-0.001002484103
0.0007055515519
-0.001105484656
0.0007344559452
-0.001076001804
0.0007254977398
-0.0009724783426
0.0005491249005
-0.0008655931943
0.0006711366267
-0.0007761699431
-0.0101922541
-0.0001328327472
-0.01116376242
-0.0001268705471
-0.0001029848005
-0.000113314795
-0.0001345157339
-0.000156614631
-0.0001584772728
-0.0002405007431
-0.0002602183196
-0.0003595598723
-0.0004230645977
-0.0004815800384
-0.0006275131992
-0.0005674194341
-0.0008319904293
-0.0005880059536
-0.0009876572423
-0.0005366473099
-0.001029054401
-0.0004310458871
-0.0008892414184
-0.000320635556
-0.0005896214618
-0.0002842136107
-0.0003189599092
-0.000220138199
-0.0003581905003
-0.0001368808276
-0.0003555568149
-5.806131594e-05
-0.000251774708
-4.31249189e-05
-4.422469741e-05
-2.84337495e-05
-2.873875024e-05
-1.284604607e-05
-2.45460699e-05
-4.652553698e-07
-1.614992143e-05
8.71341306e-06
-1.274888569e-05
2.005690755e-05
-1.822329997e-05
3.305988578e-05
-2.406379666e-05
4.551498252e-05
-3.143499395e-05
5.198288649e-05
-4.906607865e-05
3.332133703e-05
-6.108292113e-05
0.0003459657568
-4.638422055e-06
-0.000162592788
-0.0003731578132
-0.0001444717299
-0.0004794507316
-7.358614964e-05
-0.0001171351954
-3.532457469e-05
-5.638568304e-05
-1.262752332e-05
-3.308949911e-05
-2.128838605e-06
-1.914357522e-05
3.856052221e-06
-2.139336358e-05
1.75530594e-05
-8.601559344e-05
2.788174906e-05
9.704660711e-05
4.351752533e-05
7.328235161e-05
-2.699742098e-05
-0.0005048921466
-9.236872463e-06
-0.0002107990546
9.890711114e-08
-2.533130534e-05
8.332383515e-06
-1.285378087e-05
2.348113363e-05
-3.15074964e-05
3.770783518e-05
-3.989262071e-05
5.080003153e-05
-4.85798627e-05
6.172858716e-05
-6.343843714e-05
0.0003540695114
-0.001066746307
0.0006459991983
-0.001851047639
0.0007700456515
-0.00274283608
0.0005322335201
-0.002341362907
0.0002745038158
-0.0006345602567
0.0001921149833
-0.0001807357354
0.0002573490602
-0.0003466366738
0.0004243738549
-0.0006663908633
0.0006071689831
-0.0009446954595
0.0007364476193
-0.001079464463
0.0007953038924
-0.001079032407
0.0007985076538
-0.0009969149162
0.0007691691653
-0.0008956776306
0.0007296831631
-0.0007989585536
-0.009955492809
-8.005089461e-05
-0.01061173962
-9.0990793e-05
-0.0001014616864
-0.000140100459
-0.0001618364409
-0.0002135442005
-0.0002175844559
-0.0003172180363
-0.0003459006699
-0.0004223099086
-0.0005044272997
-0.0004983341362
-0.0006691743264
-0.0005273349151
-0.0008175654938
-0.0004973912558
-0.0009184746124
-0.0004075724651
-0.0009141898024
-0.0002963191047
-0.0007417845386
-0.0002313788902
-0.0004392783001
-0.0002465167797
-0.0002139295702
-0.0002292475029
-0.0003414381598
-0.000154076192
-0.0004638510689
-2.7966387e-05
-0.0004318374861
-2.037542772e-05
-1.535214001e-05
-1.389003263e-05
-7.389396529e-06
-7.186478639e-06
-6.968412694e-06
-7.330928072e-07
-6.411706178e-06
4.367293355e-06
-6.698194704e-06
8.926784879e-06
-6.496634001e-06
1.390648123e-05
-7.919825592e-06
1.846783164e-05
-1.208627708e-05
2.599561438e-05
-5.314741923e-05
2.826225865e-05
-3.968834798e-05
6.02509289e-05
-5.342141306e-05
-9.183863713e-05
-0.0002024741046
-6.755821041e-05
-0.0001757059034
-3.441170681e-05
-4.268353482e-05
-1.735722728e-05
-2.165688494e-05
-7.362525128e-06
-1.420362392e-05
-1.69728877e-06
-1.069513454e-05
2.431231489e-06
-2.039090549e-05
1.598831959e-05
-9.950910118e-05
7.163675935e-05
0.0002831830717
0.0001300880767
0.0001692137966
-6.854436075e-06
-0.0001738681541
-7.972809844e-06
-0.0001333218633
3.642850482e-07
-2.468196845e-05
5.091028527e-06
-7.368683025e-06
1.510221552e-05
-2.161404132e-05
2.310551966e-05
-2.68278729e-05
3.347258497e-05
-4.365409289e-05
4.280058485e-05
-5.713579027e-05
0.0003876684835
-0.001129625996
0.0007233968504
-0.001878794786
0.00092454453
-0.00286447963
0.0005698338582
-0.003026171869
0.0001585474223
-0.0008435436773
9.378448208e-05
-0.000113373256
0.0001912317672
-0.0002857306396
0.0003968798418
-0.0006049495689
0.000620889776
-0.0008870505175
0.0007854350524
-0.001035352158
0.0008710372007
-0.001052183992
0.0008924765219
-0.0009881950829
0.0008667595432
-0.0008984168458
0.0008134633945
-0.0008232364041
-0.009346447176
-8.596113616e-05
-0.009932275286
-0.0001221744624
-0.0001260857366
-0.0002111784081
-0.0002227816333
-0.0003138712953
-0.000299671772
-0.0004187561612
-0.0004284135757
-0.0004975434288
-0.0005620825376
-0.0005388871009
-0.0006931547945
-0.0005364407328
-0.0008127923373
-0.0004775488853
-0.000892685042
-0.0003552498307
-0.0008698013969
-0.0002095371737
-0.0006757583194
-0.000137088203
-0.0003501134911
-0.0001752297262
-0.000114237244
-0.0002224953201
-0.0002601165633
-0.0002087211137
-0.0005241803786
-1.086289778e-05
-0.0007545221096
-6.400684419e-06
-3.340572803e-06
-4.664511916e-06
-5.382404523e-07
-3.360820725e-06
-3.535184062e-07
-1.189949636e-06
-1.331719883e-06
1.146848783e-06
-3.413817198e-06
2.62144344e-06
-2.634656054e-06
4.123427036e-06
-4.679993974e-06
6.121426736e-06
-1.757850115e-05
2.423173042e-05
-0.0001233607077
1.706499872e-05
-4.38840403e-05
1.227367754e-05
-3.396302047e-05
-4.213575975e-05
-7.178713903e-05
-2.67561358e-05
-5.742873568e-05
-1.4477643e-05
-1.344293901e-05
-8.152192801e-06
-7.593535091e-06
-4.279256153e-06
-5.715285064e-06
-1.528295494e-06
-5.687874531e-06
1.110099445e-06
-2.201630515e-05
1.300482053e-05
-0.0001266884141
0.0001434604822
0.000505173733
0.0001336937891
-2.634578102e-05
9.784606382e-06
-3.887233309e-05
-5.752775881e-06
-6.007168248e-05
1.161881763e-06
-2.215665208e-05
2.980164926e-06
-4.044220688e-06
1.081361472e-05
-2.280168758e-05
1.681604604e-05
-3.723064615e-05
3.216073317e-05
-7.917509226e-05
4.017507602e-05
-7.822664055e-05
0.0004507062045
-0.001193252715
0.0008297923188
-0.001860675461
0.001148891935
-0.002610804752
0.000874097761
-0.003167330911
0.000124607745
-0.001608609937
4.823972078e-05
-0.0002305775331
0.0001646249429
-0.0002830880535
0.0003952624467
-0.0005576652196
0.0006474940133
-0.0008169120931
0.0008389078756
-0.0009651525485
0.0009448787976
-0.0009923803753
0.0009826419751
-0.0009415819871
0.000969757292
-0.0008644238543
0.000912408178
-0.0008213763918
-0.00857476324
-0.0001218777953
-0.009249498585
-0.0002009652302
-0.0001792235046
-0.0003291147491
-0.0002984659641
-0.0004408884993
-0.0003759396407
-0.0005276002034
-0.0004850893077
-0.000581845168
-0.0005940183679
-0.0006045819347
-0.0007061246141
-0.0005882080824
-0.0008152605861
-0.0005111882383
-0.0008895322854
-0.000358101292
-0.0008587787122
-0.0001733068707
-0.0006523770624
-6.707412408e-05
-0.0003138795613
-9.278922669e-05
-5.651377005e-05
-0.0001730915819
-0.0001382260981
-0.0002796552058
-0.000403785358
-6.701848284e-06
-0.001034643721
-3.809420105e-06
3.967261698e-06
-3.407036259e-06
3.515421959e-06
-3.191008286e-06
4.571389783e-06
-2.334859613e-06
2.949055151e-06
-1.918072265e-06
-1.534380279e-06
-2.620524639e-06
-1.759116105e-06
-6.835426887e-06
-6.125183851e-06
-1.393642787e-05
-3.771190639e-05
3.703890151e-05
-0.0002232510817
1.744429254e-05
-4.983238516e-05
9.102882301e-06
-2.310781849e-05
-1.122718457e-05
-1.927047485e-05
-8.675795983e-06
-1.370298029e-05
-5.449996186e-06
-3.690490431e-06
-3.515538168e-06
-2.799482179e-06
-2.197476436e-06
-2.306450309e-06
-9.119584111e-07
-2.83155844e-06
-3.660473426e-06
-2.534812732e-05
-3.765170789e-05
-0.0001445618738
-2.223168047e-06
6.481851737e-05
3.835890002e-06
-4.611896121e-05
5.299184565e-06
-1.620851562e-05
-1.897862869e-06
-2.033940114e-05
2.610552101e-06
-1.751738605e-05
1.455635976e-06
-6.77254887e-07
1.009667209e-05
-3.623955029e-05
2.009982649e-05
-8.278743491e-05
4.255365576e-05
-0.0001598152602
4.656663033e-05
-9.859342806e-05
0.0005351483725
-0.001210516367
0.0009601650377
-0.001790281439
0.001387726796
-0.002194546267
0.001502393905
-0.002822741338
0.0004334760748
-0.002365088355
9.789902212e-05
-0.0006662917155
0.0001751533745
-0.0003631320771
0.0004066723559
-0.0005149549111
0.0006694071188
-0.0007188497929
0.0008787530292
-0.0008471351838
0.001000931738
-0.0008792365581
0.001051465546
-0.0008414547108
0.001051146039
-0.0007777283588
0.001001647014
-0.0007654708721
-0.007690502712
-0.0002085152087
-0.008564232026
-0.0003405968649
-0.0002474695626
-0.000475302586
-0.0003574722024
-0.0005723879327
-0.0004222004339
-0.0006367674693
-0.0005093354862
-0.000676026334
-0.0006021436057
-0.0006917138182
-0.0007055254351
-0.0006693325352
-0.0008111112539
-0.0005771157165
-0.0008830566512
-0.0003928309909
-0.0008454581409
-0.0001700124494
-0.0006341088979
-3.17554505e-05
-0.0002983270043
-3.752013462e-05
-3.651271284e-05
-8.744536531e-05
-6.213964934e-05
-0.0002718509047
-0.0001679817205
-3.622170442e-05
-0.0009734134638
-1.488324162e-05
3.647787061e-05
-1.067883729e-05
1.739299072e-05
-5.98420832e-06
1.612045703e-05
-1.14805092e-06
8.24836686e-06
-1.430054393e-06
-5.002166353e-07
-3.785850245e-06
-4.686917955e-07
-1.599720581e-05
-7.281371698e-07
-6.509913545e-05
-1.196975833e-06
5.019396846e-05
-2.468525977e-06
1.837307831e-05
-2.538912673e-05
8.189133184e-06
-1.337007106e-05
-6.57026028e-07
-4.033443114e-06
-2.155826127e-06
-1.604974984e-06
-1.926883128e-06
-1.073748005e-06
-1.299511257e-06
-2.09563653e-06
-6.042648351e-07
-1.870386033e-06
2.976183718e-07
-1.79440306e-06
-3.709466831e-05
-1.369858689e-06
-0.0001147197846
-0.0001446366762
-3.152257598e-05
-9.620125715e-05
-4.433219269e-06
-5.146666796e-05
1.412994987e-06
-1.551506189e-05
1.641258769e-06
-1.224067103e-05
3.196983623e-06
-1.257802106e-05
2.684537881e-07
4.998191957e-06
-6.564761597e-07
-5.545862376e-05
3.812816496e-06
-0.0001512623854
-7.378842107e-06
-0.0002127942341
2.911487524e-05
-0.0001058219066
0.0006209174384
-0.001135050248
0.001095284486
-0.001623947952
0.001526332262
-0.001771318714
0.001952147458
-0.002181550522
0.001373345102
-0.002383077056
0.0004057093309
-0.001227121957
0.0002512723465
-0.0005478326964
0.0004213188583
-0.0004786171459
0.0006628200104
-0.0005808215403
0.0008661239907
-0.0006638970231
0.0009966006872
-0.0006882743252
0.00105815897
-0.0006647477331
0.001069649755
-0.0006197597777
0.001036267575
-0.0006309601844
-0.006666774861
-0.000341963564
-0.007864317358
-0.0005065125177
-0.0002974724065
-0.0006165558867
-0.0003753718011
-0.0006905790362
-0.0004249959953
-0.0007394571778
-0.0004953756949
-0.0007728264088
-0.0005778060882
-0.000787158808
-0.0006745071673
-0.0007606355272
-0.0007745884416
-0.0006520486435
-0.0008409583815
-0.0004373298372
-0.0007959469917
-0.0001812563281
-0.0005918086765
-1.950870631e-05
-0.0002758672122
-1.351710143e-05
-3.252626964e-05
-1.567703664e-05
-5.731346121e-05
-9.215749425e-05
-0.0001062807308
-9.31586414e-05
-0.0005764107828
-3.592882085e-05
0.0001099363913
-2.151867101e-05
4.497947707e-05
-8.973033278e-06
3.453717937e-05
-4.834321664e-07
1.494395533e-05
-4.921463309e-07
-4.353389446e-08
-5.902697367e-07
-3.438523284e-08
-7.233241692e-07
-1.094097552e-07
-6.332084173e-07
-5.116217457e-07
4.546378005e-07
-2.314209201e-06
9.147545773e-06
-2.724077031e-05
4.325881253e-06
-6.472740124e-06
1.595239798e-06
-5.956645135e-07
9.515020189e-07
-5.795454412e-07
9.286395205e-07
-7.550262104e-07
2.326917671e-06
-3.952627753e-06
2.410610056e-06
-2.413135205e-06
2.085045943e-06
-1.277417023e-06
1.336208262e-06
7.937957299e-06
-0.0001246979969
-7.565573871e-05
-5.464592275e-05
-0.0001138852453
-1.270708504e-05
-6.929858083e-05
-9.322948878e-06
-1.370956688e-05
-8.736276718e-06
-1.034482556e-05
-7.759854395e-06
-1.214552671e-05
2.773630018e-05
-1.264155211e-06
-1.608506474e-05
-5.72075705e-05
-6.318647284e-05
-0.0001692754658
-5.385289171e-05
-0.0001833279718
1.185848475e-05
-9.222452436e-05
0.0006760361587
-0.000893741709
0.001174449117
-0.001262315147
0.001541064429
-0.001273971455
0.002022627705
-0.001411097585
0.002090243484
-0.001674268612
0.001015918243
-0.001294644917
0.0004573273289
-0.0006727956346
0.0004410987832
-0.0004182011181
0.0006015893125
-0.0003962015135
0.0007633883154
-0.0004214552679
0.0008785880851
-0.0004302501359
0.0009427814509
-0.0004176044338
0.0009645236571
-0.0003947467664
0.0009500449826
-0.0004175865519
-0.005513587144
-0.000471574802
-0.007119320297
-0.0006336983192
-0.0002940042716
-0.0007136543418
-0.0003372385166
-0.0007692437256
-0.0003725492072
-0.0008107754179
-0.0004285149711
-0.0008428553984
-0.0004983552429
-0.0008562275937
-0.0005806452194
-0.0008244095612
-0.0006634077397
-0.0007007523821
-0.0007145022695
-0.0004668406245
-0.0006722700751
-0.0001898296456
-0.0004971386367
-1.528502264e-05
-0.0002262951945
-6.050444011e-06
-2.5253002e-05
-5.336885001e-08
-5.563962044e-05
-8.097746183e-05
-7.15318847e-05
-0.000163656794
-0.0003040962825
-7.315998724e-05
0.0001868543265
-3.986585865e-05
9.512007471e-05
-1.44030725e-05
6.188358581e-05
-5.630048691e-07
2.384224516e-05
-5.444484623e-07
5.455050268e-07
-6.785157514e-07
5.272609307e-07
-9.569532879e-07
7.004209794e-07
-1.249587236e-06
5.986057176e-07
-1.316107642e-06
-8.179499444e-07
2.010396308e-06
-1.845263673e-05
6.793713436e-07
-4.456809731e-06
3.027523463e-07
-1.781010119e-07
4.7323966e-07
-6.909143769e-07
8.246407785e-07
-1.026176156e-06
5.171829729e-06
-9.89732468e-06
3.643259236e-06
-2.204485912e-06
1.931461858e-06
-1.947273997e-07
3.595860324e-06
2.119109388e-05
-0.0001666363685
3.563020793e-05
-8.536103929e-05
-9.683668139e-05
-1.207407028e-05
-0.0001102850809
-8.515671987e-06
-1.335198221e-05
-9.336034282e-06
-8.951474755e-06
-1.619474526e-05
-8.906037319e-06
-2.170911429e-05
-1.430951005e-05
-6.847538821e-05
-4.734585108e-05
-0.0001288775616
-9.387875226e-05
-7.298202125e-05
-8.656246833e-05
2.640011526e-06
-5.06124664e-05
0.0006154492957
-0.0004417322924
0.001069616944
-0.0006281491673
0.001336879125
-0.0006177290437
0.001670889265
-0.0006216130882
0.00197634156
-0.0007104384006
0.001413684381
-0.0006894776381
0.0006953437005
-0.000446075326
0.0004431973961
-0.0002491236947
0.0004630846962
-0.0001803026456
0.0005496752991
-0.000168578837
0.0006251933581
-0.0001684774864
0.000675677359
-0.0001672979063
0.0007006430764
-0.0001649264104
0.0006990232161
-0.0001833855087
-0.004401239556
-0.0005229398016
-0.006312522833
-0.0006574625389
-0.0002208993653
-0.0007128924813
-0.0002389040685
-0.0007562105565
-0.0002590025041
-0.0007929056789
-0.0002971452881
-0.0008206994328
-0.0003455537797
-0.0008262215141
-0.0004000122528
-0.0007848996532
-0.000451428561
-0.0006632322791
-0.000480836809
-0.0004426031039
-0.0004518157145
-0.0001768640354
-0.0003323897136
-7.809516933e-06
-0.0001479512374
5.524074617e-06
-2.272802758e-05
1.470241346e-05
-3.701937812e-05
1.032000947e-07
-5.649528924e-05
-0.0004126250003
-9.542745649e-05
-0.0005577728305
-1.071936809e-06
-0.0005614436942
-6.711727833e-08
-0.0002804649841
-4.301039493e-08
-5.529355714e-05
-2.559587017e-08
-1.45863224e-06
-4.726622994e-07
-7.91563598e-07
2.098934011e-06
-5.332322903e-07
1.220886626e-06
-2.361958325e-07
8.061525147e-07
5.031579503e-07
-6.044956667e-07
1.003298916e-05
-1.160591679e-05
2.743405784e-06
7.381058794e-06
1.137355562e-06
1.7854094e-06
1.127579867e-06
-5.314960314e-07
1.588075519e-06
-1.379544792e-06
1.334691424e-05
-2.63215798e-05
5.802316387e-06
1.511660127e-06
2.439676722e-06
1.719318491e-06
5.141447508e-06
3.858942168e-05
-0.0002885340182
0.0001632019768
-0.0001477637019
-0.0002242647048
-1.309416757e-05
-0.0001936319679
-8.37386274e-06
-1.524179514e-05
-6.639070231e-06
-1.065362017e-05
-7.981261488e-06
-9.540674673e-06
-1.935614052e-05
-7.580550602e-06
-5.936288973e-05
-3.186040406e-06
-7.983090141e-05
-3.427209347e-07
-4.313067651e-05
-1.049813927e-06
1.981614026e-06
-1.932518919e-05
0.0003501390437
-1.752880952e-06
0.0006134186479
-7.034418541e-06
0.0007567580408
-3.549457913e-05
0.0008871863735
-5.062392509e-05
0.001033921824
-4.597351419e-05
0.0009309492051
-6.636948675e-05
0.0005645185294
-3.700967149e-05
0.000314727221
-1.561317504e-05
0.0002446808705
-5.548696281e-06
0.0002555716886
-3.965171193e-06
0.000288272323
-8.213527553e-06
0.0003217641133
-1.845561154e-05
0.000343584569
-3.000010117e-05
0.0003432478126
-3.650640344e-05
-0.00373886095
-0.0004321260241
-0.0005236666515
-0.0005588218577
-0.0005909729414
-0.0006195130658
-0.0006379035914
-0.0006346886565
-0.000594426818
-0.0001976153323
-0.0004977075082
-0.0002024545379
-0.0003300513032
-0.0001850524153
-0.0001309998719
-0.0001344445251
-2.671073315e-06
-6.317722334e-05
1.578156418e-05
-4.97824516e-05
2.392317753e-05
-1.879289393e-05
2.24733719e-05
-2.52248784e-05
-1.864436023e-06
-5.105124243e-05
-5.030734025e-07
-9.333101633e-07
-2.245317213e-07
-9.181669035e-08
-6.550458002e-08
-4.719178779e-08
-4.240617716e-08
-1.337929312e-08
2.793178723e-08
-4.637866983e-07
-1.191293531e-06
0.0002773935751
-5.408682845e-07
2.532227318e-06
-2.076802744e-07
1.107667687e-06
6.353047738e-07
-2.929156025e-07
9.435772522e-06
-5.018267726e-06
8.779207741e-06
1.879839543e-05
4.38127776e-06
7.487548475e-06
4.163738606e-06
1.723482163e-07
2.812443176e-06
1.941515796e-08
4.71530767e-05
-8.86507015e-05
2.56256288e-05
9.069673453e-06
1.01571803e-05
9.027629074e-06
1.155024068e-05
5.98786317e-05
-0.0005843700226
0.0002547107956
-0.0001070805701
-0.0007469196751
-1.598064097e-05
-0.0001526841818
-1.169930497e-05
-1.756608409e-05
-8.426646344e-06
-1.386887321e-05
-4.989954651e-06
-1.372237176e-05
-1.405619193e-06
-1.213981752e-05
-6.692762753e-09
-4.820269086e-06
1.355308312e-07
-2.709581114e-07
5.707179211e-07
-6.521809474e-07
1.382876707e-05
-8.248520063e-05
3.413658293e-05
4.375784826e-05
5.677143044e-05
7.507959361e-05
4.888052406e-05
2.068345831e-05
3.803270738e-05
-5.15963965e-05
3.544559716e-05
-4.329813871e-05
5.913071599e-05
-5.470203507e-05
7.227392021e-05
1.371418161e-05
9.554122171e-05
6.425070941e-05
0.0001221380348
9.799269885e-05
0.0001382350645
0.0001054139513
0.000133073146
8.382919935e-05
0.0001141049425
4.307382131e-05
9.121366664e-05
1.098605821e-05
7.862114646e-05
-1.683221109e-05
-0.004006535284
-0.0002931890316
-0.0002350300255
-0.0001512983003
-6.380380334e-05
-1.310783881e-05
-2.719660098e-05
3.767040065e-05
-0.000176923235
1.977812575e-05
-4.655680302e-07
1.611994138e-05
-7.559048485e-07
-2.803470446e-07
-8.380860214e-06
-6.573048262e-08
-3.996107175e-07
-2.748614737e-08
-6.240303252e-08
-5.962883913e-09
-3.796033539e-08
-2.293965992e-09
-1.377299494e-08
-2.031303686e-09
-5.376003331e-07
-4.023150896e-06
0.00124317532
-6.67859536e-07
8.729069926e-06
-8.683673009e-08
1.621154017e-06
3.717501147e-07
-7.698003411e-08
4.665502551e-06
-4.632151563e-07
7.161539434e-06
2.912450594e-05
1.735588417e-06
1.573926138e-05
1.576645321e-06
1.431690877e-06
6.412770265e-07
1.550334978e-06
5.439631272e-05
-0.0002274007651
3.249838451e-05
1.487763813e-05
1.626434951e-05
1.565780563e-05
1.673898889e-05
8.024959856e-05
-0.001047342244
0.0005344343211
-9.177771473e-05
-0.0006900338957
-2.056261595e-05
-8.539138417e-05
-1.782364476e-05
-1.850599341e-05
-1.448427869e-05
-1.770661909e-05
-9.791350699e-06
-2.01468156e-05
-2.577805879e-06
-2.182408142e-05
-6.863466892e-09
-8.065728483e-06
1.163196954e-07
-2.989224998e-07
4.126371189e-07
-3.97584162e-07
6.300545793e-05
-0.000317576551
9.562570473e-05
7.783862868e-05
0.0001585399276
0.0001292482405
0.0001368420007
1.513768156e-05
6.313410193e-05
-3.204165697e-05
3.653550688e-05
-2.945508047e-05
5.271965715e-05
-4.51742549e-05
0.000154733034
6.681668034e-05
0.0003741027662
0.0002346315873
0.0007093494056
0.0004007415164
0.0009823416139
0.0004113649055
0.0009677276461
0.0002575540659
0.0007276598399
0.0001047058943
0.0004282067887
3.884045641e-05
0.0002170018779
7.125779865e-06
-0.005644732008
-0.0001296524484
-3.333225213e-07
-7.416869993e-08
-3.363289526e-07
1.87770098e-07
-3.543011928e-07
-1.630456939e-07
-1.754774093e-06
-4.819509858e-08
-1.540039061e-07
-2.343551561e-08
-3.715254763e-08
-6.67256735e-09
-2.73965718e-08
-1.260854579e-08
-5.607941352e-09
-6.428485867e-07
-2.685185778e-10
-2.316768124e-05
5.368435867e-07
-6.11071971e-07
0.0001349371796
-3.878504183e-08
3.205207007e-06
1.361970351e-07
4.549254047e-08
4.395169114e-07
5.65006857e-07
4.985442757e-06
3.8414034e-05
4.046107897e-06
2.131804375e-05
4.848937809e-06
3.24174443e-06
6.252424999e-07
6.646189063e-06
2.204419055e-05
-0.0003707353556
4.043753114e-05
3.78709921e-06
2.849015041e-05
2.212878169e-05
3.898712693e-05
0.0001049336354
9.795719829e-05
0.001058325974
-6.690299433e-05
-0.0003035539118
-2.728662048e-05
-3.92423047e-05
-2.574102655e-05
-1.660834935e-05
-2.451363046e-05
-1.905534993e-05
-2.079217963e-05
-2.653148656e-05
-5.171703009e-06
-4.416478755e-05
-1.113626194e-08
-1.526105063e-05
1.579868597e-07
-5.730660041e-07
3.220456489e-07
-3.132413913e-07
0.0002081480839
-0.0007755925887
0.0002680710186
-0.0003537179965
0.000227779792
-8.32358615e-05
0.0001072480881
-4.747894514e-05
3.816116714e-05
-3.4546118e-05
2.630132861e-05
-2.627415497e-05
4.99915204e-05
-4.418377911e-05
0.0005603975405
-2.367972862e-05
0.00163229462
-4.06524305e-05
0.002624632461
-0.0001016327032
0.003193389949
-0.0001984139401
0.003459716069
-0.0003556885513
0.003487674589
-0.0005513553365
0.003165239719
-0.0007356058676
0.002528178592
-0.0008300377248
-0.007801297319
-8.320429339e-08
5.675162959e-08
-6.330262671e-08
-3.049690341e-08
-1.714662269e-08
-1.813439312e-08
-2.872093032e-09
-1.849788459e-08
4.606770001e-11
-4.379166685e-09
1.705802087e-10
-1.911375915e-10
1.985812352e-07
-2.303084426e-10
-6.511493162e-06
0.0006304160845
-1.122674757e-06
1.616238834e-05
-3.054273777e-08
1.398547671e-06
2.960252439e-07
2.418742539e-06
4.3442685e-06
5.014872895e-05
3.70268661e-08
2.11968728e-05
-6.404507433e-05
-0.0005041957805
-0.000139054241
-3.152047334e-06
-2.138606158e-06
-7.603688323e-07
3.839300349e-05
1.362983993e-05
3.153057831e-05
3.455878213e-05
4.518395666e-05
0.0002304120476
-5.72223295e-05
0.00462498774
-4.296877804e-05
-2.780339452e-05
-2.837003253e-05
-1.336071236e-05
-2.847067969e-05
-9.292122407e-06
-2.996108253e-05
-1.308759308e-05
-2.96450455e-05
-2.568455102e-05
-8.305499002e-06
-8.390742755e-05
-2.087020614e-08
-3.013680461e-05
3.929531056e-07
-1.603302077e-06
3.302753749e-07
-3.706780614e-07
0.0003993576712
-0.001186915465
0.0005800494113
-0.001473957741
0.0003175271879
-0.0005890203362
0.000112765057
-0.0001356751311
3.50505295e-05
-4.477335523e-05
2.600661861e-05
-2.758063116e-05
4.885540007e-05
-4.363627463e-05
0.0001736193881
-6.809954978e-05
0.0003114682242
-9.132997878e-05
0.0004216836372
-0.0001170469773
0.0005638675132
-0.0001580643606
0.0008403342904
-0.000232079171
0.001347376152
-0.0003439258714
0.002103358217
-0.0004966293648
0.002994798189
-0.000626367072
-0.006443760516
-1.074493187e-08
-2.216887887e-09
6.347790209e-11
-2.999699386e-09
1.41115399e-10
-1.109999829e-10
5.405149219e-11
-9.629563383e-11
-1.438828063e-05
-6.871463464e-10
-6.620096341e-06
0.0001796522983
-1.077730862e-07
1.209351117e-05
9.314577997e-07
1.218712415e-05
-5.528185587e-05
9.767230372e-05
-0.0004457150136
0.0001358239753
7.878363938e-06
2.964039452e-05
1.16907296e-05
3.36451379e-05
1.61566194e-06
1.902745536e-06
1.521010754e-05
1.381249314e-05
7.271055082e-05
4.900876407e-05
0.0002717724327
0.001034146957
-1.540330184e-05
0.000468564068
-1.652858805e-05
-4.374034291e-08
-1.568703332e-05
-7.178185494e-08
-1.585368354e-05
-9.27399648e-08
-1.259939704e-05
-1.476094162e-06
-9.459628509e-07
-1.508162239e-05
-3.707830273e-06
-0.0001036301446
5.831026838e-06
-5.454972069e-05
1.662919629e-06
-4.267907739e-07
5.871940536e-07
9.012513218e-08
0.000569161494
-0.001300348649
0.0008098705444
-0.002253599653
0.0004788851014
-0.001167275868
0.0001825650488
-0.000254245923
5.34733426e-05
-3.73806474e-05
3.463501463e-05
-2.548901547e-05
5.931099149e-05
-4.53892417e-05
9.273900677e-05
-6.548144887e-05
0.0001266011371
-8.062015676e-05
0.0001688361053
-9.994734811e-05
0.0002397789874
-0.0001406158671
0.0003705807772
-0.0002192684709