/*--------------------------------*- C++ -*----------------------------------*\
  =========                 |
  \\      /  F ield         | OpenFOAM: The Open Source CFD Toolbox
   \\    /   O peration     | Website:  https://openfoam.org
    \\  /    A nd           | Version:  8
     \\/     M anipulation  |
\*---------------------------------------------------------------------------*/
FoamFile
{
    version     2.0;
    format      ascii;
    class       volScalarField;
    location    "0.6/wallFilmRegion";
    object      T;
}
// * * * * * * * * * * * * * * * * * * * * * * * * * * * * * * * * * * * * * //

dimensions      [0 0 0 1 0 0 0];

internalField   nonuniform List<scalar> 
1369
(
300.0000015
300.0000016
300.0000017
300.0000019
300.000002
300.0000021
300.0000022
300.0000023
300.0000023
300.0000022
300.0000021
300.0000019
300.0000018
300.0000017
300.0000016
300.0000015
300.0000014
300.0000013
300.0000013
300.0000012
300.0000013
300.0000012
300.0000011
300.0000007
300.0000004
300.0000003
300.0000002
300.0000008
300.0000013
300.0000017
300.0000017
300.0000017
300.0000016
300.0000011
300.000001
300.0000006
300.0000009
300.0000016
300.0000022
300.0000026
300.0000028
300.0000026
300.0000024
300.0000024
300.0000024
300.0000024
300.0000023
300.0000023
300.0000023
300.0000024
300.0000024
300.0000025
300.0000024
300.0000024
300.0000023
300.0000022
300.0000022
300.0000021
300.000002
300.000002
300.0000021
300.0000021
300.0000036
300.0000074
300.0000076
300.0000068
300.0000055
300.0000043
300.0000035
300.0000029
300.0000027
300.0000025
300.0000023
300.0000021
300.0000019
300.0000019
300.000002
300.0000023
300.0000029
300.0000042
300.0000064
300.0000047
300.000004
300.0000037
300.0000038
300.0000028
300.0000003
300.0000016
300.0000024
300.0000025
300.0000024
300.0000019
300.0000014
300.0000012
300.0000011
300.0000003
300.0000003
300.0000012
300.0000016
300.0000021
300.0000034
300.0000055
300.0000054
300.000005
300.0000048
300.0000024
300.000002
300.0000025
300.0000029
300.0000031
300.0000032
300.0000029
300.0000023
300.0000019
300.0000018
300.0000018
300.0000018
300.0000017
300.000002
300.0000026
300.0000024
300.000004
300.0000044
300.0000098
300.000009
300.0000072
300.0000054
300.000004
300.0000032
300.0000028
300.0000027
300.0000029
300.0000029
300.0000028
300.0000027
300.0000028
300.000003
300.0000036
300.0000045
300.0000066
300.0000107
300.0000077
300.0000062
300.0000055
300.0000055
300.0000048
300.0000004
300.0000022
300.0000027
300.0000029
300.0000032
300.0000031
300.0000029
300.0000027
300.0000027
300.0000004
300.0000005
300.000002
300.0000023
300.0000029
300.0000052
300.0000079
300.0000074
300.0000068
300.0000065
300.0000021
300.0000016
300.0000022
300.0000027
300.0000031
300.0000033
300.0000027
300.0000019
300.0000015
300.0000014
300.0000015
300.0000016
300.0000016
300.0000016
300.0000026
300.0000024
300.0000104
300.0000115
300.000011
300.0000087
300.0000063
300.0000044
300.0000032
300.0000026
300.0000023
300.0000025
300.0000031
300.0000037
300.0000036
300.0000036
300.0000039
300.0000054
300.0000067
300.0000085
300.0000126
300.000024
300.0000162
300.0000125
300.0000107
300.0000101
300.0000093
300.0000007
300.0000035
300.0000034
300.0000045
300.0000066
300.0000096
300.0000158
300.0000215
300.00001
300.0000028
300.0000027
300.0000033
300.0000061
300.0000228
300.0000195
300.000014
300.000012
300.0000109
300.0000102
300.0000017
300.0000012
300.0000018
300.0000024
300.000003
300.0000036
300.0000026
300.0000016
300.0000012
300.0000012
300.0000012
300.0000013
300.0000015
300.0000016
300.0000021
300.0000024
300.0000134
300.0000125
300.0000095
300.0000068
300.0000047
300.0000033
300.0000024
300.0000019
300.0000018
300.0000021
300.0000032
300.0000044
300.0000041
300.000004
300.0000043
300.0000087
300.000012
300.0000149
300.0000214
300.0000426
300.0000321
300.0000266
300.0000227
300.0000166
300.0000168
300.0000117
300.0000071
300.0000051
300.0000082
300.000013
300.0000189
300.0000272
300.0000259
300.0000094
300.0000016
300.0000026
300.0000041
300.0000078
300.0000242
300.0000294
300.0000222
300.0000197
300.0000169
300.000015
300.0000014
300.0000008
300.0000015
300.0000021
300.0000029
300.0000043
300.0000023
300.0000013
300.000001
300.000001
300.000001
300.0000011
300.0000013
300.0000014
300.000002
300.0000024
300.0000137
300.0000105
300.0000069
300.0000048
300.0000033
300.0000023
300.0000017
300.0000014
300.0000014
300.0000017
300.0000031
300.0000056
300.0000047
300.0000043
300.0000044
300.0000155
300.0000259
300.000031
300.0000408
300.0000794
300.0000743
300.0000666
300.0000459
300.0000096
300.0000205
300.000021
300.0000112
300.0000095
300.0000183
300.000029
300.0000387
300.000046
300.0000269
300.0000082
300.0000015
300.0000037
300.0000066
300.0000106
300.0000263
300.0000428
300.0000316
300.0000271
300.0000176
300.0000154
300.000001
300.0000006
300.0000011
300.0000017
300.0000023
300.0000046
300.000002
300.0000011
300.0000009
300.0000008
300.0000009
300.000001
300.0000011
300.0000013
300.000002
300.0000024
300.0000114
300.0000076
300.0000048
300.0000033
300.0000023
300.0000017
300.0000013
300.0000011
300.0000011
300.0000014
300.0000029
300.000008
300.0000056
300.0000047
300.0000045
300.0000244
300.000045
300.000052
300.0000733
300.0001449
300.0001504
300.000088
300.0000196
300.0000001
300.0000138
300.0000257
300.0000207
300.0000212
300.0000473
300.0000695
300.0000824
300.0000817
300.0000236
300.0000068
300.0000029
300.00001
300.0000187
300.000018
300.0000304
300.0000543
300.0000312
300.0000187
300.0000095
300.0000095
300.0000006
300.0000004
300.0000008
300.0000013
300.0000016
300.0000027
300.0000017
300.000001
300.0000008
300.0000007
300.0000008
300.0000009
300.000001
300.0000012
300.000002
300.0000024
300.0000083
300.0000053
300.0000034
300.0000024
300.0000017
300.0000013
300.000001
300.0000009
300.0000009
300.0000011
300.0000024
300.0000124
300.0000079
300.0000056
300.0000049
300.0000085
300.0000187
300.0000262
300.0000475
300.0002264
300.0001643
300.00005
300.000006
299.9999983
300.0000098
300.000028
300.0000427
300.0000579
300.0001336
300.000152
300.0001698
300.000155
300.0000171
300.0000064
300.0000065
300.0000124
300.0000405
300.0000394
300.0000367
300.0000503
300.0000222
300.0000084
300.0000046
300.0000051
300.0000004
300.0000003
300.0000005
300.0000009
300.0000012
300.0000016
300.0000016
300.000001
300.0000008
300.0000007
300.0000007
300.0000008
300.0000009
300.0000011
300.000002
300.0000024
300.0000059
300.0000038
300.0000025
300.0000018
300.0000013
300.000001
300.0000008
300.0000007
300.0000007
300.0000009
300.0000019
300.0000153
300.0000123
300.000009
300.0000059
300.000006
300.0000105
300.0000159
300.0000325
300.0003837
300.0003563
300.0002604
300.000179
300.0001107
300.00002
300.000036
300.0000874
300.0002068
300.0003086
300.0001626
300.0001842
300.000221
300.0000618
300.0000059
300.0000059
300.0000118
300.0000463
300.000054
300.0000425
300.000007
300.0000131
300.000005
300.000003
300.0000033
300.0000003
300.0000002
300.0000003
300.0000006
300.0000009
300.0000012
300.0000014
300.0000011
300.0000008
300.0000007
300.0000008
300.0000008
300.0000009
300.0000011
300.0000021
300.0000024
300.0000046
300.000003
300.000002
300.0000015
300.0000011
300.0000009
300.0000007
300.0000006
300.0000007
300.0000008
300.0000016
300.0000137
300.0000113
300.0000122
300.0000078
300.000006
300.0000068
300.0000104
300.0000229
300.0003281
300.0003243
300.000238
300.0001616
300.0001063
300.0000177
300.0000435
300.0002438
300.0003507
300.0003415
300.0000721
300.0001064
300.000183
300.0000408
300.0000049
300.0000043
300.0000075
300.0000466
300.0000618
300.0000583
300.000041
300.0000096
300.0000038
300.0000028
300.0000034
300.0000002
300.0000002
300.0000003
300.0000005
300.0000008
300.0000012
300.0000014
300.0000013
300.000001
300.0000009
300.0000009
300.000001
300.0000011
300.0000012
300.0000022
300.0000024
300.0000041
300.0000027
300.0000019
300.0000014
300.0000011
300.0000009
300.0000007
300.0000006
300.0000006
300.0000008
300.0000013
300.0000135
300.00001
300.000013
300.0000109
300.0000069
300.0000049
300.0000052
300.0000075
300.0000193
300.0001671
300.000252
300.000252
300.0001955
300.0000204
300.000025
300.0000799
300.0001734
300.0002009
300.000019
300.00005
300.0001142
300.000029
300.0000038
300.0000029
300.0000044
300.0000395
300.0000537
300.0000537
300.0000333
300.000011
300.0000052
300.0000053
300.0000072
300.0000003
300.0000003
300.0000004
300.0000008
300.0000012
300.0000017
300.0000019
300.0000018
300.0000015
300.0000013
300.0000013
300.0000014
300.0000017
300.000002
300.0000025
300.0000024
300.0000046
300.0000032
300.0000023
300.0000017
300.0000013
300.000001
300.0000008
300.0000007
300.0000007
300.0000009
300.0000014
300.000013
300.0000121
300.0000127
300.0000274
300.0004567
300.0014915
300.0018461
300.0020744
300.0007611
300.0000033
300.0001787
300.0002653
300.0001912
300.0000248
300.0000196
300.0000409
300.000075
300.0001122
299.9999949
300.000007
300.0000369
300.0000229
300.000003
300.000001
300.0000032
300.0000322
300.0000427
300.000048
300.0000575
300.0001027
300.0007277
300.0003613
300.0000244
300.0000063
300.0000031
300.0000047
300.0000109
300.0000166
300.0000125
300.0000078
300.0000045
300.0000031
300.0000027
300.000003
300.0000038
300.0000049
300.0000063
300.0000026
300.0000013
300.0000011
300.0000011
300.0000014
300.0000027
300.0000071
300.0000187
300.0000212
300.0000428
300.0008244
300.0025623
300.0029566
300.0030079
300.0005416
300.000001
300.0000645
300.0002257
300.0003016
300.0000402
300.0000191
300.0000348
300.0000901
300.0001499
299.9999874
299.9999963
300.0000186
300.0000183
300.0000025
299.9999997
300.0000038
300.0000255
300.0000317
300.0000341
300.0000374
300.0000664
300.0007867
300.0004488
300.0000056
300.0000034
300.0000027
300.0000045
300.0000099
300.000017
300.000013
300.0000049
300.0000024
300.0000017
300.0000017
300.0000019
300.0000022
300.0000028
300.0000039
300.0000026
300.0000058
300.0000035
300.0005137
300.0004144
300.0001581
300.0012945
300.0027993
300.0030533
300.0027504
300.0002302
300.0000004
300.0000056
300.0001361
300.0005706
300.0001782
300.0000183
300.0000319
300.0000394
300.0000516
299.9999855
299.9999931
300.0000062
300.0000128
300.0000036
300
300.0000055
300.0000198
300.0000234
300.0000239
300.0000243
300.0000427
300.0005714
300.0005449
300.0000022
300.0000028
300.000004
300.0000079
300.0000172
300.0000212
300.0000124
300.0000029
300.000002
300.0000019
300.000002
300.0000021
300.0000022
300.0000023
300.0000024
300.0000026
300.0006145
300.0006824
300.000403
300.0019843
300.003036
300.0031686
300.0033242
300.0033163
300.0003056
300.0000035
300.0000303
300.0000771
300.0000946
300.0000156
300.0000254
299.9999941
299.9999872
299.999985
299.9999903
299.9999996
300.0000068
300.0000021
300.0000004
300.0000077
300.0000153
300.0000173
300.0000171
300.0000172
300.0000298
300.0002354
300.0004882
300.0000013
300.0000013
300.0000021
300.000005
300.0000136
300.0000178
300.0000104
300.0000057
300.0000044
300.0000038
300.0000034
300.000003
300.0000027
300.0000026
300.0000027
300.0000027
300.0032203
300.0032389
300.003328
300.0033374
300.0033158
300.0000044
300.0000049
300.0000131
300.0000174
300.0000079
299.9999928
299.9999888
299.9999982
300.0000616
300.0000064
300.0000072
300.0000049
300.0000018
300.0000058
300.0000107
300.0000131
300.0000126
300.0000114
300.0000132
300.0000233
300.000067
300.0002248
300.0000011
300.0000007
300.0000009
300.000002
300.0000066
300.0000111
300.0000076
300.0000057
300.000005
300.0000045
300.000004
300.0000035
300.0000032
300.000003
300.000003
300.0000028
300.0033141
300.0033296
300.0033334
300.0032874
300.0000022
300.0000033
299.9999968
300.0000059
300.0000021
299.9999995
300.0000112
300.0000829
300.0000143
300.000009
300.0000048
300.0000083
300.0006415
300.0004936
300.0003321
300.0000115
300.000005
300.0000103
300.0000181
300.0000212
300.0000201
300.0000011
300.0000006
300.0000005
300.000001
300.000004
300.0000065
300.0000048
300.0000043
300.0000043
300.0000042
300.0000039
300.0000034
300.0000031
300.0000029
300.0000029
300.0000027
300.0000016
300.0000026
299.9999974
300.0000008
300.0000044
300.0000071
300.000019
300.0000284
300.0000127
300.0000087
300.000005
300.0000689
300.0005582
300.0012902
300.0032565
300.0000298
300.0000129
300.0000176
300.0000153
300.000012
300.0000047
300.0000014
300.0000005
300.0000003
300.0000003
300.0000006
300.0000013
300.0000021
300.0000028
300.0000036
300.0000039
300.0000037
300.0000032
300.000003
300.0000029
300.0000029
300.0000027
299.9999995
299.9999995
299.9999912
299.9999976
300.0000109
300.0000201
300.000012
300.0000092
300.0000058
300.0000572
300.0002579
300.0031911
300.0032563
300.0009213
300.000127
300.0000103
300.0000082
300.0000093
300.000009
300.0000013
300.0000006
300.0000005
300.0000005
300.0000008
300.0000011
300.0000016
300.0000024
300.0000035
300.000004
300.0000035
300.0000031
300.0000029
300.0000028
300.0000028
300.0000028
300.0000009
299.9999966
299.9999992
300.0000056
300.0000128
300.0000122
300.0000084
300.0000063
300.0000085
300.0000845
300.0018326
300.0001523
300.000076
300.0000315
300.0000061
300.0000049
300.0000047
300.0000046
300.0000011
300.0000006
300.0000006
300.0000006
300.0000007
300.0000009
300.0000013
300.000002
300.0000034
300.000004
300.0000033
300.0000029
300.0000028
300.0000028
300.0000028
300.0000027
300.0000004
299.9999992
299.9999935
299.9999997
300.0000042
300.0000118
300.0000104
300.0000054
299.999996
300.0000225
300.0000261
300.0000248
300.0000212
300.0000119
300.0000041
300.0000028
300.0000024
300.0000025
300.0000011
300.0000007
300.0000005
300.0000005
300.0000006
300.0000007
300.0000009
300.0000012
300.000002
300.0000027
300.0000028
300.0000027
300.0000028
300.0000029
300.000003
300.0000026
299.9999978
299.9999952
299.9999867
299.9999905
299.9999965
300.000007
300.0000084
299.9999979
300.0000054
300.0000108
300.0000135
300.0000143
300.0000112
300.0000031
300.0000021
300.0000023
300.0000031
300.0000014
300.0000009
300.0000007
300.0000006
300.0000006
300.0000006
300.0000008
300.0000011
300.0000016
300.0000022
300.0000025
300.0000027
300.000003
300.0000033
300.0000034
300.0000025
299.9999905
299.9999963
299.9999888
299.9999956
300.0000013
300.0000085
300.0000114
300.0000051
300.0000094
300.0000137
300.0000171
300.0000179
300.0000156
300.0000129
300.0000109
300.0000098
300.0000094
300.0000059
300.0000031
300.000002
300.0000017
300.0000018
300.0000022
300.0000028
300.0000028
300.0000028
300.0000028
300.000003
300.0000034
300.0000039
300.0000045
300.0000046
300.0000023
300.0000088
300.0000009
299.9999945
300.0000008
300.0000056
300.0000093
300.0000112
300.0000108
300.0000108
300.0000101
300.0000089
300.0000075
300.0000063
300.0000056
300.0000054
300.0000058
300.0000063
300.0000044
300.0000025
300.0000018
300.0000018
300.0000021
300.0000026
300.0000031
300.0000032
300.0000034
300.0000039
300.0000046
300.0000056
300.0000066
300.0000071
300.0000065
300.0000022
300.0000077
300.0000019
300.0000046
300.0000065
300.0000072
300.0000072
300.0000065
300.000005
300.000004
300.0000031
300.0000025
300.0000025
300.0000037
300.0000055
300.0000071
300.0000084
300.0000038
300.0000023
300.000002
300.0000022
300.0000026
300.0000032
300.0000035
300.0000039
300.0000043
300.0000049
300.0000058
300.0000069
300.0000082
300.0000089
300.0000081
300.000002
300.0000069
300.0000061
300.0000038
299.9999975
299.9999865
299.9999865
299.9999921
300.00002
300.000019
300.0000178
300.0000165
300.0000111
300.0000088
300.0000091
300.0000108
300.0000037
300.0000023
300.0000024
300.0000031
300.0000035
300.0000036
300.0000036
300.0000036
300.0000038
300.0000041
300.0000048
300.0000058
300.0000072
300.0000087
300.0000087
300.0000019
300.0000053
300.000004
299.9999949
299.9999924
299.9999915
299.9999954
299.9999996
300.0000262
300.0000268
300.0000305
300.0000189
300.0000098
300.0000068
300.0000072
300.0000089
300.0000037
300.0000027
300.0000035
300.0000034
300.0000032
300.0000031
300.000003
300.0000031
300.0000032
300.0000035
300.000004
300.0000047
300.0000059
300.0000076
300.0000086
300.0000018
300.0000037
299.9999995
299.9999952
299.9999936
299.9999913
300.000001
300.0000267
300.0000287
300.0000274
300.0000699
300.0000228
300.000008
300.0000053
300.0000059
300.0000078
300.0000041
300.0000033
300.0000038
300.0000039
300.0000037
300.0000036
300.0000034
300.0000033
300.0000033
300.0000033
300.0000036
300.0000041
300.0000049
300.0000064
300.0000081
300.0000017
299.9999915
300.0000034
300.0000347
300.0000273
300.0001305
300.0000209
300.0000056
300.0000041
300.0000048
300.000008
300.0000049
300.0000043
300.0000047
300.0000047
300.0000045
300.0000044
300.0000042
300.000004
300.0000037
300.0000028
300.0000031
300.0000035
300.0000041
300.000005
300.0000062
300.0000019
299.9999892
300.0000335
300.0000194
300.000037
300.0002854
300.0000136
300.000004
300.0000033
300.0000041
300.0000071
300.0000063
300.0000055
300.0000058
300.0000033
300.0000033
300.0000043
300.0000051
300.0000052
300.0000039
299.9999994
300.0000015
300.0000027
300.0000033
300.0000038
300.0000044
300.0000024
)
;

boundaryField
{
    walls
    {
        type            zeroGradient;
    }
    wallFilmFace_top
    {
        type            zeroGradient;
    }
    region0_to_wallFilmRegion_wallFilmFace
    {
        type            zeroGradient;
    }
    mirrorFace_top
    {
        type            zeroGradient;
    }
    region0_to_wallFilmRegion_mirrorFace
    {
        type            zeroGradient;
    }
    procBoundary0to1
    {
        type            processor;
        value           nonuniform List<scalar> 
52
(
300.0000023
300.000008
300.0000062
300.0000045
300.0000033
300.0000024
300.0000018
300.0000018
300.0000042
300.000004
300.0000042
300.0000061
300.0000061
300.0000019
300.000002
300.000002
300.0008423
300.0011394
300.0013901
300.0028504
300.0028504
300.0033075
300.003273
300.003273
300.0031171
300.003291
300.0033142
300.0033023
300.0033023
300.0000018
300.0000032
300.0000032
300.0000045
300.0000045
300.000001
299.9999946
299.9999946
299.9999854
299.9999965
300.0000274
300.0000274
300.0000114
300.0000114
300.000006
300.0000017
299.9999968
300.0000181
300.0021543
300.0002418
299.9999911
299.9999911
300.0029744
)
;
    }
    procBoundary0to2
    {
        type            processor;
        value           nonuniform List<scalar> 
26
(
299.9999877
300.0000288
300.000008
300.0000696
300.0000711
300.0000066
300.0000034
300.0000031
300.0000035
300.0000042
300.0000054
300.0000058
300.0000061
300.0000012
300.0000013
300.0000021
300.0000039
300.0000055
299.9999989
299.9999955
300.0000002
300.0000017
300.0000026
300.0000029
300.0000029
300.0000027
)
;
    }
}


// ************************************************************************* //
