/*--------------------------------*- C++ -*----------------------------------*\
  =========                 |
  \\      /  F ield         | OpenFOAM: The Open Source CFD Toolbox
   \\    /   O peration     | Website:  https://openfoam.org
    \\  /    A nd           | Version:  8
     \\/     M anipulation  |
\*---------------------------------------------------------------------------*/
FoamFile
{
    version     2.0;
    format      ascii;
    class       volVectorField;
    location    "0.6/wallFilmRegion";
    object      U;
}
// * * * * * * * * * * * * * * * * * * * * * * * * * * * * * * * * * * * * * //

dimensions      [0 1 -1 0 0 0 0];

internalField   nonuniform List<vector> 
1369
(
(-0.260350927 -0.1471921034 0)
(-1.026095813 -0.03146568405 0)
(-1.135911526 -0.6586702958 0)
(-1.164724431 -0.7188429228 0)
(-1.164125956 -0.7284634926 0)
(-1.158833904 -0.6984669057 0)
(-1.147477656 -0.670833688 0)
(-1.130106559 -0.6488174424 0)
(-1.107350236 -0.6360432255 0)
(-1.078315333 -0.6286611627 0)
(-1.046363686 -0.6190110029 0)
(-1.01832655 -0.5956778374 0)
(-1.001874468 -0.5590119874 0)
(-0.9974655482 -0.5203989566 0)
(-1.00848754 -0.4840501047 0)
(-1.040540311 -0.4514148714 0)
(-1.095088931 -0.4220982612 0)
(-1.161984204 -0.3943270757 0)
(-1.211471706 -0.3629297667 0)
(-1.213731788 -0.3221318749 0)
(-1.183256458 -0.2740954452 0)
(-1.157848486 -0.2311491549 0)
(-1.082924868 -0.2345603198 0)
(-0.9281151507 -0.4320610537 0)
(-0.7952815016 -0.696861583 0)
(-0.6824270259 -0.7293871847 0)
(-0.5386753382 -0.1526690634 0)
(-0.7643609526 0.677550508 0)
(-0.9844438042 0.5306371575 0)
(-1.163575997 0.09158521204 0)
(-1.273546944 -0.1238731594 0)
(-1.291120902 -0.1560444112 0)
(-1.342603602 -0.2376816614 0)
(-1.593352244 -0.1178535085 0)
(-1.538248728 -0.05917103557 0)
(-1.669940122 0.2102792433 0)
(-1.535278663 0.4104701679 0)
(-1.309725175 0.5177588408 0)
(-1.177895394 0.4156296268 0)
(-1.148424067 0.3377167883 0)
(-1.245698179 0.3285669836 0)
(-1.381147732 0.370577957 0)
(-1.449066624 0.4186909603 0)
(-1.454694911 0.4575744067 0)
(-1.427923458 0.4832835916 0)
(-1.406819026 0.5034443405 0)
(-1.377566389 0.5182131512 0)
(-1.330686161 0.5264155659 0)
(-1.283711459 0.5343379942 0)
(-1.245531454 0.5437916367 0)
(-1.218696811 0.5490406543 0)
(-1.215450727 0.5567914113 0)
(-1.233506583 0.5761422096 0)
(-1.248525332 0.6072773872 0)
(-1.249055393 0.6444551288 0)
(-1.236731042 0.6845369074 0)
(-1.218482028 0.6939575571 0)
(-1.150440609 0.6990445962 0)
(-1.063439879 -0.1615497699 0)
(-0.383843471 0.127210767 0)
(0.3142608144 -0.9094308423 0)
(0.9536852956 0.8407658292 0)
(1.143264692 -0.5338160548 0)
(-0.6993509038 -0.8678728931 0)
(-0.7924413116 -0.8290584902 0)
(-0.9111220559 -0.8047399398 0)
(-1.036378025 -0.805249946 0)
(-1.147326729 -0.8173573352 0)
(-1.217539493 -0.8246705035 0)
(-1.220183238 -0.8368906139 0)
(-1.112499406 -0.9240051929 0)
(-0.8731859643 -0.9978033097 0)
(-0.5534768012 -1.004438466 0)
(-0.3019517305 -0.9474572801 0)
(-0.00558551492 -0.8728262567 0)
(0.2475036139 -0.7866048884 0)
(0.3324247655 -0.6895900292 0)
(0.2455415124 -0.5864452722 0)
(0.1496168653 -0.4939697216 0)
(0.251665134 -0.3983255374 0)
(0.4670352238 0.3539928589 0)
(-0.02156396107 0.4449720849 0)
(-0.2940101791 0.5198005742 0)
(-0.252616504 0.5602325729 0)
(0.005692555394 0.5498788005 0)
(-0.4593867241 0.4785953168 0)
(0.5625849768 -0.1195471584 0)
(-0.1936393118 0.1899517563 0)
(-0.8318185054 -0.2921209593 0)
(-0.845343003 -0.5562129448 0)
(-0.8871052429 -0.684039681 0)
(-0.945659997 -0.8713812544 0)
(-1.02297516 -0.8447663412 0)
(-1.027607913 -0.5858052165 0)
(-1.029538608 -0.3125712009 0)
(-1.027829679 0.2457961292 0)
(-1.000685563 0.552746484 0)
(-0.962360322 0.7032113673 0)
(-0.9586962896 0.6275979427 0)
(-0.9604729765 0.540909611 0)
(-0.9064500064 0.474233624 0)
(-0.8861827712 0.4844914503 0)
(-0.8908733127 0.5649040221 0)
(-0.8727106062 0.6531772699 0)
(-0.8431007685 0.7524760818 0)
(-1.80241191 0.7460721406 0)
(-1.908168649 0.84316532 0)
(-1.597910052 0.8562959191 0)
(-1.169358493 0.8020862089 0)
(-0.9237944115 0.8403817179 0)
(-0.8519195078 0.8689663221 0)
(-1.085307743 0.8383210211 0)
(-1.359100924 0.8534653307 0)
(-1.47463862 0.9074016706 0)
(-1.468645714 0.9688356006 0)
(-1.392189141 1.024527463 0)
(-1.289109118 1.069277897 0)
(-0.9783235305 1.138391573 0)
(0.4764332312 -0.8396833938 0)
(0.3805513483 0.8076838983 0)
(-0.4987152147 -1.086914544 0)
(-0.3720529955 0.005273413833 0)
(0.03991465179 -0.8230154674 0)
(-1.085217181 -0.8965324742 0)
(-1.1060317 -0.8588631711 0)
(-1.164826149 -0.8381154655 0)
(-1.268794344 -0.8342731708 0)
(-1.375958519 -0.8257714252 0)
(-1.452836395 -0.8050456462 0)
(-1.483879555 -0.7766568963 0)
(-1.381109888 -0.8262562287 0)
(-1.117479391 -0.8617565375 0)
(-0.8722980712 -0.8930086286 0)
(-0.8616915413 -0.84327362 0)
(-0.8774688762 -0.7936081199 0)
(-0.9360003067 -0.7543584231 0)
(-1.030749271 -0.7023776566 0)
(-1.047641945 -0.5901814358 0)
(-1.050875673 -0.4955107719 0)
(-1.057998312 -0.4059827725 0)
(-1.006505051 0.3827320996 0)
(-1.000327892 0.473063948 0)
(-0.9979313612 0.555042194 0)
(-1.001240243 0.6040407642 0)
(-1.009323721 0.6034763514 0)
(-0.9950434343 0.5052041266 0)
(0.8178877356 -0.09169796661 0)
(-0.3345089965 0.1799864038 0)
(-1.001622429 -0.3831147787 0)
(-0.9512343848 -0.576080242 0)
(-0.9418271463 -0.6712310923 0)
(-0.9658341596 -0.8288539549 0)
(-0.9946243592 -0.8104318847 0)
(-1.011026811 -0.5502867305 0)
(-0.9951154583 -0.2438380582 0)
(-0.9582252226 0.2375147619 0)
(-0.8792670102 0.5420650913 0)
(-0.946259091 0.5305345117 0)
(-1.00557173 0.4411841863 0)
(-1.01631335 0.4538497347 0)
(-1.082331623 0.4302701171 0)
(-1.119341592 0.4881519534 0)
(-1.11295851 0.5726614488 0)
(-1.107288861 0.6648815208 0)
(-1.100477047 0.7700211947 0)
(-2.028091702 0.7109070972 0)
(-2.068023807 0.8268917293 0)
(-1.702545274 0.8035839481 0)
(-1.237089778 0.6144719309 0)
(-1.002221432 0.6369039462 0)
(-0.9365206138 0.7028009239 0)
(-1.240861916 0.7522099963 0)
(-1.493587193 0.84513276 0)
(-1.561649472 0.9372935462 0)
(-1.536691998 1.015489177 0)
(-1.466080331 1.081022188 0)
(-1.370977816 1.131134196 0)
(-1.262901568 1.161818259 0)
(-1.212338142 0.2201049613 0)
(-0.6729922403 1.08728621 0)
(-0.6394524846 -1.2090001 0)
(-1.016210186 -0.520714329 0)
(-1.039403454 -0.9984669629 0)
(-1.073978206 -0.9468332471 0)
(-1.127127954 -0.9214538986 0)
(-1.235268386 -0.9178386126 0)
(-1.368359615 -0.9077865175 0)
(-1.483665171 -0.8755505427 0)
(-1.559887586 -0.8270025064 0)
(-1.578152296 -0.7741716559 0)
(-1.489786855 -0.731400434 0)
(-1.185928949 -0.718824101 0)
(-0.7785941782 -0.7322417496 0)
(-0.7350387189 -0.6690277832 0)
(-0.7035792526 -0.6199385481 0)
(-0.7211996569 -0.6252748138 0)
(-0.9311081559 -0.7430889025 0)
(-0.9652271477 -0.6115055043 0)
(-0.970272165 -0.5028934005 0)
(-0.9700849148 -0.3997673653 0)
(-0.9696958775 0.3552310364 0)
(-0.9692835427 0.4788557805 0)
(-0.969484708 0.5785634164 0)
(-0.9749525171 0.6310193799 0)
(-0.9843249992 0.6234294912 0)
(-0.9812082471 0.5177849052 0)
(0.9088975252 -0.03554559764 0)
(-0.4328105943 0.1301565914 0)
(-1.04806815 -0.4686613727 0)
(-0.9223441628 -0.5818461143 0)
(-0.9123770563 -0.5208926065 0)
(-0.9260737172 -0.4447547779 0)
(-0.9750874442 -0.3306705636 0)
(-1.195076005 0.1281820391 0)
(-0.9801351331 0.2385938707 0)
(0.7689736187 0.2096745457 0)
(0.4391737944 0.3283425169 0)
(-0.9312554372 0.2263744589 0)
(-0.9394672381 -0.4260225232 0)
(-1.059015616 -0.4219560888 0)
(-1.093650399 0.4310362303 0)
(-1.070573116 0.4990744528 0)
(-1.064724327 0.5853209829 0)
(-1.06134578 0.68735193 0)
(-1.055466484 0.8030978944 0)
(-1.989520376 0.6889301987 0)
(-2.00247302 0.8275885939 0)
(-1.6686794 0.791199955 0)
(-1.163141074 0.4442561952 0)
(-0.9412017603 0.4057865385 0)
(-0.8852989869 0.4994999959 0)
(-1.306369553 0.693079258 0)
(-1.50147289 0.8627646712 0)
(-1.522270686 0.9757854793 0)
(-1.487707945 1.06183472 0)
(-1.427223535 1.136108014 0)
(-1.347277537 1.196824219 0)
(-1.25501464 1.238057313 0)
(-1.165236607 1.202346974 0)
(-0.6613107832 1.237573647 0)
(-0.6882024753 -1.235106576 0)
(-0.9808239182 -0.4676053678 0)
(-1.017870883 -1.048693188 0)
(-1.068941237 -1.017958726 0)
(-1.154873433 -1.024975626 0)
(-1.273799955 -1.027378469 0)
(-1.391502251 -0.998831077 0)
(-1.486374637 -0.9418454953 0)
(-1.549385296 -0.8691929585 0)
(-1.572033698 -0.7918641357 0)
(-1.518249628 -0.7121670722 0)
(-1.255047664 -0.6260872 0)
(-0.7234720217 -0.5625943839 0)
(-0.6668794382 -0.4899579223 0)
(-0.6077500757 -0.4323923614 0)
(-0.5584009753 -0.4218605201 0)
(-0.8320399017 -0.7944701483 0)
(-0.8909502772 -0.6411738722 0)
(-0.8949706085 -0.5102765868 0)
(-0.873506712 -0.3846739207 0)
(-0.9376267852 0.2650275668 0)
(-0.9460927809 0.4477481137 0)
(-0.950239446 0.5758058514 0)
(-0.959799127 0.6344592931 0)
(-0.9700516998 0.6055255669 0)
(-0.9625061869 0.5240516466 0)
(-0.9486031107 0.4570352827 0)
(-0.9911414605 0.09033021754 0)
(-0.9959622173 -0.5174581983 0)
(-0.9044221017 -0.6319235433 0)
(-0.8976500969 -0.5731425726 0)
(-0.9102382533 -0.4776700903 0)
(-0.9481144923 -0.3292252786 0)
(-1.095774742 0.130952944 0)
(-0.8115367312 0.1530566042 0)
(0.9476463078 0.2102510956 0)
(0.4170745433 0.3202667576 0)
(-0.6929795026 0.2371521918 0)
(-0.8961071244 -0.3022696793 0)
(-0.9623624952 -0.3917819316 0)
(-1.030565818 0.4234937671 0)
(-1.020009396 0.4943355664 0)
(-1.020825833 0.5988217142 0)
(-1.020283638 0.7189263491 0)
(-1.016593695 0.8457500489 0)
(-1.831128355 0.67932734 0)
(-1.843835126 0.8353668023 0)
(-1.603719289 0.8044409554 0)
(-1.15205233 0.3988877533 0)
(-0.9181140043 0.2157996989 0)
(-0.8602850807 0.2909986288 0)
(-1.340262693 0.697137866 0)
(-1.436105559 0.8956865938 0)
(-1.428160748 1.012883915 0)
(-1.394036834 1.102537122 0)
(-1.34796882 1.184883385 0)
(-1.288323101 1.259019029 0)
(-1.215585755 1.314973786 0)
(-1.135331559 1.292752054 0)
(-0.7550894084 1.263661807 0)
(-0.6643235028 -1.25777023 0)
(-0.9442998115 -0.5294670272 0)
(-0.9938684503 -1.125697083 0)
(-1.066963518 -1.135781301 0)
(-1.158837133 -1.154547234 0)
(-1.255216479 -1.135808031 0)
(-1.338928255 -1.078874197 0)
(-1.401801054 -0.9978910417 0)
(-1.443176315 -0.9088259712 0)
(-1.465194225 -0.8219760812 0)
(-1.454826257 -0.7313074687 0)
(-1.295099782 -0.5957061262 0)
(-0.6981631154 -0.3981100467 0)
(-0.6388933504 -0.33294832 0)
(-0.5723506338 -0.2845699032 0)
(-0.4887506693 -0.2675610612 0)
(-0.6430141997 -0.8711372083 0)
(-0.769187108 -0.6975979439 0)
(-0.7851836478 -0.5293045798 0)
(-0.7127016679 -0.3777230852 0)
(-0.9085045979 0.01993821111 0)
(-0.9233640607 0.3248874323 0)
(-0.9330245394 0.4980296848 0)
(-0.9491118153 0.5716221886 0)
(-0.919363982 0.4830910218 0)
(-0.9201893086 0.4566718362 0)
(-0.949351122 0.4264318203 0)
(-0.9563515877 0.04938128517 0)
(-0.9231173457 -0.5514299334 0)
(-0.8863842551 -0.6731880643 0)
(-0.8767054334 -0.6208023234 0)
(-0.8816461289 -0.5011484928 0)
(-0.8985866533 -0.3049112061 0)
(-0.9804753268 0.1351497324 0)
(-0.5909193102 -0.01184230392 0)
(0.9747481339 0.21180304 0)
(0.247573694 0.2284812196 0)
(-0.5916648786 0.2313783525 0)
(-0.8543739244 -0.1525094627 0)
(-0.8758743362 -0.3148905908 0)
(-0.9611468985 0.4092906639 0)
(-0.9715722674 0.4694600303 0)
(-0.9788109854 0.6175200657 0)
(-0.9850346849 0.7498225151 0)
(-0.9864556024 0.861833344 0)
(-1.625863782 0.6746730416 0)
(-1.657104157 0.8300121665 0)
(-1.513767984 0.8567894545 0)
(-1.179067934 0.5072585614 0)
(-0.9629462494 0.2272860266 0)
(-0.8757644281 0.07585642278 0)
(-1.288305297 0.7299804194 0)
(-1.319005194 0.9221597859 0)
(-1.306603785 1.041626348 0)
(-1.277718472 1.136063159 0)
(-1.243825241 1.225564449 0)
(-1.202019002 1.313498411 0)
(-1.149859519 1.387974238 0)
(-1.086710379 1.39707208 0)
(-0.720985367 1.290424268 0)
(-0.6420662004 -1.276971926 0)
(-0.9070456993 -0.681308937 0)
(-0.97122782 -1.250966239 0)
(-1.047501216 -1.282358593 0)
(-1.120737122 -1.276862687 0)
(-1.186469407 -1.223386085 0)
(-1.238181554 -1.136541578 0)
(-1.274263093 -1.03496248 0)
(-1.297868244 -0.9353602559 0)
(-1.314980134 -0.8471060875 0)
(-1.325622859 -0.7602723486 0)
(-1.270203763 -0.6249983404 0)
(-0.7123087092 -0.2784441341 0)
(-0.6478191981 -0.2222827292 0)
(-0.5828256098 -0.1938531099 0)
(-0.4779799088 -0.1970238762 0)
(0.1650568497 -0.8495276095 0)
(0.5760990389 -0.6412931334 0)
(0.6763402344 -0.5030478148 0)
(0.3163625164 -0.5329780139 0)
(-0.928850375 -0.8379105038 0)
(-0.9824298048 -0.6756700037 0)
(-0.9973612126 -0.5034978234 0)
(-0.9914260532 -0.3196816132 0)
(-0.600749827 0.1323384059 0)
(-0.8259985264 0.3655650299 0)
(-0.909593364 0.3916624067 0)
(-0.9363349073 0.1518725726 0)
(-0.8836923352 -0.5372112444 0)
(-0.8684465986 -0.6982779939 0)
(-0.8516317123 -0.6549445359 0)
(-0.8417676283 -0.501519249 0)
(-0.827447763 -0.2259459654 0)
(-0.8352782768 0.1438963272 0)
(-0.3712772657 -0.1742322752 0)
(0.4464545175 0.1045492584 0)
(-0.5917011451 -0.1362608565 0)
(-0.8005559458 0.1909295285 0)
(-0.8209987503 0.01611555221 0)
(-0.8031100782 -0.1730059069 0)
(-0.8608762455 0.3888118718 0)
(-0.953783704 0.3266069905 0)
(-0.982360657 0.6034527555 0)
(-0.9959154243 0.5515843932 0)
(-0.983064738 0.6098884348 0)
(-1.41671088 0.6691297763 0)
(-1.449837638 0.8194481899 0)
(-1.392869331 0.9295808571 0)
(-1.193861712 0.7558516457 0)
(-0.9952097622 0.4720461493 0)
(-0.8788107722 0.1036026266 0)
(-1.138552306 0.7090935468 0)
(-1.179220474 0.9289675061 0)
(-1.177637221 1.058460837 0)
(-1.159029719 1.162277278 0)
(-1.13352465 1.258027708 0)
(-1.103084845 1.357792928 0)
(-1.066342406 1.4503313 0)
(-1.019653986 1.489270932 0)
(-0.6858997559 1.313673931 0)
(-0.6194110663 -1.2929376 0)
(-0.8736796669 -0.9711968181 0)
(-0.9376253332 -1.403852229 0)
(-0.9980227633 -1.417423705 0)
(-1.047468077 -1.373562565 0)
(-1.087491012 -1.285646407 0)
(-1.116654646 -1.173767003 0)
(-1.136174344 -1.057309317 0)
(-1.149790656 -0.9518743882 0)
(-1.164002958 -0.865497227 0)
(-1.180555837 -0.7807984 0)
(-1.173198251 -0.6629838822 0)
(-0.7637555222 -0.2418281111 0)
(-0.6936815351 -0.1554137567 0)
(-0.6443494607 -0.1345167784 0)
(-0.6026567954 -0.1752271895 0)
(0.4025649235 -0.7288048259 0)
(0.6850214055 -0.5893628402 0)
(0.7311272635 -0.5065213365 0)
(0.5613190645 -0.5095677631 0)
(-0.80836321 -0.9084116243 0)
(-0.8665557118 -0.731347776 0)
(-0.8612829389 -0.5218774272 0)
(-0.761054233 -0.289098506 0)
(-0.3625707522 -0.01733746189 0)
(-0.6615265816 0.2536113562 0)
(-0.8652403387 0.3446958396 0)
(-0.9353878344 0.3414638775 0)
(-0.8721657831 -0.4333067652 0)
(-0.8416516322 -0.6564743271 0)
(-0.8272339565 -0.6041398387 0)
(-0.7926109869 -0.4004231716 0)
(-0.7322867754 0.03731079635 0)
(-0.5912587288 0.1415323564 0)
(-0.3355836638 -0.3394018362 0)
(-0.3364907811 -0.3786207997 0)
(-0.4964390363 -0.4327483063 0)
(-0.718482674 -0.02049668595 0)
(-0.776616987 0.1649591107 0)
(-0.7426467866 -0.02432204635 0)
(0.6549602552 0.3320740171 0)
(-1.063292522 -0.2430318096 0)
(-1.285187103 0.2234162265 0)
(-0.9889161032 -0.1094885537 0)
(-0.9389869759 -0.04744298011 0)
(-1.222239951 0.6666533116 0)
(-1.243618737 0.8100161557 0)
(-1.234449626 0.987628118 0)
(-1.138133024 1.005828838 0)
(-0.9899902173 0.7535440815 0)
(-0.8920162535 0.5040064044 0)
(-0.9647938092 0.6722941139 0)
(-1.036060474 0.9154470473 0)
(-1.050572571 1.061792049 0)
(-1.049385219 1.179519084 0)
(-1.031286618 1.283663475 0)
(-1.00586353 1.393186663 0)
(-0.9770261168 1.499990398 0)
(-0.9418053955 1.565567581 0)
(-0.6437285939 1.331880056 0)
(-0.5966630587 -1.306004169 0)
(-0.8359197653 -1.273840029 0)
(-0.8856175156 -1.543460231 0)
(-0.9258525189 -1.521463104 0)
(-0.9556973829 -1.441422179 0)
(-0.9782294094 -1.325985037 0)
(-0.994246174 -1.196483058 0)
(-1.005364951 -1.070751958 0)
(-1.014451915 -0.9629274915 0)
(-1.02769087 -0.8810529531 0)
(-1.043057078 -0.7919364463 0)
(-1.047251847 -0.6798025315 0)
(-0.8142699797 -0.2399863573 0)
(-0.7525093683 -0.103198947 0)
(-0.6975935551 -0.03343836682 0)
(-0.6227927923 -0.09313042706 0)
(0.4318651303 -0.6921802797 0)
(0.7270834013 -0.5762816521 0)
(0.7853275682 -0.512343544 0)
(0.7225019961 -0.499642861 0)
(-0.598474933 -0.9835926165 0)
(-0.6918403286 -0.8015516058 0)
(-0.6647473429 -0.5479985966 0)
(-0.5597619937 -0.3227212858 0)
(-0.7464296981 0.01242726088 0)
(-0.5256623783 0.2103611088 0)
(-0.8188400346 0.2562608986 0)
(-0.9172078037 0.3381575183 0)
(-0.9207195006 0.4611598437 0)
(-0.9030974507 0.6983715807 0)
(-0.8791384986 0.9477667648 0)
(-0.7948001402 1.119171239 0)
(-0.5990691074 1.112723434 0)
(0.4187602926 0.5749104485 0)
(-0.2285497959 -0.391307103 0)
(-0.2784686444 -0.4782933077 0)
(-0.4190332428 -0.5820972223 0)
(-0.7037147529 -0.6885965446 0)
(-0.7897704663 -0.6128784356 0)
(-0.6105243289 -0.4124321903 0)
(0.8647642818 0.3627402519 0)
(-0.8235569256 -0.185121328 0)
(-1.035330413 -0.08407190952 0)
(-0.8360166811 -0.5070804989 0)
(-0.8080575504 -0.4628249679 0)
(-1.059606907 0.6764240034 0)
(-1.059203455 0.8061973064 0)
(-1.059547518 1.010617658 0)
(-1.027338657 1.166620028 0)
(-0.9438494021 1.023624759 0)
(-0.869543144 0.8267811152 0)
(-0.8576850829 0.7641745389 0)
(-0.9022304496 0.8955308254 0)
(-0.9296522788 1.053215388 0)
(-0.9346150042 1.184271468 0)
(-0.9278625008 1.304442838 0)
(-0.9095899581 1.423779463 0)
(-0.8861676564 1.539786364 0)
(-0.8587097568 1.62321421 0)
(-0.5923301656 1.33497851 0)
(-0.5727756059 -1.31613277 0)
(-0.7863301208 -1.491332307 0)
(-0.8206010173 -1.650208167 0)
(-0.8448641575 -1.593494784 0)
(-0.8617516424 -1.485295369 0)
(-0.8746894342 -1.351078377 0)
(-0.8852034012 -1.210960919 0)
(-0.8945030369 -1.080066197 0)
(-0.9035364474 -0.9711103687 0)
(-0.9143592497 -0.8941070343 0)
(-0.9234366191 -0.798159067 0)
(-0.9279198022 -0.6845571029 0)
(-0.8192890281 -0.1528893747 0)
(-0.7688945047 -0.02232230529 0)
(-0.7093820675 0.02154550834 0)
(-0.5764741621 -0.205341617 0)
(0.4176009019 -0.6457053916 0)
(0.7285758676 -0.5714080204 0)
(0.8162889438 -0.5226332657 0)
(0.8224395748 -0.5051756471 0)
(0.50920517 -0.7542646649 0)
(0.6071400677 -0.708781776 0)
(0.4695026424 -0.6121235931 0)
(0.008585598913 -0.5125355443 0)
(-0.5844427176 -0.2714155832 0)
(-0.3511163776 0.225204089 0)
(-0.737804422 -0.1546145404 0)
(-0.8228195909 0.3328512128 0)
(-0.7873624772 0.6319335806 0)
(-0.7841545257 0.8896328466 0)
(-0.7687953465 1.120715282 0)
(-0.6422479281 1.231551806 0)
(-0.4057465655 1.135284778 0)
(0.5808209823 0.5221182066 0)
(-0.02345802578 -0.2818752041 0)
(-0.1832460367 -0.4551270837 0)
(-0.3333441471 -0.5558949912 0)
(-0.6331120966 -0.7284872539 0)
(-0.7602255324 -0.6634346575 0)
(-0.8565897552 -0.5668299604 0)
(-0.9372664444 -0.4462724064 0)
(-1.045354041 -0.3274155607 0)
(-0.8523224176 -0.5055962756 0)
(-0.7767646287 -0.7312412295 0)
(-0.7672201328 -0.6286907013 0)
(-0.9236848251 0.6779059466 0)
(-0.9114887689 0.8119897173 0)
(-0.9057632238 1.009672235 0)
(-0.9005330924 1.240170567 0)
(-0.8732331551 1.250163574 0)
(-0.8434654975 1.089746599 0)
(-0.8013788206 0.9508172181 0)
(-0.7924238349 0.919730791 0)
(-0.8115704183 1.039483867 0)
(-0.8188957561 1.180690868 0)
(-0.8116211838 1.314200206 0)
(-0.7958783367 1.44321445 0)
(-0.7796114313 1.567062992 0)
(-0.7639924902 1.658044714 0)
(-0.5279101485 1.305992411 0)
(-0.5458053167 -1.320091027 0)
(-0.728492428 -1.620907529 0)
(-0.7522073892 -1.72348019 0)
(-0.7667658429 -1.640819152 0)
(-0.7767738606 -1.513593665 0)
(-0.7859325746 -1.368724296 0)
(-0.796315544 -1.224043629 0)
(-0.8097501556 -1.091423761 0)
(-0.8245781556 -0.9795357931 0)
(-0.8282220841 -0.8959056866 0)
(-0.8253280428 -0.8025611872 0)
(-0.8249594193 -0.6919715257 0)
(-0.7566651404 0.1602962652 0)
(-0.7445587423 0.2157826679 0)
(-0.706179161 0.2204904131 0)
(-0.233324626 -0.2182483687 0)
(0.4731172395 -0.4283358382 0)
(0.7220561608 -0.4686085001 0)
(0.7405248958 -0.5879772316 0)
(0.7372013352 -0.5150148736 0)
(0.6094217539 -0.4566691956 0)
(0.6916481349 -0.5811875619 0)
(0.780417749 -0.5997307149 0)
(0.6362997005 -0.5171011706 0)
(-0.2640594558 0.2498085092 0)
(-0.2700257372 0.3195947069 0)
(0.3687695709 0.04883221633 0)
(0.6857491361 0.1989795434 0)
(-0.2055590077 0.7559300515 0)
(-0.4678108161 1.011843148 0)
(-0.4755748451 1.101792302 0)
(0.1660428322 0.7288403867 0)
(0.3242396952 0.6385001108 0)
(0.7168241553 0.4755031403 0)
(0.1421471751 -0.2551502144 0)
(-0.02280459001 -0.4130477589 0)
(-0.2931434926 -0.5026529307 0)
(-0.546388564 -0.7592457544 0)
(-0.6705315728 -0.7008645113 0)
(-0.7562763178 -0.6107603001 0)
(-0.8454815854 -0.4739791111 0)
(-0.9139077007 -0.3998326127 0)
(-0.7902588791 -0.7332537743 0)
(-0.75870464 -0.8115415984 0)
(-0.7558085546 -0.6043360514 0)
(-0.7916633907 0.6693988698 0)
(-0.7863680201 0.8138750262 0)
(-0.7631000993 0.9948925019 0)
(-0.7760393031 1.235427888 0)
(-0.8046060622 1.374956133 0)
(-0.799216328 1.288822124 0)
(-0.7429712563 1.130791768 0)
(-0.6883960024 1.001290583 0)
(-0.6866001976 1.039554422 0)
(-0.6914633483 1.178373426 0)
(-0.6694161877 1.319543196 0)
(-0.6379602664 1.444947282 0)
(-0.628385918 1.563452999 0)
(-0.6381762736 1.636007173 0)
(-0.449348897 1.228263723 0)
(-0.5135604809 -1.308947245 0)
(-0.6662383034 -1.669246935 0)
(-0.6862857828 -1.769864574 0)
(-0.6960304945 -1.67317502 0)
(-0.7014707586 -1.534080035 0)
(-0.7058547217 -1.383549587 0)
(-0.7096798411 -1.236405246 0)
(-0.7144545286 -1.101373353 0)
(-0.7227059616 -0.9853223474 0)
(-0.7323504915 -0.8900402053 0)
(-0.7364051259 -0.8016830437 0)
(-0.7347030211 -0.7048266064 0)
(-0.6682982901 0.5221342521 0)
(-0.6827882949 0.5572612619 0)
(-0.6771611948 0.4489932624 0)
(-0.8322455127 0.1513149509 0)
(-0.7687770958 -0.7107268156 0)
(-0.8928423627 -0.6282420226 0)
(-0.9575882087 -0.5504471566 0)
(-1.105538712 -0.4596420256 0)
(-1.083990152 0.4131953277 0)
(0.6775835073 -0.3822227821 0)
(0.8892144279 -0.5064989918 0)
(0.9114474537 -0.4909595167 0)
(-0.2781260921 0.287752566 0)
(-0.245630692 0.3338683813 0)
(0.2424004175 0.1234798204 0)
(0.6883410789 0.1772720483 0)
(-0.006645687054 0.6905994009 0)
(-0.390021908 1.122939923 0)
(-0.3201314313 0.784888403 0)
(0.1605005634 0.7701425493 0)
(0.3954138318 0.6170892059 0)
(0.7988541491 0.4589291246 0)
(0.2098322124 -0.1095616477 0)
(-0.007803841469 0.02325457446 0)
(-0.3024501479 -0.3839216053 0)
(-0.4618911331 -0.7687630698 0)
(-0.5719566461 -0.7197198862 0)
(-0.6439560056 -0.629442855 0)
(-0.7135574219 -0.4901017157 0)
(-0.7953356257 -0.3325363352 0)
(-0.8158107841 0.298322175 0)
(-0.7290304182 0.3945267837 0)
(-0.6815395873 0.4877802722 0)
(0.7315465163 0.6342644122 0)
(0.658804551 0.6426417845 0)
(0.1012329674 0.4803204364 0)
(-0.650359179 0.5139920901 0)
(-0.8460780946 0.6550336439 0)
(-0.7898675926 0.7333120072 0)
(-0.0463728923 0.8111350743 0)
(0.4218071675 0.8704357387 0)
(0.6098250151 0.9091754309 0)
(0.6417001614 0.9343448766 0)
(0.5575542643 0.9579063546 0)
(0.3123847808 1.019052922 0)
(-0.07721869136 1.17683759 0)
(-0.3368177308 1.16305575 0)
(-0.3683076369 1.131201309 0)
(-0.5828433842 -1.090931048 0)
(-0.5868733515 -0.9779702452 0)
(-0.6115553298 -0.8840532426 0)
(-0.6341844823 -0.7985678743 0)
(-0.6203319215 -0.6943125274 0)
(-0.6865331464 0.3051522178 0)
(-0.6272008007 0.8132492054 0)
(-0.6368561406 0.6907503692 0)
(-0.7919790069 0.2253098568 0)
(-0.7378257138 -0.7190056876 0)
(-0.8159983714 -0.6155458342 0)
(-0.8582323908 -0.5381969461 0)
(-0.9812163106 -0.4763759689 0)
(-0.9956045609 0.4651544573 0)
(0.3775076645 -0.3980309353 0)
(0.8419370282 -0.3734274363 0)
(0.9610631187 -0.4802030851 0)
(-0.208818996 0.3227215975 0)
(-0.2041131659 0.3514604309 0)
(0.3479165742 0.1046799083 0)
(0.6712418316 0.1307138235 0)
(0.07545730375 0.03299826348 0)
(0.402094704 0.5075300573 0)
(-0.1183097907 -0.1032431175 0)
(0.2895669402 0.3967149978 0)
(0.4812467671 0.5581480937 0)
(0.8633247951 0.4491270165 0)
(0.3391764145 -0.05158696118 0)
(-0.09658704783 -0.1082946416 0)
(-0.3672175876 -0.3326251633 0)
(-0.3809231103 -0.7429044585 0)
(-0.4625757941 -0.7074972464 0)
(-0.5215278609 -0.6345336556 0)
(-0.575055353 -0.4992793568 0)
(-0.6439564304 -0.3404056757 0)
(-0.6800386965 0.299070688 0)
(-0.6158410505 0.4014606005 0)
(-0.7016093262 0.52681926 0)
(0.7688521759 0.6257291664 0)
(0.7025466615 0.645665266 0)
(0.2844471011 0.6940444866 0)
(-0.46665761 0.7490302236 0)
(-0.7754773454 0.7420268794 0)
(-0.7327715086 0.7506548745 0)
(0.3388653444 0.8502145541 0)
(0.6752263119 0.9028441763 0)
(0.7459904993 0.9334768861 0)
(0.6810396631 0.9164192657 0)
(0.5840595733 0.8585541867 0)
(0.4474614865 0.8770084403 0)
(0.3355757127 0.9037652039 0)
(0.2004670555 0.8308824626 0)
(-0.3055288789 1.088429402 0)
(0.1251813621 -0.6663828425 0)
(-0.9448959442 -0.6378412729 0)
(-0.6898881866 -0.3909946573 0)
(-0.6113947611 0.2573831405 0)
(-0.817944332 0.08087608868 0)
(-0.7117367855 -0.7260810217 0)
(-0.7487356689 -0.5922552465 0)
(-0.7709116201 -0.5049616914 0)
(-0.8721087431 -0.4745389877 0)
(-0.8704855499 0.4267573374 0)
(0.3443556102 -0.3699573663 0)
(0.6863845704 0.08412070279 0)
(0.9383778463 -0.4574824172 0)
(-0.1162947995 0.2787882651 0)
(-0.184375661 0.3487114147 0)
(0.5296066574 0.05341352447 0)
(0.689669291 0.1173764103 0)
(0.3744704235 0.1708310846 0)
(0.4935571903 0.1651296782 0)
(-0.09660443901 -0.1326769824 0)
(0.1111378155 0.1554217243 0)
(0.4076551511 0.4229791098 0)
(0.8850895674 0.4304050258 0)
(0.6704745012 0.2688233435 0)
(-0.08022622905 -0.162210336 0)
(-0.3347268721 -0.4387227096 0)
(-0.2998923392 -0.6560363009 0)
(-0.3403266569 -0.6172958933 0)
(-0.381105865 -0.5808269197 0)
(-0.4179727608 -0.4512548765 0)
(-0.4979416249 -0.3474859577 0)
(-0.5472034264 0.2976090268 0)
(-0.5038456056 0.4099801113 0)
(-0.9494687841 0.5799658728 0)
(0.1798108828 0.6005717107 0)
(0.2986239011 0.6491240395 0)
(-0.1381154197 0.7711749901 0)
(-0.6688466736 0.7580206916 0)
(-0.700167382 0.7172916018 0)
(-0.6450531639 0.7201399688 0)
(0.3550635362 0.9432365585 0)
(0.3805470756 0.9449436426 0)
(0.2120576987 0.903837899 0)
(0.0003618801256 0.8986393722 0)
(-0.1605811482 0.9089338067 0)
(-0.2124875851 0.9239512346 0)
(-0.1911694771 0.9373195852 0)
(-0.1426267148 0.9179609574 0)
(-0.2729953356 1.052539379 0)
(-0.5104055068 -0.4032732149 0)
(-0.5613414996 0.1028302541 0)
(-0.776904581 0.1020946 0)
(-0.6881772543 -0.7298347001 0)
(-0.6893758008 -0.5579646673 0)
(-0.6932316536 -0.4417003729 0)
(-0.7722842774 -0.4770324838 0)
(-0.7897535502 0.491768744 0)
(-0.7158010885 0.6588019015 0)
(0.7887758204 -0.3283591488 0)
(0.8746123183 -0.4213160833 0)
(0.3084258162 -0.1818308776 0)
(0.6582350376 0.1628733473 0)
(0.6767063816 0.02086735949 0)
(0.7022880662 0.1079465769 0)
(-0.1685014129 -0.1065793438 0)
(-0.1802204243 0.02553686766 0)
(-0.2912698795 -0.1842422629 0)
(-0.06148552016 0.1581947732 0)
(0.1999511164 0.3081136782 0)
(0.839860406 0.1322875764 0)
(0.3847644829 0.184943807 0)
(-0.3745252224 -0.2793612359 0)
(-0.2911274528 -0.4678099518 0)
(-0.216017749 -0.4935743105 0)
(-0.210453585 -0.404160031 0)
(-0.2312885049 -0.3502642938 0)
(-0.2921158951 -0.1697037161 0)
(-0.3472909779 -0.3321146643 0)
(-0.4114036371 0.2940296968 0)
(-0.387688332 0.4230463793 0)
(-1.05428938 0.6048125298 0)
(-0.7793967236 0.5207343218 0)
(-0.6148033355 0.5518841587 0)
(-0.4366130587 0.7639208426 0)
(-0.5961811648 0.7251829562 0)
(-0.5503700792 0.6749974563 0)
(-0.510517827 0.6753338755 0)
(-0.5406973634 0.7185783972 0)
(-0.5708872513 0.7661715291 0)
(-0.5924305034 0.8244135947 0)
(-0.6048713348 0.8968718954 0)
(-0.6065800704 0.9769238328 0)
(-0.5432461356 1.000091907 0)
(-0.4486898304 1.014501364 0)
(-0.3738707251 0.9809825634 0)
(-0.3248386918 1.052819326 0)
(-0.6372715164 -0.5122433068 0)
(-0.6257681548 -0.3235808049 0)
(-0.6729497204 -0.4745590139 0)
(-0.690090218 0.4974127821 0)
(-0.6542581599 0.6944677494 0)
(0.209285888 0.1681858815 0)
(0.8305505593 -0.3170755728 0)
(0.3803227977 -0.1426875124 0)
(0.7179435712 0.1299362351 0)
(0.6864058761 -0.01972933678 0)
(-0.003681240337 -0.1870149998 0)
(-0.2181824947 -0.1859005355 0)
(0.131980955 0.1925281543 0)
(0.2049173955 0.00235179531 0)
(0.2132240646 0.1963040285 0)
(0.2442170118 0.3550773648 0)
(0.6259454055 0.3634010794 0)
(0.1427738287 -0.05063915324 0)
(-0.3135725674 -0.3656162247 0)
(-0.2558527124 -0.3725269718 0)
(-0.146489051 -0.2950951176 0)
(-0.09861788574 -0.1133352384 0)
(-0.1062244047 -0.06728080669 0)
(-0.2671265057 0.06040378712 0)
(-0.3054226992 -0.1480125155 0)
(-0.2392689829 0.285784342 0)
(-0.2387302049 0.4504344645 0)
(-1.093573556 0.6350150574 0)
(-0.8190511055 0.4885904465 0)
(-0.5914238773 0.4695189661 0)
(-0.4225970241 0.6003206662 0)
(-0.3779402841 0.6609431829 0)
(-0.3367322464 0.6082260248 0)
(-0.3318906591 0.6070459322 0)
(-0.3640468235 0.6420585072 0)
(-0.408422964 0.7020457373 0)
(-0.4487830784 0.7788977703 0)
(-0.4772473929 0.8596025222 0)
(-0.4968674874 0.9312340175 0)
(-0.5148075348 0.9909636924 0)
(-0.5238892802 1.044803325 0)
(-0.5236315811 0.9883673589 0)
(-0.4217553922 1.068546073 0)
(-0.53810442 -0.4626576679 0)
(-0.5901912367 0.5109024785 0)
(-0.5493301389 0.7596913706 0)
(-0.4587817807 0.9633024266 0)
(0.8735682076 -0.261604693 0)
(0.3895733735 0.01337326191 0)
(0.6038394778 0.09483377901 0)
(0.8166280709 0.0008226033719 0)
(0.4692588766 -0.03363098005 0)
(0.2409274204 -0.06123475214 0)
(0.3820102762 0.01202211927 0)
(0.00954924782 -0.001321973766 0)
(0.2457806381 0.07563614488 0)
(0.1996653231 0.1774396294 0)
(0.4649976286 0.345643092 0)
(0.1671143072 -0.2024569091 0)
(0.1261008414 -0.3550272277 0)
(0.08132271835 -0.0001365311697 0)
(-0.01418818335 -0.103395301 0)
(0.03965131003 0.5347316697 0)
(0.03866176738 0.2800400065 0)
(-0.2404885381 0.2098824265 0)
(-0.4380076916 0.09240535021 0)
(0.2262301646 0.2127669715 0)
(0.391034622 0.2983604548 0)
(-1.141866556 0.6363350493 0)
(-0.8318842387 0.490148621 0)
(-0.5102346976 0.4262998003 0)
(-0.2790286961 0.4185982885 0)
(-0.08911750461 0.4994305851 0)
(-0.09311643747 0.5075280542 0)
(-0.1551790071 0.5134906998 0)
(-0.2218700793 0.5612579176 0)
(-0.2886089016 0.6382434606 0)
(-0.3462849725 0.7358532534 0)
(-0.3891551026 0.8287992831 0)
(-0.4215779749 0.8958204127 0)
(-0.4489816753 0.941307996 0)
(-0.4924026181 0.970110979 0)
(-0.521208061 0.9275705135 0)