/*--------------------------------*- C++ -*----------------------------------*\
  =========                 |
  \\      /  F ield         | OpenFOAM: The Open Source CFD Toolbox
   \\    /   O peration     | Website:  https://openfoam.org
    \\  /    A nd           | Version:  8
     \\/     M anipulation  |
\*---------------------------------------------------------------------------*/
FoamFile
{
    version     2.0;
    format      ascii;
    class       volScalarField;
    location    "0.9/wallFilmRegion";
    object      alpha;
}
// * * * * * * * * * * * * * * * * * * * * * * * * * * * * * * * * * * * * * //

dimensions      [0 0 0 0 0 0 0];

internalField   nonuniform List<scalar> 
1342
(
0.2403218262
4.550906378
1.171153268
1.006162765
0.9769518569
0.5359447153
0.1734645048
0.1030187315
0.09624097284
1.313317901e-10
9.857309312e-11
7.581995736e-11
6.147736327e-11
5.255317961e-11
3.010068117e-06
4.546462645e-05
0.0002188729874
0.002125164126
0.0761283989
0.06807111856
0.08923264979
0.06840295655
5.396253665e-06
1.751965449e-05
3.561989727e-05
0.02626608418
0.02567053575
1.210798529e-12
6.42521994e-13
5.05852699e-13
4.662633862e-13
5.410535993e-13
1.959430403e-07
3.301918787e-06
1.540726967e-05
4.675448637e-05
0.07613741493
0.05413970724
0.0526095885
0.06044394741
0.02519938925
2.808156906e-06
2.620996171e-05
3.683806624e-12
8.452355413e-13
4.891337955e-13
3.879520084e-13
4.23293614e-13
7.302738817e-08
1.249880404e-06
5.936382079e-06
0.0002479236267
0.0005541707966
0.00111959169
0.002162858313
0.004131574727
0.00778435527
0.01369672504
0.02220625172
0.03077442755
0.03412132366
2.811750125e-06
4.869140796e-06
5.643730562e-06
0.000106091711
0.0002458609107
0.0004933804712
0.0008988432703
0.001523947418
0.002445806986
0.003775138111
0.005764088732
0.008975759126
0.01490694615
1.421896037e-06
3.099376839e-06
3.047882545e-05
9.556336977e-05
0.0002368062817
0.0005020763783
0.0009497850732
0.00164377893
0.00265005078
0.004074611452
0.004040697189
0.006200425016
0.00112795588
6.674668628e-05
1.360136824e-06
1.176514344e-08
1.46497185e-09
3.616047244e-10
1.247882286e-10
4.331886633e-11
1.111434375e-09
4.458165362e-09
2.168479854e-08
2.020859765e-07
0.08074960362
0.3535524195
0.07925794141
0.07592682008
0.08922188523
0.1222909681
3.731039869
1.068605455
0.1523318288
0.1820606129
0.9820164921
0.1424609504
0.01082493669
0.01733296655
0.005349499797
0.006587907479
0.02450395191
0.007858448347
0.008916944101
0.02962515044
0.01002188596
0.01073481349
0.02705983219
0.01069032748
0.01081657484
0.02505294416
0.01184347641
0.01218129964
0.02427137204
0.01189291224
0.0112101867
0.02141053585
0.01029444823
0.009369610228
0.01890435822
0.008611378763
0.00800286796
0.01796582934
0.007029510202
0.004610510287
0.09937729054
0.008884524459
0.02052178744
0.00185177235
0.01586894547
0.00353473591
0.001622674729
0.001130163849
0.0008306870073
0.007164930163
0.001077868576
0.001632583325
0.007348319539
0.000974193187
0.0007888042592
0.006102784581
0.001088278376
0.001640169475
0.0073927865
0.00267208902
0.003724911791
0.007903773267
0.004769645665
0.005557007389
0.007973888561
0.00608833913
0.006845879893
0.007997491313
0.007361244813
0.007873128059
0.01411835843
0.01648703995
0.08116923466
0.1059019438
0.1745543734
0.20110636
0.1101558478
0.2041249764
0.1789897992
1.159533118
0.2607744675
0.6109284568
0.01161608583
0.1495752887
0.02179092549
0.000995672541
0.004579062294
0.001354464825
0.0008965671994
0.0008381695898
0.0007234921097
0.0006026415027
0.0005069294936
0.0004874824954
1.358221884e-06
0.00115448225
0.000147406779
2.841454045e-05
1.679721915e-12
1.856951756e-11
0.0001445437877
1.800005381e-10
7.47096151e-10
0.0003908677544
2.358826211e-09
9.884094353e-09
0.003064039282
0.0002288786087
0.01790784272
0.1650995019
0.1138984162
0.203675232
0.1533787293
0.132629662
0.06123124786
0.1538457991
0.05505705785
0.0983135602
0.6506116509
0.2869459804
1.257185311
0.03422411709
0.4355265619
0.05169177836
0.001549464874
0.008235760012
0.001527513889
0.0006314521815
0.0007181588978
0.0005605029001
0.0004261445936
0.0004348373726
0.0004003458637
0.001916058712
0.0006501311893
0.001508220971
3.661600141e-08
0.003136760639
0.001081466067
8.537342837e-20
2.976332035e-07
1.001151144e-16
9.295130683e-07
9.806188999e-13
5.606738492e-05
0.044693909
0.008607427555
0.0559876797
0.1449819215
0.08878850286
0.06293749079
0.02235040926
0.02309542318
0.009596741443
0.04027589719
0.007970027861
0.01397308599
0.4559739027
0.04622949802
0.1969629928
9.783985014
0.3787548889
5.645660741
0.2866539013
1.342092552
0.4255771863
0.00195888265
0.7085025646
0.1164406
0.0005018791297
0.006043635722
0.0005958624807
0.0003832371296
0.00039182339
0.0003732565262
0.001325797863
0.0005492068494
0.001216124754
0.004639108763
0.00300405831
0.005872874053
3.752140198e-08
0.006706204631
0.0003475672974
0.0006302354669
1.956477725e-06
0.002741299838
0.04831866531
0.02459410269
0.03500388479
0.02479388471
0.02303883418
0.01332149773
0.004842554406
0.007902841179
0.0034815123
0.001378422108
0.000877751341
9.114100325e-05
0.02558439692
6.666471169e-05
0.0002860691765
2.878023281
0.006148867434
0.8003132212
1.452683729
0.2926792575
0.550550317
0.1430056243
0.7617450678
0.5423596523
0.0004113827953
0.0008379037666
0.0003042190676
0.0003703010164
0.0003434736471
0.0003792964251
0.001163894001
0.0005687065112
0.001202381164
0.006974243207
0.003355747422
0.009302863129
0.001965109492
0.0198307314
0.006336259245
0.004282309168
0.001742166169
0.00531863353
0.02112905885
0.006248375712
0.005357718523
0.009297568462
0.006064081759
0.005564504009
0.003043398298
0.003824329947
0.001977105121
3.932396199e-05
0.0006831842892
6.942399087e-05
0.0006293986412
0.0004675239888
0.002123837629
0.1474431857
0.1102465185
0.2618442547
0.08988484812
0.06479135495
0.01212866623
0.008741495349
0.006001473877
0.0002471853209
0.0004980273347
0.0002670463756
0.0004429363705
0.0004107814038
0.0008017976919
0.001842285624
0.002065864094
0.00892983246
0.01926970951
0.0168641829
0.0109336387
0.003773298539
0.005029032132
0.003991926723
0.004409230004
0.004458634528
0.00513013848
0.00435083671
0.00528560953
0.0049959064
0.003484939306
0.005066465869
0.004887006977
0.002138653033
0.003546360605
0.0006182682956
0.0006135192191
0.003386429214
0.00564325427
0.008707161325
0.01712955533
0.05878872497
0.04422460677
0.00898614451
0.02351220142
0.005018585436
0.005239817848
0.00644428234
0.2038498153
0.05575555617
0.0005980012868
0.004392834488
0.007428515728
0.003434790343
0.009881572984
0.01396229313
0.01580732698
0.01854284601
0.01956042394
0.009977600472
0.01776002051
0.0176711645
0.01038218548
0.02311613052
0.03635841239
0.01411752962
0.06024157465
0.07505224088
0.01307151954
0.0636468636
0.04171941256
0.0100411375
0.02345802049
0.008245522432
0.0003023897933
0.04545508914
0.07914613963
0.005023166878
0.001139142767
0.04777107635
0.003630446683
0.0104169338
0.1200308548
0.02443922019
0.04598788778
0.1539501456
0.07132327413
0.09441098743
0.1399492804
0.1098695395
0.1168902345
0.1232367746
0.12034942
0.117985098
0.1090298236
0.113837288
0.1086305948
0.09603282774
0.1026588181
0.09713631807
0.08692872764
0.09233593661
0.08478597878
0.07545894674
0.06958517639
0.06440999869
0.05868885948
0.06440750625
0.06129334002
0.0004947136209
0.002398758408
0.01132117258
0.03418432825
0.06087138457
0.07902844542
0.08514139824
0.08543796899
0.0003118945116
0.0005992146446
0.01210655179
0.01823575506
0.02512859635
0.03238211137
0.05868282072
0.07879367524
0.06219468259
0.05862819833
0.06860917519
0.05956783283
0.06029132766
0.05360639962
0.04899190898
0.0001539168288
0.0003773727445
0.0007942958287
0.0004001400008
0.0005657564971
0.001560806254
0.000783774996
0.002988834725
0.005697729319
0.002531646123
0.003335781217
0.01044922635
0.004374184305
0.005696701271
0.01759354558
0.02745013097
0.03481810407
0.01685867694
0.0348047233
0.01912433779
0.02046001324
0.02314204703
6.398064551e-05
0.0002325876595
0.0006727183838
0.0003376362547
0.001153289469
0.001490525248
0.003050987776
0.001895999981
0.00237825379
0.00465585999
0.002945451278
0.007131295476
0.006732988463
0.005119074505
4.006880868e-05
0.0001180519206
0.001078064497
0.004583293888
0.001765362824
0.7956149487
0.354792839
0.6810091237
0.384973355
0.6350420875
0.3207817461
0.6045977644
0.270963567
0.5940203616
0.2471428856
0.5633734498
0.2369007629
0.5557751878
0.2251009496
0.610219772
0.2193881116
0.259895748
0.8666409031
0.2256489586
0.01360946918
0.02103307692
0.0276636661
0.02951037708
0.02473181929
0.02505324069
0.02296037798
0.02004041222
0.01726246192
0.05615458784
0.436952112
1.209652078
2.947052905
0.526389049
0.001748648521
0.001706378662
0.002525977491
0.007561063541
0.006313077989
0.006874125051
0.007714321707
0.007973784306
0.007980565372
0.008129892169
0.05764225278
0.09391607474
0.3843770097
1.708954691
2.336319591
3.943338431
0.05644111591
0.002446319812
0.0008757698538
0.0006247425692
7.365457177e-06
7.85110274e-06
7.790594838e-05
0.0002310538785
0.0004827792927
0.05237459476
0.2098165255
0.1327049797
0.1710360347
0.3046307859
0.2555285072
0.006257225761
0.000796749358
0.0004660552489
0.0007846836283
0.0005669935451
2.499364892e-17
4.36684099e-19
0.002660698247
0.1363574117
0.05465189026
0.02222969257
0.1329799341
1.070984658
1.11334564
0.02040155152
0.0006386480972
0.0004078888569
0.0005825374423
0.003123146529
0.000794957319
7.191580693e-09
0.01767779737
0.04172277894
0.01219855989
0.002035825005
0.00215273234
0.06283260465
0.7982894989
0.2195421511
0.002070003797
0.0003671144026
0.000542040023
0.002968880001
0.008688514042
2.044922786e-05
0.01890994355
0.01390750544
0.006033455978
0.0008487801795
0.0001621996905
0.008081306506
0.1860879189
0.06260270601
0.0005006177682
0.0003390266321
0.0007369407639
0.008038120731
0.009186711912
0.003146526019
0.004906870775
0.004081953748
0.002759640627
0.001305375208
0.002252002833
0.08835833447
0.224635178
0.01389866027
0.05582776486
0.0007278010084
0.001117155735
0.01001104882
0.0146485641
0.008830342104
0.01260097144
0.01433988922
0.01171671953
0.007515913866
0.03465565733
0.1536829623
0.04884361865
0.7169213545
0.08369420763
0.03320333868
0.04580283972
0.04632619112
0.09320257825
0.3151361775
0.246028164
0.03234052653
0.272185527
0.001962864905
0.7794009365
0.001141593947
0.01930235842
0.08500641739
0.1440287859
0.1510363642
0.1333705145
0.1159066763
0.1020139528
0.09139678045
0.08338216531
0.08002448535
0.08121489905
0.06998583354
0.0659083599
0.06667015522
0.05901091115
4.936725254e-05
7.029623582e-05
0.001085952679
0.005371689671
0.00213388984
0.02113177289
0.007287296332
0.04818637195
0.07169417121
0.08324711861
0.04532789752
0.0854954559
0.05490542575
0.08360761365
4.807811935e-06
7.066519801e-06
8.961258467e-06
1.658242667e-05
0.02935259438
0.02291659496
0.0329644013
0.03069798975
0.02129730832
1.367882183e-06
2.722198267e-11
6.623499829e-11
4.374289917e-12
1.825264327e-12
3.829984225e-12
1.081931771e-12
8.767232676e-13
1.517315999e-12
1.854538765e-08
3.259424735e-07
2.086443452e-07
1.297220258e-06
0.009948079283
0.01250267712
0.0107649645
8.923705951e-07
8.504638667e-07
9.575389572e-07
3.348716517e-11
1.238763964e-10
1.704835468e-11
8.944894732e-12
4.236144973e-09
2.419792937e-08
1.751417103e-06
6.286819615e-07
5.430521925e-06
2.736354519e-05
8.696952203e-05
0.0004112086236
0.0002148145725
0.0008014708491
0.0004497242851
0.0008371159453
0.001426498544
0.002304836451
3.246450278e-08
2.297164989e-26
2.826466896e-25
1.736469152e-24
8.446385315e-24
6.694635176e-09
1.114372172e-08
5.063280374e-09
0.000185802503
2.843044927e-08
4.209610913e-09
9.200400917e-10
3.397554234e-10
1.472289802e-10
5.924443525e-09
6.541453682e-09
2.959796554e-09
1.100619664e-06
6.080671107e-08
9.200309474e-09
2.048233615e-09
6.80191654e-10
2.449742167e-10
3.112877353e-09
2.957701986e-09
3.923232031e-09
1.145454202e-07
0.8188469222
0.2446132296
0.07502816588
0.02476709968
0.7312895744
0.3994841456
0.07644795277
0.07779205405
0.07045711934
0.1245482126
0.6525288595
0.3524584781
0.08017344345
0.0801799271
0.1615941083
0.1756657793
0.6208850668
0.2944551583
0.07634148047
0.0702710987
0.1723542651
0.1597723234
0.5672732391
0.244064715
0.06565011989
0.06284041843
0.1431333434
0.124343865
0.5646008638
0.2370847315
0.06220993029
0.05986116621
0.118190233
0.1094838864
0.5596294434
0.2323362799
0.05880697941
0.05826193733
0.1052131001
0.1007236529
0.5600782754
0.218419204
0.05801796912
0.05751055416
0.09574832741
0.09142848195
0.7061429078
0.2291988998
0.06270814916
0.1029843418
0.08821091246
0.08578679705
0.3498093507
0.5397561342
0.08366233789
0.8726356653
0.9746158112
0.09594484255
0.2310388203
0.9983400494
2.919763192
0.0782384897
3.647763267
0.1202986173
0.09993230601
9.521298301
2.05858266
2.577043916
12.03251129
0.1038654313
0.1240491745
0.06087860376
0.03238672816
0.9369343242
0.7629528294
0.07986898709
2.910060425e-05
3.874058519e-05
5.225338778e-05
0.6973756996
0.1262115771
7.210281597e-05
0.03892756872
0.2801000908
0.00105061335
0.4904804579
0.3719616934
0.3234364797
0.8583163494
8.652399271e-05
0.0001022672907
0.000117325714
0.03952671433
1.411375643
0.0914605774
0.02657319706
0.1906156351
1.527955398
1.579652083
0.1113050563
0.02961586306
0.03216174513
0.6173819106
1.406964409
0.7641935677
4.627124151e-09
0.02859874902
3.055032517e-09
0.0347756765
0.4483332338
0.3468617113
1.135875624e-10
1.243923528e-12
9.921043809e-13
0.04690350616
0.3262335522
0.3128575911
8.61004383e-11
8.493776239e-13
7.580326102e-13
0.04428101207
0.2994467449
0.2733315085
6.766431211e-11
6.937400966e-13
6.538880429e-13
0.05845210348
0.2729225876
0.3221156613
5.687836904e-11
6.408685819e-13
6.612068854e-13
0.1928377187
0.4001492616
0.5854189067
4.18963761e-11
7.198444206e-13
7.629032637e-13
0.2932349799
0.8939823237
0.206490217
1.747165979e-05
2.994885167e-07
1.812987278e-06
0.1286576165
0.721450952
0.8813462021
9.272855108e-05
4.97987837e-06
1.035449888e-05
0.04797565969
0.7978401067
0.7810379407
0.0005706411808
2.285215292e-05
4.503577636e-05
0.002903746781
0.4382989831
0.8705006132
0.0001109517776
7.694030776e-05
7.535091599e-05
0.0001117103768
0.07072423352
0.06211532455
0.0672330042
0.05651648662
0.05276603158
0.0762154005
0.06483040618
0.0583898279
0.07019489969
0.09798664489
0.07601656927
0.07640826497
0.004101966717
0.04660854033
0.002707031028
7.135503595e-06
9.72078577e-06
3.851639908e-06
4.835697322e-06
9.791614892e-06
1.375231934e-05
7.103541869e-06
2.388788409e-05
1.907235015e-05
1.695724021e-05
1.315835003e-05
0.02351278014
0.02862262763
4.125569439e-09
4.808529214e-09
8.142851603e-13
1.796330097e-12
9.314142467e-13
5.59219017e-13
6.095115815e-13
4.931769782e-13
4.747093414e-13
4.276790235e-13
3.910977742e-13
4.861017842e-13
3.785224772e-13
3.926848456e-13
5.964628622e-13
4.404300725e-13
5.016645548e-13
1.204930286e-06
1.190743825e-07
7.389037292e-07
6.849892705e-06
2.023585784e-06
4.152392445e-06
3.04685661e-05
9.593801768e-06
1.903892729e-05
6.614812438e-05
3.028046976e-05
4.379761958e-05
3.547331823e-05
4.495864674e-05
0.001122495962
0.004038196493
0.03926850839
0.05051238435
0.06348771213
0.05164921087
0.04665093558
0.0440247327
0.04271355294
0.03450904677
0.04598862885
0.05333376967
0.05942480927
0.04422280918
0.04808538818
0.04637099522
0.05618343548
0.04018822688
0.02704076312
0.001454236069
3.708844984e-05
0.009395511937
0.0007166044833
3.208738944e-06
2.006993772e-06
2.287653262e-06
3.25689866e-06
5.203708511e-06
3.80218933e-06
1.219776879e-05
1.454789117e-05
2.277340103e-05
6.246928909e-06
9.862628444e-06
4.713729165e-09
4.93590322e-09
1.597496586e-12
8.228393718e-12
3.32008757e-12
1.525197532e-12
1.004737945e-12
6.110630598e-13
7.435082725e-13
5.966197237e-13
4.208079677e-13
3.869953033e-13
5.157387132e-13
4.834532248e-13
5.012355286e-13
5.813952112e-13
4.902754314e-13
2.942611658e-07
4.565137604e-07
4.678016503e-08
8.06555565e-07
2.533096065e-06
1.630332358e-06
1.065224185e-05
3.111164311e-06
5.798070551e-06
2.64156207e-05
9.492856216e-06
1.498616749e-05
1.584906977e-05
0.0001145455154
0.0001826904672
0.0002755090873
0.001067536704
0.001435624541
0.001912238515
0.007342738239
0.009363642243
0.01181859061
0.01497949563
0.0001652419662
0.0003531834386
0.001179574151
0.001941950806
0.01670419067
0.01009368564
0.01465944276
0.0258026816
0.03372758961
0.03207576042
0.0232419508
0.007095652165
0.01501329309
2.887780839e-06
4.265712662e-06
1.187647808e-06
1.111097676e-06
1.360347518e-06
1.385960768e-06
9.791185662e-07
1.110262064e-06
1.998089128e-06
2.034428892e-06
2.686966702e-06
2.411719525e-10
2.600219853e-11
9.644313996e-11
9.929567292e-12
5.799744983e-12
1.17496755e-11
8.006477383e-12
2.091192484e-12
5.79578916e-12
3.634288367e-12
1.731981901e-12
4.129229638e-12
1.185135345e-08
7.583445158e-08
7.430261752e-08
1.560362444e-07
8.120037483e-07
3.130813443e-07
8.964063477e-06
1.019767573e-05
4.271329703e-06
3.155137466e-06
7.846397292e-06
4.061043395e-06
5.091146067e-06
4.116068128e-09
4.023342614e-09
1.066495223e-11
2.661087834e-12
1.356702877e-12
2.737473124e-12
9.276166549e-13
1.703742223e-12
1.006440659e-12
1.1833504e-07
6.801211694e-07
4.311590453e-07
3.361176541e-06
1.723730079e-06
3.321318379e-05
5.934835695e-05
9.850393316e-05
0.0001546894002
0.0004755426817
0.0006529476513
0.0008765599715
0.003618335058
0.004430770284
0.005436001654
0.006563413061
1.495368958e-05
9.493001451e-06
5.601936457e-05
2.073843855e-05
0.0001539343235
7.104523248e-05
0.0003504677254
0.0001863187782
0.0002817941346
0.0006992960077
0.0005819412765
0.001261857415
0.002104016091
0.001420090766
0.001835755227
0.003297493816
0.00233282358
0.00292498674
0.004951224853
0.003623542768
0.008253941721
0.00562732625
0.009561426041
0.006792429458
0.01129803358
0.0168921474
0.005173812289
0.01055519285
0.002414263721
0.01321121946
0.006151912477
0.004579405194
0.001388909646
0.002242970829
0.004050788509
1.096457349e-05
3.585062514e-05
4.572785378e-06
1.555120683e-06
3.17498059e-07
1.203938002e-06
8.273643647e-07
1.020740521e-06
6.637281998e-07
2.235726055e-08
9.640714983e-10
4.247354762e-09
4.032337827e-10
1.96433632e-09
5.186749289e-10
2.537552326e-10
2.084462352e-10
3.887870842e-11
1.432591298e-10
8.675266025e-11
5.485914746e-11
1.206178613e-11
3.546086375e-11
4.54007962e-11
2.285391059e-11
2.504325292e-11
2.318676584e-09
1.53620645e-09
8.870763253e-10
8.931423161e-09
2.946078852e-09
7.044473196e-09
1.535483988e-08
1.090884587e-07
3.477062594e-08
1.143311436e-07
4.566742397e-07
1.068136338e-06
2.0601435e-06
3.829452953e-07
1.128179347e-06
1.387299698e-06
4.53934964e-09
8.402671676e-09
1.861603093e-11
6.491870818e-11
2.507264756e-11
4.424766039e-12
1.006721629e-11
2.705720505e-08
5.195467221e-08
7.883778745e-07
3.626477045e-07
1.662840169e-06
4.666774574e-07
1.322548987e-05
1.609653378e-07
1.366869458e-07
5.075945854e-05
1.193723128e-07
1.040153487e-07
0.0001401158632
8.987512697e-08
7.634822696e-08
0.0003161710241
6.301416935e-08
4.965974297e-08
0.0006212693849
3.628107378e-08
2.323316058e-08
0.001103329239
1.243934758e-08
2.336865794e-08
0.001817105816
3.735441981e-08
5.666416816e-08
0.002896521647
1.311535584e-08
0.000198796298
0.0002625656605
1.294337185e-07
1.110298861e-07
2.466567213e-28
1.457810324e-07
2.311627604e-08
9.38861269e-26
3.132845536e-09
1.204952672e-09
7.330006622e-25
6.132993245e-10
3.562783286e-10
3.87177179e-24
2.227621833e-10
1.455729671e-10
5.120372055e-22
9.806913007e-11
9.876897749e-11
1.026401409e-08
6.877054268e-09
9.514728913e-09
8.091967952e-09
9.000749392e-09
6.307786054e-09
3.595928681e-09
3.804947608e-09
3.130510017e-09
5.761636384e-05
4.888779277e-06
2.883597424e-06
0.002265254832
1.847686616e-08
2.550534898e-08
2.579209061e-08
3.479307009e-08
3.006576655e-08
1.746862918e-09
5.039511182e-09
2.151088184e-09
5.419549658e-10
1.145013226e-09
6.738866302e-10
2.210774847e-10
4.189651276e-10
2.689650258e-10
1.455972288e-10
1.756293425e-10
1.68734304e-10
7.595003528e-09
4.469474161e-09
5.400061081e-09
4.374317885e-09
4.39046327e-09
3.012786827e-09
4.209362281e-09
2.904441776e-09
6.80010636e-09
9.28861725e-07
2.991533075e-07
3.364314464e-07
6.385103743e-06
2.624392204e-07
5.601986444e-08
8.617195886e-08
4.269816209e-08
5.553915606e-08
4.037197177e-08
3.136909846e-08
6.465377919e-09
3.934958884e-09
6.056761718e-09
2.57338353e-09
6.724970304e-10
1.156899251e-09
1.311611964e-09
7.212047175e-10
4.079403205e-10
4.124214223e-10
2.391971859e-10
7.556264008e-11
2.068469511e-10
1.242529486e-10
1.181010644e-10
3.613164875e-09
2.020204884e-09
2.408291938e-09
2.48396156e-09
2.25358399e-09
2.741466325e-09
9.209858318e-09
1.222333048e-08
5.883036242e-09
1.639414373e-08
1.369950954e-07
9.282862988e-08
)
;

boundaryField
{
    walls
    {
        type            zeroGradient;
    }
    wallFilmFace_top
    {
        type            zeroGradient;
    }
    region0_to_wallFilmRegion_wallFilmFace
    {
        type            zeroGradient;
    }
    mirrorFace_top
    {
        type            zeroGradient;
    }
    region0_to_wallFilmRegion_mirrorFace
    {
        type            zeroGradient;
    }
    procBoundary3to2
    {
        type            processor;
        value           nonuniform List<scalar> 
64
(
0.08478731028
0.02151462703
0.0225652066
0.02223156707
0.01900721982
0.0001201381585
4.681807186e-05
7.754923301e-06
0.001902984061
0.01014495719
0.00399510908
0.004507398416
0.004507398416
0.002762560473
0.07761720562
0.1973158144
0.3889617225
0.6359559101
0.2625704555
1.596053307
0.6507648064
0.2488069429
0.1542928699
0.1542928699
0.1204956639
0.1897899164
0.1897899164
0.2809698225
0.1358617076
0.1358617076
0.001328188886
0.0004542584495
0.0004542584495
0.0002788840118
0.000203258019
0.859124513
0.1162479706
0.07437328065
0.07599844123
0.005691736966
0.01206056181
4.351249163e-06
1.174664477e-07
1.87151604e-05
0.0001436942555
0.0005619783979
0.07437328065
0.005691736966
1.533907341
0.02435890952
0.02021614535
0.02461321797
0.02223156707
0.01622221242
9.043116936e-05
0.01003252593
0.006859391373
2.152769813e-05
0.004420114421
0.002608544207
4.089582198e-06
5.7968581e-05
0.0003053006954
0.0008976149944
)
;
    }
}


// ************************************************************************* //
