/*--------------------------------*- C++ -*----------------------------------*\
  =========                 |
  \\      /  F ield         | OpenFOAM: The Open Source CFD Toolbox
   \\    /   O peration     | Website:  https://openfoam.org
    \\  /    A nd           | Version:  8
     \\/     M anipulation  |
\*---------------------------------------------------------------------------*/
FoamFile
{
    version     2.0;
    format      ascii;
    class       volScalarField;
    location    "0.9/wallFilmRegion";
    object      delta;
}
// * * * * * * * * * * * * * * * * * * * * * * * * * * * * * * * * * * * * * //

dimensions      [0 1 0 0 0 0 0];

internalField   nonuniform List<scalar> 
1342
(
0.0001990638587
0.003776748911
0.0009053360085
0.0007777959781
0.0007543951491
0.0004186698072
0.0001435781698
8.047841003e-05
7.515706437e-05
1.025568996e-13
7.697558887e-14
5.920813066e-14
4.80084897e-14
4.10393775e-14
2.350555558e-09
3.547779578e-08
1.690713111e-07
1.7636127e-06
7.441677006e-05
6.662162185e-05
8.750805928e-05
6.705916323e-05
5.293869854e-09
1.716766182e-08
3.478530623e-08
2.604979555e-05
2.545652868e-05
1.200815556e-15
6.371169048e-16
5.017159576e-16
4.624600815e-16
5.366265168e-16
1.943297382e-10
3.273141608e-09
1.512234302e-08
4.578097124e-08
7.454531593e-05
5.291247259e-05
5.141057466e-05
5.906634187e-05
2.465289651e-05
2.740573885e-09
2.565824612e-08
3.636435952e-15
8.344090215e-16
4.828507164e-16
3.829059182e-16
4.177942122e-16
7.206001755e-11
1.233199139e-09
5.795345072e-09
2.440718482e-07
5.456602089e-07
1.102607558e-06
2.129945603e-06
4.068683212e-06
7.665673186e-06
1.348340868e-05
2.164782065e-05
3.007975426e-05
3.331680502e-05
2.748286111e-09
4.756277676e-09
5.526178805e-09
1.047559162e-07
2.427711764e-07
4.871866423e-07
8.873282444e-07
1.504673827e-06
2.41475201e-06
3.725962497e-06
5.634261822e-06
8.76812748e-06
1.456641296e-05
1.388504228e-09
3.028362707e-09
3.001790895e-08
9.411417522e-08
2.332418922e-07
4.943729248e-07
9.354152759e-07
1.618420309e-06
2.607904887e-06
3.970480013e-06
3.949096617e-06
6.044980978e-06
1.103588504e-06
6.542152489e-08
1.330234218e-09
1.165308167e-11
1.451222692e-12
3.582057584e-13
1.236193483e-13
4.29072336e-14
1.100763004e-12
4.413140102e-12
2.125746461e-11
1.976477755e-10
7.986003619e-05
0.0002591801361
7.792038752e-05
7.510742739e-05
8.818056164e-05
0.000120876811
0.00272960135
0.000825848213
0.0001502971021
0.0001795458198
0.0007592029804
0.0001404957195
1.067917594e-05
1.733296601e-05
5.349498997e-06
6.587907125e-06
2.450394754e-05
7.85844885e-06
8.916944192e-06
2.962514669e-05
1.002188595e-05
1.073481365e-05
2.705983078e-05
1.069032967e-05
1.081657664e-05
2.505294246e-05
1.184347862e-05
1.218130088e-05
2.427137223e-05
1.189291174e-05
1.121018727e-05
2.141053788e-05
1.029444663e-05
9.369609005e-06
1.890434897e-05
8.611377792e-06
8.002866907e-06
1.796572672e-05
7.029505719e-06
4.610485771e-06
9.937921684e-05
8.884480033e-06
2.052169447e-05
1.851772346e-06
1.586894687e-05
3.534735661e-06
1.622674558e-06
1.130163843e-06
8.306869831e-07
7.164931181e-06
1.077868373e-06
1.632583335e-06
7.348318913e-06
9.74193006e-07
7.888041784e-07
6.102784573e-06
1.088278412e-06
1.640169325e-06
7.392786704e-06
2.672088719e-06
3.72491147e-06
7.903774008e-06
4.769645451e-06
5.55700722e-06
7.973887877e-06
6.088339393e-06
6.845879592e-06
7.997490747e-06
7.361244164e-06
7.873128464e-06
1.411835152e-05
1.648703892e-05
8.116923873e-05
0.0001059019073
0.000174554381
0.0002011063676
0.0001101558217
0.0002041249606
0.0001789897346
0.001117789166
0.0002607744633
0.0006109283503
1.161608412e-05
0.0001495752933
2.179092492e-05
9.95672656e-07
4.579061841e-06
1.354464771e-06
8.965671248e-07
8.381695365e-07
7.234920758e-07
6.026415157e-07
5.069294623e-07
4.874825401e-07
1.358221695e-09
1.154482334e-06
1.474067664e-07
2.841453773e-08
1.679721889e-15
1.856951801e-14
1.445437794e-07
1.800005267e-13
7.470961061e-13
3.908677665e-07
2.358826461e-12
9.884094389e-12
3.064039122e-06
2.288785369e-07
1.790784078e-05
0.0001650994988
0.0001138984298
0.0002036752225
0.0001533787216
0.0001326296392
6.123124051e-05
0.0001538457775
5.5057056e-05
9.831356445e-05
0.0006506116783
0.0002869460229
0.001257185335
3.422411861e-05
0.000435526511
5.169178401e-05
1.549464621e-06
8.235760465e-06
1.527513743e-06
6.31452283e-07
7.181588615e-07
5.605028625e-07
4.261445687e-07
4.348372972e-07
4.003457896e-07
1.916058949e-06
6.501310862e-07
1.508220776e-06
3.661600073e-11
3.136760159e-06
1.081466089e-06
8.537341265e-23
2.97633176e-10
1.001151037e-19
9.29513022e-10
9.806191278e-16
5.606739163e-08
4.469391443e-05
8.607427489e-06
5.598769069e-05
0.0001449819251
8.878849196e-05
6.293747334e-05
2.235040728e-05
2.309542186e-05
9.596740469e-06
4.02758995e-05
7.970026542e-06
1.397308501e-05
0.0004559738351
4.622949838e-05
0.0001969629544
0.007627408784
0.0003787548748
0.00442651755
0.0002866539798
0.001342092342
0.0004255772199
1.958882351e-06
0.0007085025485
0.0001164406026
5.018790769e-07
6.043636166e-06
5.958624917e-07
3.832370917e-07
3.918234566e-07
3.732565492e-07
1.325797706e-06
5.492068341e-07
1.216124761e-06
4.639109276e-06
3.004058381e-06
5.872874114e-06
3.752139624e-11
6.706204699e-06
3.475673074e-07
6.302354202e-07
1.956477649e-09
2.741299586e-06
4.831866312e-05
2.459409887e-05
3.50038832e-05
2.479387838e-05
2.303883556e-05
1.332149813e-05
4.842555039e-06
7.902842251e-06
3.48151272e-06
1.378422118e-06
8.777513062e-07
9.114099777e-08
2.558439461e-05
6.666471195e-08
2.860691786e-07
0.002257177845
6.148868059e-06
0.0006238835552
0.001452683752
0.0002926792634
0.0005505502983
0.0001430056392
0.0007617449271
0.0005423595329
4.113827956e-07
8.379036426e-07
3.042190733e-07
3.703010171e-07
3.434735723e-07
3.792963517e-07
1.163894011e-06
5.687064546e-07
1.202381163e-06
6.97424291e-06
3.355747672e-06
9.302863389e-06
1.965109628e-06
1.983073211e-05
6.336257937e-06
4.282309743e-06
1.742165747e-06
5.318633154e-06
2.112906214e-05
6.248375152e-06
5.357718374e-06
9.297567955e-06
6.064081419e-06
5.564503447e-06
3.043398433e-06
3.824329216e-06
1.97710491e-06
3.932395277e-08
6.831843014e-07
6.942399194e-08
6.293985897e-07
4.675240298e-07
2.123837478e-06
0.0001474431723
0.0001102465215
0.0002618442398
8.988486456e-05
6.479136235e-05
1.212866381e-05
8.741495397e-06
6.001473373e-06
2.471853515e-07
4.980272754e-07
2.670463825e-07
4.429363688e-07
4.107814102e-07
8.01797721e-07
1.842285444e-06
2.065864282e-06
8.929832491e-06
1.926970766e-05
1.686418085e-05
1.09336378e-05
3.773297989e-06
5.029031648e-06
3.991926945e-06
4.409230177e-06
4.458635105e-06
5.130138756e-06
4.350836451e-06
5.285609576e-06
4.995906586e-06
3.484939222e-06
5.066465527e-06
4.887005439e-06
2.138652672e-06
3.546359619e-06
6.182680016e-07
6.135192338e-07
3.386427714e-06
5.643253418e-06
8.707158916e-06
1.712955241e-05
5.667335668e-05
4.422460424e-05
8.986143171e-06
2.351219987e-05
5.018584472e-06
5.239816282e-06
6.444281897e-06
0.0002038498292
5.575555777e-05
5.980013741e-07
4.392834224e-06
7.428516856e-06
3.434789891e-06
9.881572465e-06
1.396229161e-05
1.580732663e-05
1.854284763e-05
1.956042418e-05
9.977600742e-06
1.776001813e-05
1.767116366e-05
1.038218711e-05
2.311612901e-05
3.635840958e-05
1.411752837e-05
6.024157249e-05
7.505224802e-05
1.30715173e-05
6.364685685e-05
4.17194109e-05
1.004108765e-05
2.345800791e-05
8.245484226e-06
3.023885018e-07
4.545571936e-05
7.914774925e-05
4.982756231e-06
1.126670292e-06
4.739046996e-05
3.591544801e-06
1.030438444e-05
0.0001190719962
2.417657557e-05
4.549468594e-05
0.0001527251197
7.054881984e-05
9.338064545e-05
0.0001388082607
0.0001086506489
0.0001155972233
0.0001222269958
0.0001190332008
0.0001166969818
0.0001081601324
0.0001125895045
0.0001074486265
9.470566544e-05
0.0001014854602
9.548753747e-05
8.534588593e-05
9.034103964e-05
8.28493201e-05
7.389375886e-05
6.781566432e-05
6.294376694e-05
5.733693319e-05
6.330751676e-05
5.989250478e-05
4.881201215e-07
2.366907805e-06
1.116908548e-05
3.372528909e-05
6.005942254e-05
7.798174359e-05
8.402984466e-05
8.38341377e-05
3.088559717e-07
5.934433398e-07
1.199026529e-05
1.806037584e-05
2.489034957e-05
3.206470227e-05
5.780413002e-05
7.698042636e-05
6.083343904e-05
5.741303129e-05
6.699080307e-05
5.815908716e-05
5.88718149e-05
5.24056769e-05
4.786247969e-05
1.515255274e-07
3.715692486e-07
7.820923953e-07
3.957503804e-07
5.594479455e-07
1.536867588e-06
7.750766029e-07
2.943978792e-06
5.610990488e-06
2.503433038e-06
3.299466668e-06
1.029013968e-05
4.325828052e-06
5.633462121e-06
1.723226045e-05
2.676868263e-05
3.404482326e-05
1.647577166e-05
3.404662522e-05
1.869085298e-05
1.998899251e-05
2.264162242e-05
6.3174259e-08
2.299670328e-07
6.642537372e-07
3.338642991e-07
1.140566236e-06
1.474156722e-06
3.012347466e-06
1.875239466e-06
2.352389998e-06
4.570902628e-06
2.912060707e-06
6.9749417e-06
6.589115978e-06
5.009688256e-06
3.968793959e-08
1.169365137e-07
1.067548362e-06
4.484339005e-06
1.725558301e-06
0.0006207522026
0.0002766721956
0.0005313109043
0.0003002052782
0.0004954246429
0.0002501472244
0.000471652111
0.0002112968904
0.0004633800102
0.0001927176418
0.0004394607405
0.0001847268999
0.0004334760665
0.0001753994252
0.0004723576186
0.0001692037576
0.0001905482275
0.0005562407269
0.0001870347172
1.360946792e-05
2.103307716e-05
2.766366286e-05
2.951037758e-05
2.473181696e-05
2.505323712e-05
2.296037838e-05
2.004040937e-05
1.726242009e-05
5.615533482e-05
0.0004230872903
0.0009443818455
0.001986746966
0.0004352663502
1.748648563e-06
1.70637843e-06
2.525977655e-06
7.561061797e-06
6.313079004e-06
6.874125083e-06
7.714322355e-06
7.973783628e-06
7.980565109e-06
8.129890334e-06
5.764222576e-05
9.391603976e-05
0.0003843770509
0.001333487556
0.001932593967
0.00259032498
5.644111199e-05
2.446319963e-06
8.757697085e-07
6.247425546e-07
7.365457016e-09
7.851101814e-09
7.790593786e-08
2.310539071e-07
4.827792113e-07
5.237459463e-05
0.0002098165025
0.0001327049727
0.0001710360594
0.0002946701231
0.0002555285282
6.257224822e-06
7.967494189e-07
4.660551978e-07
7.846837258e-07
5.669935963e-07
2.499364342e-20
4.366841509e-22
2.660697598e-06
0.0001363574243
5.465189407e-05
2.222969229e-05
0.0001329799372
0.001070984457
0.001113345564
2.040155214e-05
6.386480086e-07
4.078888899e-07
5.825372807e-07
3.123146444e-06
7.949573048e-07
7.191580552e-12
1.767779322e-05
4.172277688e-05
1.219855946e-05
2.035824938e-06
2.152732558e-06
6.283260788e-05
0.0007982895141
0.0002195421502
2.070003975e-06
3.671143717e-07
5.420400746e-07
2.968879739e-06
8.688515128e-06
2.044922706e-08
1.890994834e-05
1.390750569e-05
6.033455908e-06
8.487800892e-07
1.621996618e-07
8.081307441e-06
0.0001860878975
6.260269821e-05
5.006176891e-07
3.390266377e-07
7.369407606e-07
8.038120041e-06
9.186710748e-06
3.146525971e-06
4.906870081e-06
4.081953448e-06
2.759640316e-06
1.305375338e-06
2.252002708e-06
7.554766877e-05
0.0002246351551
1.389866187e-05
5.58277638e-05
7.278009353e-07
1.117155791e-06
1.00110482e-05
1.464856248e-05
8.830342537e-06
1.260097237e-05
1.433988711e-05
1.171671309e-05
7.51587939e-06
3.465544518e-05
0.000148185868
4.884361827e-05
0.0007169214102
8.36941957e-05
3.320332965e-05
4.580284928e-05
4.632618596e-05
9.320257001e-05
0.0003151361636
0.0002460282039
3.234037699e-05
0.0002635694255
1.627687767e-06
0.0005318017056
1.13241431e-06
1.914932909e-05
8.432835124e-05
0.0001428735071
0.0001498211176
0.000132277001
0.0001149686387
0.0001011365692
8.971865659e-05
8.1651582e-05
7.851282243e-05
7.932121941e-05
6.835458786e-05
6.458544099e-05
6.514829564e-05
5.769033497e-05
4.85366899e-08
6.870996639e-08
1.071708057e-06
5.299642648e-06
2.11305547e-06
2.084814128e-05
7.21789807e-06
4.753600861e-05
7.074011581e-05
8.215313135e-05
4.488888832e-05
8.434832192e-05
5.436001905e-05
8.162772159e-05
4.695962784e-09
6.905504277e-09
8.744564204e-09
1.623153983e-08
2.870141732e-05
2.240154811e-05
3.220085194e-05
2.998551611e-05
2.082578801e-05
1.333570361e-09
2.679173334e-14
6.550573727e-14
4.305338756e-15
1.796355292e-15
3.788202217e-15
1.065103388e-15
8.634627704e-16
1.50065952e-15
1.825827667e-11
3.208777137e-10
2.062546994e-10
1.264806304e-09
9.718168312e-06
1.221667258e-05
1.052324141e-05
8.710460168e-10
8.310526524e-10
9.3514574e-10
3.307045729e-14
1.22483395e-13
1.685978659e-14
8.847558684e-15
4.182017931e-12
2.392284626e-11
1.710849708e-09
6.138788939e-10
5.358933728e-09
2.699460616e-08
8.57913991e-08
4.07206324e-07
2.119415908e-07
7.938104306e-07
4.437094319e-07
8.261634065e-07
1.406971782e-06
2.250034825e-06
3.210020096e-11
2.27161637e-29
2.794846489e-28
1.717062526e-27
8.3509153e-27
6.619926112e-12
1.101277324e-11
4.95399165e-12
1.818468192e-07
2.811043222e-11
4.162113566e-12
9.097683805e-13
3.359083318e-13
1.455776765e-13
5.856797586e-12
6.464958675e-12
2.895569331e-12
1.076712293e-09
6.013386172e-11
9.098311315e-12
2.025700653e-12
6.727082219e-13
2.423346013e-13
3.07867373e-12
2.923555496e-12
3.839147804e-12
1.119792858e-10
0.0006388977933
0.0001907549028
7.502816503e-05
2.469591359e-05
0.0005705512685
0.0003115215732
7.644795503e-05
7.779204028e-05
7.025591196e-05
0.0001241938606
0.000509078951
0.0002748494807
8.017341784e-05
8.01799167e-05
0.0001611389227
0.0001751782954
0.000484369139
0.000229616851
7.634148665e-05
7.027108926e-05
0.0001718816498
0.0001593435484
0.0004425248057
0.0001903194372
6.565010703e-05
6.284041432e-05
0.0001427554201
0.0001240207867
0.0004404225613
0.0001848726044
6.220992892e-05
5.986116336e-05
0.0001178862584
0.0001092009833
0.0004365452976
0.0001811621963
5.880696943e-05
5.826193844e-05
0.0001049406333
0.0001004664971
0.0004361335019
0.0001693842493
5.801796805e-05
5.751054403e-05
9.545059852e-05
9.070667379e-05
0.0005386298616
0.0001766309906
6.270793877e-05
0.0001029825295
8.711863243e-05
8.470064391e-05
0.0003387351028
0.000464461371
8.238032018e-05
0.0005943092362
0.0008363491969
9.594424211e-05
0.0002310383167
0.0009626085051
0.002185419553
7.690759125e-05
0.003119583395
0.0001182603934
9.878606788e-05
0.006162963787
0.002058582409
0.001989857341
0.009232533735
0.0001022773861
0.0001224323113
4.669502589e-05
3.132589338e-05
0.0007775915138
0.000558407773
5.154731795e-05
2.871622398e-08
3.815057689e-08
5.165266861e-08
0.0005770916432
8.28053756e-05
7.087401697e-08
3.892748569e-05
0.0002712218788
7.715628766e-07
0.0004209923817
0.0002907735783
0.0002422294506
0.0005792675468
8.551569019e-08
1.010635934e-07
1.153218457e-07
3.95267206e-05
0.00110278453
7.149207163e-05
2.649152402e-05
0.0001906156094
0.001193040946
0.001233010884
8.692919405e-05
2.952645004e-05
3.206595286e-05
0.0006173818983
0.001098068687
0.0005963824314
3.613343512e-12
2.851326502e-05
3.04598763e-12
3.477567413e-05
0.0003498718909
0.0002706787444
8.870026528e-14
1.240252922e-15
9.891936708e-16
4.690350428e-05
0.0002545756596
0.0002441320025
6.723580424e-14
8.468850926e-16
7.557960814e-16
4.428101402e-05
0.0002336619346
0.0002132792519
5.283964128e-14
6.916799028e-16
6.519282479e-16
5.84520942e-05
0.0002129553044
0.0002513339084
4.441711787e-14
6.389612237e-16
6.592579307e-16
0.0001928377202
0.0003122134415
0.0004567601492
3.271720877e-14
7.177570081e-16
7.607415597e-16
0.0002932350008
0.000697502169
0.0001611095131
1.364313786e-08
2.986592991e-10
1.808100458e-09
0.0001286576211
0.0005628217908
0.0006864938735
7.201701266e-08
4.963888126e-09
1.027148493e-08
4.797426852e-05
0.0006179200581
0.0005963049837
4.405008615e-07
2.256493338e-08
4.445060239e-08
2.132843025e-06
0.0003772268217
0.0005598449748
1.097237733e-07
7.575185645e-08
7.453294223e-08
1.098112019e-07
6.95398873e-05
6.072679048e-05
6.588517209e-05
5.523275102e-05
5.14906126e-05
7.477604344e-05
6.32332775e-05
5.707633572e-05
6.865458705e-05
9.606098871e-05
7.431499343e-05
7.467034098e-05
4.02250846e-06
4.554780978e-05
2.646358122e-06
6.983467321e-09
9.55409939e-09
3.767032509e-09
4.71663368e-09
9.572439677e-09
1.34370666e-08
6.941129502e-09
2.340619642e-08
1.864486789e-08
1.656666553e-08
1.285941359e-08
2.331856885e-05
2.838777136e-05
4.091505221e-12
4.756557226e-12
8.075165805e-16
1.777027895e-15
9.213669447e-16
5.545601296e-16
6.028505395e-16
4.878328103e-16
4.708272432e-16
4.231038686e-16
3.869126362e-16
4.821102396e-16
3.74479553e-16
3.884315696e-16
5.916074646e-16
4.356555335e-16
4.962390587e-16
1.194930939e-09
1.177696979e-10
7.307527759e-10
6.754874482e-09
2.000649834e-09
4.082406382e-09
2.991098598e-08
9.386136066e-09
1.860474919e-08
6.489285853e-08
2.957331266e-08
4.288610914e-08
3.465595209e-08
4.381359511e-08
1.111729541e-06
3.998717775e-06
3.887987655e-05
5.002951572e-05
6.207117641e-05
5.048927882e-05
4.559956598e-05
4.300965092e-05
4.174820257e-05
3.371392757e-05
4.494352455e-05
5.209208161e-05
5.799485682e-05
4.325553625e-05
4.70395354e-05
4.537221841e-05
5.496563475e-05
3.921589545e-05
2.640294342e-05
1.421075328e-06
3.628958152e-08
9.168197289e-06
6.997014165e-07
3.136482856e-09
1.963297715e-09
2.237599813e-09
3.182939846e-09
5.085997923e-09
3.714524494e-09
1.191684578e-08
1.421819517e-08
2.222975355e-08
6.102979882e-09
9.635731193e-09
4.667513089e-12
4.87193809e-12
1.577026915e-15
8.148712346e-15
3.287905351e-15
1.510521451e-15
9.949251478e-16
6.032436616e-16
7.361808366e-16
5.908265609e-16
4.153793891e-16
3.819305933e-16
5.106715175e-16
4.787058461e-16
4.964820505e-16
5.757470215e-16
4.838492381e-16
2.913824447e-10
4.504997423e-10
4.631494713e-11
7.985149053e-10
2.485643922e-09
1.605844039e-09
1.040732743e-08
3.042779148e-09
5.677156575e-09
2.580191427e-08
9.274185991e-09
1.4609582e-08
1.548716157e-08
1.133034129e-07
1.806979412e-07
2.72487399e-07
1.05566271e-06
1.419637617e-06
1.890911717e-06
7.258612705e-06
9.206855592e-06
1.156437128e-05
1.463314063e-05
1.631465477e-07
3.487050477e-07
1.164567777e-06
1.917640328e-06
1.631437407e-05
9.866919569e-06
1.432186627e-05
2.519913746e-05
3.296645814e-05
3.127108527e-05
2.27009121e-05
6.93160954e-06
1.467262672e-05
2.82226254e-09
4.167088542e-09
1.161355389e-09
1.086119156e-09
1.328788231e-09
1.353282331e-09
9.579577135e-10
1.084426281e-09
1.951994766e-09
1.986817442e-09
2.6266623e-09
2.38172469e-13
2.571513963e-14
9.525109428e-14
9.819998865e-15
5.735851028e-15
1.160384609e-14
7.904963329e-15
2.068405276e-15
5.723637592e-15
3.588932987e-15
1.712701789e-15
4.076977657e-15
1.171754927e-11
7.500137003e-11
7.3338882e-11
1.531736073e-10
7.945806146e-10
3.060074638e-10
8.765828932e-09
9.967671311e-09
4.169149778e-09
3.082456139e-09
7.6747463e-09
3.967234605e-09
4.975385242e-09
4.05081709e-12
3.979202341e-12
1.049564166e-14
2.618872197e-15
1.335547931e-15
2.707522724e-15
9.132055519e-16
1.684868272e-15
9.910871276e-16
1.165290967e-10
6.661735005e-10
4.238709753e-10
3.277052124e-09
1.683400395e-09
3.283869457e-08
5.868421766e-08
9.739912852e-08
1.529671502e-07
4.70219273e-07
6.455551654e-07
8.668703127e-07
3.557778422e-06
4.336173853e-06
5.308762424e-06
6.40885783e-06
1.472669957e-08
9.403243686e-09
5.516906069e-08
2.054498087e-08
1.516055068e-07
7.036367323e-08
3.451559057e-07
1.845721831e-07
2.791093386e-07
6.88727997e-07
5.764227341e-07
1.242501314e-06
2.071518242e-06
1.406423326e-06
1.818160289e-06
3.227961519e-06
2.30913899e-06
2.880409985e-06
4.821749908e-06
3.552138452e-06
8.072002002e-06
5.504123518e-06
9.351551471e-06
6.623175696e-06
1.103871381e-05
1.649628926e-05
5.067215148e-06
1.032245768e-05
2.361295214e-06
1.289534096e-05
6.007865967e-06
4.472377904e-06
1.352413517e-06
2.18456676e-06
3.963290139e-06
1.072748966e-08
3.491679201e-08
4.452589169e-09
1.518726946e-09
3.109350132e-10
1.178264271e-09
8.091280352e-10
9.983283873e-10
6.470650321e-10
2.201067861e-11
9.533335644e-13
4.181377296e-12
3.987481247e-13
1.933761642e-12
5.105322902e-13
2.497656205e-13
2.06476897e-13
3.8444162e-14
1.410137945e-13
8.539048737e-14
5.400098983e-14
1.193008722e-14
3.490153863e-14
4.49631538e-14
2.249461466e-14
2.464984806e-14
2.297017997e-12
1.519175129e-12
8.732107631e-13
8.833217198e-12
2.900633903e-12
6.932434285e-12
1.503093832e-11
1.06760251e-10
3.388185885e-11
1.113433096e-10
4.469213868e-10
1.044677889e-09
2.013873947e-09
3.734034594e-10
1.102181144e-09
1.355208201e-09
4.482391136e-12
8.307611384e-12
1.838549239e-14
6.419549176e-14
2.478749389e-14
4.369602759e-15
9.956788154e-15
2.671862559e-11
5.10884562e-11
7.711393641e-10
3.541642937e-10
1.640717624e-09
4.613996667e-10
1.304909221e-08
1.591322213e-10
1.351463372e-10
5.007134044e-08
1.180551317e-10
1.028584924e-10
1.382308888e-07
8.886608003e-11
7.549745386e-11
3.119891698e-07
6.23212955e-11
4.910989909e-11
6.129231082e-07
3.587672676e-11
2.297302141e-11
1.089032101e-06
1.230186892e-11
2.311341637e-11
1.782933931e-06
3.692184646e-11
5.572369128e-11
2.826436039e-06
1.28355777e-11
1.945644985e-07
2.566352843e-07
1.279905491e-10
1.098139795e-10
2.439023564e-31
1.441800357e-10
2.286161498e-11
9.282875728e-29
3.097835683e-12
1.191398986e-12
7.248583001e-28
6.065435654e-13
3.523775398e-13
3.827643015e-27
2.202762731e-13
1.439266811e-13
5.063135514e-25
9.697607023e-14
9.765863934e-14
1.014962468e-11
6.798988205e-12
9.408283621e-12
7.955951981e-12
8.89532313e-12
6.201030206e-12
3.517768682e-12
3.722277658e-12
3.061673788e-12
5.621567033e-08
4.782558345e-09
2.813726509e-09
2.220082963e-06
1.826875544e-11
2.522331993e-11
2.55031943e-11
3.440933967e-11
2.973364286e-11
1.727188892e-12
4.983405886e-12
2.127311579e-12
5.359048678e-13
1.132441092e-12
6.665323685e-13
2.185687975e-13
4.143562993e-13
2.660168662e-13
1.439372527e-13
1.737330148e-13
1.669010134e-13
7.510015967e-12
4.420274991e-12
5.339825929e-12
4.300338573e-12
4.339006727e-12
2.962169876e-12
4.116940316e-12
2.841615389e-12
6.651730751e-12
9.064141432e-10
2.92772397e-10
3.282680477e-10
6.247497141e-09
2.565218844e-10
5.539677592e-11
8.501871408e-11
4.229339074e-11
5.492393071e-11
3.983531685e-11
3.095517822e-11
6.404503029e-12
3.891872735e-12
5.976864475e-12
2.539502303e-12
6.661616991e-13
1.14407984e-12
1.294237686e-12
7.115497216e-13
4.034836243e-13
4.069799717e-13
2.360323292e-13
7.484106964e-14
2.046045611e-13
1.226167275e-13
1.165294593e-13
3.573340258e-12
1.993307114e-12
2.376806442e-12
2.442698559e-12
2.222597837e-12
2.689798232e-12
9.069408792e-12
1.196338785e-11
5.742987017e-12
1.600000383e-11
1.339010691e-10
9.082349286e-11
)
;

boundaryField
{
    walls
    {
        type            zeroGradient;
    }
    wallFilmFace_top
    {
        type            zeroGradient;
    }
    region0_to_wallFilmRegion_wallFilmFace
    {
        type            zeroGradient;
    }
    mirrorFace_top
    {
        type            zeroGradient;
    }
    region0_to_wallFilmRegion_mirrorFace
    {
        type            zeroGradient;
    }
    procBoundary3to2
    {
        type            processor;
        value           nonuniform List<scalar> 
64
(
6.635924272e-05
2.133966983e-05
2.232270304e-05
2.19894651e-05
1.876092052e-05
1.182771011e-07
4.621931328e-08
7.636966523e-09
1.885048612e-06
1.014495843e-05
3.995109211e-06
4.507398789e-06
4.507398789e-06
2.762560261e-06
7.761720598e-05
0.0001973158142
0.0003889616917
0.0006359558461
0.0002625703868
0.001596053082
0.0006507647483
0.0002488069308
0.0001542928774
0.0001542928774
0.0001204956492
0.0001897899111
0.0001897899111
0.0002809698121
0.0001358616907
0.0001358616907
1.31756951e-06
4.493579378e-07
4.493579378e-07
2.75222663e-07
2.013053824e-07
0.0006703629828
9.065584155e-05
7.437328358e-05
7.599846549e-05
5.675298698e-06
1.187068831e-05
4.310060761e-09
1.159011552e-10
1.850776763e-08
1.420879513e-07
5.557470308e-07
7.437328358e-05
5.675298698e-06
0.001200208619
2.428298538e-05
1.999773695e-05
2.434833371e-05
2.19894651e-05
1.606570681e-05
8.944496282e-08
9.921596654e-06
6.772816316e-06
2.128012935e-08
4.370414371e-06
2.568476598e-06
4.044002879e-09
5.733327348e-08
3.019524596e-07
8.856088754e-07
)
;
    }
}


// ************************************************************************* //
