/*--------------------------------*- C++ -*----------------------------------*\
  =========                 |
  \\      /  F ield         | OpenFOAM: The Open Source CFD Toolbox
   \\    /   O peration     | Website:  https://openfoam.org
    \\  /    A nd           | Version:  8
     \\/     M anipulation  |
\*---------------------------------------------------------------------------*/
FoamFile
{
    version     2.0;
    format      ascii;
    class       volScalarField;
    location    "0.9/wallFilmRegion";
    object      mu;
}
// * * * * * * * * * * * * * * * * * * * * * * * * * * * * * * * * * * * * * //

dimensions      [1 -1 -1 0 0 0 0];

internalField   nonuniform List<scalar> 
1342
(
0.0008861474266
0.0008861476666
0.0008861479
0.0008861477106
0.0008861475987
0.0008861475684
0.0008861475348
0.0008861477188
0.0008861476471
0.0008861510522
0.0008861535899
0.0008861553934
0.000886156593
0.0008861575256
0.0008861592739
0.0008861544281
0.0008861505169
0.0008861481307
0.0008861474467
0.0008861480532
0.000886148228
0.0008861483601
0.000886159502
0.0008861539219
0.0008861515304
0.0008861476396
0.0008861475818
0.0008861550252
0.0008861595676
0.0008861623857
0.0008861639749
0.0008861650943
0.0008861665121
0.0008861659877
0.0008861579083
0.0008861525989
0.0008861475568
0.0008861477438
0.0008861479118
0.0008861481517
0.0008861482828
0.0008861643368
0.0008861538584
0.0008861803188
0.0008861707469
0.0008861697122
0.0008861701629
0.0008861709465
0.0008861716432
0.0008861709889
0.0008861633553
0.0008861475762
0.0008861475044
0.0008861474723
0.0008861474639
0.0008861474756
0.0008861475075
0.000886147552
0.000886147604
0.0008861477412
0.0008861479372
0.0008861644795
0.0008861614515
0.0008861627909
0.0008861477307
0.000886147573
0.000886147507
0.0008861474788
0.0008861474709
0.0008861474796
0.0008861475046
0.0008861475473
0.000886147606
0.0008861477714
0.0008861682908
0.0008861650831
0.0008861482728
0.0008861477276
0.000886147559
0.000886147496
0.0008861474737
0.0008861474737
0.000886147491
0.0008861475272
0.0008861475704
0.0008861476222
0.0008861476939
0.0008861489753
0.0008861629416
0.0008861679938
0.0008861667887
0.000886166926
0.0008861680361
0.0008861685921
0.0008861684707
0.0008861680851
0.0008861681183
0.0008861694417
0.000886147429
0.0008861474335
0.0008861474294
0.0008861474374
0.0008861474592
0.0008861475
0.0008861476445
0.0008861479185
0.0008861482835
0.0008861483654
0.0008861476104
0.0008861484045
0.000886148434
0.0008861475202
0.000886147555
0.0008861475465
0.0008861475082
0.0008861475387
0.0008861475319
0.0008861475001
0.0008861475265
0.0008861475222
0.0008861474957
0.0008861475194
0.0008861475196
0.0008861474971
0.0008861475231
0.0008861475222
0.0008861474969
0.0008861475207
0.0008861475184
0.0008861474935
0.0008861475152
0.0008861475114
0.0008861474876
0.0008861475071
0.0008861475029
0.0008861474709
0.0008861474986
0.0008861474913
0.0008861474457
0.0008861474808
0.0008861475143
0.0008861475694
0.0008861475354
0.0008861475419
0.0008861475279
0.0008861475448
0.0008861475151
0.0008861474731
0.0008861474727
0.0008861474278
0.0008861474769
0.0008861472879
0.0008861472185
0.0008861475028
0.0008861472573
0.0008861472828
0.0008861475074
0.0008861473649
0.0008861474134
0.0008861475043
0.0008861474454
0.0008861474641
0.0008861474995
0.0008861474737
0.0008861474818
0.0008861474961
0.0008861474871
0.0008861474862
0.0008861475543
0.0008861475283
0.0008861476326
0.0008861476592
0.0008861476555
0.0008861476664
0.0008861475449
0.0008861476687
0.0008861476602
0.0008861474516
0.000886147564
0.0008861474786
0.0008861475197
0.0008861475139
0.0008861475114
0.0008861474974
0.0008861475076
0.0008861474837
0.0008861473979
0.0008861474318
0.0008861473691
0.0008861471714
0.0008861472635
0.0008861471794
0.0008861430826
0.0008861473496
0.0008861463094
0.0008861452643
0.0008861428697
0.000886142915
0.0008861465946
0.0008861429217
0.0008861428542
0.0008861470344
0.0008861426742
0.0008861424174
0.0008861475305
0.0008861475645
0.0008861476213
0.0008861476428
0.0008861476262
0.0008861476336
0.0008861476676
0.0008861476456
0.0008861476616
0.0008861476769
0.0008861476735
0.0008861476702
0.0008861475654
0.0008861476468
0.0008861476441
0.000886147507
0.0008861475197
0.0008861475077
0.0008861474702
0.0008861474957
0.0008861474537
0.0008861473375
0.0008861473745
0.0008861473027
0.000886147171
0.000886147218
0.0008861471576
0.0008861474327
0.0008861472602
0.0008861474049
0.000886143081
0.0008861474928
0.0008861473399
0.0008861474103
0.0008861433219
0.0008861474103
0.0008861450628
0.0008861443453
0.0008861473719
0.0008861476091
0.0008861475903
0.0008861475929
0.0008861476195
0.0008861475967
0.0008861475995
0.0008861476492
0.0008861476035
0.0008861476226
0.000886147685
0.0008861476594
0.0008861476827
0.0008861476938
0.0008861476905
0.0008861476908
0.0008861477003
0.0008861476894
0.0008861476959
0.0008861475613
0.0008861475762
0.0008861475834
0.0008861474396
0.0008861475554
0.000886147551
0.0008861472658
0.0008861475272
0.0008861473077
0.0008861471421
0.0008861471674
0.0008861471272
0.0008861473843
0.0008861472193
0.0008861473687
0.0008861475335
0.0008861474788
0.000886147542
0.0008861433154
0.0008861475623
0.0008861471124
0.0008861475379
0.0008861457738
0.0008861475401
0.0008861475726
0.0008861475507
0.0008861475498
0.0008861475706
0.000886147545
0.0008861475368
0.000886147574
0.0008861475306
0.0008861475249
0.0008861476402
0.0008861475032
0.0008861472552
0.0008861476743
0.0008861473415
0.0008861475208
0.0008861476822
0.000886147606
0.0008861476722
0.0008861475933
0.0008861475474
0.0008861475747
0.0008861475694
0.0008861476035
0.0008861476041
0.0008861472168
0.0008861474055
0.0008861471498
0.0008861471136
0.0008861470999
0.0008861471051
0.000886147358
0.0008861472108
0.0008861473536
0.0008861475432
0.0008861474698
0.0008861475519
0.0008861474815
0.0008861475993
0.0008861476004
0.0008861475219
0.0008861474804
0.0008861475015
0.0008861475271
0.0008861475041
0.0008861474911
0.00088614751
0.00088614749
0.0008861474906
0.0008861474998
0.0008861474903
0.0008861474861
0.0008861470108
0.0008861474678
0.0008861473776
0.0008861475536
0.0008861475281
0.000886147563
0.0008861475298
0.0008861475276
0.0008861475582
0.0008861475344
0.0008861475571
0.0008861475959
0.0008861475731
0.0008861475842
0.0008861470946
0.0008861471987
0.0008861470529
0.0008861471145
0.0008861470851
0.0008861472192
0.0008861473749
0.0008861473742
0.0008861475109
0.000886147584
0.0008861475682
0.0008861475671
0.0008861475169
0.0008861475293
0.0008861474886
0.0008861474922
0.0008861474814
0.0008861474825
0.0008861474771
0.0008861474778
0.0008861474683
0.0008861474583
0.0008861474614
0.0008861474566
0.0008861474475
0.0008861474518
0.000886147435
0.0008861474865
0.0008861475061
0.0008861475176
0.0008861475593
0.0008861475359
0.0008861475512
0.0008861475254
0.0008861475153
0.0008861475401
0.000886147516
0.0008861475258
0.0008861475588
0.0008861475562
0.0008861475372
0.0008861472327
0.0008861474575
0.0008861474966
0.0008861474452
0.0008861475091
0.0008861475167
0.000886147536
0.0008861475245
0.000886147524
0.0008861475162
0.0008861475109
0.0008861474888
0.0008861474767
0.000886147479
0.0008861474773
0.000886147475
0.0008861474774
0.000886147477
0.0008861474683
0.0008861474759
0.0008861474742
0.0008861474612
0.0008861474714
0.0008861474656
0.000886147406
0.0008861474837
0.0008861474916
0.0008861474269
0.0008861474582
0.000886147423
0.0008861474341
0.0008861474277
0.0008861474315
0.0008861474295
0.0008861474344
0.0008861474392
0.0008861474403
0.0008861474463
0.0008861474448
0.0008861474522
0.0008861474582
0.0008861474446
0.0008861474621
0.0008861474658
0.0008861474433
0.0008861474691
0.000886147472
0.0008861474415
0.0008861474744
0.0008861474759
0.0008861474387
0.000886147477
0.0008861474723
0.0008861474906
0.0008861474915
0.0008861475513
0.000886147635
0.0008861479597
0.0008861479848
0.0008861475007
0.0008861474443
0.0008861474381
0.0008861474511
0.0008861474683
0.0008861474847
0.0008861475017
0.0008861475183
0.0008861475383
0.0008861474941
0.0008861474528
0.0008861474614
0.0008861474715
0.0008861474823
0.0008861475491
0.0008861475466
0.0008861475646
0.0008861475929
0.0008861475596
0.0008861476089
0.000886147638
0.0008861476947
0.0008861477926
0.0008861476396
0.0008861475333
0.0008861474849
0.0008861475247
0.0008861475001
0.0008861474655
0.0008861474837
0.0008861474674
0.0008861474895
0.0008861474719
0.000886147481
0.0008861475286
0.0008861474949
0.0008861475132
0.0008861475775
0.0008861476289
0.0008861476967
0.0008861476422
0.0008861477721
0.00088614771
0.0008861477535
0.0008861478602
0.0008861478854
0.0008861475717
0.0008861474897
0.0008861475309
0.0008861474726
0.0008861474723
0.00088614749
0.0008861474761
0.0008861474837
0.0008861475237
0.0008861474954
0.0008861475745
0.0008861475823
0.0008861477249
0.000886148004
0.0008861476476
0.0008861474711
0.000886147542
0.0008861476132
0.0008861474281
0.0008861474178
0.0008861474275
0.0008861474211
0.0008861474245
0.0008861474212
0.0008861474217
0.0008861474195
0.000886147419
0.000886147418
0.0008861474205
0.0008861474166
0.0008861474245
0.000886147417
0.00088614743
0.0008861474188
0.0008861474248
0.0008861474343
0.0008861474216
0.0008861475291
0.0008861475134
0.0008861475039
0.0008861474971
0.0008861474964
0.0008861474971
0.0008861474956
0.0008861474908
0.000886147483
0.0008861474491
0.0008861474443
0.0008861475312
0.0008861474602
0.0008861474571
0.0008861475835
0.0008861475528
0.0008861474868
0.0008861474717
0.0008861474944
0.000886147507
0.0008861475063
0.0008861475019
0.0008861474975
0.0008861474951
0.0008861476354
0.0008861476432
0.0008861474552
0.0008861476072
0.0008861476257
0.0008861474567
0.0008861475204
0.0008861475193
0.0008861474534
0.0008861472726
0.0008861431544
0.0008861441045
0.0008861461531
0.0008861468358
0.0008861471093
0.0008861476301
0.0008861476544
0.0008861476761
0.0008861476611
0.0008861476395
0.0008861475112
0.0008861475006
0.0008861474062
0.0008861472434
0.0008861472948
0.0008861471379
0.0008861474103
0.0008861474103
0.0008861476013
0.0008861476136
0.0008861476296
0.0008861476718
0.0008861476912
0.0008861476948
0.0008861475837
0.0008861475201
0.0008861473386
0.00088614719
0.0008861472358
0.0008861474867
0.0008861473009
0.0008861432305
0.0008861475711
0.0008861475732
0.0008861475674
0.0008861476046
0.0008861476543
0.0008861476728
0.0008861475786
0.0008861475969
0.000886147494
0.0008861471332
0.0008861472104
0.0008861474716
0.0008861475728
0.0008861469185
0.0008861475298
0.0008861475181
0.0008861475059
0.0008861474739
0.0008861474804
0.000886147596
0.0008861475373
0.000886147589
0.0008861472697
0.0008861470735
0.0008861472345
0.0008861475243
0.0008861475862
0.0008861474865
0.0008861474895
0.0008861474677
0.0008861474503
0.0008861474451
0.000886147536
0.0008861475891
0.0008861475231
0.0008861475267
0.0008861475613
0.0008861472382
0.0008861473348
0.0008861475107
0.0008861475435
0.0008861474872
0.0008861474757
0.0008861474723
0.0008861474646
0.0008861474577
0.0008861475075
0.0008861475297
0.0008861475521
0.0008861475378
0.0008861475059
0.0008861475275
0.0008861475158
0.0008861474916
0.0008861474801
0.00088614748
0.0008861474789
0.0008861474757
0.0008861474823
0.0008861480205
0.0008861474967
0.0008861474586
0.0008861474211
0.000886147427
0.0008861474357
0.000886147442
0.0008861474445
0.000886147444
0.0008861474425
0.0008861474403
0.0008861474379
0.0008861474486
0.0008861474931
0.0008861474719
0.0008861475326
0.0008861477856
0.0008861478929
0.0008861510945
0.0008861507992
0.0008861474648
0.0008861474368
0.0008861474498
0.0008861474437
0.0008861474465
0.0008861474594
0.0008861474765
0.0008861474931
0.0008861475062
0.0008861475104
0.0008861475341
0.0008861475234
0.0008861607699
0.0008861589565
0.0008861575656
0.000886157269
0.0008861476706
0.0008861477942
0.0008861478232
0.0008861480299
0.0008861479939
0.0008861688468
0.000886201355
0.0008861855146
0.0008861812046
0.0008861754529
0.0008861746177
0.0008861743329
0.0008861743931
0.0008861739187
0.0008861744611
0.0008861736403
0.0008861729505
0.0008861712232
0.0008861476389
0.0008861476733
0.000886147904
0.0008861703273
0.000886169748
0.0008861690787
0.000886174688
0.0008861709491
0.0008861715223
0.0008861719558
0.0008861731256
0.0008861709079
0.0008861679906
0.000886169397
0.0008861502663
0.000886148155
0.0008861476831
0.0008861475001
0.0008861475389
0.0008861474743
0.0008861474894
0.0008861474785
0.0008861474902
0.0008861475182
0.0008861671827
0.0008861633119
0.0008861649674
0.0008861654035
0.0008861653071
0.0008861651139
0.0008861659157
0.0008861682839
0.0008861482279
0.0008861662069
0.0008861658054
0.0008861659336
0.0008861661098
0.0008861659608
0.0008861659069
0.0008861666309
0.0008861683593
0.0008861613453
0.0008861667579
0.0008861662652
0.0008861662997
0.0008861666981
0.000886166849
0.000886166863
0.0008861671832
0.000886168247
0.0008861697187
0.000886147428
0.0008861474166
0.000886147491
0.0008861474185
0.0008861474282
0.0008861474197
0.0008861474829
0.0008861474776
0.0008861474187
0.0008861474217
0.0008861474261
0.0008861474215
0.0008861474734
0.0008861474692
0.0008861474252
0.0008861474281
0.0008861474229
0.0008861474203
0.0008861474646
0.0008861474609
0.0008861474302
0.0008861474312
0.0008861474207
0.000886147419
0.0008861474588
0.000886147458
0.0008861474315
0.0008861474319
0.0008861474194
0.0008861474171
0.0008861474567
0.0008861474581
0.0008861474299
0.0008861474286
0.0008861474222
0.0008861474166
0.0008861474594
0.0008861474605
0.0008861474271
0.000886147426
0.0008861474271
0.0008861474177
0.0008861474611
0.0008861474608
0.0008861474253
0.0008861474247
0.0008861474329
0.0008861474202
0.0008861474567
0.0008861474476
0.0008861474244
0.0008861474242
0.0008861474406
0.0008861474407
0.0008861474246
0.0008861474414
0.0008861474432
0.0008861474518
0.0008861474427
0.0008861474474
0.0008861474646
0.0008861474393
0.0008861474845
0.000886147593
0.0008861478645
0.0008861476359
0.0008861476537
0.0008861477477
0.000886147671
0.0008861480282
0.0008861481728
0.0008861476066
0.0008861475943
0.000886147593
0.0008861475874
0.0008861475976
0.0008861534287
0.0008861525048
0.0008861517898
0.000886147576
0.0008861475593
0.0008861510897
0.0008861475163
0.0008861475011
0.000886148189
0.0008861475137
0.0008861475527
0.0008861475406
0.0008861475217
0.0008861506602
0.0008861502275
0.0008861499103
0.0008861475548
0.0008861476479
0.0008861477569
0.0008861476994
0.0008861475214
0.000886147643
0.00088614763
0.0008861476815
0.0008861476639
0.0008861476309
0.0008861475205
0.0008861475988
0.0008861475015
0.0008861486134
0.0008861476015
0.0008861443837
0.0008861475169
0.0008861475015
0.0008861475098
0.0008861521449
0.0008861519365
0.0008861530026
0.0008861475237
0.0008861475171
0.0008861475233
0.0008861545595
0.0008861559075
0.000886157227
0.0008861475045
0.0008861475285
0.0008861475328
0.000886156039
0.000886158447
0.0008861592546
0.0008861474824
0.0008861475372
0.0008861475362
0.0008861570854
0.0008861599218
0.0008861604758
0.0008861474801
0.0008861475315
0.0008861475208
0.0008861579086
0.0008861609668
0.0008861614143
0.0008861474795
0.0008861475091
0.0008861474984
0.0008861569937
0.0008861629484
0.0008861649331
0.0008861474779
0.0008861474907
0.0008861474881
0.0008861524291
0.0008861627506
0.0008861594317
0.0008861474807
0.0008861474862
0.0008861474849
0.0008861491088
0.0008861555224
0.00088615274
0.0008861479632
0.0008861474899
0.0008861474854
0.0008861501192
0.0008861512057
0.0008861500908
0.0008861498295
0.0008861474714
0.0008861476385
0.0008861476346
0.0008861477562
0.000886147839
0.0008861481398
0.0008861480552
0.0008861480447
0.0008861481144
0.0008861483096
0.0008861481902
0.0008861482682
0.0008861483998
0.0008861483254
0.0008861483797
0.0008861578488
0.0008861564041
0.0008861621936
0.000886160419
0.0008861569935
0.0008861550825
0.0008861583009
0.0008861526589
0.0008861537306
0.0008861541539
0.0008861554073
0.0008861476728
0.0008861476089
0.0008861345761
0.0008861258278
0.000886153206
0.0008861592871
0.000886154363
0.0008861606869
0.0008861647747
0.0008861641601
0.0008861632176
0.0008861664256
0.0008861669395
0.0008861645644
0.0008861676693
0.0008861682158
0.0008861655802
0.0008861687286
0.000886169192
0.000886167796
0.000886169738
0.000886170348
0.0008861626143
0.0008861690794
0.0008861661076
0.0008861543827
0.0008861607555
0.0008861564685
0.0008861512958
0.0008861540764
0.0008861526167
0.0008861522797
0.0008861520887
0.0008861474656
0.0008861474445
0.0008861474938
0.0008861475196
0.0008861476369
0.0008861476769
0.0008861477678
0.0008861478541
0.0008861478897
0.0008861478672
0.0008861479511
0.000886147965
0.0008861480744
0.0008861479767
0.000886148037
0.0008861481142
0.0008861482246
0.0008861481786
0.0008861481851
0.0008861483598
0.0008861495333
0.0008861482269
0.0008861483091
0.0008861630538
0.0008861666696
0.0008861651633
0.000886163209
0.0008861610725
0.0008861629482
0.0008861566439
0.0008861552564
0.0008861538939
0.0008861599356
0.0008861572389
0.0008865057986
0.0008862085226
0.0008861613641
0.0008862104648
0.0008861880327
0.0008861781206
0.000886173811
0.0008861681615
0.0008861725272
0.0008861717662
0.0008861696477
0.0008861705336
0.0008861717426
0.0008861718159
0.0008861720113
0.0008861722057
0.0008861713297
0.0008861723114
0.000886171819
0.0008861723124
0.000886171749
0.0008861687592
0.0008861701716
0.0008861594894
0.0008861674254
0.0008861637454
0.000886154604
0.0008861603497
0.0008861573524
0.0008861563845
0.0008861476992
0.0008861476164
0.0008861475614
0.0008861474736
0.0008861474685
0.000886147468
0.0008861475353
0.0008861475605
0.000886147588
0.0008861476183
0.000886147634
0.0008861475333
0.0008861474728
0.0008861474732
0.0008861476816
0.0008861476375
0.0008861477103
0.0008861478276
0.0008861478769
0.000886147954
0.0008861479083
0.0008861481597
0.0008861481569
0.0008861652529
0.0008861587914
0.0008861698926
0.0008861694488
0.0008861693594
0.0008861678116
0.000886169129
0.000886169802
0.0008861668731
0.0008861663969
0.0008861649872
0.0008861785672
0.000886181862
0.0008861764404
0.0008861781542
0.0008861756485
0.0008861731288
0.0008861730394
0.0008861738819
0.0008861731919
0.0008861733838
0.0008861739013
0.0008861733265
0.0008861737578
0.0008861734442
0.0008861722876
0.0008861717467
0.0008861712537
0.0008861711505
0.0008861590897
0.0008861589589
0.0008861635567
0.000886166113
0.0008861592544
0.0008861630001
0.0008861628091
0.0008862222118
0.0008861922569
0.0008861900002
0.0008861771678
0.0008861745324
0.0008861739917
0.0008861743011
0.0008861738811
0.0008861744847
0.0008861742006
0.0008861727324
0.0008861722711
0.0008861661837
0.0008861691832
0.0008861482316
0.0008861479203
0.0008861477406
0.0008861476359
0.0008861475045
0.0008861474876
0.0008861474775
0.0008861475113
0.0008861475299
0.0008861475523
0.0008861475749
0.0008861489641
0.0008861493249
0.0008861479143
0.0008861484554
0.000886147622
0.0008861477749
0.0008861475202
0.0008861475732
0.000886147528
0.0008861474814
0.0008861474833
0.0008861474714
0.0008861474799
0.0008861474728
0.0008861474783
0.0008861475169
0.0008861474882
0.0008861475
0.0008861475416
0.0008861475175
0.0008861476112
0.0008861475652
0.0008861476478
0.0008861475875
0.000886147673
0.0008861477447
0.0008861476011
0.0008861476922
0.0008861476462
0.0008861478261
0.0008861477538
0.0008861478011
0.0008861477189
0.0008861482855
0.0008861481604
0.0008861528611
0.0008861497534
0.0008861565389
0.0008861652815
0.0008861701178
0.0008861661305
0.0008861699589
0.0008861687798
0.0008861689617
0.0008861706353
0.000886173128
0.000886170291
0.0008861719619
0.0008861696223
0.0008861689425
0.0008861684773
0.0008861674762
0.0008861706473
0.0008861689481
0.0008861694524
0.0008861699894
0.0008861718301
0.0008861703483
0.0008861685941
0.0008861705115
0.0008861704957
0.0008861682805
0.0008861716857
0.0008861703424
0.0008861713416
0.0008861701112
0.0008861698514
0.000886169641
0.0008861701229
0.000886169504
0.0008861695576
0.0008861685705
0.0008861686336
0.0008861666929
0.0008861700195
0.000886169212
0.0008861685019
0.0008861807355
0.0008861738015
0.0008861732753
0.0008861701586
0.0008861710485
0.0008861733225
0.0008861719002
0.000886172771
0.0008861704795
0.0008861701655
0.0008861698442
0.0008861538538
0.0008861687375
0.0008861487935
0.0008861681214
0.0008861673407
0.0008861478456
0.0008861671822
0.0008861672159
0.0008861475921
0.0008861673311
0.0008861673521
0.0008861475074
0.0008861671794
0.0008861667914
0.0008861474805
0.0008861662351
0.0008861656393
0.0008861474819
0.0008861653625
0.0008861654707
0.0008861475027
0.0008861661879
0.000886167331
0.0008861475341
0.0008861689183
0.0008861475755
0.0008861476042
0.0008861678537
0.0008861667816
0.0008861616601
0.0008861662507
0.0008861659368
0.0008861641938
0.0008861658408
0.0008861659182
0.0008861651535
0.0008861660609
0.0008861661692
0.0008861656584
0.00088616617
0.0008861660437
0.0008861641588
0.0008861658039
0.0008861655773
0.0008861652966
0.0008861655453
0.0008861657864
0.0008861669714
0.000886166335
0.0008861672256
0.0008861696526
0.0008861683717
0.0008861696123
0.0008861483605
0.0008861529189
0.0008861572642
0.000886148216
0.0008861666196
0.000886166698
0.0008861659144
0.0008861663505
0.0008861660675
0.0008861658312
0.0008861659245
0.0008861658982
0.0008861660482
0.0008861659815
0.0008861661193
0.0008861660829
0.0008861662434
0.0008861662953
0.0008861658587
0.0008861662604
0.0008861662269
0.0008861661572
0.0008861662866
0.0008861664849
0.0008861673761
0.0008861668469
0.0008861674381
0.0008861694516
0.0008861682698
0.0008861692315
0.0008861656281
0.0008861681037
0.0008861696845
0.0008861537747
0.000886169406
0.0008861670818
0.0008861678366
0.0008861684106
0.0008861664433
0.0008861675626
0.0008861672112
0.0008861673725
0.0008861661959
0.0008861669758
0.0008861668478
0.0008861664979
0.0008861664953
0.0008861670073
0.0008861672755
0.0008861668226
0.0008861675557
0.0008861677296
0.0008861684124
0.0008861668392
0.0008861677892
0.0008861677679
0.0008861669654
0.0008861677235
0.0008861677079
0.000886167596
0.0008861677699
0.0008861679875
0.0008861679912
0.0008861691227
0.0008861684036
0.0008861689532
0.0008861683908
0.0008861687325
)
;

boundaryField
{
    walls
    {
        type            zeroGradient;
    }
    wallFilmFace_top
    {
        type            zeroGradient;
    }
    region0_to_wallFilmRegion_wallFilmFace
    {
        type            zeroGradient;
    }
    mirrorFace_top
    {
        type            zeroGradient;
    }
    region0_to_wallFilmRegion_mirrorFace
    {
        type            zeroGradient;
    }
    procBoundary3to2
    {
        type            processor;
        value           nonuniform List<scalar> 
64
(
0.0008861477961
0.0008861477079
0.0008861476146
0.0008861475619
0.0008861475446
0.0008861477135
0.0008861481346
0.0008861506895
0.0008861474472
0.0008861475412
0.0008861475776
0.0008861475652
0.0008861475652
0.0008861476058
0.0008861475537
0.0008861475337
0.0008861475218
0.0008861475167
0.0008861475604
0.000886147596
0.0008861475774
0.0008861475491
0.0008861475342
0.0008861475342
0.0008861475232
0.000886147523
0.000886147523
0.0008861475179
0.0008861475232
0.0008861475232
0.0008861474502
0.0008861475072
0.0008861475072
0.0008861475502
0.0008861475932
0.0008861474281
0.000886147417
0.0008861475023
0.0008861475312
0.0008861474261
0.000886147504
0.0008861514416
0.0008861638797
0.0008861485434
0.0008861476029
0.0008861474733
0.0008861475023
0.0008861474261
0.0008861476321
0.0008861477365
0.0008861476451
0.0008861475865
0.0008861475619
0.000886147533
0.0008861478045
0.0008861474917
0.0008861474709
0.0008861488638
0.0008861474555
0.0008861474468
0.000886151189
0.0008861478362
0.0008861475118
0.0008861474568
)
;
    }
}


// ************************************************************************* //
