/*--------------------------------*- C++ -*----------------------------------*\
  =========                 |
  \\      /  F ield         | OpenFOAM: The Open Source CFD Toolbox
   \\    /   O peration     | Website:  https://openfoam.org
    \\  /    A nd           | Version:  8
     \\/     M anipulation  |
\*---------------------------------------------------------------------------*/
FoamFile
{
    version     2.0;
    format      ascii;
    class       volScalarField;
    location    "0.9/wallFilmRegion";
    object      sigma;
}
// * * * * * * * * * * * * * * * * * * * * * * * * * * * * * * * * * * * * * //

dimensions      [1 0 -2 0 0 0 0];

internalField   nonuniform List<scalar> 
1342
(
0.07244713499
0.07244713748
0.07244713991
0.07244713794
0.07244713678
0.07244713647
0.07244713612
0.07244713803
0.07244713728
0.07244717264
0.07244719899
0.07244721772
0.07244723017
0.07244723985
0.07244725801
0.07244720769
0.07244716708
0.0724471423
0.0724471352
0.0724471415
0.07244714331
0.07244714469
0.07244726038
0.07244720244
0.0724471776
0.0724471372
0.0724471366
0.07244721389
0.07244726106
0.07244729032
0.07244730682
0.07244731844
0.07244733316
0.07244732772
0.07244724383
0.0724471887
0.07244713634
0.07244713829
0.07244714003
0.07244714252
0.07244714388
0.07244731058
0.07244720178
0.07244747652
0.07244737713
0.07244736639
0.07244737107
0.07244737921
0.07244738644
0.07244737965
0.07244730039
0.07244713655
0.0724471358
0.07244713547
0.07244713538
0.0724471355
0.07244713583
0.07244713629
0.07244713683
0.07244713826
0.07244714029
0.07244731206
0.07244728062
0.07244729453
0.07244713815
0.07244713651
0.07244713583
0.07244713553
0.07244713545
0.07244713554
0.0724471358
0.07244713625
0.07244713686
0.07244713857
0.07244735163
0.07244731833
0.07244714378
0.07244713812
0.07244713637
0.07244713571
0.07244713548
0.07244713548
0.07244713566
0.07244713604
0.07244713649
0.07244713702
0.07244713777
0.07244715107
0.07244729609
0.07244734855
0.07244733604
0.07244733746
0.07244734899
0.07244735476
0.0724473535
0.0724473495
0.07244734984
0.07244736358
0.07244713502
0.07244713506
0.07244713502
0.0724471351
0.07244713533
0.07244713575
0.07244713726
0.0724471401
0.07244714389
0.07244714474
0.0724471369
0.07244714515
0.07244714545
0.07244713596
0.07244713633
0.07244713624
0.07244713584
0.07244713616
0.07244713609
0.07244713576
0.07244713603
0.07244713599
0.07244713571
0.07244713596
0.07244713596
0.07244713572
0.07244713599
0.07244713599
0.07244713572
0.07244713597
0.07244713595
0.07244713569
0.07244713591
0.07244713587
0.07244713563
0.07244713583
0.07244713578
0.07244713545
0.07244713574
0.07244713566
0.07244713519
0.07244713556
0.0724471359
0.07244713648
0.07244713612
0.07244713619
0.07244713604
0.07244713622
0.07244713591
0.07244713548
0.07244713547
0.072447135
0.07244713551
0.07244713355
0.07244713283
0.07244713578
0.07244713323
0.0724471335
0.07244713583
0.07244713435
0.07244713486
0.0724471358
0.07244713519
0.07244713538
0.07244713575
0.07244713548
0.07244713557
0.07244713571
0.07244713562
0.07244713561
0.07244713632
0.07244713605
0.07244713713
0.07244713741
0.07244713737
0.07244713748
0.07244713622
0.07244713751
0.07244713742
0.07244713525
0.07244713642
0.07244713553
0.07244713596
0.0724471359
0.07244713587
0.07244713573
0.07244713583
0.07244713559
0.07244713469
0.07244713505
0.0724471344
0.07244713234
0.0724471333
0.07244713243
0.07244708989
0.07244713419
0.07244712339
0.07244711254
0.07244708768
0.07244708815
0.07244712635
0.07244708821
0.07244708751
0.07244713092
0.07244708565
0.07244708298
0.07244713607
0.07244713642
0.07244713701
0.07244713724
0.07244713706
0.07244713714
0.07244713749
0.07244713727
0.07244713743
0.07244713759
0.07244713756
0.07244713752
0.07244713643
0.07244713728
0.07244713725
0.07244713583
0.07244713596
0.07244713583
0.07244713545
0.07244713571
0.07244713527
0.07244713407
0.07244713445
0.07244713371
0.07244713234
0.07244713283
0.0724471322
0.07244713506
0.07244713326
0.07244713477
0.07244708987
0.07244713568
0.07244713409
0.07244713482
0.07244709237
0.07244713482
0.07244711045
0.072447103
0.07244713442
0.07244713689
0.07244713669
0.07244713672
0.072447137
0.07244713676
0.07244713679
0.0724471373
0.07244713683
0.07244713703
0.07244713768
0.07244713741
0.07244713765
0.07244713777
0.07244713773
0.07244713774
0.07244713783
0.07244713772
0.07244713779
0.07244713639
0.07244713655
0.07244713662
0.07244713513
0.07244713633
0.07244713628
0.07244713332
0.07244713604
0.07244713376
0.07244713204
0.0724471323
0.07244713188
0.07244713455
0.07244713284
0.07244713439
0.0724471361
0.07244713553
0.07244713619
0.0724470923
0.0724471364
0.07244713173
0.07244713615
0.07244711783
0.07244713617
0.07244713651
0.07244713628
0.07244713627
0.07244713649
0.07244713622
0.07244713614
0.07244713652
0.07244713607
0.07244713601
0.07244713721
0.07244713579
0.07244713321
0.07244713756
0.07244713411
0.07244713597
0.07244713765
0.07244713686
0.07244713754
0.07244713672
0.07244713625
0.07244713653
0.07244713647
0.07244713683
0.07244713684
0.07244713281
0.07244713477
0.07244713212
0.07244713174
0.0724471316
0.07244713165
0.07244713428
0.07244713275
0.07244713423
0.0724471362
0.07244713544
0.07244713629
0.07244713556
0.07244713679
0.0724471368
0.07244713598
0.07244713555
0.07244713577
0.07244713604
0.0724471358
0.07244713566
0.07244713586
0.07244713565
0.07244713566
0.07244713575
0.07244713565
0.07244713561
0.07244713067
0.07244713542
0.07244713448
0.07244713631
0.07244713605
0.07244713641
0.07244713606
0.07244713604
0.07244713636
0.07244713611
0.07244713635
0.07244713675
0.07244713651
0.07244713663
0.07244713155
0.07244713263
0.07244713111
0.07244713175
0.07244713145
0.07244713284
0.07244713446
0.07244713445
0.07244713587
0.07244713663
0.07244713646
0.07244713645
0.07244713593
0.07244713606
0.07244713564
0.07244713567
0.07244713556
0.07244713557
0.07244713552
0.07244713552
0.07244713543
0.07244713532
0.07244713535
0.0724471353
0.07244713521
0.07244713525
0.07244713508
0.07244713561
0.07244713582
0.07244713594
0.07244713637
0.07244713613
0.07244713629
0.07244713602
0.07244713591
0.07244713617
0.07244713592
0.07244713602
0.07244713637
0.07244713634
0.07244713614
0.07244713298
0.07244713531
0.07244713572
0.07244713519
0.07244713585
0.07244713593
0.07244713613
0.07244713601
0.072447136
0.07244713592
0.07244713587
0.07244713564
0.07244713551
0.07244713554
0.07244713552
0.07244713549
0.07244713552
0.07244713552
0.07244713543
0.0724471355
0.07244713549
0.07244713535
0.07244713546
0.0724471354
0.07244713478
0.07244713559
0.07244713567
0.072447135
0.07244713532
0.07244713495
0.07244713507
0.072447135
0.07244713504
0.07244713502
0.07244713507
0.07244713512
0.07244713513
0.0724471352
0.07244713518
0.07244713526
0.07244713532
0.07244713518
0.07244713536
0.0724471354
0.07244713517
0.07244713543
0.07244713546
0.07244713515
0.07244713549
0.0724471355
0.07244713512
0.07244713552
0.07244713547
0.07244713566
0.07244713567
0.07244713629
0.07244713716
0.07244714053
0.07244714079
0.07244713576
0.07244713518
0.07244713511
0.07244713525
0.07244713542
0.0724471356
0.07244713577
0.07244713594
0.07244713615
0.07244713569
0.07244713526
0.07244713535
0.07244713546
0.07244713557
0.07244713626
0.07244713624
0.07244713642
0.07244713672
0.07244713637
0.07244713689
0.07244713719
0.07244713778
0.07244713879
0.0724471372
0.0724471361
0.0724471356
0.07244713601
0.07244713576
0.0724471354
0.07244713559
0.07244713542
0.07244713565
0.07244713546
0.07244713556
0.07244713605
0.0724471357
0.07244713589
0.07244713656
0.07244713709
0.0724471378
0.07244713723
0.07244713858
0.07244713793
0.07244713839
0.0724471395
0.07244713976
0.0724471365
0.07244713565
0.07244713608
0.07244713547
0.07244713547
0.07244713565
0.07244713551
0.07244713559
0.072447136
0.07244713571
0.07244713653
0.07244713661
0.07244713809
0.07244714099
0.07244713729
0.07244713545
0.07244713619
0.07244713693
0.07244713501
0.0724471349
0.072447135
0.07244713494
0.07244713497
0.07244713494
0.07244713494
0.07244713492
0.07244713491
0.0724471349
0.07244713493
0.07244713489
0.07244713497
0.07244713489
0.07244713503
0.07244713491
0.07244713497
0.07244713507
0.07244713494
0.07244713606
0.07244713589
0.07244713579
0.07244713572
0.07244713572
0.07244713572
0.07244713571
0.07244713566
0.07244713558
0.07244713523
0.07244713518
0.07244713608
0.07244713534
0.07244713531
0.07244713662
0.0724471363
0.07244713562
0.07244713546
0.0724471357
0.07244713583
0.07244713582
0.07244713577
0.07244713573
0.0724471357
0.07244713716
0.07244713724
0.07244713529
0.07244713687
0.07244713706
0.0724471353
0.07244713597
0.07244713595
0.07244713527
0.07244713339
0.07244709063
0.0724471005
0.07244712177
0.07244712886
0.0724471317
0.07244713711
0.07244713736
0.07244713758
0.07244713743
0.0724471372
0.07244713587
0.07244713576
0.07244713478
0.07244713309
0.07244713362
0.07244713199
0.07244713482
0.07244713482
0.07244713681
0.07244713693
0.0724471371
0.07244713754
0.07244713774
0.07244713778
0.07244713662
0.07244713596
0.07244713408
0.07244713254
0.07244713301
0.07244713562
0.07244713369
0.07244709142
0.07244713649
0.07244713651
0.07244713645
0.07244713684
0.07244713736
0.07244713755
0.07244713657
0.07244713676
0.07244713569
0.07244713195
0.07244713275
0.07244713546
0.07244713651
0.07244712972
0.07244713606
0.07244713594
0.07244713582
0.07244713548
0.07244713555
0.07244713675
0.07244713614
0.07244713668
0.07244713336
0.07244713133
0.072447133
0.07244713601
0.07244713665
0.07244713561
0.07244713565
0.07244713542
0.07244713524
0.07244713518
0.07244713613
0.07244713668
0.07244713599
0.07244713603
0.07244713639
0.07244713304
0.07244713404
0.07244713587
0.07244713621
0.07244713562
0.0724471355
0.07244713547
0.07244713539
0.07244713532
0.07244713583
0.07244713606
0.0724471363
0.07244713615
0.07244713582
0.07244713604
0.07244713592
0.07244713567
0.07244713555
0.07244713555
0.07244713554
0.0724471355
0.07244713557
0.07244714116
0.07244713572
0.07244713532
0.07244713494
0.072447135
0.07244713509
0.07244713515
0.07244713518
0.07244713517
0.07244713516
0.07244713513
0.07244713511
0.07244713522
0.07244713568
0.07244713546
0.07244713609
0.07244713872
0.07244713983
0.07244717308
0.07244717001
0.07244713539
0.0724471351
0.07244713523
0.07244713517
0.0724471352
0.07244713533
0.07244713551
0.07244713568
0.07244713582
0.07244713586
0.07244713611
0.072447136
0.07244727354
0.07244725471
0.07244724027
0.07244723719
0.07244713753
0.07244713881
0.07244713911
0.07244714126
0.07244714088
0.07244735741
0.07244769494
0.07244753047
0.07244748572
0.072447426
0.07244741733
0.07244741437
0.07244741499
0.07244741007
0.0724474157
0.07244740718
0.07244740002
0.07244738208
0.0724471372
0.07244713755
0.07244713995
0.07244737278
0.07244736676
0.07244735981
0.07244741806
0.07244737923
0.07244738519
0.07244738969
0.07244740183
0.07244737881
0.07244734852
0.07244736312
0.07244716448
0.07244714256
0.07244713766
0.07244713576
0.07244713616
0.07244713549
0.07244713564
0.07244713553
0.07244713565
0.07244713594
0.07244734013
0.07244729994
0.07244731713
0.07244732165
0.07244732065
0.07244731865
0.07244732697
0.07244735156
0.07244714331
0.07244733
0.07244732583
0.07244732716
0.07244732899
0.07244732744
0.07244732688
0.0724473344
0.07244735234
0.07244727952
0.07244733572
0.0724473306
0.07244733096
0.0724473351
0.07244733666
0.07244733681
0.07244734013
0.07244735118
0.07244736646
0.07244713501
0.07244713489
0.07244713566
0.07244713491
0.07244713501
0.07244713492
0.07244713558
0.07244713552
0.07244713491
0.07244713494
0.07244713499
0.07244713494
0.07244713548
0.07244713544
0.07244713498
0.07244713501
0.07244713495
0.07244713493
0.07244713539
0.07244713535
0.07244713503
0.07244713504
0.07244713493
0.07244713491
0.07244713533
0.07244713532
0.07244713504
0.07244713505
0.07244713492
0.07244713489
0.07244713531
0.07244713532
0.07244713503
0.07244713501
0.07244713495
0.07244713489
0.07244713533
0.07244713534
0.072447135
0.07244713499
0.072447135
0.0724471349
0.07244713535
0.07244713535
0.07244713498
0.07244713497
0.07244713506
0.07244713493
0.0724471353
0.07244713521
0.07244713497
0.07244713497
0.07244713514
0.07244713514
0.07244713497
0.07244713515
0.07244713516
0.07244713525
0.07244713516
0.07244713521
0.07244713539
0.07244713512
0.07244713559
0.07244713672
0.07244713954
0.07244713717
0.07244713735
0.07244713833
0.07244713753
0.07244714124
0.07244714274
0.07244713686
0.07244713673
0.07244713672
0.07244713666
0.07244713677
0.07244719732
0.07244718772
0.0724471803
0.07244713654
0.07244713637
0.07244717303
0.07244713592
0.07244713577
0.07244714291
0.0724471359
0.0724471363
0.07244713618
0.07244713598
0.07244716857
0.07244716408
0.07244716078
0.07244713632
0.07244713729
0.07244713842
0.07244713782
0.07244713598
0.07244713724
0.0724471371
0.07244713764
0.07244713746
0.07244713711
0.07244713597
0.07244713678
0.07244713577
0.07244714732
0.07244713681
0.0724471034
0.07244713593
0.07244713577
0.07244713586
0.07244718399
0.07244718182
0.07244719289
0.072447136
0.07244713593
0.072447136
0.07244720906
0.07244722305
0.07244723675
0.0724471358
0.07244713605
0.07244713609
0.07244722442
0.07244724942
0.07244725781
0.07244713557
0.07244713614
0.07244713613
0.07244723528
0.07244726474
0.07244727049
0.07244713555
0.07244713608
0.07244713597
0.07244724383
0.07244727559
0.07244728023
0.07244713554
0.07244713585
0.07244713574
0.07244723433
0.07244729616
0.07244731677
0.07244713553
0.07244713566
0.07244713563
0.07244718694
0.07244729411
0.07244725965
0.07244713555
0.07244713561
0.0724471356
0.07244715246
0.07244721905
0.07244719016
0.07244714056
0.07244713565
0.0724471356
0.07244716295
0.07244717423
0.07244716266
0.07244715994
0.07244713546
0.07244713719
0.07244713715
0.07244713841
0.07244713927
0.0724471424
0.07244714152
0.07244714141
0.07244714213
0.07244714416
0.07244714292
0.07244714373
0.0724471451
0.07244714433
0.07244714489
0.07244724321
0.07244722821
0.07244728832
0.0724472699
0.07244723433
0.07244721449
0.07244724791
0.07244718932
0.07244720045
0.07244720484
0.07244721786
0.07244713755
0.07244713689
0.07244700156
0.07244691072
0.072447195
0.07244725815
0.07244720702
0.07244727268
0.07244731512
0.07244730874
0.07244729896
0.07244733227
0.0724473376
0.07244731294
0.07244734518
0.07244735085
0.07244732349
0.07244735618
0.07244736099
0.0724473465
0.07244736666
0.07244737299
0.07244729269
0.07244735982
0.07244732896
0.07244720722
0.07244727339
0.07244722888
0.07244717517
0.07244720404
0.07244718888
0.07244718538
0.0724471834
0.0724471354
0.07244713518
0.07244713569
0.07244713596
0.07244713718
0.07244713759
0.07244713854
0.07244713943
0.0724471398
0.07244713957
0.07244714044
0.07244714058
0.07244714172
0.0724471407
0.07244714133
0.07244714213
0.07244714328
0.0724471428
0.07244714287
0.07244714468
0.07244715687
0.0724471433
0.07244714416
0.07244729726
0.0724473348
0.07244731916
0.07244729887
0.07244727668
0.07244729616
0.0724472307
0.07244721629
0.07244720215
0.07244726488
0.07244723688
0.07245085512
0.07244776936
0.07244727971
0.07244778952
0.07244755661
0.0724474537
0.07244740895
0.07244735029
0.07244739562
0.07244738772
0.07244736572
0.07244737492
0.07244738747
0.07244738823
0.07244739026
0.07244739228
0.07244738319
0.07244739338
0.07244738827
0.07244739339
0.07244738754
0.0724473565
0.07244737116
0.07244726025
0.07244734265
0.07244730444
0.07244720952
0.07244726918
0.07244723806
0.07244722801
0.07244713782
0.07244713696
0.07244713639
0.07244713548
0.07244713543
0.07244713542
0.07244713612
0.07244713638
0.07244713667
0.07244713698
0.07244713715
0.0724471361
0.07244713547
0.07244713548
0.07244713764
0.07244713718
0.07244713794
0.07244713916
0.07244713967
0.07244714047
0.07244713999
0.0724471426
0.07244714258
0.07244732009
0.072447253
0.07244736826
0.07244736366
0.07244736273
0.07244734666
0.07244736034
0.07244736732
0.07244733691
0.07244733197
0.07244731733
0.07244745833
0.07244749254
0.07244743625
0.07244745405
0.07244742803
0.07244740187
0.07244740094
0.07244740969
0.07244740252
0.07244740451
0.07244740989
0.07244740392
0.0724474084
0.07244740514
0.07244739313
0.07244738752
0.0724473824
0.07244738133
0.0724472561
0.07244725474
0.07244730248
0.07244732902
0.07244725781
0.0724472967
0.07244729471
0.07244791148
0.07244760047
0.07244757704
0.0724474438
0.07244741644
0.07244741083
0.07244741404
0.07244740968
0.07244741595
0.072447413
0.07244739775
0.07244739296
0.07244732975
0.0724473609
0.07244714335
0.07244714012
0.07244713825
0.07244713717
0.0724471358
0.07244713563
0.07244713552
0.07244713587
0.07244713606
0.0724471363
0.07244713653
0.07244715096
0.0724471547
0.07244714006
0.07244714567
0.07244713702
0.07244713861
0.07244713596
0.07244713651
0.07244713604
0.07244713556
0.07244713558
0.07244713546
0.07244713555
0.07244713547
0.07244713553
0.07244713593
0.07244713563
0.07244713575
0.07244713619
0.07244713594
0.07244713691
0.07244713643
0.07244713729
0.07244713666
0.07244713755
0.0724471383
0.0724471368
0.07244713775
0.07244713727
0.07244713914
0.07244713839
0.07244713888
0.07244713803
0.07244714391
0.07244714261
0.07244719142
0.07244715915
0.07244722961
0.07244732039
0.0724473706
0.0724473292
0.07244736895
0.07244735671
0.0724473586
0.07244737598
0.07244740186
0.0724473724
0.07244738975
0.07244736546
0.0724473584
0.07244735357
0.07244734317
0.0724473761
0.07244735846
0.07244736369
0.07244736927
0.07244738838
0.072447373
0.07244735478
0.07244737469
0.07244737453
0.07244735153
0.07244738688
0.07244737293
0.07244738331
0.07244737053
0.07244736784
0.07244736565
0.07244737066
0.07244736423
0.07244736479
0.07244735454
0.07244735519
0.07244733504
0.07244736958
0.0724473612
0.07244735382
0.07244748085
0.07244740885
0.07244740339
0.07244737103
0.07244738027
0.07244740388
0.07244738911
0.07244739815
0.07244737436
0.0724473711
0.07244736776
0.07244720173
0.07244735627
0.07244714919
0.07244734987
0.07244734177
0.07244713934
0.07244734012
0.07244734047
0.07244713671
0.07244734167
0.07244734189
0.07244713583
0.07244734009
0.07244733606
0.07244713555
0.07244733029
0.0724473241
0.07244713557
0.07244732123
0.07244732235
0.07244713578
0.0724473298
0.07244734167
0.07244713611
0.07244735815
0.07244713654
0.07244713684
0.0724473471
0.07244733596
0.07244728279
0.07244733045
0.07244732719
0.07244730909
0.07244732619
0.072447327
0.07244731906
0.07244732848
0.0724473296
0.0724473243
0.07244732961
0.0724473283
0.07244730873
0.07244732581
0.07244732346
0.07244732054
0.07244732313
0.07244732563
0.07244733793
0.07244733133
0.07244734057
0.07244736577
0.07244735247
0.07244736535
0.07244714469
0.07244719202
0.07244723714
0.07244714319
0.07244733428
0.07244733509
0.07244732696
0.07244733149
0.07244732855
0.07244732609
0.07244732706
0.07244732679
0.07244732835
0.07244732766
0.07244732909
0.07244732871
0.07244733037
0.07244733091
0.07244732638
0.07244733055
0.0724473302
0.07244732948
0.07244733082
0.07244733288
0.07244734214
0.07244733664
0.07244734278
0.07244736369
0.07244735142
0.0724473614
0.07244732399
0.07244734969
0.0724473661
0.07244720091
0.07244736321
0.07244733908
0.07244734692
0.07244735288
0.07244733245
0.07244734407
0.07244734042
0.0724473421
0.07244732988
0.07244733798
0.07244733665
0.07244733302
0.07244733299
0.07244733831
0.07244734109
0.07244733639
0.072447344
0.07244734581
0.0724473529
0.07244733656
0.07244734642
0.0724473462
0.07244733787
0.07244734574
0.07244734558
0.07244734442
0.07244734622
0.07244734848
0.07244734852
0.07244736027
0.0724473528
0.07244735851
0.07244735267
0.07244735622
)
;

boundaryField
{
    walls
    {
        type            zeroGradient;
    }
    wallFilmFace_top
    {
        type            zeroGradient;
    }
    region0_to_wallFilmRegion_wallFilmFace
    {
        type            zeroGradient;
    }
    mirrorFace_top
    {
        type            zeroGradient;
    }
    region0_to_wallFilmRegion_mirrorFace
    {
        type            zeroGradient;
    }
    procBoundary3to2
    {
        type            processor;
        value           nonuniform List<scalar> 
64
(
0.07244713883
0.07244713791
0.07244713694
0.0724471364
0.07244713622
0.07244713797
0.07244714234
0.07244716887
0.07244713521
0.07244713618
0.07244713656
0.07244713643
0.07244713643
0.07244713685
0.07244713631
0.0724471361
0.07244713598
0.07244713593
0.07244713638
0.07244713675
0.07244713656
0.07244713626
0.07244713611
0.07244713611
0.072447136
0.07244713599
0.07244713599
0.07244713594
0.072447136
0.072447136
0.07244713524
0.07244713583
0.07244713583
0.07244713628
0.07244713672
0.07244713501
0.07244713489
0.07244713578
0.07244713608
0.07244713499
0.0724471358
0.07244717668
0.07244730583
0.07244714659
0.07244713682
0.07244713548
0.07244713578
0.07244713499
0.07244713713
0.07244713821
0.07244713726
0.07244713665
0.0724471364
0.0724471361
0.07244713892
0.07244713567
0.07244713545
0.07244714992
0.07244713529
0.0724471352
0.07244717406
0.07244713924
0.07244713588
0.07244713531
)
;
    }
}


// ************************************************************************* //
