/*--------------------------------*- C++ -*----------------------------------*\
  =========                 |
  \\      /  F ield         | OpenFOAM: The Open Source CFD Toolbox
   \\    /   O peration     | Website:  https://openfoam.org
    \\  /    A nd           | Version:  8
     \\/     M anipulation  |
\*---------------------------------------------------------------------------*/
FoamFile
{
    version     2.0;
    format      ascii;
    class       volScalarField;
    location    "0.9/wallFilmRegion";
    object      T;
}
// * * * * * * * * * * * * * * * * * * * * * * * * * * * * * * * * * * * * * //

dimensions      [0 0 0 1 0 0 0];

internalField   nonuniform List<scalar> 
1342
(
299.9999992
299.9999867
299.9999745
299.9999844
299.9999902
299.9999918
299.9999935
299.9999839
299.9999877
299.9998105
299.9996784
299.9995846
299.9995221
299.9994736
299.9993826
299.9996348
299.9998383
299.9999625
299.9999981
299.9999665
299.9999574
299.9999506
299.9993707
299.9996611
299.9997856
299.9999881
299.9999911
299.9996037
299.9993673
299.9992207
299.999138
299.9990797
299.9990059
299.9990332
299.9994537
299.99973
299.9999924
299.9999826
299.9999739
299.9999614
299.9999546
299.9991191
299.9996644
299.9982875
299.9987856
299.9988394
299.998816
299.9987752
299.9987389
299.998773
299.9991702
299.9999914
299.9999951
299.9999968
299.9999972
299.9999966
299.9999949
299.9999926
299.9999899
299.9999828
299.9999726
299.9991117
299.9992693
299.9991996
299.9999833
299.9999915
299.999995
299.9999964
299.9999969
299.9999964
299.9999951
299.9999929
299.9999898
299.9999812
299.9989134
299.9990803
299.9999551
299.9999835
299.9999923
299.9999955
299.9999967
299.9999967
299.9999958
299.9999939
299.9999917
299.999989
299.9999852
299.9999186
299.9991918
299.9989288
299.9989916
299.9989844
299.9989266
299.9988977
299.998904
299.9989241
299.9989224
299.9988535
299.999999
299.9999988
299.999999
299.9999986
299.9999975
299.9999953
299.9999878
299.9999736
299.9999546
299.9999503
299.9999896
299.9999483
299.9999467
299.9999943
299.9999925
299.9999929
299.9999949
299.9999933
299.9999937
299.9999953
299.999994
299.9999942
299.9999956
299.9999943
299.9999943
299.9999955
299.9999941
299.9999942
299.9999955
299.9999943
299.9999944
299.9999957
299.9999945
299.9999947
299.999996
299.999995
299.9999952
299.9999968
299.9999954
299.9999958
299.9999982
299.9999963
299.9999946
299.9999917
299.9999935
299.9999932
299.9999939
299.999993
299.9999945
299.9999967
299.9999968
299.9999991
299.9999965
300.0000064
300.00001
299.9999952
300.000008
300.0000066
299.9999949
300.0000024
299.9999998
299.9999951
299.9999982
299.9999972
299.9999954
299.9999967
299.9999963
299.9999955
299.999996
299.9999961
299.9999925
299.9999939
299.9999884
299.999987
299.9999872
299.9999867
299.999993
299.9999866
299.999987
299.9999979
299.999992
299.9999964
299.9999943
299.9999946
299.9999947
299.9999955
299.9999949
299.9999962
300.0000006
299.9999989
300.0000021
300.0000124
300.0000076
300.000012
300.0002252
300.0000032
300.0000573
300.0001117
300.0002363
300.0002339
300.0000424
300.0002336
300.0002371
300.0000196
300.0002465
300.0002598
299.9999937
299.999992
299.999989
299.9999879
299.9999888
299.9999884
299.9999866
299.9999878
299.9999869
299.9999861
299.9999863
299.9999865
299.9999919
299.9999877
299.9999878
299.999995
299.9999943
299.9999949
299.9999969
299.9999956
299.9999977
300.0000038
300.0000019
300.0000056
300.0000125
300.00001
300.0000132
299.9999988
300.0000078
300.0000003
300.0002253
299.9999957
300.0000037
300
300.0002128
300
300.0001222
300.0001595
300.000002
299.9999897
299.9999906
299.9999905
299.9999891
299.9999903
299.9999902
299.9999876
299.99999
299.999989
299.9999857
299.999987
299.9999858
299.9999853
299.9999854
299.9999854
299.9999849
299.9999855
299.9999851
299.9999921
299.9999914
299.999991
299.9999985
299.9999925
299.9999927
300.0000075
299.9999939
300.0000053
300.000014
300.0000126
300.0000147
300.0000014
300.0000099
300.0000022
299.9999936
299.9999964
299.9999931
300.0002131
299.9999921
300.0000155
299.9999934
300.0000852
299.9999932
299.9999916
299.9999927
299.9999927
299.9999917
299.999993
299.9999934
299.9999915
299.9999937
299.999994
299.999988
299.9999952
300.0000081
299.9999863
300.0000036
299.9999943
299.9999858
299.9999898
299.9999864
299.9999905
299.9999929
299.9999914
299.9999917
299.9999899
299.9999899
300.0000101
300.0000003
300.0000136
300.0000154
300.0000162
300.0000159
300.0000027
300.0000104
300.000003
299.9999931
299.9999969
299.9999926
299.9999963
299.9999902
299.9999901
299.9999942
299.9999964
299.9999953
299.9999939
299.9999951
299.9999958
299.9999948
299.9999959
299.9999958
299.9999953
299.9999958
299.9999961
300.0000208
299.999997
300.0000017
299.9999925
299.9999939
299.9999921
299.9999938
299.9999939
299.9999923
299.9999935
299.9999924
299.9999903
299.9999915
299.9999909
300.0000164
300.000011
300.0000186
300.0000154
300.0000169
300.0000099
300.0000018
300.0000019
299.9999948
299.999991
299.9999918
299.9999918
299.9999945
299.9999938
299.9999959
299.9999957
299.9999963
299.9999962
299.9999965
299.9999965
299.999997
299.9999975
299.9999973
299.9999976
299.9999981
299.9999978
299.9999987
299.999996
299.999995
299.9999944
299.9999923
299.9999935
299.9999927
299.999994
299.9999945
299.9999932
299.9999945
299.999994
299.9999923
299.9999924
299.9999934
300.0000092
299.9999975
299.9999955
299.9999982
299.9999949
299.9999945
299.9999935
299.9999941
299.9999941
299.9999945
299.9999948
299.9999959
299.9999965
299.9999964
299.9999965
299.9999966
299.9999965
299.9999965
299.999997
299.9999966
299.9999967
299.9999974
299.9999968
299.9999971
300.0000002
299.9999962
299.9999958
299.9999991
299.9999975
299.9999993
299.9999988
299.9999991
299.9999989
299.999999
299.9999987
299.9999985
299.9999984
299.9999981
299.9999982
299.9999978
299.9999975
299.9999982
299.9999973
299.9999971
299.9999983
299.9999969
299.9999968
299.9999984
299.9999967
299.9999966
299.9999985
299.9999965
299.9999968
299.9999958
299.9999958
299.9999927
299.9999883
299.9999714
299.9999701
299.9999953
299.9999982
299.9999986
299.9999979
299.999997
299.9999961
299.9999952
299.9999944
299.9999933
299.9999956
299.9999978
299.9999973
299.9999968
299.9999963
299.9999928
299.9999929
299.999992
299.9999905
299.9999922
299.9999897
299.9999882
299.9999852
299.9999801
299.9999881
299.9999936
299.9999961
299.999994
299.9999953
299.9999971
299.9999962
299.999997
299.9999959
299.9999968
299.9999963
299.9999938
299.9999956
299.9999946
299.9999913
299.9999886
299.9999851
299.9999879
299.9999812
299.9999844
299.9999821
299.9999766
299.9999753
299.9999916
299.9999959
299.9999937
299.9999968
299.9999968
299.9999959
299.9999966
299.9999962
299.9999941
299.9999956
299.9999915
299.999991
299.9999836
299.9999691
299.9999877
299.9999968
299.9999932
299.9999894
299.9999991
299.9999996
299.9999991
299.9999994
299.9999993
299.9999994
299.9999994
299.9999995
299.9999996
299.9999996
299.9999995
299.9999997
299.9999993
299.9999997
299.999999
299.9999996
299.9999992
299.9999988
299.9999994
299.9999938
299.9999946
299.9999951
299.9999955
299.9999955
299.9999955
299.9999956
299.9999958
299.9999962
299.999998
299.9999982
299.9999937
299.9999974
299.9999976
299.999991
299.9999926
299.999996
299.9999968
299.9999956
299.999995
299.999995
299.9999952
299.9999955
299.9999956
299.9999883
299.9999879
299.9999977
299.9999898
299.9999888
299.9999976
299.9999943
299.9999943
299.9999978
300.0000072
300.0002215
300.000172
300.0000654
300.0000299
300.0000157
299.9999886
299.9999873
299.9999862
299.9999869
299.9999881
299.9999948
299.9999953
300.0000002
300.0000087
300.000006
300.0000142
300
300
299.9999901
299.9999894
299.9999886
299.9999864
299.9999854
299.9999852
299.999991
299.9999943
300.0000037
300.0000115
300.0000091
299.999996
300.0000057
300.0002175
299.9999916
299.9999915
299.9999918
299.9999899
299.9999873
299.9999863
299.9999912
299.9999903
299.9999956
300.0000144
300.0000104
299.9999968
299.9999915
300.0000256
299.9999938
299.9999944
299.999995
299.9999967
299.9999964
299.9999903
299.9999934
299.9999907
300.0000073
300.0000175
300.0000092
299.9999941
299.9999908
299.999996
299.9999959
299.999997
299.9999979
299.9999982
299.9999935
299.9999907
299.9999941
299.9999939
299.9999921
300.000009
300.0000039
299.9999948
299.9999931
299.999996
299.9999966
299.9999968
299.9999972
299.9999975
299.9999949
299.9999938
299.9999926
299.9999934
299.999995
299.9999939
299.9999945
299.9999958
299.9999964
299.9999964
299.9999964
299.9999966
299.9999963
299.9999682
299.9999955
299.9999975
299.9999994
299.9999991
299.9999987
299.9999984
299.9999982
299.9999982
299.9999983
299.9999984
299.9999986
299.999998
299.9999957
299.9999968
299.9999936
299.9999805
299.9999749
299.9998083
299.9998236
299.9999972
299.9999986
299.9999979
299.9999983
299.9999981
299.9999974
299.9999966
299.9999957
299.999995
299.9999948
299.9999936
299.9999941
299.9993048
299.9993991
299.9994715
299.999487
299.9999865
299.99998
299.9999785
299.9999678
299.9999696
299.9988845
299.9971928
299.9980171
299.9982414
299.9985407
299.9985841
299.998599
299.9985958
299.9986205
299.9985923
299.998635
299.9986709
299.9987608
299.9999881
299.9999863
299.9999743
299.9988074
299.9988376
299.9988724
299.9985805
299.9987751
299.9987452
299.9987227
299.9986618
299.9987772
299.998929
299.9988558
299.9998514
299.9999612
299.9999858
299.9999953
299.9999933
299.9999967
299.9999959
299.9999965
299.9999958
299.9999944
299.998971
299.9991725
299.9990863
299.9990636
299.9990687
299.9990787
299.999037
299.9989137
299.9999575
299.9990218
299.9990427
299.9990361
299.9990269
299.9990346
299.9990374
299.9989998
299.9989098
299.9992748
299.9989932
299.9990188
299.999017
299.9989963
299.9989884
299.9989877
299.998971
299.9989157
299.9988391
299.9999991
299.9999997
299.9999958
299.9999996
299.9999991
299.9999995
299.9999962
299.9999965
299.9999996
299.9999994
299.9999992
299.9999994
299.9999967
299.9999969
299.9999992
299.9999991
299.9999993
299.9999995
299.9999972
299.9999974
299.999999
299.9999989
299.9999995
299.9999995
299.9999975
299.9999975
299.9999989
299.9999989
299.9999995
299.9999996
299.9999976
299.9999975
299.999999
299.9999991
299.9999994
299.9999997
299.9999974
299.9999974
299.9999991
299.9999992
299.9999991
299.9999996
299.9999974
299.9999974
299.9999992
299.9999993
299.9999988
299.9999995
299.9999976
299.9999981
299.9999993
299.9999993
299.9999984
299.9999984
299.9999993
299.9999984
299.9999983
299.9999978
299.9999983
299.9999981
299.9999972
299.9999985
299.9999961
299.9999905
299.9999764
299.9999883
299.9999873
299.9999824
299.9999864
299.9999678
299.9999603
299.9999898
299.9999904
299.9999905
299.9999908
299.9999903
299.9996868
299.9997349
299.9997721
299.9999914
299.9999922
299.9998085
299.9999945
299.9999953
299.9999595
299.9999946
299.9999926
299.9999932
299.9999942
299.9998309
299.9998534
299.9998699
299.9999925
299.9999876
299.999982
299.999985
299.9999942
299.9999879
299.9999886
299.9999859
299.9999868
299.9999885
299.9999943
299.9999902
299.9999953
299.9999374
299.9999901
300.0001575
299.9999945
299.9999953
299.9999948
299.9997536
299.9997645
299.999709
299.9999941
299.9999944
299.9999941
299.999628
299.9995578
299.9994891
299.9999951
299.9999939
299.9999936
299.999551
299.9994257
299.9993836
299.9999962
299.9999934
299.9999935
299.9994965
299.9993489
299.9993201
299.9999964
299.9999937
299.9999943
299.9994537
299.9992945
299.9992712
299.9999964
299.9999949
299.9999954
299.9995013
299.9991914
299.9990881
299.9999965
299.9999958
299.999996
299.9997388
299.9992017
299.9993744
299.9999963
299.9999961
299.9999961
299.9999116
299.9995778
299.9997226
299.9999712
299.9999959
299.9999961
299.999859
299.9998025
299.9998605
299.9998741
299.9999968
299.9999881
299.9999883
299.999982
299.9999777
299.999962
299.9999664
299.999967
299.9999634
299.9999532
299.9999594
299.9999554
299.9999485
299.9999524
299.9999496
299.9994568
299.999532
299.9992307
299.999323
299.9995013
299.9996007
299.9994333
299.9997269
299.9996711
299.9996491
299.9995838
299.9999863
299.9999897
300.0006679
300.0011232
299.9996984
299.9993819
299.9996382
299.9993091
299.9990964
299.9991283
299.9991774
299.9990105
299.9989837
299.9991073
299.9989457
299.9989173
299.9990544
299.9988906
299.9988665
299.9989391
299.9988381
299.9988063
299.9992088
299.9988724
299.999027
299.9996372
299.9993055
299.9995286
299.9997978
299.9996531
299.9997291
299.9997466
299.9997565
299.9999971
299.9999982
299.9999957
299.9999943
299.9999882
299.9999861
299.9999814
299.9999769
299.9999751
299.9999762
299.9999719
299.9999711
299.9999654
299.9999705
299.9999674
299.9999634
299.9999576
299.99996
299.9999597
299.9999506
299.9998895
299.9999575
299.9999532
299.9991859
299.9989978
299.9990761
299.9991778
299.999289
299.9991914
299.9995195
299.9995917
299.9996626
299.9993482
299.9994885
299.9813547
299.9968198
299.9992738
299.9967188
299.9978861
299.9984019
299.9986261
299.9989201
299.9986929
299.9987325
299.9988428
299.9987967
299.9987338
299.9987299
299.9987198
299.9987097
299.9987553
299.9987042
299.9987298
299.9987041
299.9987334
299.998889
299.9988155
299.9993714
299.9989584
299.9991499
299.9996256
299.9993266
299.9994826
299.999533
299.999985
299.9999893
299.9999921
299.9999967
299.999997
299.999997
299.9999935
299.9999922
299.9999908
299.9999892
299.9999884
299.9999936
299.9999968
299.9999967
299.9999859
299.9999882
299.9999844
299.9999783
299.9999757
299.9999717
299.9999741
299.999961
299.9999612
299.9990715
299.9994077
299.99883
299.9988531
299.9988578
299.9989383
299.9988698
299.9988347
299.9989872
299.9990119
299.9990853
299.9983786
299.9982072
299.9984893
299.9984001
299.9985305
299.9986616
299.9986663
299.9986224
299.9986583
299.9986484
299.9986214
299.9986513
299.9986289
299.9986452
299.9987054
299.9987335
299.9987592
299.9987646
299.9993922
299.999399
299.9991597
299.9990267
299.9993836
299.9991887
299.9991987
299.9961075
299.9976662
299.9977837
299.9984514
299.9985886
299.9986167
299.9986006
299.9986225
299.9985911
299.9986058
299.9986823
299.9987063
299.999023
299.9988669
299.9999573
299.9999735
299.9999828
299.9999883
299.9999951
299.999996
299.9999965
299.9999947
299.9999938
299.9999926
299.9999914
299.9999191
299.9999004
299.9999738
299.9999456
299.999989
299.999981
299.9999943
299.9999915
299.9999939
299.9999963
299.9999962
299.9999968
299.9999964
299.9999967
299.9999965
299.9999945
299.9999959
299.9999953
299.9999932
299.9999944
299.9999895
299.9999919
299.9999876
299.9999908
299.9999863
299.9999826
299.9999901
299.9999853
299.9999877
299.9999784
299.9999821
299.9999797
299.9999839
299.9999545
299.999961
299.9997163
299.9998781
299.9995249
299.99907
299.9988183
299.9990258
299.9988266
299.9988879
299.9988785
299.9987914
299.9986617
299.9988093
299.9987224
299.9988441
299.9988795
299.9989037
299.9989558
299.9987908
299.9988792
299.9988529
299.998825
299.9987292
299.9988063
299.9988976
299.9987978
299.9987986
299.9989139
299.9987367
299.9988066
299.9987546
299.9988187
299.9988322
299.9988431
299.9988181
299.9988503
299.9988475
299.9988988
299.9988955
299.9989965
299.9988234
299.9988654
299.9989024
299.9982658
299.9986266
299.998654
299.9988162
299.9987699
299.9986515
299.9987256
299.9986802
299.9987995
299.9988158
299.9988325
299.9996647
299.9988901
299.999928
299.9989222
299.9989628
299.9999773
299.9989711
299.9989693
299.9999905
299.9989633
299.9989622
299.9999949
299.9989712
299.9989914
299.9999963
299.9990204
299.9990514
299.9999963
299.9990658
299.9990601
299.9999952
299.9990228
299.9989633
299.9999936
299.9988807
299.9999914
299.9999899
299.9989361
299.9989919
299.9992584
299.9990196
299.9990359
299.9991266
299.9990409
299.9990369
299.9990767
299.9990294
299.9990238
299.9990504
299.9990238
299.9990303
299.9991284
299.9990428
299.9990546
299.9990692
299.9990563
299.9990437
299.998982
299.9990152
299.9989688
299.9988425
299.9989092
299.9988446
299.9999506
299.9997133
299.9994872
299.9999581
299.9990004
299.9989963
299.9990371
299.9990144
299.9990291
299.9990414
299.9990365
299.9990379
299.9990301
299.9990336
299.9990264
299.9990283
299.9990199
299.9990172
299.99904
299.999019
299.9990208
299.9990244
299.9990177
299.9990074
299.998961
299.9989885
299.9989578
299.998853
299.9989145
299.9988644
299.999052
299.9989231
299.9988409
299.9996688
299.9988554
299.9989763
299.998937
299.9989072
299.9990095
299.9989513
299.9989696
299.9989612
299.9990224
299.9989818
299.9989885
299.9990067
299.9990068
299.9989802
299.9989662
299.9989898
299.9989516
299.9989426
299.9989071
299.9989889
299.9989395
299.9989406
299.9989824
299.9989429
299.9989437
299.9989495
299.9989405
299.9989292
299.998929
299.9988701
299.9989075
299.9988789
299.9989082
299.9988904
)
;

boundaryField
{
    walls
    {
        type            zeroGradient;
    }
    wallFilmFace_top
    {
        type            zeroGradient;
    }
    region0_to_wallFilmRegion_wallFilmFace
    {
        type            zeroGradient;
    }
    mirrorFace_top
    {
        type            zeroGradient;
    }
    region0_to_wallFilmRegion_mirrorFace
    {
        type            zeroGradient;
    }
    procBoundary3to2
    {
        type            processor;
        value           nonuniform List<scalar> 
64
(
299.9999799
299.9999845
299.9999894
299.9999921
299.999993
299.9999842
299.9999623
299.9998294
299.9999981
299.9999932
299.9999913
299.9999919
299.9999919
299.9999898
299.9999925
299.9999936
299.9999942
299.9999945
299.9999922
299.9999903
299.9999913
299.9999928
299.9999936
299.9999936
299.9999941
299.9999941
299.9999941
299.9999944
299.9999941
299.9999941
299.9999979
299.999995
299.999995
299.9999927
299.9999905
299.9999991
299.9999997
299.9999952
299.9999937
299.9999992
299.9999951
299.9997902
299.9991429
299.999941
299.99999
299.9999967
299.9999952
299.9999992
299.9999885
299.999983
299.9999878
299.9999908
299.9999921
299.9999936
299.9999795
299.9999958
299.9999968
299.9999244
299.9999976
299.9999981
299.9998034
299.9999778
299.9999947
299.9999976
)
;
    }
}


// ************************************************************************* //
