/*--------------------------------*- C++ -*----------------------------------*\
  =========                 |
  \\      /  F ield         | OpenFOAM: The Open Source CFD Toolbox
   \\    /   O peration     | Website:  https://openfoam.org
    \\  /    A nd           | Version:  8
     \\/     M anipulation  |
\*---------------------------------------------------------------------------*/
FoamFile
{
    version     2.0;
    format      ascii;
    class       volVectorField;
    location    "0.9/wallFilmRegion";
    object      U;
}
// * * * * * * * * * * * * * * * * * * * * * * * * * * * * * * * * * * * * * //

dimensions      [0 1 -1 0 0 0 0];

internalField   nonuniform List<vector> 
1342
(
(2.489768999 1.256979848 -3.05612742)
(-0.1166989539 -0.3325426418 -0.2304566006)
(0.1489675723 0.9475847965 -4.757127857)
(0.04201291527 -0.8007061308 -1.933382353)
(0.3356751207 -1.300669884 -0.2733478388)
(0.7465831982 -0.9590748213 -0.2050400603)
(0.7938851062 -0.6401585195 -0.1086817261)
(-1.558343718 -0.02384965483 -15.43481841)
(-0.7328064306 -0.02448798875 -15.63562042)
(-4.402542886 -0.006990747955 -5.807587137)
(-3.781602767 -0.007624874195 -5.995965466)
(-3.0064708 -0.008320214823 -6.20128258)
(-2.01843334 -0.009216173463 -6.433741441)
(-0.886081442 -0.01002626966 -6.587053207)
(0.5227229602 -0.009384386989 -5.713519169)
(0.652808795 -0.008734611037 -5.27799186)
(0.7547941625 -0.0824089231 -5.078106035)
(0.5876087555 -0.1704912517 -4.241560582)
(2.706149971 1.21003013 -3.169382705)
(2.936725792 7.0089441 -11.76423814)
(1.736535542 6.818693222 -15.22994749)
(0.4761807932 4.149172004 -14.65994687)
(0.841037613 -2.087188543 -7.026311396)
(1.027815865 -1.026370384 -6.212557214)
(0.8294981603 -0.4160596869 -5.502537814)
(-1.589209066 0.810864673 -14.66976191)
(-0.6885234226 0.8016522317 -14.84136591)
(-5.717180281 0.2859142932 -5.26921396)
(-5.051836738 0.291327507 -5.5060688)
(-4.153766862 0.3223842654 -5.815885352)
(-2.848941458 0.3385192897 -6.178018595)
(-1.163207693 0.3431445165 -6.438483398)
(0.5502766293 0.2726336869 -5.356635528)
(0.6937285518 0.2376204995 -4.919514687)
(0.776058646 0.1204096797 -4.706724719)
(0.5849979084 0.007172779198 -4.527384599)
(5.111082021 0.4227562019 -3.955039103)
(6.588094337 3.490455608 -6.485687281)
(6.925129083 5.789494093 -9.833143899)
(5.196701889 6.005780306 -15.94725819)
(3.734653049 3.573020107 -14.4261433)
(2.06549425 -1.578881281 -6.561812364)
(0.820423672 0.9006561441 -4.201030191)
(-6.620546354 1.22559351 -4.819364812)
(-5.918595179 1.294586618 -5.098938456)
(-4.891650528 1.382126933 -5.458606479)
(-3.299997807 1.479388944 -5.879928608)
(-1.273238313 1.578196731 -6.218555637)
(0.5683374562 1.273513497 -5.061916661)
(0.7210727385 1.167273168 -4.648713195)
(0.8565225757 1.023189234 -4.454146627)
(3.895256924 -5.318089005 -10.11449152)
(6.131506981 -4.65169116 -8.859254684)
(7.598158094 -4.062995858 -7.809840146)
(8.579448279 -3.596170359 -6.935932306)
(9.281033752 -3.252041066 -6.214829251)
(9.819031112 -2.963507663 -5.62760009)
(10.25959947 -2.704441965 -5.130278073)
(10.48497592 -1.586168992 -5.187161582)
(11.00113988 2.190552272 -7.255704517)
(10.19476076 5.520265422 -13.49265465)
(2.725100917 0.4565550708 -5.034539779)
(2.103139431 1.0550007 -4.275722365)
(1.016752229 1.740338928 -3.693241941)
(4.552677348 -6.31636931 -6.894815484)
(7.335204793 -5.501650193 -6.006301403)
(9.42928598 -4.885228974 -5.346886566)
(11.05418948 -4.405158616 -4.815031587)
(12.32545262 -4.006234043 -4.388701754)
(13.33220445 -3.706499157 -4.003914072)
(14.14151235 -3.434124118 -3.697966875)
(14.6798916 -2.166471387 -4.43076992)
(14.58677921 -0.2972610542 -5.961833535)
(13.99240024 3.525311662 -11.32509013)
(2.774930688 1.181289881 -3.358931304)
(1.472529904 1.942004176 -2.804444221)
(5.744445692 -4.59467371 -2.921527782)
(8.732864752 -3.813747794 -2.430486201)
(10.88644271 -3.324377981 -2.101661491)
(12.5529105 -2.957779559 -1.888539429)
(13.87842999 -2.695704344 -1.700690771)
(14.95620127 -2.472355351 -1.579140817)
(15.85060134 -2.30476863 -1.460171674)
(16.47753277 -1.351029077 -2.702013765)
(17.29128882 0.5501510241 -5.083678402)
(16.47259973 1.730872064 -7.94252533)
(17.76208524 1.59891025 -8.866063867)
(2.103079115 0.2683684583 -1.072924792)
(1.948736365 1.213037276 -1.391469452)
(-9.391432616 2.38707375 -1.167347793)
(-8.530937739 2.550828259 -1.249270947)
(-7.176885078 2.87259336 -1.399919095)
(-5.143840297 3.450622741 -1.675023808)
(-2.061062102 4.515692836 -2.190037265)
(0.6619230224 3.80362363 -1.855844706)
(0.9112096958 3.421764104 -1.669995948)
(1.351370067 2.925741619 -1.568978674)
(1.575111903 2.254686131 -1.678171002)
(2.497970851 0.955172627 -2.987232143)
(2.506678316 1.593211683 -3.171728003)
(2.499026319 1.26471223 -3.046728807)
(2.582257119 1.663142963 -3.238333119)
(2.40804863 2.3640755 -3.671540516)
(2.111798623 2.709522452 -4.194909395)
(-0.1442789152 -0.3016669997 -0.1253680286)
(0.04838663511 0.8084310153 -5.43474621)
(0.9801551347 6.546607204 -14.42521891)
(0.2901209705 5.575319406 -15.01347068)
(0.1979603744 -1.308184145 -0.3334222455)
(-0.2407434748 4.168355262 -14.26202665)
(0.08069703072 -0.6265495376 -10.50721133)
(-0.4232597161 0.03247403866 -5.239123813e-05)
(-0.4159182594 0.04132654493 -6.519981875e-05)
(-0.3511090838 0.04072279461 -6.566787634e-05)
(-0.2726827735 0.04068454576 -6.485005972e-05)
(-0.2907786952 0.04049196644 -6.392873084e-05)
(-0.2338465754 0.04094300567 -6.532163225e-05)
(-0.1419510175 0.04630291533 -7.369238879e-05)
(-0.1818505003 0.04226417428 -6.714089149e-05)
(-0.1334391283 0.0442661418 -7.066495635e-05)
(-0.01660246474 0.04776021765 -7.60025624e-05)
(-0.08218491405 0.0463995607 -7.3878988e-05)
(-0.01694346351 0.04743319191 -7.547163553e-05)
(0.1221853545 0.04727519178 -7.527466841e-05)
(0.03266729735 0.04805589872 -7.64703629e-05)
(0.07509513112 0.0481794215 -7.687595664e-05)
(0.2460167231 0.0461012957 -7.325587819e-05)
(0.1160142733 0.04780921796 -7.610737588e-05)
(0.1572360035 0.04738618778 -7.553363218e-05)
(0.3742787869 0.04513506666 -7.198147296e-05)
(0.1988255049 0.04705380083 -7.53985898e-05)
(0.2416669148 0.04698673492 -7.449770332e-05)
(0.5216659996 0.04538337811 -7.115484618e-05)
(0.2850793499 0.04715335092 -7.54563089e-05)
(0.3290733234 0.04752002217 -7.512397789e-05)
(0.8425368485 0.05870579096 -7.434207731e-05)
(0.3787967019 0.04839192574 -7.721460114e-05)
(0.4887122952 0.05136681178 -8.094479204e-05)
(1.489174668 0.2395091169 -0.0006208335245)
(1.034187002 0.08957547783 -0.000130969641)
(0.9750494973 0.02924299401 -5.538048697e-05)
(-0.2167522684 0.1467554367 -0.0002335275407)
(0.04976006116 0.3818130038 -0.0006083070284)
(-0.01412122539 0.3034573911 -0.0004834369035)
(-0.08423526371 0.05685318811 -9.051332486e-05)
(0.02175729433 0.2849377509 -0.0004537407986)
(0.07821368462 0.2580517852 -0.0004110752914)
(-0.0488137177 0.01019333631 -1.617409578e-05)
(0.1011399089 0.2150459101 -0.0003426903037)
(0.01537514113 0.03261886737 -5.192053112e-05)
(-0.02433065732 0.01094555039 -1.753427262e-05)
(-4.251227607e-05 0.0001588526616 -2.524856996e-07)
(-3.612747853e-05 3.762149319e-05 -5.999044713e-08)
(0.02200729418 0.01600197927 -2.551421352e-05)
(-1.104140821e-05 6.482999683e-05 -1.031907135e-07)
(0.0002220939714 0.0001595667662 -2.539581424e-07)
(0.07161396206 0.02471080765 -3.932346656e-05)
(0.00117738175 0.000509880667 -8.127872626e-07)
(0.003556821574 0.001173543703 -1.866658784e-06)
(0.1200709115 0.02939762148 -4.686494959e-05)
(0.008048253381 0.00221157422 -3.533600605e-06)
(0.01371436618 0.003305752466 -5.261663762e-06)
(0.1652785965 0.03212463936 -5.100111396e-05)
(0.02076060305 0.004465888626 -7.121651709e-06)
(0.03118454458 0.006055295559 -9.673498721e-06)
(0.2113741661 0.03451206646 -5.495348444e-05)
(0.03952555506 0.007054862542 -1.122970929e-05)
(0.05129144757 0.008367362717 -1.326899639e-05)
(0.1828065165 -0.0207940402 3.344696045e-05)
(0.03744806414 -0.02458666294 3.906494969e-05)
(-0.08039803952 -0.2259840234 0.0003592962887)
(-0.07446098848 -0.3403326945 0.0005423620769)
(-0.1017594642 -0.3070366128 0.0004887883666)
(-0.1663329306 -0.4204086731 0.0006690762614)
(0.6900320381 -0.03948377302 6.352287931e-05)
(-0.1372093576 -0.4575745625 0.0007290810127)
(-0.06888025601 -0.4733628693 0.0007539726342)
(0.5982761851 0.3279232991 -0.000522973285)
(0.4430962724 -0.09166128066 0.0001466648045)
(0.4967701475 0.2196829543 -0.0003509478624)
(0.03092142996 0.3674313578 -0.0005852633445)
(-0.02479586484 0.4505731369 -0.0007166832234)
(0.03266835291 0.3593053297 -0.0005719220449)
(0.09676031181 0.3579956137 -0.0005701201918)
(0.05404402865 0.3967418808 -0.0006325402787)
(0.08417143662 0.4077107977 -0.0006500502828)
(0.09189100644 0.1969764448 -0.0003139185828)
(0.1073546314 0.3726059926 -0.0005934609879)
(0.1081649495 0.2877593267 -0.0004577152708)
(0.0004057291579 0.000741679716 -1.180676901e-06)
(0.08593122866 0.1721085645 -0.0002738248354)
(0.0479644145 0.07057831574 -0.0001123677702)
(-3.568070305e-09 1.303299201e-08 -2.077972342e-11)
(0.003745885646 0.005252076382 -8.356512933e-06)
(-1.595413453e-06 6.07692721e-06 -9.664270258e-09)
(-1.100224832e-07 3.036159877e-07 -4.834385916e-10)
(4.078332359e-11 -6.454378837e-12 1.028068426e-14)
(6.214982757e-11 -1.663117625e-11 2.646269689e-14)
(-2.489438899e-07 2.366107533e-06 -3.7654574e-09)
(8.197265593e-11 -3.50692443e-13 5.368930501e-16)
(1.055210319e-10 7.237072739e-12 -1.146643757e-14)
(9.317223191e-06 1.04718054e-05 -1.669087495e-08)
(1.168612727e-10 2.607689868e-11 -4.147411002e-14)
(8.278221199e-11 8.17509523e-11 -1.303308127e-13)
(-0.001976002933 -0.004701310739 7.496708968e-06)
(-6.803646443e-06 -1.603889449e-05 2.555257615e-08)
(-0.04761615733 -0.1088740446 0.000173048123)
(-0.09952766099 -0.2806357233 0.0004474992472)
(-0.09491477114 -0.2706781337 0.0004304078729)
(-0.1869496239 -0.3912024844 0.0006227093918)
(-0.2424462048 -0.5725483473 0.0009124612559)
(-0.3434698907 -0.5524552003 0.000878442485)
(-0.2937860079 -0.6293600954 0.001001623312)
(-0.1854013584 -0.5868622656 0.0009331549453)
(-0.2049556105 -0.6412296668 0.001020546198)
(-0.1821262245 -0.5858388885 0.0009330672159)
(0.09866799381 -0.07804136266 0.0001240332193)
(-0.3088375281 -0.3805560908 0.0006065886645)
(-0.3579005977 -0.3449501338 0.0005505243567)
(0.03170571592 0.3417589575 -0.0005444976957)
(-0.005572967044 0.2678967762 -0.0004265114127)
(0.03514795766 0.3245297961 -0.0005164376429)
(0.06485672279 0.4459800329 -0.0007099659396)
(0.02935788325 0.4476938225 -0.0007127250775)
(0.04116727978 0.4824769183 -0.0007683749719)
(0.1045856415 0.3439388259 -0.0005480746677)
(0.07069193519 0.4460427271 -0.0007112621515)
(0.09254891073 0.3833997976 -0.0006111939677)
(0.08384032701 0.1500962176 -0.0002392544561)
(0.1014274959 0.2989838348 -0.0004757512456)
(0.09748133225 0.20805712 -0.0003312141842)
(0.009810613348 0.01269796224 -2.024054962e-05)
(0.08020421227 0.1298933253 -0.0002068257817)
(0.05284631306 0.07100062669 -0.0001131682512)
(-3.268213667e-10 8.621895893e-10 -1.373228912e-12)
(0.0141172135 0.01772526519 -2.824302619e-05)
(4.083886546e-05 0.0001178616629 -1.874915772e-07)
(1.262855905e-10 6.717179835e-11 -1.068024681e-13)
(-3.158652865e-09 6.185295925e-09 -9.838406062e-12)
(1.6114925e-10 1.045522062e-10 -1.662248318e-13)
(-1.180642544e-10 7.256604756e-10 -1.155382131e-12)
(1.854789785e-10 1.370349933e-10 -2.181679681e-13)
(-2.12850567e-07 -2.970902027e-07 4.731031217e-10)
(-0.09370397983 -0.2203887994 0.0003508423385)
(-0.02368170115 -0.04466227241 7.105844409e-05)
(-0.138146129 -0.2763020366 0.0004399777462)
(-0.2941601293 -0.4970258017 0.0007919576498)
(-0.1672863757 -0.4376853791 0.0006968833613)
(-0.3083820585 -0.5109271683 0.0008137754561)
(-0.2930096733 -0.5955848655 0.0009493044022)
(-0.3625796356 -0.4933465342 0.0007856301628)
(-0.3099346095 -0.5373555233 0.0008548170738)
(-0.1250385844 -0.6562184902 0.001044976249)
(-0.2147911238 -0.6052985307 0.0009642800006)
(-0.1304021937 -0.6574920995 0.001047817449)
(-0.2156341515 -0.6686628067 0.001064871428)
(-0.1120290881 -0.7136262299 0.001136906453)
(-0.1382639839 -0.7606221156 0.001212189915)
(0.1350569889 -0.5119158741 0.00081549919)
(-0.3028034855 -0.7146913663 0.001138189871)
(0.2263734873 -0.5249259706 0.000835382466)
(0.04846176185 0.06654374852 -0.0001059385324)
(0.1537962864 -0.07708319145 0.0001228691491)
(0.1645373738 -0.1073382757 0.00017143986)
(0.01260922119 0.5191881218 -0.0008269585047)
(0.08909681585 0.1088979819 -0.0001736134087)
(0.07755049711 0.1555054208 -0.0002472605415)
(0.07642938145 0.4110771019 -0.000654077154)
(0.01729672059 0.452558632 -0.0007207100419)
(0.06347153761 0.4236727575 -0.0006746835022)
(0.09995359594 0.2508605063 -0.0003997146651)
(0.08505621758 0.3558190443 -0.0005666866794)
(0.09706013937 0.2826386916 -0.000449709464)
(0.07439945224 0.1110837445 -0.0001766799535)
(0.09895981641 0.2105418682 -0.0003346043659)
(0.08743522537 0.1451517185 -0.0002310747009)
(0.01123389438 0.01421063379 -2.262064237e-05)
(0.06580106227 0.09333215791 -0.0001487456878)
(0.04222761991 0.05543060316 -8.828945958e-05)
(-1.865157295e-10 8.984867611e-10 -1.430516197e-12)
(0.006805644332 0.00909905003 -1.448512124e-05)
(-2.459611713e-07 1.544941351e-05 -2.459065745e-08)
(-9.671958291e-05 -0.0001153620358 1.840153215e-07)
(-8.084218278e-10 3.697537321e-09 -5.883242239e-12)
(-0.003245178785 -0.002359458493 3.752449299e-06)
(-0.1972568186 -0.2423324863 0.0003860135726)
(-0.1428240564 -0.1038393595 0.0001650770007)
(-0.2385085842 -0.1778878423 0.0002825202331)
(-0.2917086793 -0.4025620745 0.0006405352042)
(-0.279005713 -0.2294462417 0.000365370203)
(-0.2995330109 -0.2747390303 0.0004369303873)
(-0.3350591164 -0.4430145539 0.0007053916)
(-0.3128511626 -0.3053233461 0.0004858641688)
(-0.3301537545 -0.3283770051 0.0005232637139)
(-0.1689447368 -0.609320583 0.000969180462)
(-0.3336631163 -0.384553559 0.0006133235738)
(-0.2756374621 -0.5432370562 0.0008664068654)
(-0.03172475907 -0.8129214266 0.001293151198)
(-0.04317322661 -0.6918594497 0.001103518174)
(2.037274214 -0.8466145769 0.001350759805)
(0.3640139643 -0.5821049111 0.0009270275117)
(1.302437959 -0.6966626048 0.00111009791)
(0.6457131167 -0.5578533039 0.0008876186247)
(0.1612726298 -0.128561518 0.0002045753775)
(0.2404657045 -0.3491628062 0.0005571541294)
(0.1585867037 -0.2451172313 0.0003902728834)
(-0.2072808033 0.3702750432 -0.0005902769458)
(0.123510247 -0.1743856031 0.0002780362705)
(-0.06469229591 -0.09969315398 0.0001590488519)
(0.05332376892 0.4258357255 -0.0006783458929)
(-0.08591268113 0.5719820338 -0.0009122335418)
(0.0290447096 0.4406727339 -0.0007018488927)
(0.09137835344 0.3043522626 -0.0004852743283)
(0.06602093867 0.3732899547 -0.0005941112838)
(0.08519744301 0.3167666533 -0.000504145191)
(0.09490418873 0.1742350421 -0.0002774659318)
(0.09718067636 0.2577675842 -0.0004105136305)
(0.09848714548 0.1990394929 -0.0003169869311)
(0.05651924259 0.07765091471 -0.0001236157706)
(0.0836555232 0.1399649406 -0.0002228918636)
(0.06268162907 0.09918780933 -0.0001579732623)
(0.0002402236858 0.0004336062763 -6.912271819e-07)
(0.04170326402 0.06863917744 -0.0001094200824)
(0.009720842193 0.01559145335 -2.487433556e-05)
(-0.01186143626 -0.004850630598 7.70596842e-06)
(-0.004065208005 0.003415129491 -5.445781561e-06)
(-0.1915056337 0.1456756951 -0.0002319825357)
(-0.2690203005 -0.1184234256 0.0001890318798)
(-0.3364934032 0.1774455104 -0.0002832318126)
(-0.325599689 0.06984158168 -0.0001112013211)
(-0.2934040939 -0.1764428164 0.0002815209044)
(-0.2926173091 -0.03001958863 4.796237465e-05)
(-0.2736039769 -0.09048765334 0.0001441261852)
(-0.2928806003 -0.233970468 0.000372743574)
(-0.261648937 -0.1343177322 0.0002139731632)
(-0.2519596133 -0.169788022 0.0002702658956)
(-0.3217576815 -0.2911801572 0.0004635263248)
(-0.2472752401 -0.1966135208 0.0003133299201)
(-0.2906806879 -0.2146010893 0.0003412793898)
(1.88010568 -0.6028390207 0.0009616857555)
(1.766976273 -0.5174076278 0.0008223570557)
(1.782150809 -0.4053946225 0.0006449268023)
(0.2428663432 -0.3731329085 0.0005939719689)
(0.1385962202 -0.4352553863 0.0006929601259)
(0.03455996959 -0.3524230696 0.0005608702315)
(0.07943042983 -0.472787729 0.0007526298002)
(-0.1230995927 -0.2568445407 0.0004091719807)
(-0.01782551513 0.1140446982 -0.0001814203964)
(-0.2528686091 0.1123366512 -0.0001789891022)
(-0.003595358992 0.1725848851 -0.0002749309651)
(-0.02158999702 0.4814100909 -0.0007664472079)
(-0.1481700752 0.5355908529 -0.0008533761845)
(-0.08069587937 0.4394574888 -0.000700342489)
(0.07497655342 0.3144015026 -0.0005004902461)
(0.01285320246 0.3123928093 -0.0004976369826)
(0.02992633651 0.262683388 -0.0004183057709)
(0.08606214594 0.2106370731 -0.0003355942597)
(0.03315753515 0.2161773588 -0.0003443077967)
(0.01092594232 0.1636971488 -0.0002605715394)
(0.04054771264 0.09756046787 -0.000155514406)
(-0.05154718908 0.1250359524 -0.0001989539471)
(-0.1307416909 0.1438014683 -0.0002289287564)
(-0.1594590152 0.156199616 -0.0002484809317)
(-0.3114735807 0.287307923 -0.0004574361172)
(-0.4078902616 0.4425504114 -0.0007052069027)
(-0.4153788772 0.3956708035 -0.0006294081132)
(-0.4640915091 0.5049071563 -0.000803653386)
(-0.4393031733 0.4568175306 -0.0007277095738)
(-0.358233646 0.2252762916 -0.0003593434151)
(-0.3998470007 0.3816343864 -0.0006080248151)
(-0.3267249465 0.2884896757 -0.0004591467568)
(-0.2438024747 0.1199598894 -0.0001914875551)
(-0.2540297626 0.2236649265 -0.000355928008)
(-0.20183156 0.2048678409 -0.0003263182547)
(-0.1522253399 0.1486931919 -0.0002369938395)
(-0.1618977376 0.2119931604 -0.0003371570402)
(-0.1124765865 0.2368894048 -0.0003770932956)
(0.4304411689 -0.03204071709 5.06257689e-05)
(1.131235706 -0.07533052329 0.0001218135136)
(1.30789786 -0.1199749244 0.0001890708092)
(1.598540222 -0.2709212938 0.000428952479)
(1.328084561 -0.1765263569 0.0002810565464)
(1.400293867 -0.2123049059 0.0003385585859)
(0.04767474334 -0.3505005779 0.0005587914959)
(-0.1665115808 -0.1173836125 0.0001867459181)
(0.1261531952 -0.2104696876 0.0003353246485)
(0.08293391349 -0.08123441518 0.0001293408715)
(0.1963977131 0.05810902677 -9.243245403e-05)
(-0.04880307711 0.3269788074 -0.000520235192)
(0.03279818443 0.4013867683 -0.00063909751)
(-0.1620821709 0.4097200001 -0.0006521842486)
(-0.1154309579 0.3086973391 -0.0004909482033)
(-0.1329251583 0.3999111248 -0.0006373102944)
(-0.1151879723 0.2472548869 -0.0003944649283)
(-0.01507891887 0.2128841145 -0.0003393980476)
(-0.09710842405 0.2251532736 -0.0003589315639)
(-0.1028891665 0.2301248794 -0.0003663172713)
(-0.102555201 0.1915323993 -0.0003051513694)
(-0.134241512 0.2348192233 -0.000373686707)
(-0.1829520547 0.2591032575 -0.0004119448868)
(-0.2676084679 0.307654508 -0.0004901418797)
(-0.2314235558 0.312669522 -0.0004976506676)
(-0.2553422746 0.3865657753 -0.0006160072214)
(-0.3467740944 0.4530034333 -0.0007216606377)
(-0.2446188509 0.4387548018 -0.0006991943322)
(-0.2326099397 0.4688148481 -0.0007481317694)
(-0.3554598676 0.4244840816 -0.0006758928204)
(-0.2390947765 0.4838553101 -0.0007710507978)
(-0.2830488597 0.4879718502 -0.0007764604021)
(-0.3223679402 0.3424453512 -0.0005462480827)
(-0.3524246984 0.4244479629 -0.0006744045248)
(-0.3479369091 0.3717990238 -0.0005919245741)
(-0.2483570197 0.2871527557 -0.0004581012883)
(-0.316501132 0.3155688481 -0.0005018712518)
(-0.2441992283 0.2684441921 -0.0004279496702)
(-0.09245259417 0.281979019 -0.0004433482853)
(0.661995902 -0.05348716454 0.0001900846906)
(0.7612888111 -0.08076371451 2.420173535e-05)
(0.4620726719 -0.5439224911 -9.852880919)
(1.087279594 -1.71269517 -11.1258889)
(0.8774185274 -0.3919085979 -7.103282024)
(1.571598927 -1.483384446 -9.621562333)
(1.841756065 -1.293880286 -8.408608393)
(0.9506774091 -0.2902552947 -5.390046021)
(1.962300198 -1.13394803 -7.373652881)
(2.015387601 -1.007838819 -6.497704216)
(0.9715111591 -0.2261539474 -4.314169827)
(2.041249595 -0.8912589923 -5.779819712)
(2.067399345 -0.801406106 -5.195321388)
(1.12391588 -0.1852536816 -3.697176621)
(2.115822008 -0.7299264561 -4.736355352)
(2.219888571 -0.6816484835 -4.382888855)
(1.468451653 -0.163105878 -3.291287484)
(2.329597156 -0.6373386518 -4.067103539)
(2.495181143 -0.6024681893 -3.825552628)
(1.84550148 -0.1557243946 -3.065610843)
(2.672824971 -0.5633881273 -3.631257405)
(2.840562396 -0.5383211869 -3.469423153)
(2.208334814 -0.1091383266 -2.924574979)
(2.992764681 -0.5282833491 -3.325493576)
(3.134649086 -0.4828537988 -3.202960796)
(2.441700255 0.3201399484 -2.921352689)
(3.218870216 -0.1832698596 -3.174978869)
(3.151979835 0.0842029382 -3.149611671)
(3.476769595 0.8145606508 -3.42927133)
(3.424696122 1.095289482 -3.521693534)
(4.017068924 1.910240367 -4.165844979)
(4.120030279 3.079898036 -5.234049874)
(3.516611323 6.151345697 -9.793438776)
(4.914504747 6.537390666 -10.86133488)
(1.59390731 -3.018511626 -11.85143099)
(2.79723085 -2.370931579 -9.300994988)
(3.280216943 -1.89607877 -7.534137164)
(3.410558066 -1.561164713 -6.13912475)
(3.568734696 -1.304182842 -5.162262761)
(3.858917914 -1.119643048 -4.491961704)
(4.270546004 -1.023386368 -4.033178524)
(4.633521576 -0.9169939449 -3.677634618)
(1.852958779 -4.489652599 -11.6811722)
(2.806524619 -4.01240495 -10.45903743)
(4.469212713 -2.538142679 -6.534397185)
(4.60900263 -2.333679837 -6.042173181)
(4.776746841 -2.18461968 -5.613936542)
(4.971933492 -2.04830614 -5.249094719)
(6.326285871 -1.561809047 -4.12220958)
(5.171584779 -0.05279025352 -3.842393062)
(6.487908038 -1.03557184 -4.154027107)
(7.13459633 -0.3582988836 -4.507794316)
(4.896830199 0.8179618615 -4.021851605)
(7.005402431 0.2251033273 -4.63097926)
(5.592300802 2.112444589 -4.990807273)
(7.911628238 1.841347521 -5.749989579)
(8.368586173 3.601022545 -7.384384047)
(2.299034404 -5.710108358 -10.8486372)
(5.131190217 -4.958392881 -9.465286624)
(6.94069958 -4.34021529 -8.31305823)
(6.582013755 -5.377324378 -7.84155479)
(7.519271297 -5.064796415 -7.371531488)
(8.135996998 -3.839883183 -7.336443856)
(8.301220574 -4.759665809 -6.95872884)
(8.957312771 -3.424806607 -6.550097758)
(9.564788158 -3.104278653 -5.90614403)
(10.38831367 -3.825474586 -5.633170327)
(10.74823794 -3.671273814 -5.35849336)
(10.04938273 -2.817720799 -5.378304831)
(11.07285316 -3.515467802 -5.119927597)
(11.37140516 -3.359021286 -4.912562866)
(10.4415068 -2.518782974 -4.934976886)
(10.3973091 -0.7210646175 -5.45713502)
(10.35207409 0.9989560968 -6.213565179)
(12.08440279 -0.1904540367 -6.044519163)
(10.53630636 2.940887586 -7.751787377)
(12.59823134 1.993257641 -7.680994404)
(12.88225461 3.041640954 -8.827409858)
(12.18996216 4.577620559 -12.60402204)
(2.670279979 -6.845341391 -7.484827416)
(9.15459294 -4.709088072 -3.78684778)
(10.29267924 -4.661932824 -5.038257146)
(10.1740664 -4.405167944 -3.580534001)
(13.23107101 -3.582492819 -2.890710931)
(13.80435748 -3.419786326 -2.771064802)
(13.75806844 -3.546894381 -3.86122282)
(14.32072465 -3.287598352 -2.644705771)
(14.78783079 -3.152544374 -2.548757195)
(14.48736835 -3.211682214 -3.65988777)
(15.2117764 -3.048919611 -2.437399787)
(14.69213946 -1.104838416 -5.277036519)
(16.10513166 0.3463050018 -5.685234998)
(15.99754312 2.514326159 -10.34021963)
(7.833463403 -3.56368686 -1.730435677)
(10.29954377 -3.000867022 -1.479983889)
(14.77671994 -2.195623986 -1.086920823)
(16.90095414 -0.4975588903 -3.616991632)
(17.87578481 1.153767362 -6.984567611)
(-1.278076471 0.002748154958 -4.331118639e-06)
(-0.703067973 -0.009253483035 -5.57954177)
(-1.197075495 0.001316361726 -2.203862281e-06)
(-0.7261569119 -0.00692387285 -4.114531001)
(-0.9589162584 -0.0002910285215 1.320201554e-06)
(-0.7155452975 -0.005745751068 -3.375054662)
(-0.5748718643 -0.001382806171 1.328162928e-06)
(-0.4679848881 -0.005169560715 -3.090784903)
(0.07920303747 -0.001483495427 2.439773184e-06)
(0.1746553257 -0.004690827074 -2.999125063)
(0.7060016489 -0.002217093774 2.116310203e-06)
(0.8590278907 -0.004252732521 -2.950704733)
(1.188760078 -0.002814874373 5.159569248e-06)
(1.412901636 -0.003930216378 -2.930758166)
(1.579837853 0.05438662123 -7.304269583e-05)
(1.923679281 0.1795880382 -2.927782028)
(2.473340716 0.9274643858 -3.010519627)
(1.845793079 0.2848026014 -0.0004198610774)
(2.275850631 0.6083520548 -2.958290887)
(-0.5092561719 0.02934599413 -4.577099775e-05)
(-0.3459645598 0.03673291567 -5.779355975e-05)
(-0.2047886569 0.04391145651 -7.000081931e-05)
(-0.07726078558 0.047502437 -7.579084102e-05)
(0.05751449152 0.04753846917 -7.557109259e-05)
(0.1845335069 0.04673387502 -7.440612603e-05)
(0.3081204819 0.04552552537 -7.264692444e-05)
(0.4456430767 0.04505065716 -7.267656778e-05)
(0.6164748356 0.04711257462 -7.437627382e-05)
(1.380674601 0.168750066 -6.273946744e-05)
(1.659500407 0.498221397 -0.0009742069625)
(0.7893757807 0.738537024 -2.206587601)
(1.112648131 0.417075803 -0.0006640735724)
(1.923618213 1.540015092 -2.924980565)
(-0.2367928463 0.1651999159 -0.0002632246407)
(-0.1670176831 0.1260777912 -0.0002006749775)
(-0.03234330515 0.005377773811 -8.636359382e-06)
(-0.03600785078 0.01030484152 -1.638170891e-05)
(-0.008057145269 0.0131585249 -2.098031823e-05)
(0.04659314536 0.02092693302 -3.342256225e-05)
(0.09633322792 0.02743802514 -4.369192585e-05)
(0.142802514 0.03085244409 -4.935752215e-05)
(0.1880195874 0.03334175827 -5.328136105e-05)
(0.2359413943 0.03555194602 -5.679115788e-05)
(0.021494457 -0.2136305712 0.0003404608762)
(0.06186210075 -0.3452684849 0.000550409461)
(1.005156793 0.299907517 -0.0004777754569)
(0.008741697678 -0.01512842343 -1.160869331)
(-0.189400354 -0.3018565209 -0.354440524)
(0.467169538 0.247651639 -0.0003934265828)
(0.04366971804 0.4144144984 -0.0006604829036)
(0.06043496441 0.3665530055 -0.0005835901791)
(0.1160358538 0.3166790638 -0.0005041014395)
(0.03084040677 0.05247920294 -8.36517414e-05)
(-5.957206519e-08 1.947796231e-07 -3.104837254e-10)
(-2.48575197e-08 6.988214647e-08 -1.113795807e-10)
(-2.964824305e-07 1.049523116e-06 -1.669730835e-09)
(1.008587598e-06 4.561207116e-06 -7.262487444e-09)
(2.135510772e-05 1.456316882e-05 -2.321525176e-08)
(-0.08712975238 -0.2099045463 0.0003344703745)
(-0.2180678748 -0.4352166159 0.0006947055523)
(-0.2091608779 -0.6198380572 0.0009877437056)
(-0.2095061819 -0.4560302758 0.0007252222662)
(-0.6645934839 -0.3835417347 0.0006100393762)
(0.009470634789 0.3580774129 -0.0005709510299)
(0.04230019807 0.4213650444 -0.0006704319655)
(0.09076197565 0.4127743091 -0.0006567460993)
(0.1019384558 0.2474748431 -0.0003947577033)
(0.05411642441 0.0752870781 -0.0001200628157)
(4.344477491e-06 4.153734327e-05 -6.619120671e-08)
(1.068905338e-10 4.306785683e-11 -6.855773196e-14)
(1.531447405e-10 8.536819517e-11 -1.356050252e-13)
(-0.002018258773 -0.004443465854 7.069016489e-06)
(-0.0811859869 -0.3630887946 0.0005795047014)
(-0.3788718162 -0.5560209278 0.0008863528984)
(-0.197588105 -0.6303299521 0.001003840566)
(-0.07142070777 -0.7140253496 0.00113703314)
(-0.3217911212 -0.6082898997 0.0009672863258)
(0.1599838329 -0.1035065368 0.0001653729831)
(0.02396847691 0.2366392987 -0.0003770642668)
(0.046090305 0.4761325075 -0.0007574827106)
(0.09384306846 0.333957415 -0.0005315440069)
(0.09359013688 0.1742458186 -0.000277650839)
(0.04745214567 0.0624870735 -9.9376895e-05)
(1.20734435e-05 5.804033961e-05 -9.245034025e-08)
(2.273459474e-10 2.06447795e-10 -3.291335011e-13)
(-0.08387778565 -0.100659227 0.0001607108422)
(-0.2447147592 -0.3319030319 0.0005292192007)
(-0.3414933515 -0.4078161456 0.0006487282586)
(-0.2740159052 -0.5354020251 0.0008522864298)
(-0.09732257064 -0.6139514696 0.00097719436)
(-0.3546501835 -0.8506507438 0.001352940594)
(0.1737597948 -0.2135685627 0.0003397675527)
(0.1696976768 -0.1320074392 0.0002104930359)
(-0.04490865138 0.5434018303 -0.0008656295804)
(0.07566603626 0.3679214316 -0.0005867880246)
(0.09932187296 0.2383322957 -0.0003800307463)
(0.07798428939 0.1191685299 -0.0001897314149)
(0.02213811788 0.02883358609 -4.591516192e-05)
(-3.453980187e-08 8.690984936e-08 -1.385624742e-10)
(-0.1852376018 -0.07781409383 0.0001239761555)
(-0.2944434169 -0.14536129 0.00023182999)
(-0.2893169526 -0.2069333724 0.0003299354342)
(-0.3098755409 -0.253190947 0.0004034038813)
(0.6059925201 -0.4429323127 0.0007052620393)
(1.8748321 -0.4899730706 0.000780459923)
(0.1864892983 -0.4078452936 0.0006493426817)
(-0.2482643315 -0.1506581171 0.0002396725107)
(-0.1272834069 0.5642172585 -0.0008982278093)
(0.05635384356 0.3662875624 -0.0005831241379)
(0.08809526137 0.2625510395 -0.0004179824603)
(0.05585998335 0.1404450073 -0.000223948102)
(-0.003079861948 0.04210592997 -6.707822761e-05)
(-0.4169082523 0.4101367181 -0.0006533267448)
(-0.4159407311 0.3349437555 -0.00053264588)
(-0.2934449357 0.1437904991 -0.0002288720005)
(-0.1978993393 0.1310019199 -0.0002081946329)
(-0.1200279108 0.157818708 -0.0002511652855)
(1.570268582 -0.2660122688 0.000423979615)
(1.686514164 -0.3876864305 0.000619879175)
(0.08517631309 -0.3577550541 0.0005705303685)
(0.0791274189 -0.3134222879 0.0004997457419)
(-0.1415104268 0.4630322094 -0.0007373266254)
(-0.1502480576 0.4811161015 -0.0007661753119)
(-0.04179293139 0.2258531871 -0.0003595698351)
(-0.04762321667 0.1901644258 -0.0003031070515)
(-0.1724096261 0.2159559439 -0.0003442641347)
(-0.3247700011 0.4086499466 -0.0006508679228)
(-0.3595978786 0.4544298468 -0.0007233620011)
(-0.3452683243 0.3852096136 -0.0006135425225)
(-0.2876792202 0.3082226176 -0.000491730836)
(-0.2119099665 0.2778501079 -0.0004422800482)
(0.9902711902 -0.1474245848 0.000229301398)
(1.18133145 -0.1800830396 0.0002865025565)
(-0.3583562105 -0.07230013706 0.0001152149697)
(0.02901192485 0.1614070021 -0.0002568968909)
(-0.4867982364 0.1233446323 -0.0001969094738)
(-0.1810041441 0.09176598501 -0.0001462836017)
(-0.1997079419 0.2208494633 -0.0003520452511)
(-0.2121553547 0.331831986 -0.0005285423139)
(-0.1490565391 0.4125227823 -0.0006569267853)
(-0.2124053444 0.3538011606 -0.0005636686222)
(-0.2793521391 0.3062532099 -0.0004872194783)
(-0.318346908 0.2086693019 -0.0003312236024)
(0.6639869488 -0.09071936626 0.000290636453)
(0.4062020273 -0.207833796 -4.387676331)
(0.8153021164 -0.1416416881 0.0001843076141)
(-0.6692302464 -0.705585446 -12.70448195)