/*--------------------------------*- C++ -*----------------------------------*\
  =========                 |
  \\      /  F ield         | OpenFOAM: The Open Source CFD Toolbox
   \\    /   O peration     | Website:  https://openfoam.org
    \\  /    A nd           | Version:  8
     \\/     M anipulation  |
\*---------------------------------------------------------------------------*/
FoamFile
{
    version     2.0;
    format      ascii;
    class       scalarField;
    location    "0.8/lagrangian/reactingCloud1";
    object      d;
}
// * * * * * * * * * * * * * * * * * * * * * * * * * * * * * * * * * * * * * //


229
(
0.0005150376612
0.0005378062505
0.0005917148202
0.0006973834281
0.0005792954762
0.0005005422704
0.00112511123
0.0005226696961
0.0006906261129
0.0008118138873
0.0005360261967
0.0007749696145
0.0009157261777
0.0006078408121
0.0005043713441
0.0005292404381
0.0008407863429
0.0005402075917
0.0009067806686
0.0006122959026
0.0006806075175
0.0008940757366
0.0007669265336
0.0007414735311
0.0005394079337
0.0005276654035
0.0005219698323
0.000517777835
0.0005636957306
0.0005429886757
0.0005528940031
0.001019924692
0.0007532151152
0.0005489638439
0.0008012197961
0.0006119023409
0.0005494220659
0.0006197620099
0.0005417181792
0.0007403721161
0.0005677458533
0.0005119124888
0.0005791125993
0.0005127200985
0.0005196381826
0.0008169523123
0.0005085523761
0.0006542514865
0.0008420242643
0.0008628293842
0.0005636957306
0.0005167827085
0.001089396173
0.0005599482459
0.0005008881275
0.001142400744
0.0008946519085
0.0006362990015
0.0006268356689
0.0006735200017
0.0005004021749
0.001026318196
0.0008533749189
0.0006304111317
0.0006332468146
0.0005078406666
0.0005380312029
0.0009460447805
0.001020121836
0.0007541753432
0.0005835652308
0.000524537891
0.0008259797953
0.0009117126465
0.0005858459327
0.0007434015306
0.0007915422636
0.0005880987713
0.000709171271
0.0006103275135
0.0006831092983
0.0006833817644
0.0005359459351
0.0007005168229
0.000546396792
0.0005886754605
0.0007981773752
0.0006269447177
0.0008552576017
0.0005474166427
0.0007704691484
0.0005516653332
0.0006467477976
0.0005521946869
0.0005234640289
0.0007893807893
0.0005247982488
0.0006184742267
0.000533506078
0.0005665743101
0.001042045238
0.0009244545387
0.0009524226152
0.0006201352731
0.000722058247
0.0008846708226
0.0009105329714
0.0006856854143
0.0007062206356
0.0005113710384
0.0005793205803
0.0005701707177
0.0007351772888
0.0006314915633
0.0007540963997
0.0008590880547
0.0008977553596
0.0007443006471
0.0005209213335
0.0005726184425
0.0008128028533
0.000746802102
0.0007316455987
0.001171960001
0.001039158074
0.0005411952594
0.000508070795
0.0005272422973
0.0005437965447
0.0008105892089
0.0006394293781
0.0006610790348
0.0007301990769
0.0006381193364
0.001029972214
0.0005597596124
0.000849148393
0.0005331210055
0.00072809097
0.000632160165
0.0006072478891
0.0005258571132
0.0007977222998
0.0005840297256
0.00114821645
0.0007001249046
0.0005024124484
0.0008283353735
0.0007605094543
0.000719952717
0.0007014659743
0.0005895893902
0.001079961443
0.0007198317345
0.0005212770924
0.0005542147371
0.000618010942
0.000846393237
0.0006557633465
0.0006286463945
0.0006362990015
0.0005497112485
0.000695264881
0.0009762013359
0.0007849637921
0.00053200974
0.0008329314519
0.0006088530777
0.0006532976282
0.000548452688
0.0006679170894
0.000798412272
0.0008278298158
0.0009730315248
0.0006006217517
0.0008392779277
0.0007065396652
0.0006898733781
0.0005152252702
0.0006664293631
0.001035868636
0.0006251452602
0.0006197598923
0.0007677139732
0.0008369074052
0.0008248851971
0.0006488612148
0.0006318813039
0.0006008790845
0.0005880987713
0.0005509889141
0.0007260140523
0.0005251251211
0.0006246258127
0.0007838866682
0.0007113468745
0.0006332468146
0.0008282307095
0.0009494196694
0.0007596520716
0.0007687975909
0.001026681883
0.0009475471297
0.00074295505
0.0006935796377
0.0007531481036
0.0007313749466
0.0005227627559
0.0006516593492
0.0005945304816
0.0007035182967
0.001080711796
0.0005657371147
0.000658261236
0.0005659072505
0.0006877534905
0.0007099934585
0.0008133518931
0.0007302050388
0.0005216235091
0.0009692959135
0.001169019674
0.001198197942
0.0005250752483
0.0005227627559
0.0007223227446
0.0005528940031
0.0005549332298
0.0006842959714
)


// ************************************************************************* //
