/*--------------------------------*- C++ -*----------------------------------*\
  =========                 |
  \\      /  F ield         | OpenFOAM: The Open Source CFD Toolbox
   \\    /   O peration     | Website:  https://openfoam.org
    \\  /    A nd           | Version:  8
     \\/     M anipulation  |
\*---------------------------------------------------------------------------*/
FoamFile
{
    version     2.0;
    format      ascii;
    class       Cloud<basicReactingMultiphaseParcel>;
    location    "0.8/lagrangian/reactingCloud1";
    object      positions;
}
// * * * * * * * * * * * * * * * * * * * * * * * * * * * * * * * * * * * * * //

229
(
(0.2043574823 0.04107244308 0.1597432023 0.5948268723) 521 1547 1
(0.4854085319 0.1056786391 0.07028160813 0.3386312209) 1363 1131 2
(0.05829144083 0.2135321441 0.1296055448 0.5985708702) 1129 3223 2
(0.1536386425 0.08169302407 0.6557779543 0.1088903791) 2042 3111 2
(0.08869669953 0.835319116 0.06489862031 0.01108556414) 2440 7177 1
(0.05457525289 0.6157934474 0.08168590049 0.2479453992) 5919 17359 2
(0.1746916547 0.08151093751 0.2364398933 0.5073575145) 3186 9259 1
(0.02083837326 0.1704320931 0.7153426881 0.09338684555) 4393 12901 1
(0.03014252312 0.7087858218 0.2129868381 0.04808481701) 5110 14992 1
(0.0216259916 0.2105345188 0.4190320107 0.3488074789) 4200 12326 2
(0.1117039663 0.4891773736 0.1822384703 0.2168801899) 6078 17828 2
(0.5719823597 0.28498057 0.1129766504 0.03006041997) 4361 12806 2
(0.1187201611 0.4459413304 0.04899810323 0.3863404053) 5072 14878 1
(0.1906577817 0.2415137583 0.1892210239 0.3786074361) 6032 14856 2
(0.07344217842 0.001713935669 0.8580528867 0.06679099924) 6885 20188 2
(0.1538544011 0.1191115187 0.103587139 0.6234469413) 6031 17687 1
(0.009201222058 0.4186546711 0.3203687184 0.2517753885) 6080 17833 1
(0.2361338702 0.01127061557 0.4328465063 0.3197490079) 8901 26107 2
(0.172445064 0.2426035241 0.01267175089 0.572279661) 7039 17823 2
(0.2114064238 0.5075332814 0.234609016 0.04645127878) 7846 23004 2
(0.1345382115 0.2863654386 0.3402637592 0.2388325907) 2106 6186 2
(0.3464353579 0.2048245351 0.3814853886 0.06725471848) 6969 20438 1
(0.03633181855 0.2848859483 0.08511312084 0.5936691123) 7038 20643 1
(0.1527496521 0.3928989876 0.2131174867 0.2412338736) 8001 23464 2
(0.3461889508 0.4027276635 0.0434903544 0.2075930312) 8961 26196 1
(0.2144232526 0.2422045933 0.4916926492 0.05167950495) 9794 28719 2
(0.08089079542 0.3233995644 0.5208604535 0.07484918666) 8961 26281 2
(0.2148879349 0.1120824943 0.0292953573 0.6437342135) 8892 26076 2
(0.6086171756 0.03537229747 0.001398741907 0.354611785) 4144 12161 1
(0.5083649866 0.04621590937 0.0609841503 0.3844349538) 5742 16864 1
(0.3068499309 0.2968478948 0.04784171815 0.3484604562) 10839 31697 1
(0.4392410808 0.3073088774 0.06547089648 0.1879791453) 9889 28999 2
(0.2696853292 0.2298029171 0.4620315209 0.0384802328) 4067 11934 1
(0.3040189281 0.1759534688 0.3094011032 0.2106264999) 10839 31783 1
(0.05008104992 0.1652316508 0.4939324749 0.2907548244) 9912 28978 1
(0.4354144893 0.002553893825 0.3879691446 0.1740624723) 10864 31768 2
(0.3581066703 0.2676418147 0.22907554 0.145175975) 12621 36970 1
(0.3039447278 0.2885851319 0.3425280826 0.06494205771) 10864 31768 1
(0.6321737464 0.177867434 0.05707353406 0.1328852856) 9927 26304 1
(0.03411056948 0.858998452 0.03708656922 0.06980440932) 11768 34476 1
(0.1894761106 0.07043314298 0.3557501273 0.3843406192) 10864 31768 1
(0.1702631421 0.4561460553 0.346491595 0.02709920762) 11813 34520 2
(0.01731763459 0.5961359517 0.1779881642 0.2085582496) 11730 34364 2
(0.127936637 0.5800758705 0.08281191635 0.2091755762) 11813 34520 2
(0.07371542658 0.523847645 0.2105933976 0.1918435308) 11813 34520 1
(0.1263672284 0.2766721691 0.1056975188 0.4912630837) 11767 34473 1
(0.4383280682 0.3235610172 0.02081786446 0.2172930501) 13660 40015 2
(0.1841155871 0.4426004442 0.05840537755 0.3148785912) 12712 37158 1
(0.3234356122 0.02702822913 0.2308895158 0.4186466428) 11782 34518 2
(0.1303744782 0.3242253275 0.1167706398 0.4286295546) 12617 36876 2
(0.1145571567 0.18052381 0.3780281796 0.3268908537) 13535 39649 1
(0.2094911808 0.09062296084 0.2836509136 0.4162349448) 13533 39557 2
(0.09479137769 0.108097272 0.3424939926 0.4546173578) 12621 36975 1
(0.6804399531 0.09753012764 0.1232583421 0.09877157719) 13610 39782 2
(0.03708407352 0.7730040498 0.04103991741 0.1488719593) 14472 42392 1
(0.1529165273 0.01107397205 0.1520298832 0.6839796174) 13568 39741 1
(0.1837065217 0.2102121425 0.4859526305 0.1201287053) 13606 39770 1
(0.03162325308 0.01947740802 0.8146874414 0.1342118975) 14414 39555 1
(0.1143134335 0.1102215787 0.3606718701 0.4147931177) 14443 39643 2
(0.09341002437 0.4628135646 0.1774942436 0.2662821674) 14512 42428 1
(0.542970026 0.08550780018 0.1948331298 0.176689044) 14534 42578 1
(0.01180611351 0.4600731549 0.1699996953 0.3581210363) 13597 39831 1
(0.05886195677 0.5850148014 0.2389517154 0.1171715265) 14484 42428 2
(0.1113857608 0.2011154103 0.3261442259 0.361354603) 14441 42300 1
(0.03594063164 0.2614639781 0.07283559755 0.6297597927) 15352 44968 2
(0.02100115104 0.1891486638 0.383841966 0.4060082191) 14469 42301 1
(0.4590908342 0.1687687059 0.09333727484 0.2788031851) 15445 45244 1
(0.3261911984 0.1092881586 0.5532375072 0.01128313585) 3321 9656 1
(0.0950654012 0.6669341805 0.2342671149 0.003733303463) 15413 45145 2
(0.2957088956 0.01466640485 0.08238835028 0.6072363493) 16234 47553 2
(0.09166518024 0.1848668338 0.2926803765 0.4307876094) 16254 44966 1
(0.178036927 0.01148607212 0.1123029807 0.6981740202) 16320 203830 2
(0.03980396745 0.6298775785 0.277791608 0.05252684599) 16377 47973 1
(0.07253894798 0.3874518188 0.1996276887 0.3403815446) 16264 47641 1
(0.4037292598 0.05911627922 0.3072857358 0.2298687252) 16255 47615 1
(0.1509284528 0.1650766766 0.4627051702 0.2212897004) 16248 47511 2
(0.199891231 0.2385526144 0.2204610079 0.3410951467) 16230 206206 1
(0.6019569432 0.2022594364 0.161646564 0.03413705651) 17191 50361 2
(0.0661482539 0.2687764537 0.485847287 0.1792280054) 17170 50294 2
(0.03638861294 0.1752723842 0.7836161551 0.004722847818) 18114 52981 2
(0.1029784782 0.5297600954 0.3633023702 0.003959056228) 9911 29063 1
(0.4215751293 0.4837628546 0.08403397228 0.01062804382) 17153 47592 2
(0.2895504645 0.05947100805 0.5104868129 0.1404917146) 18084 52892 2
(0.1635558735 0.464986986 0.144243841 0.2272132995) 16376 47885 1
(0.0443965167 0.2554394033 0.1336153709 0.5665487091) 17153 50243 2
(0.04051265522 0.3044116252 0.09335015057 0.5617255691) 18084 52892 2
(0.4603211592 0.1974261288 0.3269979194 0.01525479265) 18168 53226 2
(0.452798804 0.3098615155 0.07927090005 0.1580687804) 18137 53136 1
(0.2211177404 0.5302970061 0.1563332189 0.09225203457) 14581 42627 1
(0.009336482938 0.2220763114 0.3382681465 0.4303190592) 18068 52926 1
(0.5453145776 0.1790532908 0.1980632507 0.07756888085) 14568 42674 1
(0.2871801997 0.2416459119 0.1888583732 0.2823155152) 19084 55827 1
(0.170145763 0.1131255091 0.6823721885 0.0343565394) 9985 29283 2
(0.01267543446 0.2842305541 0.6917208166 0.01137319481) 19054 55824 2
(0.01536664537 0.5029062536 0.03834938149 0.4433777195) 18983 55613 2
(0.5666751972 0.03750011248 0.03678006093 0.3590446294) 18970 55576 2
(0.269548349 0.4275375029 0.06106211949 0.2418520286) 19970 58506 1
(0.1993834638 0.3919229646 0.2553007604 0.1533928111) 19944 58429 1
(0.4988000115 0.3333925088 0.07566834114 0.09213913855) 19941 58425 2
(0.0147523675 0.5381910249 0.2888777307 0.1581788769) 19884 58254 2
(0.2946587675 0.1313333583 0.02128620138 0.5527216728) 10936 32072 1
(0.1200956593 0.7814327923 0.07432928454 0.02414226385) 18279 53467 2
(0.6437197385 0.01802846887 0.3157992649 0.02245252769) 10968 32161 1
(0.06541008424 0.1305062246 0.02937826134 0.7747054298) 19972 58512 2
(0.291511164 0.349504742 0.3505271135 0.008456980474) 20800 60964 1
(0.02753203392 0.02015716024 0.1282561371 0.8240546688) 19162 56055 2
(0.1059559951 0.2278570373 0.3081664558 0.3580205118) 20024 58671 2
(0.0657090689 0.4593332792 0.2257824981 0.2491751538) 20801 206359 1
(0.3578666097 0.06173506433 0.108564153 0.471834173) 20090 58777 1
(0.405938272 0.1201473393 0.1187319718 0.3551824168) 1081 293 1
(0.04629756867 0.4095645511 0.3204125889 0.2237252914) 55526 61219 1
(0.1579499955 0.3646987124 0.2439251209 0.2334261712) 55620 168969 2
(0.1012837106 0.001892885197 0.09127414005 0.8055492641) 20887 61215 3
(0.1430939563 0.3886887868 0.3378603268 0.1303569301) 3068 9009 2
(0.06695959477 0.003423362913 0.6224427851 0.3071742572) 23874 71567 1
(0.03634912645 0.7207819827 0.002735301498 0.2401335894) 11719 34331 1
(0.675395412 0.09792325504 0.08184031007 0.1448410229) 1103 3245 2
(0.1876658605 0.3344644145 0.2974838431 0.1803858819) 4050 11880 1
(0.4509563003 0.3430103332 0.04766957677 0.1583637897) 5992 17486 2
(0.1790251866 0.177958287 0.4050245852 0.2379919411) 4019 11792 2
(0.1401020923 0.3401281752 0.4518631971 0.0679065354) 22703 67322 1
(0.5056649933 0.3214099948 0.08528829612 0.08763671584) 56315 67317 2
(0.1276002658 0.5659030697 0.2731775784 0.03331908617) 19078 55894 2
(0.3019789804 0.2353532841 0.4112467902 0.0514209453) 55333 168246 2
(0.06022981078 0.4051573083 0.2887340963 0.2458787846) 4048 11786 2
(0.3899945587 0.04434545662 0.1466670705 0.4189929142) 5962 17487 1
(0.1095583358 0.4139450844 0.3799819921 0.09651458771) 10971 32175 1
(0.06238207297 0.0302809702 0.2241985337 0.6831384232) 19173 56088 2
(0.5210033718 0.2222624063 0.2342673508 0.02246687113) 5087 12074 2
(0.152505439 0.7342425 0.08247867278 0.03077338822) 23008 68579 1
(0.3260244948 0.02437275857 0.4740386519 0.1755640948) 23008 65422 2
(0.2373500819 0.3159448336 0.343494292 0.1032107925) 23008 65422 1
(0.1344860718 0.2804079063 0.5467808166 0.03832520533) 23107 65716 2
(0.09695215139 0.8329835768 0.03019306557 0.03987120622) 23008 68578 2
(0.01869619843 0.5329899048 0.4122996689 0.0360142279) 23041 68673 2
(0.03899485055 0.1279309245 0.3983013835 0.4347728414) 22184 65716 1
(0.17415488 0.5338018108 0.2443594997 0.04768380951) 24519 73504 1
(0.2111728714 0.02087188819 0.5094469675 0.2585082729) 23008 68578 1
(0.08912911366 0.511223873 0.02803716215 0.3716098512) 58207 175418 1
(0.2276690156 0.06802942773 0.3819228917 0.322378665) 23041 68579 2
(0.1443593914 0.4653567972 0.1568535598 0.2334302516) 22152 65621 1
(0.1310053959 0.4900492176 0.2519175491 0.1270278373) 59084 175418 1
(0.00490663655 0.1927210837 0.6286902281 0.1736820516) 13663 37348 2
(0.4524963127 0.1478703384 0.3117861847 0.08784716416) 59147 177676 2
(0.1014488829 0.4826022496 0.2638256846 0.1521231829) 22977 68392 2
(0.1706245381 0.5477278955 0.2143418302 0.06730573624) 58868 177046 1
(0.02252921188 0.8744125976 0.05567048649 0.04738770401) 20091 56187 2
(0.4832632666 0.2585034314 0.2564429927 0.001790309299) 20090 58777 2
(0.1607703713 0.2861167386 0.5225531472 0.03055974294) 58079 175078 1
(0.07464903323 0.3265923708 0.5280181109 0.07074048505) 23011 65431 2
(0.02768029718 0.1545653875 0.2405021594 0.5772521559) 59237 77060 1
(0.1338667954 0.5179168822 0.01697279646 0.3312435259) 20091 58780 1
(0.09990965133 0.3339083863 0.470054416 0.09612754632) 22978 68491 2
(0.2364337402 0.3876830437 0.04866688369 0.3272163324) 59088 177536 2
(0.0706225958 0.6088245723 0.1556123822 0.1649404497) 35655 111548 2
(0.2232590099 0.04590389417 0.5278346035 0.2030024925) 58876 177051 1
(0.3269342339 0.337765036 0.1174988886 0.2178018415) 20091 58780 1
(0.05379229537 0.6379129243 0.03913680379 0.2691579766) 23078 68689 2
(0.1558029587 0.3478225837 0.4356344045 0.06074005315) 59089 177548 2
(0.555682483 0.1289948993 0.002089795859 0.3132328218) 18112 53062 2
(0.4789223134 0.04494614934 0.3105706538 0.1655608835) 36619 114584 2
(0.2574327715 0.2367131198 0.03002726716 0.4758268415) 23045 68689 2
(0.6604327562 0.172067994 0.05734796958 0.1101512802) 59234 177897 1
(0.3479158113 0.4239506846 0.06226938148 0.1658641227) 23935 71749 2
(0.1801138516 0.2748106447 0.3950892349 0.1499862688) 22948 65244 2
(0.1548677842 0.07268525832 0.3769514755 0.395495482) 23013 65437 2
(0.0185714538 0.006327794582 0.2825414928 0.6925592588) 20092 58868 2
(0.3912030014 0.2057350765 0.3697287047 0.03333321739) 23936 68595 2
(0.5371465998 0.09267273167 0.151802561 0.2183781075) 55267 203169 1
(0.197043137 0.2960281381 0.1408890961 0.3660396288) 27675 84447 1
(0.1962056808 0.04943468273 0.5206763217 0.2336833147) 23871 71447 1
(0.1374021015 0.04716820132 0.4653435645 0.3500861327) 23013 65437 2
(0.2865311624 0.3996439485 0.06625783252 0.2475670566) 57893 174637 2
(0.1527876122 0.1690120112 0.1943005304 0.4838998461) 58867 177031 1
(0.01095390412 0.7307680734 0.05031305577 0.2079649667) 54798 166859 2
(0.5191730831 0.01699817615 0.2438823318 0.219946409) 23936 71751 1
(0.2686730009 0.3195034703 0.2784320379 0.1333914908) 59832 179340 2
(0.0335936184 0.2073936331 0.5549140285 0.20409872) 24795 71563 2
(0.00202388666 0.5264440168 0.08447756582 0.3870545307) 22981 68499 2
(0.3839742844 0.03090640522 0.14741126 0.4377080505) 21042 62018 1
(0.2786583569 0.3994236212 0.04447683705 0.2774411849) 21041 58962 1
(0.03148283196 0.1817373267 0.4677284172 0.3190514242) 22058 65342 1
(0.1459059285 0.560672327 0.1452381048 0.1481836397) 54799 166876 1
(0.1300584972 0.1894479908 0.6290359695 0.05145754256) 54805 166892 1
(0.1766890519 0.1524748881 0.2436708232 0.4271652367) 59832 179356 1
(0.5714876699 0.1960427554 0.2097529824 0.02271659235) 54636 166457 2
(0.6374508556 0.0594252812 0.2611387662 0.04198509691) 8817 23042 1
(0.07793054091 0.4366770801 0.2620464572 0.2233459218) 54792 166858 1
(0.07801804598 0.4396046523 0.07655806506 0.4058192367) 59843 179374 2
(0.2544940129 0.2797771163 0.3499315955 0.1157972752) 40241 122501 1
(0.1244396613 0.1827001905 0.536544906 0.1563152422) 22027 65250 1
(0.2100485077 0.09067186322 0.3662731044 0.3330065247) 59850 179401 1
(0.05420338903 0.3534454149 0.4797649995 0.1125861966) 54640 166457 1
(0.1965143725 0.09004775065 0.01912630682 0.69431157) 54794 166864 1
(0.1176280491 0.07241923477 0.5991467432 0.2108059729) 21966 62032 1
(0.01615836594 0.7823057634 0.07604362228 0.1254922484) 56154 65005 2
(0.537400222 0.2262322512 0.02233037685 0.2140371499) 18967 55567 2
(0.1973204876 0.4651967939 0.1025082095 0.234974509) 23051 68707 1
(0.1517264632 0.1810563923 0.5962729383 0.07094420625) 21012 61898 1
(0.02000866119 0.0233959937 0.828729065 0.1278662801) 55949 169821 2
(0.3025005974 0.5545639548 0.1296465662 0.01328888155) 56825 68019 1
(0.2657749416 0.1860039986 0.2779839226 0.2702371372) 56052 169821 2
(0.3461328373 0.3081819384 0.06937272478 0.2763124995) 56931 172266 2
(0.196245672 0.1787338619 0.1362372343 0.4887832318) 56929 172003 1
(0.02471066204 0.7426779109 0.1320062862 0.1006051409) 55949 169809 1
(0.1320046493 0.02431217048 0.7948139737 0.04886920661) 59953 179636 1
(0.06361245436 0.06126607999 0.7314710501 0.1436504156) 59947 179615 1
(0.154446655 0.1564196888 0.4185815731 0.2705520831) 54689 166595 2
(0.05978236685 0.6602517694 0.03308015228 0.2468857115) 56157 170301 2
(0.6612174298 0.03087526557 0.1688444412 0.1390628634) 56832 172002 1
(0.2699727468 0.2159465594 0.1690147635 0.3450659303) 55949 169822 1
(0.3172754724 0.06073889997 0.1049096864 0.5170759413) 56155 170305 1
(0.2406016681 0.01626338304 0.2733864352 0.4697485137) 56157 170309 1
(0.03802441501 0.2441604814 0.5551672069 0.1626478967) 56163 170309 1
(0.5614381786 0.3843149844 0.01378053745 0.04046629955) 54794 166743 1
(0.2235086909 0.02730349956 0.525762193 0.2234256165) 55747 169302 2
(0.067913682 0.4281600132 0.02341299352 0.4805133112) 55745 169294 2
(0.7474466727 0.08588405924 0.08433055289 0.08233871516) 56163 170321 2
(0.2149614569 0.04172248372 0.4255788044 0.317737255) 56937 172284 2
(0.4945529651 0.1173202439 0.08889708875 0.2992297023) 6056 17671 1
(0.1764900777 0.3758138982 0.2821778062 0.1655182179) 21874 64634 1
(0.2959970682 0.55881727 0.09445772402 0.0507279377) 54774 166812 2
(0.3959063532 0.03569730628 0.3920277271 0.1763686134) 20982 61756 3
(0.14192654 0.3467543924 0.4534505563 0.05786851137) 54774 166813 1
(0.1757576587 0.4765378301 0.2265780417 0.1211264695) 13513 206123 1
(0.3566137621 0.4520653727 0.1867734955 0.004547369722) 29975 88880 3
(0.1416310157 0.5820565237 0.02483392879 0.2514785319) 33061 102683 1
(0.4795829369 0.01001485216 0.3086361944 0.2017660166) 55851 205314 1
(0.2602953635 0.3966948082 0.04277104843 0.3002387799) 54802 203038 1
)


// ************************************************************************* //
