/*--------------------------------*- C++ -*----------------------------------*\
  =========                 |
  \\      /  F ield         | OpenFOAM: The Open Source CFD Toolbox
   \\    /   O peration     | Website:  https://openfoam.org
    \\  /    A nd           | Version:  8
     \\/     M anipulation  |
\*---------------------------------------------------------------------------*/
FoamFile
{
    version     2.0;
    format      ascii;
    class       vectorField;
    location    "0.8/lagrangian/reactingCloud1";
    object      U;
}
// * * * * * * * * * * * * * * * * * * * * * * * * * * * * * * * * * * * * * //


229
(
(0.3655800353 -0.4000783324 0.2175831404)
(-0.02438033046 0.1707584823 -1.781386831)
(0.009419156526 0.002451356833 -1.869077898)
(-0.2339077763 -0.04074998068 -2.164456857)
(-0.1400003034 0.3578577143 -1.971162225)
(-0.3079385802 -0.05355142939 -1.784178981)
(-0.2208287299 0.09394368363 -2.09901783)
(-0.1301547238 0.404856606 -1.925488875)
(-0.06286642236 0.08134500067 -1.903725442)
(-0.1520680161 0.1598496037 -2.011447257)
(-0.05181184614 0.07642999251 -1.772960881)
(-0.1087227072 0.4292089595 -2.064223056)
(-0.3175196816 0.02491001033 -1.971573292)
(-0.5813990146 0.0423922532 -1.917969383)
(-0.3050654558 -0.04772508823 -1.705561577)
(-0.5760521546 0.04779221549 -1.841511423)
(0.03489619683 0.06486990388 -1.923775711)
(-0.1189399196 0.03929088357 -1.572455539)
(-0.118921702 0.08105138466 -1.941046387)
(-0.3716969625 -0.105836775 -1.770194)
(-0.4479358879 0.01096252687 -1.851607421)
(-0.6760160861 -0.003021994089 -1.911281155)
(-0.1584280334 0.07916557945 -1.865131738)
(-0.07077329083 0.06663848247 -1.855929345)
(-0.06906316523 0.05830748449 -1.720079069)
(-0.4975291037 -0.06293670199 -1.710799598)
(-0.0755454497 0.05692087678 -1.703468385)
(-0.5786099204 -0.02738970188 -1.719820187)
(0.1062256142 0.1782213425 -1.702839213)
(0.07363353542 0.980521163 -2.912262641)
(-0.2473213153 0.05244778975 -1.611864829)
(-0.1400705229 0.05009091943 -1.854356992)
(-0.5542519904 -0.002950267998 -1.925262113)
(-0.2062894476 0.05813508285 -1.617211167)
(-0.4461879941 0.0626470677 -1.832872019)
(-0.4259778409 0.07853714093 -1.771976367)
(-0.1956561565 -0.0123167725 -1.489845823)
(-0.4517559919 0.07529379525 -1.788291923)
(0.1094230587 0.1785857097 -1.570541753)
(0.1301551348 0.003960273943 -1.66371684)
(-0.455934288 0.07274715501 -1.773862959)
(-0.4536812722 0.07369044788 -1.752319814)
(-0.2821495092 0.007184279742 -1.588773833)
(-0.4600986577 0.07289534701 -1.745711148)
(-0.4660597073 0.07154080726 -1.736709239)
(0.1144955282 0.002731811265 -1.678530859)
(0.08742294668 0.1919886774 -1.458849918)
(0.0446837388 0.01128584153 -1.571523857)
(-0.5334688294 0.0559557249 -1.748069743)
(-0.3262666547 -0.0836165428 -1.684395941)
(-0.2533151167 -0.01895460482 -1.441747977)
(-0.3042457954 -0.07467305569 -1.543438349)
(-0.1133303311 -0.0876857313 -1.676381614)
(-0.7507928162 0.03746799856 -1.567575386)
(-0.2336101931 -0.03840228907 -1.473881319)
(-0.005234761703 0.1364533462 -1.671002568)
(-1.009888709 0.02077035753 -1.597759846)
(-0.3611197359 -0.09070129046 -1.576593991)
(-0.3199564553 -0.06552327438 -1.584163211)
(-0.9952479268 0.01956172821 -1.464405829)
(-0.005400820107 0.111551268 -1.475032383)
(-0.01724162896 -0.01753107814 -1.623296081)
(-1.092445843 0.01453015122 -1.549691903)
(-0.4002421073 -0.07004642365 -1.583350727)
(-0.2787400971 0.01549906064 -1.479344997)
(-0.4177491449 -0.05076371036 -1.538770382)
(0.1699730876 0.1768515811 -1.417120912)
(-0.4610570818 0.5477112924 -3.400679721)
(-0.01060755072 0.01739894536 -1.550305167)
(0.1243959079 -0.06887051085 -1.38197373)
(-0.3373935309 -0.01404111176 -1.439901065)
(0.1985497543 0.1174119854 -1.272167867)
(0.08724181873 0.212222805 -1.512404382)
(0.2228670839 0.07422395908 -1.421656536)
(-0.321722651 0.007438195378 -1.417705419)
(-0.6104634051 -0.08735477106 -1.510267439)
(-0.005996221385 -0.1474896052 -1.471472858)
(-0.2796622084 0.04592370265 -1.351393149)
(0.2114937268 0.0328007823 -1.339715628)
(0.2198897941 0.06107296306 -1.275946997)
(-0.8483456443 0.3278639116 -3.135194947)
(-0.7170100296 -0.07702335769 -1.45780386)
(0.1970204977 0.03277817894 -1.263484004)
(-0.2119427811 0.08913086407 -1.50516014)
(-0.7246087792 -0.05722600355 -1.417334755)
(0.1996011439 0.02515214436 -1.269845472)
(0.06038336298 0.2799233751 -1.349585544)
(-0.1858433456 0.1066055919 -1.297229177)
(-1.000134182 0.3930349381 -2.955629362)
(-0.7498031544 -0.04937430749 -1.379831183)
(-0.1356957062 0.09674969809 -1.58283953)
(0.08543996385 0.25678538 -1.227772368)
(-0.3410936684 0.4978417883 -3.258475062)
(-0.0699006533 0.1575753013 -1.230959723)
(-0.7429206153 -0.03744736044 -1.327272791)
(0.2038373179 0.001832545342 -1.248363943)
(0.07830302175 0.2207272396 -1.160713971)
(0.1799846127 0.09716195809 -1.175112148)
(0.0935137664 0.1546492402 -1.082338495)
(0.184507989 -0.02171418656 -1.146804505)
(-0.2994243775 0.5301828517 -3.374051834)
(-0.9045204419 0.5684019371 -2.919039855)
(-0.252652817 0.5759875743 -3.308682903)
(0.07688938504 0.1587427451 -1.154047027)
(0.146355499 0.02437134106 -1.105118456)
(-0.997660959 0.5128449928 -2.831919978)
(-0.2053028021 0.1592331637 -1.205853334)
(0.1685868355 -0.05041717642 -1.121753923)
(0.2075691685 0.2735038172 -1.247460925)
(-0.8676628693 0.1380330658 -3.19743203)
(0.1115558108 0.216301106 -1.067141318)
(-0.1411232356 0.1412594707 -1.003261156)
(0.1304823084 0.2718152307 -1.086458389)
(0.09782241653 0.2092443076 -1.787031452)
(0.002537029858 0.9073271687 -2.758700333)
(-1.090665532 0.1643342317 -2.943777055)
(0.1407102569 0.2281238998 -2.038909783)
(0.1455766835 0.2307029913 -1.92961509)
(0.1158410518 0.2028124844 -1.71480221)
(0.1525982301 0.1687124616 -1.746195339)
(0.1602399119 0.2393768272 -0.9876474449)
(0.1301509324 0.2038637732 -0.971120878)
(-1.022848755 0.2326331273 -1.263100129)
(0.02340618558 0.08655744512 -1.048268299)
(0.09012112653 0.2434505215 -2.02029513)
(0.1278783636 0.1980200467 -1.75456201)
(-0.1472700086 0.1946564728 -1.653093477)
(-0.700665733 0.4127664277 -1.317568358)
(0.1408175961 0.1713477539 -1.638041283)
(-1.262990117 0.9565564333 -1.00180072)
(-1.215284286 0.9283201501 -1.006628838)
(-1.198775536 0.8966515385 -1.011383048)
(-1.243241488 1.186496563 -1.006433019)
(-1.163523689 0.8596305136 -1.012400341)
(-1.326441914 1.006286093 -0.9683333626)
(-1.129470952 1.127505373 -1.015874019)
(0.09658756656 0.1811484792 -0.7650034032)
(-1.170427346 0.9375059885 -0.9851270371)
(-1.427874556 0.009126983911 -0.6616748657)
(-1.205885448 0.9805231712 -0.9759206634)
(-1.102118185 1.040537577 -1.029164553)
(-1.418493603 0.01265871225 -0.6651938599)
(-0.1040572301 0.1017438491 -1.652004808)
(-0.03185351593 0.1505834134 -0.5993272484)
(-1.093542053 0.8007630127 -0.9992046003)
(0.09948266405 0.113631483 -0.5876715562)
(-0.6458314906 0.4047758681 -1.282158204)
(-0.7510066365 0.4426376637 -1.26964617)
(0.1051861538 0.2204290163 -0.6747857802)
(-1.023966004 0.9259014874 -1.024049687)
(0.02873282784 0.236423485 -0.5680411646)
(-0.6997408096 0.4261592156 -1.252628714)
(-1.046734932 0.9263169629 -0.9215221284)
(-1.449233695 0.005027791432 -0.5609554497)
(-0.6663605096 0.8351693944 -2.189595789)
(0.1280869045 0.02248631996 -0.5121914473)
(-0.6967313411 0.4383405578 -1.246753858)
(-0.9560956776 1.125808802 -0.9951806953)
(-1.409692505 0.003503556428 -0.5332464964)
(-0.6073634856 0.1747104281 -1.228530718)
(-0.65703033 1.027803727 -2.091130468)
(-0.8790033296 1.057771616 -1.017859743)
(-0.1669075688 0.1912970108 -0.5126677341)
(-0.9914845753 1.087347261 -0.8900416555)
(-0.8643159549 0.7605992123 -1.017291011)
(-0.8131580416 0.9657067729 -1.02727574)
(-0.6603712884 0.5067257764 -1.208632172)
(-0.8832158447 1.035616269 -0.9072804123)
(-0.1363599351 0.3237808544 -2.67603618)
(0.1333646911 1.160578651 -2.387610641)
(-0.8356378393 0.8080089921 -0.8328275782)
(-0.8815365629 1.00502449 -1.02051459)
(-0.9059267744 0.6606769984 -0.8354137437)
(0.1294241339 0.1950430438 -0.5551670822)
(0.04509801363 0.2605130256 -0.4243635584)
(-0.8841116501 1.110443649 -0.866923607)
(-1.513633543 -0.001510818737 -0.432898161)
(-0.7954892631 0.9151393445 -0.8116434613)
(-0.7368147751 0.8940925819 -1.026731553)
(-0.6220241523 0.6051761256 -1.175082009)
(-0.6816112715 0.5584296958 -1.192149507)
(-0.7530433115 0.8499407095 -1.033719346)
(-0.1733935132 0.04125002815 -0.3312897961)
(-0.1685928416 0.08065742479 -0.3326313282)
(-1.669901477 0.001102819189 -0.3373788668)
(0.1381958905 -0.000319550789 -0.3213651968)
(0.06351661171 0.1671423233 -1.629331598)
(-0.1735158497 0.01737332534 -0.3214757997)
(-1.401628693 0.003971299931 -0.3265800647)
(-0.4244781321 1.055156407 -2.008748079)
(-0.66678259 0.7443949175 -1.044056979)
(-1.201557892 0.001053930569 -0.2929200077)
(0.1393166977 0.001710229842 -0.2768918154)
(0.05025892314 0.2673690428 -0.2614662091)
(-0.5814996878 0.5711398033 -1.112783661)
(-0.583110345 0.5884799737 -1.107012733)
(-0.0001974914196 0.2049037714 -1.177549838)
(-0.5250660595 1.230110646 -0.994621522)
(-0.5666586915 0.5302980544 -1.119933146)
(-0.5631848067 0.43522582 -1.0593026)
(-0.586045413 0.4032756866 -1.007120375)
(-0.5695999105 0.4517359917 -1.037087785)
(-0.5995492845 0.5397574675 -0.9956150562)
(-0.5789712965 0.4262763 -1.009830997)
(-0.551857235 0.4218377805 -1.065423795)
(-0.2281450467 0.2453562325 -0.3130039433)
(-0.08282000383 0.2122698258 -0.3264852157)
(0.09981030401 0.07133382343 -0.1837287527)
(-0.5694119094 0.5943258473 -1.069990188)
(-0.4220853834 0.3489205079 -0.993813357)
(-0.5669356225 0.426204729 -1.025881978)
(-0.5669585834 0.6226691604 -1.078155475)
(-0.5625396475 0.5902023799 -1.065971777)
(-0.5639674705 0.595416016 -1.059273046)
(0.06125191519 0.2652171478 -0.146007992)
(-0.5213368691 0.208648834 -1.031342702)
(-0.5094431553 0.177807087 -1.029349638)
(-0.5568744464 0.6083529921 -1.045043374)
(-0.5468924512 0.5326671464 -1.020251854)
(0.1780249502 0.1726088964 -1.599088792)
(-0.4973240171 0.2567953346 -1.075143141)
(-0.308214898 0.1626418234 -0.07328352902)
(-0.5097738974 0.3879502318 -1.126864408)
(0.08804778071 0.3200421273 -0.0705936162)
(0.08996313101 0.1505732098 -1.398298746)
(-1.183813805 0.122956328 -2.358309137)
(0.1844330838 1.201634656 -2.214072697)
(-0.4756855287 0.2894605564 -1.046919719)
(-0.2061628928 0.1527270986 -0.01551683115)
)


// ************************************************************************* //
