/*--------------------------------*- C++ -*----------------------------------*\
  =========                 |
  \\      /  F ield         | OpenFOAM: The Open Source CFD Toolbox
   \\    /   O peration     | Website:  https://openfoam.org
    \\  /    A nd           | Version:  8
     \\/     M anipulation  |
\*---------------------------------------------------------------------------*/
FoamFile
{
    version     2.0;
    format      ascii;
    class       scalarField;
    location    "1/lagrangian/reactingCloud1";
    object      age;
}
// * * * * * * * * * * * * * * * * * * * * * * * * * * * * * * * * * * * * * //


141
(
0.3169294688
0.2731545755
0.2419999616
0.240535334
0.2396713296
0.2391880143
0.2382966843
0.237963412
0.2372742305
0.2365312258
0.2351010616
0.2334598754
0.2320077084
0.2232783242
0.2210636191
0.2196631787
0.2185169091
0.2178670112
0.2156579297
0.2130598668
0.2125424159
0.2120885415
0.2109119055
0.210091646
0.206596616
0.2064996069
0.2064996069
0.205267599
0.2200742537
0.204169555
0.2011068645
0.2008854916
0.1996632988
0.1988450794
0.1950619754
0.2141274632
0.1933240378
0.1933240378
0.1875999337
0.1791046414
0.2180876
0.2100923468
0.1721659577
0.1502188934
0.1392061394
0.1351552677
0.1265583499
0.142216196
0.1213257964
0.1206860225
0.1195344295
0.117487153
0.1163782116
0.1060138746
0.1147574511
0.1037039439
0.1138191161
0.1113026721
0.09668305423
0.09570540395
0.09427584209
0.09141671839
0.08968619615
0.08961095605
0.08900903527
0.08840711449
0.08757947342
0.08690231255
0.0852470304
0.1320687143
0.08449462943
0.08396794874
0.08366698836
0.08344126806
0.1001086775
0.1060565262
0.08058214436
0.08005546368
0.07975450329
0.07907734241
0.07870114192
0.07824970134
0.07749730036
0.07606773851
0.07388577569
0.0734343351
0.07215525345
0.06794180799
0.06666272633
0.06342740214
0.06237404078
0.0616968799
0.06117019922
0.058687276
0.058687276
0.05778439484
0.05552719191
0.05424811026
0.07411149598
0.0498841846
0.06613604565
0.0675656075
0.1160796505
0.03119796168
0.0501099049
0.03032789901
0.0735848153
0.02821488965
0.02572899629
0.02510752295
0.0941253619
0.02338488629
0.0559786325
0.02202627546
0.02137844383
0.09013763674
0.05417287016
0.05612911269
0.01839841833
0.0381467294
0.01788015302
0.06214832049
0.01645492344
0.2025457884
0.05168994694
0.0158070918
0.01502969385
0.01438186222
0.01360446426
0.01308619895
0.02622617496
0.01129926337
0.04822890246
0.01043510614
0.008718516895
0.007609548309
0.004018428483
0.07539057764
0.07809922114
0.0410810932
0.01490012752
)


// ************************************************************************* //
