/*--------------------------------*- C++ -*----------------------------------*\
  =========                 |
  \\      /  F ield         | OpenFOAM: The Open Source CFD Toolbox
   \\    /   O peration     | Website:  https://openfoam.org
    \\  /    A nd           | Version:  8
     \\/     M anipulation  |
\*---------------------------------------------------------------------------*/
FoamFile
{
    version     2.0;
    format      ascii;
    class       scalarField;
    location    "1/lagrangian/reactingCloud1";
    object      d;
}
// * * * * * * * * * * * * * * * * * * * * * * * * * * * * * * * * * * * * * //


141
(
0.0005247982488
0.0005263981898
0.0005394079337
0.0007528048631
0.0007188627275
0.0005779687569
0.0006876851942
0.0005008167691
0.0006138346203
0.000610056469
0.0006997284733
0.0006880455897
0.0006128468204
0.000982396941
0.000571946352
0.0005527969513
0.0007016856016
0.0006948104407
0.0005739436017
0.0005611885153
0.0009225859207
0.0009457267311
0.0006867806527
0.0006095619536
0.0006427676579
0.0008587496361
0.001128812676
0.001149005111
0.0007555906739
0.0006144773608
0.001116057799
0.0008569428601
0.0007548143858
0.0006715598573
0.001089998394
0.0007798457812
0.0005152928487
0.0006932718168
0.0007076834411
0.0009235295513
0.0006544988701
0.0006119931943
0.0005013681573
0.0007110831754
0.0005102139482
0.0009780334435
0.0006406262183
0.0005611885153
0.0006106551005
0.0008926299027
0.0005871580081
0.0006858418814
0.0005723076285
0.000574389795
0.0006264512031
0.0009096577382
0.0005254453234
0.0006681723103
0.0007606265813
0.0006921005832
0.001097167604
0.0006772544039
0.000557607813
0.001088582085
0.0006252925562
0.0006636974702
0.0007738020408
0.0007294824224
0.0009922829024
0.0005733767496
0.000774122088
0.0006897391158
0.0005782033562
0.0005172737713
0.0005266957624
0.001017228777
0.001129194843
0.0006379241766
0.0005465724805
0.0006932016241
0.0005373821245
0.000590146818
0.0006888372024
0.0008108943631
0.0008555743904
0.0005080285274
0.0006962502281
0.0008615973383
0.001022269702
0.0007935733041
0.0005731777681
0.0008615467943
0.000593830857
0.0007523713841
0.0007473893126
0.0005446942051
0.0007191405978
0.000598470071
0.0009053201006
0.0008018479559
0.0009252746334
0.0009312015104
0.000768546501
0.000532543926
0.0005684058509
0.0009891184582
0.0008132639271
0.001073959329
0.001147821696
0.0006260332617
0.0009789308392
0.0005394687736
0.00090143232
0.0009225920591
0.001142579085
0.000901942085
0.0005235833362
0.0006264512031
0.0008701384309
0.0006252925562
0.0008683226535
0.0009976214452
0.000614553914
0.0007462818669
0.000562513822
0.001189041234
0.0005557658393
0.001150817311
0.0006212751215
0.0007332917383
0.001188910497
0.000672621567
0.0005975559345
0.0009177148359
0.000811234511
0.0009325595332
0.0006585863811
0.0007297220546
0.000920778852
0.0006852293262
0.00101979341
)


// ************************************************************************* //
