/*--------------------------------*- C++ -*----------------------------------*\
  =========                 |
  \\      /  F ield         | OpenFOAM: The Open Source CFD Toolbox
   \\    /   O peration     | Website:  https://openfoam.org
    \\  /    A nd           | Version:  8
     \\/     M anipulation  |
\*---------------------------------------------------------------------------*/
FoamFile
{
    version     2.0;
    format      ascii;
    class       Cloud<basicReactingMultiphaseParcel>;
    location    "1/lagrangian/reactingCloud1";
    object      positions;
}
// * * * * * * * * * * * * * * * * * * * * * * * * * * * * * * * * * * * * * //

141
(
(0.1450086205 0.1561083855 0.5768689526 0.1220140413) 893 2617 1
(0.3604530373 0.2299042118 0.2894103134 0.1202324375) 150 443 1
(0.442997674 0.04290024658 0.05339416587 0.4607079135) 3426 10037 1
(0.29488373 0.1309022587 0.4717429434 0.1024710679) 2549 7466 2
(0.2754134821 0.2150898984 0.1067549937 0.4027416258) 4192 12275 1
(0.02329908221 0.08298055287 0.5634428217 0.3302775432) 4191 12275 2
(0.0931227307 0.3482888953 0.2255087229 0.3330796511) 4191 12275 1
(0.02870686609 0.3038680488 0.4141839592 0.2532411259) 5051 14792 1
(0.03157319092 0.1909576962 0.05670950292 0.72075961) 4192 12275 2
(0.150238269 0.01490682948 0.06406000508 0.7707948964) 4192 12275 2
(0.1591372349 0.1398417492 0.1442330513 0.5567879646) 4221 12279 1
(0.07348907149 0.5039771714 0.4089012213 0.01363253577) 5081 12366 1
(0.2045863336 0.05632576833 0.3772281054 0.3618597927) 5081 14885 2
(0.1568718889 0.1801425243 0.1211225746 0.5418630122) 6061 15220 1
(0.1736774001 0.1679500152 0.1364227621 0.5219498226) 5157 15022 2
(0.158222823 0.3901930256 0.2562314588 0.1953526927) 6049 15185 1
(0.1939621286 0.3077260568 0.2603063517 0.2380054629) 6932 20305 1
(0.2205254978 0.04649594198 0.5862656816 0.1467128787) 6847 17514 1
(0.5586072401 0.04286775068 0.2267297659 0.1717952433) 9582 28066 1
(0.04789385722 0.06616021975 0.2010026079 0.6849433151) 6951 20365 2
(0.3033487856 0.4635007203 0.07561209151 0.1575384025) 7734 22565 1
(0.2783105997 0.1330171832 0.06681283735 0.5218593798) 7285 21354 1
(0.2495795037 0.333995538 0.2175889857 0.1988359727) 8227 24116 2
(0.07363037991 0.2306829576 0.2881228044 0.4075638581) 9097 26662 2
(0.170998594 0.7438220328 0.04637310071 0.03880627241) 9631 28212 2
(0.3610666325 0.2621539649 0.1862646238 0.1905147788) 8726 25560 2
(0.1094104517 0.5202977839 0.3662212308 0.004070533597) 8728 22962 1
(0.04789688546 0.02853530302 0.1101266901 0.8134411214) 7763 22741 1
(0.4775826027 0.3664958104 0.01752555655 0.1383960303) 1437 4228 1
(0.2254688506 0.274285554 0.1246924427 0.3755531527) 9631 28127 1
(0.06801092874 0.05977532204 0.393098024 0.4791157252) 9489 27703 2
(0.1648799344 0.1964771401 0.1146414707 0.5240014548) 8549 24949 1
(0.1467294192 0.07412435605 0.7133101258 0.06583609889) 8549 25037 1
(0.2758875564 0.1293038586 0.2370844394 0.3577241456) 8579 25129 2
(0.195133608 0.2728664481 0.3247303521 0.2072695919) 10427 30449 2
(0.5645841798 0.2147234476 0.1762171492 0.04447522346) 3119 6723 2
(0.1763339175 0.4127827064 0.4058787255 0.005004650529) 9505 27844 1
(0.4119738403 0.2599563979 0.08449855934 0.2435712024) 11247 32940 2
(0.01246521492 0.3911744036 0.2126441572 0.3837162243) 12303 33379 1
(0.09209685298 0.4092506438 0.335654156 0.1629983472) 12154 35598 1
(0.3063271682 0.3295817643 0.2174209172 0.1466701503) 3445 7607 1
(0.5316417271 0.1026907737 0.1651933261 0.2004741731) 3385 9913 1
(0.1092098004 0.5438233753 0.009507267609 0.3374595567) 9765 28611 1
(0.2941039399 0.1483241405 0.2537808876 0.303791032) 16016 46809 2
(0.01177259016 0.773074861 0.1281084576 0.08704409123) 17707 51844 1
(0.03662871245 0.3302029539 0.2601738647 0.3729944689) 17918 52384 2
(0.07962614373 0.4399629095 0.2084653121 0.2719456347) 18740 54787 2
(0.04295336442 0.3553706142 0.5965750501 0.005100971341) 18006 52728 2
(0.01980120451 0.817937975 0.121980726 0.04028009448) 19652 57795 3
(0.3378520239 0.07965379116 0.4746646615 0.1078295235) 19536 54525 2
(0.2736332151 0.233775649 0.3451830007 0.1474081352) 19535 57414 1
(0.5508284049 0.08014031823 0.255567353 0.1134639239) 19536 57414 1
(0.4373714528 0.1450837554 0.1751859704 0.2423588214) 19536 57414 2
(0.3221634888 0.1918450966 0.2241105501 0.2618808646) 53279 163288 1
(0.3542731298 0.4336595381 0.007952010625 0.2041153214) 19536 57419 1
(0.1494631247 0.4965683384 0.2607625591 0.09320597778) 54031 164900 2
(0.2051552699 0.7083707697 0.03211610268 0.05435785774) 19536 57419 1
(0.01654940279 0.634992635 0.1820086474 0.1664493148) 20448 60441 2
(0.1543039951 0.08506599692 0.5259224088 0.2347075993) 53729 164395 1
(0.3325494811 0.1587922457 0.09510911635 0.4135491569) 54644 166714 1
(0.08123011023 0.1781508157 0.4302227342 0.3103963399) 54497 166342 1
(0.5470314528 0.3546614681 0.07939526808 0.01891181109) 55165 66617 1
(0.03486318872 0.1255906163 0.07733166551 0.7622145295) 54999 167577 2
(0.6309457438 0.02373822238 0.03607073788 0.309245296) 22157 66506 1
(0.3298826821 0.05910886843 0.1042804131 0.5067280364) 55578 169048 2
(0.3466694162 0.4523145625 0.02357953244 0.1774364889) 22323 67287 2
(0.110732349 0.6953704556 0.05793400423 0.1359631912) 55689 169330 2
(0.03792254099 0.3567654211 0.5174190808 0.08789295714) 55697 169351 2
(0.2728412935 0.05291789199 0.05740948136 0.6168313332) 55805 169364 1
(0.03200273724 0.06986341289 0.05418162505 0.8439522248) 53036 162672 2
(0.5112046004 0.0548762686 0.126496087 0.307423044) 55811 169636 2
(0.3809810831 0.187775627 0.1407378604 0.2905054295) 55812 169638 2
(0.3846990597 0.1918763007 0.02132956301 0.4020950765) 55812 169638 1
(0.4136696754 0.01810808148 0.3717319539 0.1964902892) 55812 169639 2
(0.3006938536 0.005163719304 0.3815088353 0.3126335918) 29380 89354 3
(0.3659414663 0.03827033748 0.01112513453 0.5846630617) 27769 86659 1
(0.2718582746 0.2074226112 0.4134493285 0.1072697856) 55821 169661 2
(0.09289119325 0.2050934881 0.05943456081 0.6425807579) 55821 169661 2
(0.0299439764 0.04710335634 0.1639350477 0.7590176195) 22358 67450 2
(0.08287616622 0.3302322938 0.01945157017 0.5674399698) 23268 67450 2
(0.1054843943 0.3735360944 0.1848580796 0.3361214317) 23268 67450 2
(0.1763853898 0.4289291897 0.3019107928 0.09277462761) 23268 67450 1
(0.3029888668 0.3782808829 0.009451422358 0.3092788279) 23268 67450 1
(0.1732289021 0.559966882 0.1729338053 0.09387041058) 23269 70741 1
(0.06194328024 0.559987483 0.1578291425 0.2202400942) 23269 70609 1
(0.1692248946 0.2557328742 0.2580466619 0.3169955692) 23237 70601 1
(0.08252069797 0.382323803 0.4686771972 0.06647830185) 23238 70601 1
(0.1358447904 0.2995842169 0.2181359688 0.3464350239) 23206 70462 1
(0.4354228845 0.03723997023 0.3071986972 0.2201384481) 57240 74238 1
(0.4557176092 0.1540845833 0.3765750445 0.01362276297) 24227 74238 2
(0.7698162547 0.01495173495 0.09843567779 0.1167963325) 24227 74238 2
(0.03636269767 0.4788472811 0.3373466877 0.1474433335) 58175 175166 1
(0.7886536927 0.1376886978 0.06962287752 0.004034731904) 24227 74241 1
(0.3887793995 0.05090345428 0.5442581382 0.01605900799) 58065 175147 2
(0.345863001 0.02601126715 0.4720055414 0.1561201905) 24227 74239 2
(0.1106839084 0.4778786007 0.3667326031 0.0447048878) 58432 176004 1
(0.3173631853 0.3544607228 0.1733962596 0.1547798323) 58436 176004 1
(0.6408728898 0.03456413428 0.01994274525 0.3046202307) 58436 176004 2
(0.2579564036 0.6929846123 0.02874321049 0.02031577356) 32530 103161 1
(0.04710950529 0.5589333115 0.3757335542 0.01822362905) 58145 175325 1
(0.635939971 0.1611877923 0.1645016086 0.0383706281) 33390 106264 2
(0.005229840015 0.5018998011 0.2968000038 0.1960703551) 56463 171247 1
(0.006098170371 0.3857909605 0.5650611414 0.04304972775) 55922 169915 2
(0.2772501932 0.1119488107 0.3627162892 0.2480847069) 59233 77389 2
(0.7725350974 0.06299496989 0.04492386929 0.1195460635) 37384 118214 1
(0.2027329152 0.2336759477 0.3688533648 0.1947377723) 51889 159690 2
(0.1686977449 0.5528257661 0.06984664484 0.2086298442) 56369 171010 1
(0.1451375086 0.1512401257 0.2310755425 0.4725468232) 51891 159701 2
(0.4317424072 0.2804121051 0.1838823935 0.1039630943) 51888 77143 2
(0.3539923075 0.233712385 0.1954538221 0.2168414854) 59007 177404 1
(0.2551778265 0.01373027034 0.2924043204 0.4386875827) 62706 186482 1
(0.6780732953 0.14374912 0.1308335756 0.04734400909) 59008 177405 2
(0.1854208014 0.05719866999 0.7118186017 0.04556192691) 57646 174171 2
(0.630610206 0.03566623276 0.214879409 0.1188441522) 51827 159541 1
(0.1509754901 0.3028671063 0.5214362223 0.02472118129) 51832 159540 1
(0.4130533276 0.1711716678 0.3871127753 0.02866222939) 62682 90929 1
(0.2771238615 0.04653172356 0.4945910367 0.1817533782) 57644 174176 2
(0.08940083112 0.3266818023 0.4390780758 0.1448392908) 36569 115831 2
(0.07749527931 0.5515507587 0.1484121225 0.2225418395) 59033 159396 1
(0.1557560294 0.05130150933 0.6985280828 0.09441437844) 38927 120430 2
(0.3915896057 0.4168154563 0.1076038102 0.08399112779) 58993 159238 2
(0.2085961797 0.7280142694 0.05867762603 0.004711924898) 34090 108598 2
(0.1629636566 0.3400843496 0.3730888368 0.123863157) 59000 177391 1
(0.4920488238 0.2134293797 0.001284284767 0.2932375118) 8517 206745 1
(0.04296569175 0.2674902415 0.3721153891 0.3174286777) 57638 174163 2
(0.2564406811 0.3038865093 0.05324738799 0.3864254216) 51825 159537 1
(0.188972181 0.5694267485 0.2086246768 0.03297639374) 51769 159236 2
(0.2317643793 0.5229999818 0.2441661231 0.001069515804) 51770 159395 2
(0.07462596088 0.6387428752 0.2171669293 0.06946423463) 51702 159220 1
(0.2693222953 0.1361521715 0.5753980006 0.01912753266) 59040 79924 1
(0.0794255769 0.07745812832 0.03319864741 0.8099176474) 39725 125069 1
(0.2583278915 0.1017969008 0.1279349437 0.511940264) 51708 159235 2
(0.1680009031 0.4331527837 0.07335986538 0.3254864478) 57638 158785 2
(0.15783882 0.2911725229 0.1927249618 0.3582636954) 51490 158678 2
(0.08768751635 0.6530729524 0.1862342857 0.07300524555) 51709 159237 2
(0.06040740552 0.5020534598 0.2346306319 0.2029085028) 51708 159219 1
(0.310518347 0.2295099122 0.1395721116 0.3203996292) 51706 203217 2
(0.1237486707 0.6440522366 0.03477404784 0.1974250448) 56367 69836 1
(0.02988983782 0.5866349403 0.09060146139 0.2928737605) 33270 105689 1
(0.07649392914 0.1863529098 0.2609390524 0.4762141087) 24891 207312 1
(0.06995360087 0.4400925428 0.3303261303 0.1596277259) 51489 208354 2
)


// ************************************************************************* //
