/*--------------------------------*- C++ -*----------------------------------*\
  =========                 |
  \\      /  F ield         | OpenFOAM: The Open Source CFD Toolbox
   \\    /   O peration     | Website:  https://openfoam.org
    \\  /    A nd           | Version:  8
     \\/     M anipulation  |
\*---------------------------------------------------------------------------*/
FoamFile
{
    version     2.0;
    format      ascii;
    class       vectorField;
    location    "1/lagrangian/reactingCloud1";
    object      U;
}
// * * * * * * * * * * * * * * * * * * * * * * * * * * * * * * * * * * * * * //


141
(
(0.01822483607 -0.008109524981 -1.803691538)
(0.175242075 0.01022919201 -1.910373986)
(0.1935964923 -0.01210860383 -1.830477115)
(0.1115250918 0.07086541078 -2.075574247)
(0.0129774361 -0.001473869317 -1.880994038)
(0.005034659663 -0.003999594004 -1.785761376)
(0.001820659339 -0.00305268391 -1.874732558)
(0.007284089926 0.001342028917 -1.720756043)
(0.005665933402 0.00348800193 -1.828130001)
(0.009453374289 0.008409573137 -1.830177293)
(0.01532445321 0.01957210046 -1.890963255)
(0.0256007778 0.03663666942 -1.899653073)
(0.04377238729 0.05221176507 -1.848208534)
(0.01349332365 0.02231493765 -1.967438656)
(0.6876840759 -0.001984537587 -1.87641237)
(0.5847028978 0.02939826029 -1.906060653)
(-0.007598762956 0.05650363303 -1.869159878)
(0.09397806774 0.04663676897 -1.887685069)
(-0.09649815546 0.1589477373 -1.541526811)
(0.830886105 0.0643199303 -1.799088594)
(0.2379330959 -0.08336473769 -1.885223489)
(0.648505683 0.7961590684 -1.860500009)
(0.6280289173 0.7627044359 -1.642430514)
(0.6119183984 0.7055289935 -1.56686406)
(-1.218377645 0.04006024241 -1.629518307)
(-1.329674317 0.04928197759 -1.745134904)
(-1.32880378 0.0421479891 -1.839147402)
(0.1025148018 0.1254456597 -1.922985673)
(0.4841371959 0.9043668062 -3.177990783)
(-1.19583805 0.0404727297 -1.597841297)
(-0.007060524482 -0.1223507287 -1.740168655)
(0.9315221828 -0.2181333 -1.784570364)
(0.928828543 -0.1741414692 -1.802975221)
(0.9209286089 -0.1407576458 -1.832710221)
(-0.04179819353 -0.07539803951 -1.729313319)
(0.3954182769 0.9815417311 -3.136493846)
(0.5999909918 -0.08654004312 -1.722084429)
(0.1623234676 -0.1575585913 -1.606276406)
(-0.1022308378 0.05411297565 -1.577197814)
(0.02259837569 -0.0732796309 -1.619754736)
(1.092008427 0.1515824025 -3.074210266)
(1.074237952 0.07729331198 -3.143858084)
(0.4594233182 0.5835926041 -3.133993172)
(0.1829351984 0.2199944994 -1.466488262)
(0.1467877333 -0.001537145934 -1.334039412)
(0.0649008281 0.4515921067 -1.338657028)
(0.7058261576 0.02446744667 -1.263339386)
(0.4175380937 0.7635248486 -2.898927273)
(0.516815523 0.02525973859 -1.205663886)
(0.8001489621 0.3960366824 -1.192735237)
(0.7546479551 0.3750348245 -1.183439654)
(0.8089378305 0.3911402013 -1.162241636)
(0.7989193346 0.3730348542 -1.152629186)
(0.2494017454 0.08043126213 -1.03803206)
(0.8285187006 0.3757177531 -1.135163852)
(-0.3688088892 0.1692827612 -0.9440212491)
(0.8039197557 0.3525472153 -1.127806643)
(0.852001046 0.3575203976 -1.102346121)
(-0.07918572685 -0.1797398801 -0.8916501354)
(0.108951506 0.147416206 -0.9509232819)
(0.1015204845 0.3867228748 -0.9325196742)
(0.1593637971 -0.007104146457 -0.8883009402)
(-0.3149765009 -0.1868978492 -0.7963517574)
(-0.4132879317 -0.09658610927 -0.8448478785)
(0.2109250742 0.4737713756 -0.8625835751)
(0.3163965153 0.5450941682 -0.8717319778)
(0.366580215 0.5867971671 -0.8657216433)
(0.4046147154 0.6126312758 -0.86226138)
(0.4853752703 0.6760677284 -0.843857234)
(0.860074311 0.1831058913 -2.826974846)
(0.5352595033 0.7031358586 -0.8408698767)
(0.5666060181 0.7140223101 -0.8383678311)
(0.5785213144 0.7082277379 -0.8401728119)
(0.5849413438 0.7012468041 -0.8415174699)
(0.4682969748 1.019819375 -2.366055782)
(0.343160425 1.060474692 -2.500074125)
(0.7165884394 0.7905354501 -0.7972676159)
(0.730416264 0.7709194219 -0.8022300537)
(0.74132533 0.7597942489 -0.8043682564)
(0.7879341348 0.7811450584 -0.7923067567)
(0.7872649459 0.7556209569 -0.7955793508)
(0.8157415513 0.7637700136 -0.7896228107)
(0.8543942345 0.7748046592 -0.7781489993)
(0.9048711292 0.7802069529 -0.7600593644)
(0.9464018146 0.7632973616 -0.7387558036)
(0.8940213679 0.6952784261 -0.7536684114)
(0.9423194634 0.712776967 -0.731257773)
(0.9311361879 0.6763169064 -0.6886058433)
(-0.2744371007 0.6084888456 -0.6659941776)
(-0.2812717682 0.627487638 -0.6344375415)
(-0.2835403684 0.6222513958 -0.6293989038)
(0.7890867608 0.6024356948 -0.6273071993)
(-0.2896249241 0.6290719026 -0.6152966551)
(0.7001441587 0.5676203238 -0.5959616592)
(-0.3022158678 0.6421509753 -0.5849597199)
(-0.3118175003 0.6228544154 -0.5785188153)
(-0.3301909698 0.6344389292 -0.5515033038)
(-0.3456564221 0.6159639275 -0.5406978606)
(0.7595063558 0.4441440551 -2.39683762)
(-0.03230155683 0.05780168393 -0.524199816)
(0.3576163623 0.6629897732 -2.417109201)
(0.6274833366 0.3001469755 -0.6723395695)
(0.1132932512 0.5660314445 -2.946015872)
(0.3200143542 0.1933698072 -0.3218589063)
(1.132338901 0.4896748715 -1.944073056)
(0.1750651044 -0.03411879692 -0.2961617891)
(0.6568273597 0.276158044 -0.7336202324)
(0.0214755194 0.1201308744 -0.2773291139)
(-0.1734544416 0.2345962437 -0.2514781675)
(1.440606054 -1.040497564 -0.2687003942)
(1.05211875 -0.1597556578 -2.445675816)
(1.671753614 -1.071594841 -0.2642815067)
(0.4280306734 0.244307955 -0.5515980041)
(-0.1673873376 0.2168741793 -0.2143825289)
(-0.08825114338 0.02423410357 -0.2085020597)
(0.8450005517 -0.1811068251 -2.573089857)
(0.3804368539 0.2221809953 -0.5327521538)
(1.254888079 0.2504295389 -1.934795683)
(0.1646894362 -0.07371803568 -0.1802996795)
(0.984618712 0.4800597303 -1.983203638)
(0.7209000552 -1.050609034 -0.1735181949)
(0.7339035192 0.01506941047 -2.403432741)
(1.403749042 -1.081251186 -0.17301736)
(0.8674609925 -0.2456606653 -1.735862967)
(0.3817755569 0.2203264522 -0.5082997715)
(-0.500431575 0.2793156069 -0.1546032882)
(-0.1285799807 -0.4850153536 -0.1451595592)
(0.2767732368 -0.5640560639 -0.1398609135)
(-0.2230143609 -0.583080633 -0.1311297472)
(1.804814341 -1.06629917 -0.1372154856)
(0.6523608666 0.697798986 -1.993414379)
(0.1308343157 -0.7896475988 -0.1090907861)
(0.3736906494 0.213514898 -0.4741179208)
(0.1726549925 0.1103815926 -0.1023347158)
(0.6069000351 -0.9089575193 -0.08397097505)
(-0.2829769971 0.02256999756 -0.07464065392)
(-0.2346439079 0.148088526 -0.03956777408)
(0.6806218007 0.1788520215 -0.7490351347)
(1.269798614 -0.002917186328 -2.073574933)
(0.3477256233 0.2003351743 -0.4032325727)
(0.3355884057 0.1638805458 -0.1464620991)
)


// ************************************************************************* //
