/*--------------------------------*- C++ -*----------------------------------*\
  =========                 |
  \\      /  F ield         | OpenFOAM: The Open Source CFD Toolbox
   \\    /   O peration     | Website:  https://openfoam.org
    \\  /    A nd           | Version:  8
     \\/     M anipulation  |
\*---------------------------------------------------------------------------*/
FoamFile
{
    version     2.0;
    format      ascii;
    class       scalarField;
    location    "1.8/lagrangian/reactingCloud1";
    object      age;
}
// * * * * * * * * * * * * * * * * * * * * * * * * * * * * * * * * * * * * * //


84
(
0.1920907589
0.1621982312
0.2362186162
0.1441432656
0.1320559006
0.1300748544
0.1160279163
0.1140470834
0.1897058587
0.108032316
0.2142503596
0.1239039973
0.1000581995
0.09203781354
0.2137955609
0.08804315298
0.2224238183
0.2036165452
0.2009041363
0.09177139004
0.09858089048
0.18000984
0.1575868965
0.05802496214
0.162698217
0.1861231253
0.05602724592
0.05402776436
0.1187960456
0.1567842917
0.1183972923
0.05202659128
0.08751081279
0.1559816868
0.1196479772
0.04802900343
0.1962412272
0.1552794076
0.263187631
0.08964071019
0.04203539654
0.1206168643
0.1538748491
0.03803603292
0.03606850597
0.1773854842
0.03407701913
0.2488218373
0.06756412941
0.1213878641
0.2108211194
0.2564370004
0.2468269195
0.1218401896
0.02609411568
0.02409838981
0.2454975573
0.2396094849
0.0220527708
0.253099318
0.1223298256
0.2442722496
0.150865081
0.01806131907
0.2426949396
0.1547777796
0.2314450025
0.1549784308
0.2380085117
0.2296332837
0.1228813699
0.01207414148
0.1528715931
0.2411523368
0.01007841561
0.128050361
0.2318144807
0.006071710398
0.1293148281
0.219244928
0.004080985677
0.002090260957
0.149360197
9.953623603e-05
)


// ************************************************************************* //
