/*--------------------------------*- C++ -*----------------------------------*\
  =========                 |
  \\      /  F ield         | OpenFOAM: The Open Source CFD Toolbox
   \\    /   O peration     | Website:  https://openfoam.org
    \\  /    A nd           | Version:  8
     \\/     M anipulation  |
\*---------------------------------------------------------------------------*/
FoamFile
{
    version     2.0;
    format      ascii;
    class       scalarField;
    location    "1.8/lagrangian/reactingCloud1";
    object      mass0;
}
// * * * * * * * * * * * * * * * * * * * * * * * * * * * * * * * * * * * * * //


84
(
1.015345583e-07
1.529417046e-07
8.019854033e-08
4.443524896e-07
8.451240164e-08
4.501954163e-07
1.247834827e-07
2.388836671e-07
1.011227476e-07
6.824677755e-08
1.165007608e-07
2.879201104e-07
9.103569896e-08
8.99220446e-08
8.28308792e-07
9.561942266e-08
2.427881794e-07
2.122734386e-07
8.851221099e-08
5.344711859e-07
5.816698748e-07
1.098610523e-07
5.707028735e-07
8.70169913e-08
4.158016989e-07
5.063764628e-07
2.407126972e-07
7.384031925e-08
1.904092686e-07
9.374599693e-08
8.043477534e-08
1.077397604e-07
1.728944234e-07
9.724974485e-08
2.220067547e-07
2.259584117e-07
9.767528241e-08
7.324178478e-08
2.572324984e-07
5.972764415e-07
1.451712408e-07
1.653111639e-07
1.555437487e-07
6.768844569e-07
1.028516577e-07
8.614689788e-08
1.367327802e-07
7.148949902e-07
9.444489444e-08
8.958172693e-08
1.203446381e-07
1.518038749e-07
1.073983232e-07
8.515075511e-08
2.391696057e-07
8.026250891e-08
6.072931837e-07
1.351184934e-07
4.762719768e-07
1.101585486e-07
8.373818806e-08
2.225181796e-07
1.131602696e-07
4.692108557e-07
2.717720846e-07
8.921851024e-07
1.576810893e-07
2.697497942e-07
1.888794019e-07
1.721735193e-07
1.111294881e-07
1.789584428e-07
1.010213867e-07
7.228343522e-08
2.032930985e-07
2.328259209e-07
1.516598836e-07
3.048703843e-07
6.578599085e-08
2.097727791e-07
1.155214437e-07
2.575624261e-07
1.166664538e-07
3.070893482e-07
)


// ************************************************************************* //
