/*--------------------------------*- C++ -*----------------------------------*\
  =========                 |
  \\      /  F ield         | OpenFOAM: The Open Source CFD Toolbox
   \\    /   O peration     | Website:  https://openfoam.org
    \\  /    A nd           | Version:  8
     \\/     M anipulation  |
\*---------------------------------------------------------------------------*/
FoamFile
{
    version     2.0;
    format      ascii;
    class       scalarField;
    location    "1.8/lagrangian/reactingCloud1";
    object      nParticle;
}
// * * * * * * * * * * * * * * * * * * * * * * * * * * * * * * * * * * * * * //


84
(
5004.5654
3110.077217
100.2864881
1128.896608
5883.065622
1098.936358
4049.305182
2073.094715
234.8617573
7401.321175
4229.144949
100.0318579
5434.086744
5596.782062
124.8611838
5259.753325
100.0047763
189.7467985
100.4760649
100.0640069
100.1914545
113.8718706
100.1366364
5801.850739
102.4864402
987.2656671
2074.833307
6769.748723
100.2384597
106.0626256
104.4136059
4643.631019
195.9392521
104.3084927
101.061469
2216.500916
5053.563493
116.1810004
100.0654291
100.1186644
3469.225486
103.3966458
102.0522969
740.2847956
4809.487796
100.9579454
3685.829496
100.1096621
100.0075463
102.7605444
100.392637
100.0526983
100.0733119
104.694423
2086.098961
6216.245578
100.0884035
100.900144
1073.766204
100.1270191
102.3989412
100.1911377
101.6452078
1063.341694
100.0504043
100.0877734
100.9647281
100.1484992
101.1158072
100.4752167
103.0305609
2787.973891
102.4899646
101.3020484
2454.246945
2158.446638
100.3223908
1632.43531
100.5126633
100.6116363
4308.128121
1932.274004
100.0163817
1620.639671
)


// ************************************************************************* //
