/*--------------------------------*- C++ -*----------------------------------*\
  =========                 |
  \\      /  F ield         | OpenFOAM: The Open Source CFD Toolbox
   \\    /   O peration     | Website:  https://openfoam.org
    \\  /    A nd           | Version:  8
     \\/     M anipulation  |
\*---------------------------------------------------------------------------*/
FoamFile
{
    version     2.0;
    format      ascii;
    class       scalarField;
    location    "1.8/lagrangian/reactingCloud1";
    object      T;
}
// * * * * * * * * * * * * * * * * * * * * * * * * * * * * * * * * * * * * * //


84
(
300
300
299.9999947
300
300
300
300
300
299.9999994
300
300
299.9999868
300
300
299.9999989
300
299.9999949
299.9999997
299.9999996
299.9999887
299.9999872
299.9999994
299.9999919
300
299.9999926
300
300
300
299.9999849
299.9999916
299.9999847
300
299.9999859
299.9999912
299.9999854
300
300
299.9999909
299.9999973
299.9999879
300
299.9999859
299.9999902
300
300
299.9999976
300
299.9999994
299.999987
299.9999862
299.9999998
299.9999972
299.9999956
299.9999864
300
300
299.9999969
299.9999958
300
299.9999954
299.9999865
299.9999973
299.9999891
300
299.9999957
299.9999965
299.9999959
299.9999952
299.9999969
299.9999951
299.9999866
300
299.9999897
299.9999973
300
300
299.9999971
300
299.9999948
299.9999962
300
300
299.9999885
300
)


// ************************************************************************* //
