/*--------------------------------*- C++ -*----------------------------------*\
  =========                 |
  \\      /  F ield         | OpenFOAM: The Open Source CFD Toolbox
   \\    /   O peration     | Website:  https://openfoam.org
    \\  /    A nd           | Version:  8
     \\/     M anipulation  |
\*---------------------------------------------------------------------------*/
FoamFile
{
    version     2.0;
    format      ascii;
    class       vectorField;
    location    "1.8/lagrangian/reactingCloud1";
    object      U;
}
// * * * * * * * * * * * * * * * * * * * * * * * * * * * * * * * * * * * * * //


84
(
(0.2953763053 -0.9444596769 -2.856698827)
(0.4846817031 -0.9353015988 -2.702971054)
(0.04524084857 -0.09183705792 -1.763936885)
(0.2890691749 -0.6783944094 -3.082695133)
(0.6102854867 -0.7267352021 -2.761174112)
(0.3142248787 -0.5462425933 -3.067119543)
(1.027315084 -0.6324824679 -2.395871348)
(0.273984938 -0.8655565473 -2.744741028)
(0.1314610482 -0.4107861906 -1.727605251)
(0.7712596767 -0.6785548035 -2.564624286)
(1.032039891 -0.1787947713 -3.00322369)
(-0.19966179 -0.6497803183 -1.222462058)
(0.5970687136 -0.7564967297 -2.607169358)
(0.4833595466 -0.7788785941 -2.589862893)
(-0.2420752868 -0.1830255587 -2.011840966)
(0.4034602937 -1.011562183 -2.351999853)
(-0.277797733 -0.3625514526 -2.095685955)
(0.07611359822 -0.2736634227 -1.866607481)
(0.05920661033 -0.2204458017 -1.781744423)
(-0.1753941921 -0.159516079 -0.9019228141)
(0.097737018 -0.08391658928 -0.9783400793)
(0.3885078872 -0.3938500647 -1.723900597)
(-0.432845589 -0.8124939558 -1.501919715)
(1.146843099 -0.3013340505 -1.997649693)
(-0.5130207575 -0.7537164704 -1.5544912)
(-0.05998351666 -0.7849027827 -3.380610978)
(0.9341693466 -0.3163333718 -2.212327949)
(-0.2628008809 -0.2192960226 -2.450112308)
(-0.5350380049 -1.153150963 -1.126857976)
(-0.4589713337 -0.6817264109 -1.463807205)
(-0.5113844814 -1.038764241 -1.112213115)
(0.006566522121 -0.5627643677 -2.354590044)
(-0.3494870078 -0.4654617627 -0.8906324144)
(-0.4765719203 -0.6869065256 -1.460998667)
(-0.5393615705 -1.116986743 -1.143699569)
(0.02310098011 -1.218677351 -1.929698627)
(-0.07234310139 -0.6586968761 -3.392382059)
(-0.4784356088 -0.651917966 -1.465154618)
(0.1588426644 0.01484071404 -2.113702452)
(-0.3309433239 -0.1658612434 -0.8703571658)
(0.4608050763 -0.9874683916 -2.020522026)
(-0.5081422876 -0.9834210299 -1.149328134)
(-0.4969394489 -0.6843572208 -1.477594823)
(1.133648108 0.04859266632 -1.956302962)
(-0.4067711043 -0.7518798615 -2.097044095)
(-0.174249223 -0.1702937465 -1.593176045)
(0.1902843515 -0.833670408 -2.1149881)
(0.1116385718 -0.2198264141 -2.128546404)
(-0.2482683695 -0.4518140353 -0.706220455)
(-0.4692405261 -0.8519537828 -1.153394654)
(0.06313686403 -0.1659227393 -1.819366078)
(0.1165738561 -0.07980762016 -2.076793963)
(0.07501852221 -0.0364455246 -1.968024428)
(-0.4511661863 -0.8131367489 -1.163145351)
(0.5131257043 -0.3164961914 -2.139909964)
(-0.07152329922 0.7505145425 -2.072338787)
(0.1308235908 -0.07528081336 -2.202162567)
(0.08401381146 -0.05890734744 -1.984161772)
(0.0260109645 0.7212659344 -2.072351047)
(0.06053933911 -0.0213280053 -1.982255392)
(-0.4263209536 -0.7710728661 -1.174406629)
(0.1194018961 -0.1112114569 -2.118050552)
(-0.4967175329 -0.609484564 -1.46319259)
(0.3522598623 -0.9609743965 -1.876245262)
(0.0584946302 -0.1153635354 -2.127685657)
(0.4944996691 -0.1768414311 -1.515580203)
(0.08794724937 -0.07164485991 -1.952692277)
(-0.3230275794 -0.3573150433 -1.48459587)
(0.09049585186 -0.117549605 -2.093628784)
(-0.1599638081 -0.0619737271 -1.928645688)
(-0.3854607133 -0.7389206222 -1.183727838)
(0.1387860306 1.006994545 -1.819808978)
(-0.490617008 -0.5734509016 -1.48421181)
(0.07382197468 -0.1058470395 -1.959416754)
(0.7496432424 -0.3647017173 -1.903882926)
(-0.1375459801 -0.8663156543 -2.822234764)
(0.08807292435 -0.129047113 -2.029026574)
(-0.2833898287 0.06659965333 -2.035086153)
(-0.2234648752 -0.2318118055 -1.227059875)
(0.09601226492 -0.08810030593 -1.918900386)
(-0.4061001376 -0.3381088392 -1.965956366)
(0.473978092 -0.1855037382 -1.952637967)
(-0.4879921098 -0.5607563921 -1.45024636)
(0.5005372596 -1.049654509 -1.627971233)
)


// ************************************************************************* //
