/*--------------------------------*- C++ -*----------------------------------*\
  =========                 |
  \\      /  F ield         | OpenFOAM: The Open Source CFD Toolbox
   \\    /   O peration     | Website:  https://openfoam.org
    \\  /    A nd           | Version:  8
     \\/     M anipulation  |
\*---------------------------------------------------------------------------*/
FoamFile
{
    version     2.0;
    format      ascii;
    class       vectorField;
    location    "0.3/lagrangian/reactingCloud1";
    object      U;
}
// * * * * * * * * * * * * * * * * * * * * * * * * * * * * * * * * * * * * * //


67
(
(-0.8670050578 -0.6385764782 -3.0024629)
(-0.9924011857 -0.3483520414 -3.194005261)
(-0.9620424569 -0.4472001105 -2.822828385)
(-0.8163181297 -0.6092106884 -3.20207797)
(0.1312473104 -0.03771627632 -1.41059669)
(0.107918658 0.003899896614 -1.516845009)
(-0.198426606 -0.06247096007 -1.385954097)
(-0.3823210345 -0.01947484947 -1.469498583)
(-0.3480160582 0.007036841976 -1.427132913)
(-0.3248376891 -0.7305156493 -3.178328064)
(-0.5253562884 -0.6939793317 -3.347181982)
(-0.4355775629 0.009965785958 -1.40891272)
(0.1515975582 0.03319880852 -1.340829983)
(0.151769095 0.03469003727 -1.332139909)
(0.1707796404 0.03342003496 -1.335973153)
(-0.8322683422 -0.184760356 -2.955907841)
(-0.1600267028 -0.007021440382 -1.234765455)
(0.3057649752 -0.1730570731 -1.20207915)
(-0.9266062208 0.004333131111 -1.2778764)
(-0.8735009853 -0.1426357062 -2.915963688)
(-0.5647352049 -0.01441786428 -1.23855551)
(-0.9909271183 0.0176075339 -1.242136924)
(-0.4942097453 -0.6052898211 -3.048754004)
(-0.8606847762 0.02666520867 -1.216219262)
(-0.5236331861 0.04634719476 -1.071114325)
(-0.3477502531 -0.5551699652 -3.271220233)
(0.08485858525 -0.1744848399 -1.176134355)
(-0.816760661 0.02913741592 -1.127072221)
(-0.1874987508 -0.7181666427 -3.080279759)
(-0.1536962887 0.06829603239 -0.9932409316)
(-0.252411131 -0.7904041699 -3.114287925)
(-0.1252769427 -0.02715921588 -1.26172566)
(-0.2115544395 -0.6883073125 -1.285355177)
(-0.8203289426 -0.3129925989 -2.651140063)
(-0.8845742074 -0.7079428762 -2.376712404)
(-1.133731036 0.1456325753 -2.381354984)
(-0.2833633954 -0.9419152103 -2.768308386)
(-0.2478007123 0.03832870404 -0.7241943044)
(-1.027810994 -0.6438192456 -2.206599544)
(-1.000460456 0.08868355504 -2.217784558)
(-0.2435615169 -0.6303427614 -2.96263944)
(-0.2244348984 0.05451773017 -0.5969574497)
(-0.1735940781 0.03370122984 -0.602029258)
(-0.5560745988 -0.5895022957 -2.524067281)
(-1.49776944 0.03283842421 -0.5741539746)
(-1.477734148 0.02478633701 -0.5512197751)
(-0.9456586591 0.04081406756 -0.5148587948)
(0.2399061063 0.07429879814 -0.4755035183)
(-0.6245349835 -0.5100390169 -2.521852246)
(0.551882458 -0.1686863778 -0.4715034634)
(-0.7129010401 -0.2108721449 -2.436917829)
(0.564673306 -0.2120414693 -0.4361970163)
(-0.2658707808 -0.3767310133 -1.118128121)
(0.5276449802 -0.2260987738 -0.3926857498)
(-0.4805560129 -0.1157175188 -2.551049474)
(-0.6230584782 -0.7825118714 -2.202169077)
(-0.9712924493 -0.2936507174 -2.007665871)
(0.4724489431 -0.219698832 -0.3225261423)
(0.465490887 -0.2097088896 -0.2842819525)
(-0.01700678255 -0.7260074783 -2.533002793)
(-0.3202243371 -0.4258281397 -0.9198669472)
(-0.2287601922 -0.5510351571 -2.590344697)
(0.4067521537 -0.243264309 -0.1802851126)
(-0.9786128164 -0.172678955 -1.894167867)
(0.3461667258 -0.2705311911 -0.08816855397)
(-0.7102313632 -0.2330377473 -2.129971193)
(0.3069307073 -0.2743665142 -0.03646101426)
)


// ************************************************************************* //
