/*--------------------------------*- C++ -*----------------------------------*\
  =========                 |
  \\      /  F ield         | OpenFOAM: The Open Source CFD Toolbox
   \\    /   O peration     | Website:  https://openfoam.org
    \\  /    A nd           | Version:  8
     \\/     M anipulation  |
\*---------------------------------------------------------------------------*/
FoamFile
{
    version     2.0;
    format      ascii;
    class       scalarField;
    location    "1.5/lagrangian/reactingCloud1";
    object      d;
}
// * * * * * * * * * * * * * * * * * * * * * * * * * * * * * * * * * * * * * //


178
(
0.0007487263237
0.0007374660115
0.0005785348051
0.0009099588627
0.000901817466
0.0005584542003
0.0005535305288
0.0009195627436
0.0008201065695
0.0005841030085
0.000821908225
0.0006091005973
0.0006782609458
0.0006506893956
0.0007528893524
0.0005458827682
0.0005040791486
0.000567605943
0.0005459647634
0.0008669341393
0.0006149808915
0.0005793295641
0.0006796241501
0.001148252512
0.0005736033443
0.0008173086147
0.0006334310926
0.0009772829104
0.0005314441591
0.001098505506
0.0005252244572
0.0007234113021
0.0006180457269
0.0006275667386
0.0005497702645
0.0005361510667
0.0005569127013
0.0005145781398
0.0005190900642
0.0009620788917
0.00112886852
0.0009140200781
0.0005401680947
0.0005113710384
0.000900643137
0.0007413046884
0.0006843667997
0.000504628724
0.0005108921807
0.0005443388326
0.0007957128903
0.0005353386445
0.0005280594098
0.001174543936
0.001184382829
0.0005378097254
0.0007761269323
0.00081416291
0.0005279289005
0.0006203608999
0.0005307727365
0.0005679086296
0.0006322628451
0.000544498047
0.00100705588
0.0007850456047
0.0008739062818
0.0005379225164
0.0006514297036
0.0005072279506
0.001196465073
0.0006392344417
0.001040352269
0.0005478827681
0.0005162067974
0.0005855970064
0.0006724674518
0.0005873477744
0.0005643190777
0.0005631758554
0.0009361853727
0.0007104037737
0.0006226932653
0.0005881201397
0.0007706985975
0.0008655292124
0.0005907343074
0.0006255565673
0.0007746668405
0.0008169823009
0.0005558119253
0.0007731636725
0.0005097270646
0.0006979818238
0.0006819192539
0.0007107601079
0.0005536401642
0.0007492071388
0.0008027723483
0.0009736043411
0.0009249453287
0.0008409157533
0.000692293974
0.0005063355962
0.0008725132132
0.001154621108
0.0006463909097
0.0009460447805
0.001052599912
0.000829009582
0.0005891457265
0.0005429886757
0.0008833395557
0.0006091770153
0.0005958495224
0.001054287964
0.00098843301
0.0005326174642
0.001148234876
0.0005853452905
0.0005117446441
0.0006394011339
0.0008769356766
0.0009358129028
0.0007484008174
0.0009508009289
0.0006356319491
0.001142763854
0.0006451751246
0.0005650695152
0.001167332609
0.0006769167749
0.0007753865217
0.0006644370644
0.0006308472973
0.001036667327
0.001098505506
0.0005600880268
0.0008552576017
0.000562520157
0.0006467477976
0.0005318828872
0.0005372050577
0.00055385879
0.001089998394
0.0009524226152
0.0006444071028
0.0008991330796
0.0005204709709
0.001042045238
0.0005642614651
0.0008253479671
0.0007536054643
0.0009671414814
0.0005224727267
0.0008117261007
0.0005112002949
0.0005340027821
0.00102541882
0.0007351187823
0.0007659497292
0.0007230150462
0.001149738597
0.0008064935551
0.0006415548581
0.0008795747892
0.0006404016995
0.0005529971443
0.0005637748035
0.000664944017
0.0006959794644
0.0005125151444
0.0006935392552
0.0008929692839
0.0005048081873
0.000568210181
0.000663539356
0.0008477283458
)


// ************************************************************************* //
