/*--------------------------------*- C++ -*----------------------------------*\
  =========                 |
  \\      /  F ield         | OpenFOAM: The Open Source CFD Toolbox
   \\    /   O peration     | Website:  https://openfoam.org
    \\  /    A nd           | Version:  8
     \\/     M anipulation  |
\*---------------------------------------------------------------------------*/
FoamFile
{
    version     2.0;
    format      ascii;
    class       scalarField;
    location    "1.5/lagrangian/reactingCloud1";
    object      nParticle;
}
// * * * * * * * * * * * * * * * * * * * * * * * * * * * * * * * * * * * * * //


178
(
101.1268906
812.9900609
100.6587063
100.0564418
100.5822716
107.1799152
101.250572
101.2419714
101.5279576
104.3430591
100.6984503
100.2159301
100.3511229
100.107517
100.0149254
147.2338217
101.6064157
109.521757
102.276743
268.3622147
103.0713508
100.2010688
104.179637
632.8064919
100.3264864
100.150728
101.3111275
100.9200882
100.3057583
100.5762175
6402.454833
106.7210296
103.7499098
105.3666789
100.9271628
101.2810318
106.8903861
100.3915267
112.7137305
100.147334
655.7008862
1244.988073
406.2425309
105.4241674
151.7506945
100.0346137
100.3935208
573.5105604
105.9175188
5839.451588
1947.636412
101.5908777
100.2854638
124.8160776
558.2262147
100.3362355
100.0499803
101.624509
104.8730433
632.2298208
100.1784567
100.4020994
100.2910841
101.7056411
100.7874712
100.9225163
100.0525932
103.5722985
101.4793484
101.7872193
100.078725
100.4899236
100.6676201
100.4268798
303.3204233
103.2941369
101.9614608
118.9350916
101.5841271
105.2010374
1175.923896
100.5059142
102.8078275
101.4171125
100.0889947
100.0709607
100.8373679
100.5393042
100.0110182
778.6062021
104.0670985
100.3123143
102.5722685
189.7328645
100.2028391
101.1527666
101.5404367
100.2822286
101.0801814
1150.258554
1175.116323
141.6571502
2840.595948
7443.815436
100.23516
100.3688157
100.1792452
100.2679118
819.3634416
1682.202429
323.4066809
104.2056395
100.0751284
4179.628546
4499.810524
100.0145662
100.0379465
151.9010479
100.7245232
100.1265918
110.1752855
3646.025004
100.5275107
100.5011061
100.1067062
1134.931637
3650.645563
100.1542048
199.4669573
103.9370258
580.4448936
106.4805174
100.1741997
3215.495653
358.6553692
102.0646169
100.1127984
3667.153918
105.4848585
112.7532189
106.1765787
126.6535966
120.5910022
107.518219
100.2165603
102.7219648
101.7236912
100.6547412
101.089403
100.5758255
106.9363042
100.7206514
2254.442984
100.6664375
6765.197781
101.9240576
106.1904483
6311.170572
191.8538855
201.5994034
100.2869355
2552.873923
180.0732068
134.5347703
100.027931
100.1758225
101.2818826
138.6224777
161.8368113
100.7812823
101.089434
7167.228722
101.6518774
166.4989779
104.1982069
100.3169031
100.9251118
277.1664872
)


// ************************************************************************* //
