/*--------------------------------*- C++ -*----------------------------------*\
  =========                 |
  \\      /  F ield         | OpenFOAM: The Open Source CFD Toolbox
   \\    /   O peration     | Website:  https://openfoam.org
    \\  /    A nd           | Version:  8
     \\/     M anipulation  |
\*---------------------------------------------------------------------------*/
FoamFile
{
    version     2.0;
    format      ascii;
    class       scalarField;
    location    "1.5/lagrangian/reactingCloud1";
    object      T;
}
// * * * * * * * * * * * * * * * * * * * * * * * * * * * * * * * * * * * * * //


178
(
299.9999967
299.999992
299.9999942
299.9999939
299.9999989
299.9999988
299.9999988
299.9999986
299.9999985
299.9999985
299.9999985
299.9999985
299.999997
299.999996
299.9999962
299.9999816
299.999996
299.9999844
299.9999844
299.9999853
299.9999854
299.9999958
299.9999844
300
299.9999956
299.9999879
299.9999887
299.9999997
299.9999988
299.9999997
300
299.9999997
299.9999997
299.9999997
299.9999862
299.9999997
299.9999996
299.9999988
299.9999847
299.9999996
300
300
299.9999976
299.9999978
299.9999967
299.9999982
299.9999887
299.9999969
299.9999822
300
300
299.999998
299.9999956
299.9999988
300
299.9999888
299.9999978
299.9999886
299.9999983
299.9999976
299.9999978
299.9999999
299.9999962
299.9999977
299.9999985
299.999989
299.9999982
299.999989
299.9999885
299.9999906
299.9999989
299.9999915
299.9999992
299.999999
299.9999978
299.9999891
299.9999988
299.9999988
299.999991
299.9999988
300
299.9999915
299.9999989
299.9999914
299.9999973
299.9999991
299.999999
299.9999971
299.999999
299.9999903
299.999999
299.9999923
299.999999
299.999997
299.9999977
299.999999
299.999999
299.9999864
299.999999
299.9999993
300
299.999998
300
300
299.9999934
299.9999917
299.9999853
299.9999981
300
300
299.9999985
299.9999917
299.9999939
300
300
299.9999921
299.9999996
299.9999981
299.9999985
299.9999901
299.9999917
300
299.9999918
299.9999982
299.9999991
300
300
299.9999985
299.9999975
299.9999984
300
299.9999983
299.9999941
300
299.9999982
299.9999852
299.999977
299.9999978
299.9999978
299.9999978
299.9999978
299.9999978
299.9999978
299.9999978
299.9999978
299.9999978
299.9999919
299.9999918
299.9999918
299.9999978
299.9999978
299.9999978
300
299.9999978
300
299.9999978
299.9999978
300
299.9999978
299.999998
299.999998
300
299.9999887
299.9999993
299.9999978
299.9999979
299.9999844
299.9999893
299.9999925
299.9999948
299.9999843
300
299.9999842
299.999998
299.9999945
299.9999991
299.9999858
299.9999979
)


// ************************************************************************* //
