/*--------------------------------*- C++ -*----------------------------------*\
  =========                 |
  \\      /  F ield         | OpenFOAM: The Open Source CFD Toolbox
   \\    /   O peration     | Website:  https://openfoam.org
    \\  /    A nd           | Version:  8
     \\/     M anipulation  |
\*---------------------------------------------------------------------------*/
FoamFile
{
    version     2.0;
    format      ascii;
    class       vectorField;
    location    "1.5/lagrangian/reactingCloud1";
    object      U;
}
// * * * * * * * * * * * * * * * * * * * * * * * * * * * * * * * * * * * * * //


178
(
(-0.04581716519 -0.0064648073 -2.094642654)
(-0.1384494967 0.2388512051 -2.237020867)
(-0.414653922 -0.1040650266 -1.865820901)
(0.01478315382 -0.1221893259 -2.115223791)
(-0.4726906132 -0.01570861914 -2.108775344)
(0.6631163454 0.00819096797 -1.677048119)
(0.6553368817 0.01269373502 -1.642254779)
(1.038890866 -0.01718693017 -1.951627655)
(1.024322544 -0.01340144729 -1.899248947)
(0.8242661115 0.007287015321 -1.727051068)
(1.082356737 -0.01129170753 -1.873127291)
(0.9084839357 0.00500757479 -1.72893444)
(-0.4422171867 -0.05565264029 -1.820757793)
(-0.2109264294 -0.1054654777 -1.861840015)
(-0.4988285013 -0.05839454249 -1.76074413)
(0.1059250048 0.1450093699 -1.932340069)
(-0.443885001 -0.03320985713 -1.652798295)
(0.003112031146 0.1782836498 -1.974572465)
(0.009078026841 0.1618911632 -1.957684276)
(-0.006551561869 0.2269185562 -2.107323349)
(-0.01691347125 0.2041175933 -1.973249798)
(-0.4848264085 -0.04157405312 -1.658846478)
(0.01625159144 0.1567963335 -2.028318459)
(-0.6593547558 0.5144712643 -3.482519881)
(-0.492110476 -0.03719220782 -1.603035934)
(0.1638681392 0.2495127614 -1.963853732)
(0.1430978118 0.2400486235 -1.856018526)
(-0.6675514741 -0.02849511644 -1.65431592)
(-0.4905093361 0.007272808575 -1.598557179)
(-0.6612628795 -0.02329422412 -1.643110345)
(-0.6627319166 0.5450981791 -3.225058717)
(-0.6026784341 -0.01347107889 -1.613961611)
(-0.5854832842 -0.01099876161 -1.597675289)
(-0.5906343702 -0.0122356503 -1.592510174)
(0.1321337515 0.1580509757 -1.779765525)
(-0.5800043549 -0.0100111809 -1.577427569)
(-0.5974729199 -0.01242512272 -1.575788624)
(-0.4552309969 -0.02540452131 -1.534682251)
(0.03178868989 0.09438069651 -1.874417876)
(-0.6408729484 -0.02207117155 -1.56035986)
(-0.2947698537 1.110334005 -2.89596154)
(-0.8969080368 0.4315616112 -3.152220827)
(-0.07901352793 0.01125066971 -1.479459788)
(-0.07856022026 0.01172980138 -1.454066342)
(-0.8378585062 -0.003540899279 -1.409023022)
(-0.5294780527 -0.09950114775 -1.37909809)
(0.2001427232 0.2024643557 -1.686654533)
(-0.650079147 0.01491489633 -1.350595661)
(-0.002500702549 0.09277083887 -1.878968318)
(-0.07827225704 0.6589585042 -3.256478193)
(0.007781705984 0.9982836703 -2.882126783)
(-0.5085975613 -0.09755189375 -1.347706924)
(-0.6358973048 -0.0406983334 -1.282816339)
(-0.07227212294 0.006666170382 -1.334333173)
(-0.2568096375 1.122536892 -2.925361736)
(0.1906952289 0.1854983235 -1.619125608)
(-0.4253054144 0.01569359378 -1.313038531)
(0.2173638779 0.1865814572 -1.740789284)
(-0.2945026096 0.01368139516 -1.26399747)
(-1.05330421 0.0124952538 -1.290800247)
(-0.5192215871 -0.1003018754 -1.321462403)
(-0.04458058247 1.208104547 -2.512522919)
(-0.5960025477 -0.08946389269 -1.294020371)
(-0.5322242002 -0.1023958837 -1.29306355)
(-0.5974024684 0.008400609527 -1.278492189)
(0.1995943613 0.1978418419 -1.712131433)
(-0.4798380177 0.00548767269 -1.267927247)
(0.1859200591 0.179421485 -1.61480124)
(0.2124644669 0.1456864031 -1.668311052)
(0.1329606788 0.1791635904 -1.53738796)
(-0.1931348847 -0.0610697959 -1.233083426)
(0.133354252 0.2086611021 -1.588103515)
(-0.00186806734 -0.01058886716 -1.217548999)
(0.1933775642 -0.02965255268 -1.128426326)
(-0.2244605091 -0.08746777195 -1.102062942)
(0.1868282843 0.1788154575 -1.629198731)
(0.2793728384 0.07433383355 -1.240969577)
(0.27419115 0.06274411179 -1.223027761)
(0.09702696757 0.1849602926 -1.643602072)
(0.2601716119 0.02900240759 -1.177810933)
(-1.008382437 0.4631335335 -2.782949728)
(0.1023055375 0.2172099929 -1.695177628)
(0.2033709508 -0.01012697272 -1.140425494)
(0.1215564783 0.200482993 -1.547042763)
(-0.6225151362 -0.1064889576 -1.178180391)
(-0.1404911075 -0.03377431538 -1.140273348)
(-0.3884308084 -0.02196638851 -1.16197888)
(-0.6121409545 -0.1045464803 -1.141159333)
(-0.415213116 -0.02620830681 -1.140787743)
(0.007776976695 0.1684074377 -1.747301437)
(-0.4052446887 -0.01835992406 -1.13681647)
(0.09746062626 0.2288767034 -1.655741151)
(-0.3908166774 -0.01645719479 -1.128222513)
(-0.1601355041 0.08989354596 -1.4826023)
(-0.215745105 -0.04800877488 -1.012261805)
(-0.3383766351 -0.01915937681 -1.093429446)
(-0.3972882671 -0.01480308757 -1.095112877)
(0.1529134319 0.1123366814 -1.981577902)
(-1.13892626 -0.02142329525 -1.034646331)
(-0.192928605 0.2666524078 -1.045006222)
(-0.309241143 1.100650494 -2.581086909)
(-0.164000065 0.02161493024 -1.363484089)
(-0.8660733391 0.9073794613 -2.401233472)
(-0.7665882567 0.7382767434 -2.592447523)
(0.07331713081 0.2345735481 -1.532339528)
(0.1457649738 0.1946803461 -1.474114631)
(0.135871049 0.1090922156 -1.989264262)
(0.002716106205 -0.2104610866 -0.8944251364)
(-0.9365376665 0.8710113268 -2.50666363)
(-0.479030971 0.7074974875 -2.76554804)
(-0.17010659 0.04585515233 -1.381252392)
(0.1637340242 0.1651994779 -1.372487038)
(0.1160196213 0.255530369 -1.383636812)
(-0.2776856767 0.5910769541 -2.864675981)
(-0.8055374632 0.571843171 -2.604782936)
(-0.3275545846 0.3353730312 -2.207851759)
(-0.209923107 -0.1667933207 -0.7666258921)
(-0.2826752376 0.05212196045 -0.8725207968)
(0.5735558314 0.004555533681 -0.7775624707)
(0.1900083641 0.1051214389 -1.56553179)
(0.1644142176 0.1603817147 -1.352319961)
(-0.1791149866 0.6761755869 -2.78458927)
(0.1783987495 0.1675161631 -1.383380086)
(0.5985959035 0.01494955317 -0.7206738353)
(-0.162446178 -0.06837757883 -0.6802017561)
(-0.4416616386 0.6157420529 -2.699774043)
(0.05683910809 1.20049855 -2.197171011)
(-0.9387067335 -0.02203204261 -0.6982894958)
(0.6144492365 -0.00897076537 -0.6714431915)
(-0.6747660595 -0.01536874127 -0.7043427826)
(-0.9169115452 0.1173304916 -3.156739939)
(-0.6522840019 -0.01926471072 -0.670431527)
(0.1135431145 0.2358555958 -1.259906604)
(0.08861471464 0.9608793325 -2.440734979)
(-0.6118363807 -0.03382049262 -0.58795293)
(0.03972563542 0.05761710828 -2.194686557)
(-0.359567633 0.1407568528 -2.024667964)
(-0.06689601012 0.001574629104 -0.538338324)
(0.1061400086 0.000581334112 -0.5177221272)
(0.08838160067 0.0009035772048 -0.5112348999)
(0.09277818402 0.000720111476 -0.5081761209)
(0.08355554167 0.000877296553 -0.5039335165)
(0.08166620905 0.0008263952025 -0.5012535364)
(0.08087255248 0.0007537301502 -0.4986102262)
(0.09883453976 0.0002634320987 -0.4880879049)
(0.08478784775 0.0002074558351 -0.4653099345)
(0.1850231866 0.130384237 -1.270784797)
(0.1876714761 0.1269408236 -1.326423357)
(0.1799295355 0.1239051416 -1.26033108)
(0.07175392992 0.0002888892495 -0.4379423387)
(0.05652529897 0.000523026123 -0.4167915721)
(0.05605569699 0.0004831437932 -0.4021006532)
(0.0592035902 0.7217478574 -2.414186239)
(0.04397087407 0.0004969708646 -0.3646425521)
(-0.1220595101 0.8797892883 -2.204157089)
(0.0302296554 0.0005443524251 -0.3182944046)
(0.02331194974 0.0007706874571 -0.2932102677)
(-0.3348572653 0.2004424044 -2.597002473)
(0.003485157285 0.2835819062 -0.2373377108)
(-0.1187654034 0.1133163501 -1.502837037)
(-0.2740080742 -0.05234940207 -0.1768816449)
(-0.6025035703 0.3360110249 -2.237350455)
(0.2135387645 0.02829578474 -1.868252731)
(-7.325776822e-05 0.8005461266 -3.0425684)
(-0.2716456246 -0.07741058597 -0.1084289038)
(-0.1784567936 0.05388282333 -0.1048767056)
(-0.2658909154 0.4265619125 -1.845059094)
(-0.3136215556 -0.07153934388 -0.1048694717)
(-0.2730309975 -0.09087446221 -0.1031856601)
(0.2124970036 0.180911602 -1.900052883)
(-0.2612330695 0.4307623239 -1.87414538)
(0.1902565273 0.7073545884 -2.152649469)
(-0.2453517279 0.4152444635 -1.883504422)
(-0.09984565296 -0.1142545149 -0.05946536059)
(0.1908133593 0.1556138937 -1.730653197)
(-0.06384335498 -0.01460501999 -1.071453856)
(0.2701310022 -0.06326381831 -0.03192535733)
(-0.027673744 -0.1335637249 -0.007833078301)
)


// ************************************************************************* //
