/*--------------------------------*- C++ -*----------------------------------*\
  =========                 |
  \\      /  F ield         | OpenFOAM: The Open Source CFD Toolbox
   \\    /   O peration     | Website:  https://openfoam.org
    \\  /    A nd           | Version:  8
     \\/     M anipulation  |
\*---------------------------------------------------------------------------*/
FoamFile
{
    version     2.0;
    format      ascii;
    class       Cloud<basicReactingMultiphaseParcel>;
    location    "0.1/lagrangian/reactingCloud1";
    object      positions;
}
// * * * * * * * * * * * * * * * * * * * * * * * * * * * * * * * * * * * * * //

9
(
(0.1462132253 0.3644080043 0.1445352564 0.344843514) 64047 189834 1
(0.2265876041 0.09926357063 0.317132044 0.3570167813) 65103 192460 1
(0.8231262032 0.04909909863 0.06248293694 0.06529176119) 64818 191750 1
(0.1549075324 0.06143873101 0.02092281069 0.7627309259) 32560 103295 1
(0.2318573621 0.189529059 0.265612787 0.313000792) 52365 160973 2
(0.08779570801 0.01285150399 0.3846915903 0.5146611977) 37412 118301 2
(0.2418391008 0.05988953304 0.07644000502 0.6218313612) 37496 118549 2
(0.03293189811 0.1700083874 0.7514053417 0.0456543728) 38253 205044 1
(0.04689242052 0.1047021201 0.622350348 0.2260551114) 38924 207879 2
)


// ************************************************************************* //
