/*--------------------------------*- C++ -*----------------------------------*\
  =========                 |
  \\      /  F ield         | OpenFOAM: The Open Source CFD Toolbox
   \\    /   O peration     | Website:  https://openfoam.org
    \\  /    A nd           | Version:  8
     \\/     M anipulation  |
\*---------------------------------------------------------------------------*/
FoamFile
{
    version     2.0;
    format      ascii;
    class       vectorField;
    location    "0.1/lagrangian/reactingCloud1";
    object      U;
}
// * * * * * * * * * * * * * * * * * * * * * * * * * * * * * * * * * * * * * //

9((0.9005625983 0.4878643044 -2.147009733) (0.5977256092 0.7245262453 -2.238887267) (0.5859738921 0.362156972 -2.343907698) (0.8220156462 0.5685399804 -2.296070518) (0.2988383003 0.2925326725 -2.579403643) (1.004908253 0.7300920353 -1.875297476) (0.5156996724 1.208251462 -1.868939395) (0.2170578298 1.169904339 -1.889917705) (0.4953650575 0.33442187 -2.156638783))

// ************************************************************************* //
