/*--------------------------------*- C++ -*----------------------------------*\
  =========                 |
  \\      /  F ield         | OpenFOAM: The Open Source CFD Toolbox
   \\    /   O peration     | Website:  https://openfoam.org
    \\  /    A nd           | Version:  8
     \\/     M anipulation  |
\*---------------------------------------------------------------------------*/
FoamFile
{
    version     2.0;
    format      ascii;
    class       scalarField;
    location    "0.6/lagrangian/reactingCloud1";
    object      d;
}
// * * * * * * * * * * * * * * * * * * * * * * * * * * * * * * * * * * * * * //


64
(
0.0006215264975
0.0005851430126
0.000742986804
0.0006269801282
0.0005459647634
0.0005679086296
0.0006514297036
0.000512611143
0.0006486753298
0.0007104037737
0.0005379225164
0.0006091005973
0.0005746176783
0.0005769933958
0.0007196665056
0.0005469682727
0.0005569127013
0.0006180457269
0.0009620788917
0.0007681590935
0.001196465073
0.0009195627436
0.0006463909097
0.001158084561
0.0005841030085
0.0005040438855
0.0005062456902
0.0006401220959
0.0005515407599
0.0005454347907
0.0008991330796
0.0005497702645
0.0007706985975
0.0005746543661
0.0009772829104
0.0006149808915
0.0005506456707
0.0007983696265
0.0005535305288
0.000746764611
0.000769129551
0.0005855970064
0.0006280635183
0.0005072279506
0.0006298574271
0.0006564594948
0.0008725132132
0.001154621108
0.0008769572859
0.0006140542893
0.0006275667386
0.0005678182512
0.0005602274757
0.0005046543162
0.0008769356766
0.0006444071028
0.001128812676
0.0006554687239
0.001048705356
0.0005873477744
0.0008655292124
0.0005072967658
0.0005907343074
0.0008608091542
)


// ************************************************************************* //
