/*--------------------------------*- C++ -*----------------------------------*\
  =========                 |
  \\      /  F ield         | OpenFOAM: The Open Source CFD Toolbox
   \\    /   O peration     | Website:  https://openfoam.org
    \\  /    A nd           | Version:  8
     \\/     M anipulation  |
\*---------------------------------------------------------------------------*/
FoamFile
{
    version     2.0;
    format      ascii;
    class       scalarField;
    location    "0.6/lagrangian/reactingCloud1";
    object      nParticle;
}
// * * * * * * * * * * * * * * * * * * * * * * * * * * * * * * * * * * * * * //


64
(
3952.378188
4778.331891
2278.455463
3887.498598
100.6567977
5163.118433
100.9476241
104.7379388
3491.797459
100.1352249
101.4301791
104.9253826
5123.148491
105.3901674
2622.840372
5974.194045
103.7759849
101.6414776
101.9233363
100.5427381
100.0774375
100.3449641
3619.761948
100.8487175
100.1623756
105.1074946
101.6462426
3660.670482
102.3284354
5921.466977
100.5215916
5884.144582
102.931046
101.8776304
1047.529257
106.9701597
5651.376496
108.1196824
106.2053789
100.2567842
2109.304122
4742.076282
121.3237459
7408.312966
126.8227389
100.429845
1457.05725
610.135698
104.3418639
100.3978282
3883.33346
135.6513198
101.0491691
7410.008764
1423.250094
3586.769613
666.2010093
3392.37481
828.3221843
4714.913929
1473.379288
101.1911799
4634.289609
1453.697835
)


// ************************************************************************* //
