/*--------------------------------*- C++ -*----------------------------------*\
  =========                 |
  \\      /  F ield         | OpenFOAM: The Open Source CFD Toolbox
   \\    /   O peration     | Website:  https://openfoam.org
    \\  /    A nd           | Version:  8
     \\/     M anipulation  |
\*---------------------------------------------------------------------------*/
FoamFile
{
    version     2.0;
    format      ascii;
    class       scalarField;
    location    "0.6/lagrangian/reactingCloud1";
    object      rho;
}
// * * * * * * * * * * * * * * * * * * * * * * * * * * * * * * * * * * * * * //


64
(
1000
1000
1000
1000
994.5114686
1000
994.5114687
994.5114687
1000
994.5114687
994.5114687
994.5114688
1000
994.5114688
1000
1000
994.5114686
994.5114686
994.5114686
994.5114686
994.5114688
994.5114688
1000
994.5114686
994.5114688
994.5114687
994.5114712
1000
994.5114701
1000
994.5114686
1000
994.5114687
994.5114689
1000
994.5114688
1000
994.5115103
994.5114688
994.5114688
1000
1000
994.5115082
1000
994.511507
994.5114701
1000
1000
994.5115045
994.5114687
1000
994.5115056
994.511469
1000
1000
1000
1000
1000
1000
1000
1000
994.5114686
1000
1000
)


// ************************************************************************* //
