/*--------------------------------*- C++ -*----------------------------------*\
  =========                 |
  \\      /  F ield         | OpenFOAM: The Open Source CFD Toolbox
   \\    /   O peration     | Website:  https://openfoam.org
    \\  /    A nd           | Version:  8
     \\/     M anipulation  |
\*---------------------------------------------------------------------------*/
FoamFile
{
    version     2.0;
    format      ascii;
    class       vectorField;
    location    "0.6/lagrangian/reactingCloud1";
    object      U;
}
// * * * * * * * * * * * * * * * * * * * * * * * * * * * * * * * * * * * * * //


64
(
(0.57319152 -0.3939761293 -3.206920478)
(0.2416298699 -0.8260997526 -3.092070275)
(1.045896407 -0.320706685 -2.815136892)
(0.4382735238 -0.9453255571 -2.713598614)
(0.4684903385 -0.2757003248 -1.837653908)
(0.3848663625 -0.7280365313 -2.925269949)
(0.4598082272 -0.3129106449 -1.876740583)
(0.3649394335 -0.2494184351 -1.700787094)
(0.851015169 -0.4938763775 -2.659605795)
(0.3456559781 -0.3002790502 -1.884410552)
(0.2001565583 -0.2353758214 -1.831758425)
(0.3640494291 -0.24224437 -1.900875189)
(0.3505150123 -0.9680234307 -2.447981897)
(0.3451777812 -0.2337897501 -1.914384446)
(0.571495028 -0.9249580946 -2.442114387)
(1.075207767 -0.4296942538 -2.233698372)
(0.1103693168 -0.2320723858 -1.927454829)
(0.1102462071 -0.2383689916 -1.97181275)
(0.106277668 -0.2607531635 -2.101635294)
(-0.05234013163 -0.2875546777 -1.827033493)
(0.1687135105 -0.7852080036 -1.410004632)
(0.3733068866 -0.2612942555 -2.177305494)
(0.4366912571 -0.5032672879 -2.585815677)
(0.1528815126 -0.2485585502 -2.163480004)
(0.3264870512 -0.2203345615 -1.994829457)
(0.07719382664 -0.2060514968 -1.790176951)
(0.1912734672 -0.01764146683 -1.620665682)
(0.1763716258 -0.7455564901 -3.291512234)
(0.2237141682 -0.2217946527 -1.804341538)
(0.8078882093 -0.2438622509 -3.062746165)
(0.2188611916 -0.3093209114 -1.94517634)
(0.734981652 0.004562333782 -2.3374509)
(0.05228938261 -0.2033528479 -1.94106995)
(0.01673049958 -0.1658492729 -1.703110406)
(0.8101630372 -0.3133705892 -2.254160322)
(0.2618799359 -0.1833453461 -1.997306014)
(-0.06106427442 -0.8024426101 -3.085879667)
(0.09770642327 -5.046236637 -1.101390265)
(0.2401327707 -0.1604935901 -1.941265031)
(-0.2488959094 -0.5241960868 -1.26751543)
(-0.03952476781 -0.6688904303 -3.326825942)
(-0.1123446407 -0.4892755367 -2.266675917)
(0.07090321513 -4.216581441 -1.140189748)
(-0.1349072052 -0.1674952681 -2.294822636)
(0.05353616458 -4.239860286 -1.145095272)
(0.2301759889 -0.04612147901 -1.743562366)
(1.311692551 -0.181004961 -1.740682981)
(-0.05975770104 -0.7561540532 -2.123545611)
(-0.03987508338 -4.750614039 -1.182276643)
(0.03815836981 -0.1674696591 -1.672962986)
(-0.2035604926 -0.8159905103 -2.033024892)
(0.009258752223 -3.915231711 -1.128520792)
(0.00576792956 -0.3135343276 -1.239507328)
(-0.1694883756 -0.8538438981 -2.990121626)
(0.2359728439 0.950487019 -1.910229346)
(0.3580872826 0.1678223781 -2.084972758)
(-0.7188702476 -1.195113774 -1.530904954)
(1.057698229 0.7473639233 -1.603057656)
(0.2262451721 0.5530896653 -1.984593153)
(-0.9348162241 -0.3246872716 -1.786130798)
(0.8256636528 0.3085992048 -1.830789877)
(0.3285183509 -0.1329222726 -1.680165163)
(1.075611791 -0.7598022424 -1.518807431)
(-0.3538732712 -0.3859818146 -1.931270046)
)


// ************************************************************************* //
