/*--------------------------------*- C++ -*----------------------------------*\
  =========                 |
  \\      /  F ield         | OpenFOAM: The Open Source CFD Toolbox
   \\    /   O peration     | Website:  https://openfoam.org
    \\  /    A nd           | Version:  8
     \\/     M anipulation  |
\*---------------------------------------------------------------------------*/
FoamFile
{
    version     2.0;
    format      ascii;
    class       scalarField;
    location    "1.2/lagrangian/reactingCloud1";
    object      mass0;
}
// * * * * * * * * * * * * * * * * * * * * * * * * * * * * * * * * * * * * * //


144
(
6.692531049e-08
1.144924415e-07
2.053720233e-07
2.135756417e-07
2.592070541e-07
8.449615111e-08
8.6941095e-08
1.721735193e-07
4.997897128e-07
1.521352046e-07
3.18875201e-07
1.352048479e-07
1.113536192e-07
1.701170063e-07
2.631214508e-07
3.721614166e-07
4.36467576e-07
1.15543946e-07
9.409893017e-08
3.659910657e-07
5.598365721e-07
3.102535259e-07
6.79150993e-07
1.029039929e-07
1.481523366e-07
1.493422319e-07
2.044140332e-07
3.875255332e-07
1.164281816e-07
6.58122213e-08
1.62299172e-07
4.027411551e-07
7.521878985e-08
7.296333864e-08
7.36682254e-07
6.659008483e-07
1.495590665e-07
9.479283496e-08
1.18792266e-07
7.458886123e-08
7.281842314e-08
1.094954845e-07
1.631744818e-07
4.602052135e-07
6.914906042e-08
2.060085185e-07
3.779106471e-07
5.515957135e-07
2.894452777e-07
5.253910016e-07
1.001632924e-07
1.141598651e-07
1.228703175e-07
3.661589805e-07
8.730210681e-08
1.37753322e-07
2.242930399e-07
2.445113268e-07
1.584769725e-07
2.291516106e-07
1.152320506e-07
1.235483022e-07
2.92245476e-07
1.421315731e-07
3.498970792e-07
2.996643083e-07
6.753263146e-08
2.400722068e-07
1.3872917e-07
3.370118541e-07
5.897466869e-07
2.29733779e-07
8.779060447e-08
1.078520319e-07
7.701552159e-07
2.382982547e-07
4.429519298e-07
3.718996151e-07
1.174757366e-07
3.000373515e-07
8.055955919e-07
7.031864051e-08
4.438723667e-07
9.296588866e-08
1.140455025e-07
9.016940987e-08
2.376150534e-07
6.68131222e-08
8.71208944e-08
9.917931057e-08
4.789176823e-07
2.224790772e-07
6.940516582e-08
4.424917363e-07
1.721614074e-07
1.812285016e-07
2.54795924e-07
7.568531907e-08
1.839827636e-07
8.800763501e-08
1.091131881e-07
7.092943158e-07
9.598056904e-08
3.015739281e-07
1.511392872e-07
1.748520706e-07
3.634930683e-07
8.340313192e-07
2.792526422e-07
7.186340604e-08
7.940865156e-08
9.381530047e-08
2.526172903e-07
1.052283358e-07
1.455782916e-07
2.183774274e-07
2.641330527e-07
1.185506669e-07
9.1273286e-08
2.158278131e-07
1.398669709e-07
1.955015358e-07
2.400553346e-07
4.321786353e-07
1.402153058e-07
2.899385195e-07
4.177086794e-07
1.405698705e-07
6.995253889e-08
7.663881928e-07
8.482664215e-08
1.22340147e-07
3.202885334e-07
7.557089763e-08
2.146395043e-07
1.731115355e-07
1.19007645e-07
9.788015313e-08
3.97132393e-07
5.113757346e-07
1.940896111e-07
2.409821889e-07
6.978820042e-08
9.951153451e-08
)


// ************************************************************************* //
