/*--------------------------------*- C++ -*----------------------------------*\
  =========                 |
  \\      /  F ield         | OpenFOAM: The Open Source CFD Toolbox
   \\    /   O peration     | Website:  https://openfoam.org
    \\  /    A nd           | Version:  8
     \\/     M anipulation  |
\*---------------------------------------------------------------------------*/
FoamFile
{
    version     2.0;
    format      ascii;
    class       scalarField;
    location    "1.2/lagrangian/reactingCloud1";
    object      nParticle;
}
// * * * * * * * * * * * * * * * * * * * * * * * * * * * * * * * * * * * * * //


144
(
112.1119046
104.2662649
100.6845486
102.9039279
101.0118379
100.6149854
106.7670396
101.6051135
100.3082911
100.6290796
100.0432898
100.825315
101.3674444
187.3537829
1846.575876
100.0283229
100.0784081
100.0282824
100.3190345
100.0941713
199.9012538
101.0795274
214.8804028
103.7071349
102.0669386
100.1128318
100.9583398
100.0386173
104.9251647
101.7145033
100.3785856
1237.320231
100.4332669
100.0409533
100.1429446
100.0494707
103.1782107
5312.27376
103.1621192
105.6361782
100.3973532
100.6852452
3004.46973
100.0720233
101.7825216
2502.148558
100.0106647
100.0452274
490.5167572
100.2693978
100.3406044
101.4643524
102.1372621
100.1609965
100.7962634
100.3863249
2245.935026
101.2111983
102.1312763
100.7118889
100.5199853
100.4266008
101.5522591
101.3623585
100.2293251
167.562775
102.0770484
100.267431
100.5425489
100.5691257
826.1845404
100.4853137
101.7033243
101.2551095
100.0863183
100.0211553
100.3128511
100.0893181
100.4621496
100.0558424
100.1539603
105.6653966
100.2937995
100.2798533
100.4885159
105.344927
127.1989329
101.4513569
100.3861635
5093.870285
100.1508368
100.5032001
100.573771
100.1094828
100.0833637
100.2866641
1983.717898
100.8344106
100.0183696
100.4197042
100.5696227
143.4742533
100.5816684
1649.22312
100.2297974
100.1510644
1390.513932
122.6945006
101.7043658
6718.251069
100.0499707
100.1291719
1934.649911
4712.825311
3487.116465
100.4237235
265.9642709
100.1817159
100.1379225
100.1852237
100.054127
100.2574943
168.5762923
107.2068661
100.0678503
121.6968256
197.5688121
100.0203034
100.3913248
636.9596865
100.2153086
100.1088881
100.0414353
100.3151073
616.6259813
2812.794023
100.1094247
125.3159288
103.5968346
100.4281304
190.3320445
100.1631021
7456.099307
5242.573504
)


// ************************************************************************* //
