/*--------------------------------*- C++ -*----------------------------------*\
  =========                 |
  \\      /  F ield         | OpenFOAM: The Open Source CFD Toolbox
   \\    /   O peration     | Website:  https://openfoam.org
    \\  /    A nd           | Version:  8
     \\/     M anipulation  |
\*---------------------------------------------------------------------------*/
FoamFile
{
    version     2.0;
    format      ascii;
    class       labelField;
    location    "1.2/lagrangian/reactingCloud1";
    object      origId;
}
// * * * * * * * * * * * * * * * * * * * * * * * * * * * * * * * * * * * * * //


144
(
318
325
327
328
332
333
334
337
348
350
367
372
373
375
522
376
380
382
383
384
385
387
388
389
390
391
393
394
395
396
397
526
399
401
402
403
404
544
405
407
408
409
524
410
411
531
412
413
414
415
417
319
418
419
420
421
561
423
567
424
425
426
570
427
428
429
430
431
432
433
580
434
435
436
573
437
438
439
440
441
442
443
444
445
446
447
448
449
450
607
451
452
453
454
455
456
598
457
458
459
460
461
462
618
463
464
620
465
466
614
467
468
623
616
624
469
470
471
472
473
474
475
335
329
476
477
478
479
480
631
481
482
483
484
485
610
486
902
904
487
488
489
611
642
)


// ************************************************************************* //
