/*--------------------------------*- C++ -*----------------------------------*\
  =========                 |
  \\      /  F ield         | OpenFOAM: The Open Source CFD Toolbox
   \\    /   O peration     | Website:  https://openfoam.org
    \\  /    A nd           | Version:  8
     \\/     M anipulation  |
\*---------------------------------------------------------------------------*/
FoamFile
{
    version     2.0;
    format      ascii;
    class       Cloud<basicReactingMultiphaseParcel>;
    location    "1.2/lagrangian/reactingCloud1";
    object      positions;
}
// * * * * * * * * * * * * * * * * * * * * * * * * * * * * * * * * * * * * * //

144
(
(0.1598685633 0.09361877518 0.7123915903 0.03412107117) 695 1985 2
(0.2688608657 0.08706501277 0.5418242587 0.1022498628) 695 1985 2
(0.0257889336 0.1128545311 0.5782263332 0.2831302022) 1547 4533 1
(0.2503175983 0.1238569817 0.03852297587 0.5873024441) 695 202666 2
(0.3925792774 0.06085343504 0.3187447895 0.227822498) 695 1985 2
(0.1785224646 0.7007705482 0.08597322606 0.03473376114) 3104 6807 2
(0.2337709237 0.1047334013 0.4350870744 0.2264086007) 1471 4256 2
(0.394613076 0.04312542457 0.5246949483 0.03756655111) 1471 4256 2
(0.2426209012 0.1531035549 0.08639010836 0.5178854356) 2247 4331 1
(0.01556854899 0.1927482357 0.6145971348 0.1770860805) 3025 8880 1
(0.2263845725 0.6325999421 0.02255310337 0.118462382) 4637 13596 1
(0.01496762052 0.05377373655 0.872274935 0.0589837079) 6965 20400 1
(0.1744644369 0.3252053468 0.1695656078 0.3307646085) 7823 203755 2
(0.04294054012 0.4244401234 0.4105832568 0.1220360796) 8533 24988 2
(0.08116908269 0.2749298143 0.5278976451 0.1160034579) 2254 6622 1
(0.3134419719 0.05084427572 0.151734864 0.4839788883) 8502 24896 2
(0.005962672753 0.05008905775 0.2168978954 0.7270503741) 10231 27560 2
(0.08698775203 0.2176293538 0.640940527 0.05444236715) 10921 31966 1
(0.4466697545 0.2276774993 0.2401845329 0.08546821326) 11077 32402 1
(0.0731322144 0.5593440229 0.1136821652 0.2538415975) 11015 32154 1
(0.05555264223 0.1439333833 0.2774661357 0.5230478387) 10946 32043 1
(0.1860780695 0.01386314426 0.2590050826 0.5410537036) 11780 31971 1
(0.3022795477 0.09161225644 0.2241943835 0.3819138124) 11076 32401 1
(0.2118664011 0.2122652657 0.2629475505 0.3129207827) 11781 34483 2
(0.1830355486 0.1843101766 0.1413168009 0.4913374739) 11906 34765 1
(0.6042312214 0.112173736 0.2433136523 0.04028139038) 11870 34751 2
(0.07770293523 0.3931341022 0.1528398684 0.3763230942) 11782 34491 1
(0.3103565067 0.08082719231 0.4479582919 0.1608580091) 11780 34480 2
(0.6303771921 0.2793698152 0.04374151728 0.0465114755) 12639 34482 1
(0.1813042673 0.1895136297 0.5036391431 0.1255429598) 12765 37370 2
(0.6279068155 0.1779114472 0.1338998273 0.06028190999) 12639 36994 2
(0.5334958092 0.07527833625 0.114350911 0.2768749435) 1856 5440 2
(0.04802685538 0.6932588881 0.2188073978 0.03990685867) 13632 37374 2
(0.3635932492 0.0008100835929 0.1969139786 0.4386826886) 13631 39905 2
(0.4048695207 0.09912529745 0.430115722 0.06588945986) 13601 37283 2
(0.5831217335 0.04611968552 0.2061985768 0.1645600042) 13659 39966 1
(0.1534349381 0.09622774974 0.122661866 0.6276754462) 13601 39812 2
(0.1650429758 0.08126537213 0.1418631314 0.6118285207) 13313 38958 1
(0.005081297559 0.2760122508 0.5722565236 0.146649928) 14467 42349 1
(0.175247366 0.1799774162 0.2747702118 0.3700050061) 14467 42349 1
(0.2207109579 0.08319379382 0.390487009 0.3056082393) 15369 44899 2
(0.3599197699 0.407193715 0.1553626374 0.07752387768) 15367 42436 1
(0.2666832574 0.5329247807 0.1899805195 0.01041144241) 308 913 2
(0.681991943 0.0326171105 0.1128576349 0.1725333115) 15338 42351 2
(0.4464207364 0.1695202108 0.2771510663 0.1069079864) 15336 44894 2
(0.2655159259 0.1760599843 0.3271049728 0.2313191169) 1213 3567 2
(0.06379001576 0.2222652997 0.4433750545 0.27056963) 15399 204044 1
(0.3801406718 0.1826051937 0.08652141149 0.350732723) 15302 44793 1
(0.008773881321 0.2366462497 0.5255027686 0.2290771004) 15334 44886 2
(0.08949967771 0.1898569178 0.3730387765 0.3476046281) 15398 45052 2
(0.2215589268 0.5771158992 0.1050657602 0.09625941374) 16141 47247 1
(0.0293591542 0.6445646658 0.2144781276 0.1115980524) 1497 2137 2
(0.2754038476 0.4738653346 0.1485921365 0.1021386813) 16239 47536 1
(0.50112767 0.3661510622 0.1289587023 0.003762565437) 16209 47448 1
(0.2078495571 0.1796176092 0.2672463487 0.3452864849) 16269 47603 2
(0.1629581301 0.04829614815 0.7135239985 0.07522172324) 16207 47442 1
(0.1010771352 0.4882982687 0.3734443425 0.03718025362) 14455 42315 2
(0.1896317504 0.1722346494 0.1089711199 0.5291624804) 17090 50026 2
(0.6746138481 0.1927990192 0.0372103479 0.0953767848) 16081 47068 2
(0.2359962002 0.5660804482 0.06825303337 0.1296703182) 17150 50182 1
(0.2796353946 0.2480479147 0.2391228178 0.2331938729) 17151 50184 2
(0.1614763026 0.2251361245 0.2714988298 0.3418887431) 17121 50026 1
(0.1517575549 0.07791873615 0.6692128655 0.1011108435) 16081 47070 1
(0.1023853343 0.7429393957 0.007974246068 0.146701024) 18003 52694 2
(0.2397548333 0.2625398335 0.4577033902 0.04000194294) 17904 49827 2
(0.8754230631 0.02241015192 0.0862471956 0.0159195894) 17879 52333 2
(0.009570334108 0.01994969461 0.5727504853 0.397729486) 17904 52403 1
(0.7104749786 0.0004473117511 0.2532726671 0.03580504255) 18032 52761 1
(0.04187758292 0.06142654966 0.6727222033 0.2239736642) 18826 55330 3
(0.6437557393 0.02132429159 0.2307688504 0.1041511187) 18892 55638 2
(0.06748661544 0.1226528563 0.184706092 0.6251544364) 53918 64630 1
(0.01513012916 0.07288605555 0.1288816988 0.7831021165) 19814 58933 2
(0.06788324289 0.03370364514 0.3784188592 0.5199942527) 53064 162902 2
(0.09461197645 0.3563350547 0.06106742556 0.4879855433) 54295 162894 2
(0.04734718531 0.2355768668 0.197866574 0.519209374) 16899 49461 2
(0.3303467498 0.1131804552 0.2713479844 0.2851248107) 54300 165998 1
(0.7044833338 0.001828170781 0.0837967552 0.2098917402) 54415 65256 1
(0.06598247998 0.266976883 0.06211593732 0.6049246997) 21599 65385 1
(0.2973065739 0.1250040835 0.04060980717 0.5370795354) 21568 65258 1
(0.2009536212 0.5891913046 0.01429175728 0.195563317) 55447 168857 2
(0.1469421388 0.08639581667 0.4181293107 0.3485327338) 55537 169078 2
(0.375175968 0.4692095933 0.006605526584 0.1490089121) 55416 168788 1
(0.2935168257 0.2668451585 0.04214911402 0.3974889017) 55746 169594 1
(0.0917752084 0.2047694932 0.4602796806 0.2431756178) 22395 68181 2
(0.1193061412 0.4357239521 0.3152059789 0.1297639278) 22492 68614 1
(0.5589888997 0.09896887846 0.2874066235 0.05463559841) 22395 68184 2
(0.08900703657 0.1851205069 0.3504152079 0.3754572486) 56569 171660 1
(0.147306271 0.09226330218 0.07240666435 0.6880237625) 56991 172495 1
(0.1210043369 0.1287231981 0.6794022354 0.07087022961) 56690 171965 1
(0.4154201964 0.2299093138 0.02829855709 0.3263719327) 32887 105508 1
(0.322535387 0.3032859548 0.03723316812 0.3369454901) 56805 172259 1
(0.6544891051 0.2498522022 0.04900610557 0.04665258717) 56984 172692 1
(0.2399136521 0.2385153276 0.1731835313 0.348387489) 58039 172272 2
(0.3049133929 0.1918999283 0.06370533155 0.4394813473) 58119 172472 1
(0.1264417653 0.3429388799 0.5253914074 0.005227947359) 57807 71292 1
(0.5303751626 0.006293277743 0.1897562399 0.2735753198) 58217 175634 1
(0.1096433756 0.1189496606 0.3391893124 0.4322176514) 62952 187207 1
(0.2338530339 0.2660818215 0.4436614084 0.05640373621) 57809 71293 2
(0.1883467461 0.06859729244 0.206358701 0.5366972605) 58123 175214 1
(0.3253116729 0.0683938071 0.5949062894 0.01138823056) 58221 175446 1
(0.0871970038 0.5203732784 0.1630695369 0.229360181) 58043 175256 2
(0.03531766986 0.2352813286 0.6134594156 0.1159415859) 57553 174127 2
(0.3180726432 0.3679927449 0.03243388319 0.2815007288) 57803 174720 2
(0.02610508917 0.8018316687 0.08115898035 0.09090426182) 35382 110449 1
(0.001777526434 0.6937834482 0.07648183319 0.2279571922) 58123 175214 2
(0.4908593863 0.2671326603 0.1504409376 0.0915670158) 58132 158165 2
(0.07097235122 0.3012949534 0.5322638047 0.09546889069) 36916 114897 1
(0.03308180528 0.5389080005 0.222677279 0.2053329152) 58117 158122 2
(0.0343978583 0.05551436588 0.05415855811 0.8559292177) 50957 157534 2
(0.2589952784 0.1363926791 0.05366230952 0.550949733) 32797 105094 2
(0.2544696108 0.02758281772 0.6436632757 0.07428429579) 51001 157652 2
(0.2785258447 0.2393948866 0.4009818867 0.08109738205) 50992 74512 2
(0.02040549589 0.1467513339 0.684730837 0.1481123332) 37892 120117 2
(0.4510843983 0.1381228992 0.001623878594 0.4091688239) 33651 107708 2
(0.4417914866 0.2211810088 0.1332973897 0.203730115) 37782 119791 2
(0.2709004978 0.3932494305 0.01446469818 0.3213853735) 51193 157993 2
(0.4766715393 0.04609746034 0.3152549279 0.1619760725) 50957 74390 2
(0.1931695068 0.3083833363 0.3648131722 0.1336339847) 51076 157844 2
(0.2745360266 0.2180301014 0.3110920894 0.1963417826) 24157 74541 2
(0.1670137577 0.3294487892 0.3258976191 0.177639834) 24246 74940 2
(0.5848920425 0.2156626628 0.1530482828 0.04639701193) 51076 157845 2
(0.5068888273 0.2538163723 0.1491600973 0.09013470301) 51007 157671 1
(0.005686699705 0.07051475155 0.6202137114 0.3035848373) 18919 55756 2
(0.2297092511 0.07451028574 0.6397409407 0.05603952249) 18029 52686 1
(0.05869267724 0.0711160922 0.1520258276 0.7181654029) 51034 157541 2
(0.05852787209 0.487787818 0.06963954739 0.3840447625) 51006 157668 2
(0.018089871 0.0748748884 0.6591034834 0.2479317572) 50960 157526 1
(0.2689468923 0.09581505794 0.3632553792 0.2719826705) 50996 157632 2
(0.2660514683 0.04122456308 0.2717419863 0.4209819822) 51024 157713 2
(0.3358152186 0.04422343326 0.0448458902 0.5751154579) 39469 124813 1
(0.009656703509 0.3034140712 0.2547139818 0.4322152435) 51086 157857 1
(0.09471590357 0.4229942418 0.3645378905 0.1177519642) 51002 157445 2
(0.3272315537 0.3250532778 0.1183252439 0.2293899246) 50956 157531 1
(0.03995781356 0.4769547827 0.3462055499 0.1368818539) 51086 157682 1
(0.04465914874 0.638070969 0.06322205492 0.2540478273) 51189 158130 1
(0.2062007111 0.492628645 0.04585711227 0.2553135317) 52050 160333 1
(0.3713506023 0.06347851124 0.01414845145 0.5510224351) 50928 157444 1
(0.02811578111 0.3375248256 0.5051342913 0.129225102) 58840 176887 1
(0.2643009867 0.5251766828 0.1937866734 0.0167356572) 50972 74553 2
(0.4946747646 0.1515014013 0.0412635724 0.3125602617) 51196 203187 1
(0.3647422434 0.1159693999 0.1054608565 0.4138275002) 51198 202943 1
(0.3407167239 0.4147804645 0.185563923 0.05893888857) 51246 202963 2
(0.1422501104 0.3075126923 0.05298728582 0.4972499114) 32643 104366 1
(0.1528436188 0.01031254194 0.4684343626 0.3684094766) 42024 208151 2
)


// ************************************************************************* //
