/*--------------------------------*- C++ -*----------------------------------*\
  =========                 |
  \\      /  F ield         | OpenFOAM: The Open Source CFD Toolbox
   \\    /   O peration     | Website:  https://openfoam.org
    \\  /    A nd           | Version:  8
     \\/     M anipulation  |
\*---------------------------------------------------------------------------*/
FoamFile
{
    version     2.0;
    format      ascii;
    class       scalarField;
    location    "1.2/lagrangian/reactingCloud1";
    object      T;
}
// * * * * * * * * * * * * * * * * * * * * * * * * * * * * * * * * * * * * * //


144
(
299.9999946
299.9999946
299.9999945
299.9999947
299.9999948
299.9999946
299.9999948
299.9999948
299.9999952
299.9999954
299.9999959
299.9999961
299.9999931
299.999992
300
299.9999944
299.9999926
299.9999924
299.9999926
299.9999943
299.9999943
299.9999999
299.9999933
299.9999999
299.9999934
299.9999942
299.9999999
299.9999999
299.9999999
299.9999934
299.9999999
300
299.9999934
299.9999919
299.9999935
299.9999936
299.9999935
300
299.9999935
299.9999935
299.9999919
299.9999941
300
299.9999935
299.9999941
300
299.9999932
299.9999941
299.9999936
299.9999936
299.9999941
299.9999929
299.9999936
299.9999936
299.9999933
299.9999941
300
299.9999936
299.9999994
299.9999937
299.9999933
299.9999936
299.9999993
299.9999936
299.9999942
299.9999997
299.9999943
299.9999939
299.9999944
299.9999937
300
299.9999939
299.9999996
299.9999996
299.9999989
299.9999946
299.9999939
299.9999935
299.9999939
299.9999996
299.9999946
299.9999946
299.9999929
299.9999946
299.9999936
299.9999946
299.9999996
299.9999936
299.9999996
300
299.9999924
299.9999918
299.9999924
299.9999941
299.9999995
299.9999908
300
299.9999986
299.9999942
299.9999904
299.9999925
299.9999811
299.9999974
300
299.9999942
299.9999938
300
299.9999894
299.9999828
300
299.9999983
299.9999969
300
300
300
299.9999942
299.9999882
299.9999995
299.9999974
299.9999923
299.9999992
299.9999986
299.9999925
299.9999936
299.999995
299.9999987
299.9999904
299.9999978
299.9999896
300
299.9999989
299.9999982
299.99999
299.9999988
299.9999795
300
299.9999984
299.9999966
299.9999964
299.9999916
299.9999937
299.9999924
300
300
)


// ************************************************************************* //
