/*--------------------------------*- C++ -*----------------------------------*\
  =========                 |
  \\      /  F ield         | OpenFOAM: The Open Source CFD Toolbox
   \\    /   O peration     | Website:  https://openfoam.org
    \\  /    A nd           | Version:  8
     \\/     M anipulation  |
\*---------------------------------------------------------------------------*/
FoamFile
{
    version     2.0;
    format      ascii;
    class       vectorField;
    location    "1.2/lagrangian/reactingCloud1";
    object      U;
}
// * * * * * * * * * * * * * * * * * * * * * * * * * * * * * * * * * * * * * //


144
(
(-0.007067957143 0.01631446447 -2.187967645)
(-0.007380415449 0.02267385692 -2.258128642)
(0.0002318835999 0.1243614276 -2.078589403)
(-0.005618297782 0.02673116053 -2.317075505)
(-0.005503961324 0.02890535461 -2.321362823)
(0.0009244895693 0.09345328555 -1.901258795)
(-0.01399324555 0.02315582038 -2.176544968)
(-0.008815831264 0.0278745369 -2.250009437)
(-0.005132373303 0.03363032098 -2.274849863)
(-0.009285312552 0.02975175892 -2.092494023)
(0.005950622687 0.09447023678 -2.069036047)
(0.0115302572 0.08222011537 -1.889144583)
(0.1969186595 0.02951842532 -1.823033726)
(0.09445308312 -0.1183423018 -1.758225455)
(-1.008698625 -0.1225307776 -3.17748476)
(0.1692684136 -0.1833855367 -1.83140312)
(0.1393071484 0.01799222211 -1.789126307)
(0.07409539755 -0.1770358119 -1.587925665)
(0.1469680971 0.04845675582 -1.639924686)
(0.1676200474 -0.1035071458 -1.70261473)
(0.00248910441 -0.1734171838 -1.732034911)
(-0.04317604308 0.008435230862 -1.659911725)
(0.1796194143 0.04375672633 -1.731864056)
(-0.03511248997 0.01407660585 -1.565778732)
(0.1993703873 -0.02293027093 -1.601454058)
(0.04317215928 -0.0790666566 -1.607689995)
(0.03091286789 0.01363610427 -1.569537101)
(-0.05597463417 0.00615544779 -1.652886848)
(-0.08939007425 0.009557216681 -1.573201804)
(0.1620634083 0.02380796781 -1.532106329)
(-0.09503734817 0.01009717639 -1.584188198)
(-0.4804066406 -0.8280561657 -3.302494855)
(0.1748747086 -0.008469086858 -1.512188293)
(0.03031690305 0.01733511963 -1.463449807)
(0.2194943694 -0.05653023493 -1.588362149)
(0.118383022 0.08268247179 -1.573977691)
(0.2105181453 -0.05153247991 -1.511860197)
(-0.8977360478 -0.5377876889 -2.80572523)
(0.2092193441 -0.05068963431 -1.487060448)
(0.2064265342 -0.04803385617 -1.449237046)
(0.04237328542 -0.0236121996 -1.358226053)
(0.116155934 -0.04683085186 -1.4156483)
(-0.2820919514 -0.8106405931 -3.343507873)
(0.1989089707 -0.06772952884 -1.451940376)
(0.1244652556 -0.08720959821 -1.351165261)
(-0.3643307006 -0.6217167745 -3.441557767)
(0.127048327 0.07766485901 -1.41840461)
(0.03308762836 -0.1555875991 -1.444025469)
(0.06130639789 -0.07760530532 -1.429286164)
(0.1487198833 0.07441391338 -1.43011009)
(0.02831192937 -0.1992662698 -1.354088153)
(0.006938824523 -0.2096299833 -2.070254939)
(0.1643345867 0.04060470213 -1.360372006)
(0.192942151 -0.06350428449 -1.378390116)
(0.1111936114 0.04099350277 -1.321859647)
(0.1042180719 -0.08484091904 -1.327036385)
(-0.9028122254 -0.09763991024 -3.018580522)
(0.1680537538 -0.05536276055 -1.316145693)
(-0.3960111345 -0.05527289113 -1.388368154)
(0.1494129122 0.07216713825 -1.318299402)
(0.1087422354 0.04241218276 -1.269274849)
(0.1481174595 -0.04361913415 -1.272129431)
(-0.4046791125 -0.0729412327 -1.366374764)
(0.1323906048 -0.03777951906 -1.239727047)
(0.01340023054 -0.2604387778 -1.257870661)
(0.1115660414 0.02566060033 -1.210717491)
(0.01740737918 -0.221657764 -1.199189308)
(0.1252594 0.1017527996 -1.213306052)
(0.001780828914 -0.2427068703 -1.162119907)
(0.1107168222 -0.03418351187 -1.130955781)
(-0.8478836437 -0.355379805 -2.829512966)
(0.1092351487 0.100281218 -1.091258482)
(-0.3775777322 0.1651372397 -1.006226845)
(-0.4660581308 0.2108779371 -0.9730798555)
(-0.4583293022 -0.1899175626 -1.349425184)
(0.08673983416 -0.1863478406 -0.9569995974)
(0.09647898099 -0.04363827271 -0.9172467067)
(0.09935555113 0.0629490185 -0.8898539337)
(0.08564009394 -0.0437146459 -0.8495695322)
(-0.2698081955 0.1796142638 -0.8199015182)
(-0.01011704592 -0.1111798064 -0.8330471431)
(-0.06588773057 -0.2675503032 -0.8078062691)
(0.09847162291 0.1141673372 -0.7862724323)
(-0.07587187873 -0.2898785478 -0.7844301364)
(0.08495770563 0.06048581669 -0.7581398847)
(-0.08217659841 -0.2938608953 -0.7592711542)
(-0.2107386589 0.1363976302 -0.7140682134)
(0.0718571425 0.0389953463 -0.6773211042)
(-0.1581666941 0.1478865974 -0.6762929118)
(-1.205634587 0.08318868211 -2.13709537)
(0.0387774049 -0.07162304101 -0.6825185545)
(0.12641848 0.1477133912 -0.6552788179)
(0.05818501192 -0.08617195932 -0.6027002219)
(0.0948272795 -0.06587037645 -0.610738421)
(-0.2371142393 0.1269313977 -0.5715158008)
(0.1426628359 0.163323999 -0.5608205047)
(-0.4751560367 -0.9493988893 -2.360378736)
(-0.2399998884 0.1144559245 -0.521330247)
(0.1025214422 -0.1279226926 -0.5191296504)
(0.1514248266 0.1488392129 -0.5136173807)
(0.03754242224 -0.08786592539 -0.5006558617)
(0.1490511493 -0.05963074793 -0.5138922983)
(-0.2977266121 0.1280701007 -0.4801078216)
(-1.047929346 0.02421987122 -2.193411036)
(0.1169935615 -0.1559108899 -0.4537677971)
(0.09245136571 0.01729057213 -0.4516052254)
(-1.04079029 -0.7940358273 -1.908966815)
(-0.03196291063 0.1164185815 -0.441008879)
(0.04104607176 0.03641697446 -0.4382456755)
(-0.7707364388 -0.3150493175 -2.311172149)
(-0.2543122106 0.1486387457 -0.4069770039)
(-0.3920414518 0.128081443 -0.4005382889)
(-1.314698077 0.009423904395 -1.842824667)
(-0.7703530691 -0.4290040946 -2.318338117)
(-1.061051177 -0.8017674291 -1.857193704)
(0.1307839044 -0.1801477039 -0.3624612604)
(0.0886668145 0.01453331862 -0.3665137916)
(-0.261614932 0.05280608463 -0.3531860664)
(0.2320957522 0.07830542731 -0.3425329072)
(0.1440979898 0.05726177071 -0.3483119428)
(-0.2625664368 0.1464058301 -0.3277753654)
(-0.2762022579 0.1737669986 -0.3196024428)
(0.01119065566 -0.3033409116 -1.140471347)
(0.01154660602 -0.2723758257 -1.235287655)
(0.1044693673 0.07655801494 -0.3012203063)
(-0.2534934025 0.1709658159 -0.2802550966)
(0.07965765675 0.01077210624 -0.2833007443)
(-0.4919980127 0.1302935508 -0.2599178675)
(-0.5660615603 0.1659195807 -0.2543169987)
(-1.189046744 -0.6941219329 -1.720187126)
(-0.2908115585 0.1607434409 -0.2258487972)
(-0.5353467956 0.1314058984 -0.1922809008)
(0.02651554808 0.08587585677 -0.1776235282)
(-0.295520497 0.1696244592 -0.1489073308)
(-0.196004157 0.3094948638 -0.1325819724)
(-0.1796208275 0.04935283221 -2.60880005)
(-0.5406419758 0.1253076065 -0.1081705288)
(-1.199261247 -0.9807118071 -0.4128039549)
(-1.193128271 -0.5730969066 -0.3805702855)
(0.1051926431 0.06688665001 -0.04420902983)
(0.1074843124 -0.2378838148 -0.04106295526)
(0.1507712861 -0.3020240408 -0.02283863926)
(0.070217624 -0.9494213838 -2.238897138)
(-0.9623019881 -0.4409905399 -1.775258312)
)


// ************************************************************************* //
