/*--------------------------------*- C++ -*----------------------------------*\
  =========                 |
  \\      /  F ield         | OpenFOAM: The Open Source CFD Toolbox
   \\    /   O peration     | Website:  https://openfoam.org
    \\  /    A nd           | Version:  8
     \\/     M anipulation  |
\*---------------------------------------------------------------------------*/
FoamFile
{
    version     2.0;
    format      ascii;
    class       volScalarField;
    location    "1.4/wallFilmRegion";
    object      alpha;
}
// * * * * * * * * * * * * * * * * * * * * * * * * * * * * * * * * * * * * * //

dimensions      [0 0 0 0 0 0 0];

internalField   nonuniform List<scalar> 
1369
(
10.16007866
9.408194377
8.68547686
8.009297972
7.158668358
6.1643719
6.077228639
6.563441254
7.143924331
7.982059581
9.361976889
6.657960803
4.025073745
2.374682006
2.411708596
1.631284462
1.50854712
1.605290165
1.812427309
1.918018778
1.804920825
1.682819026
1.866575584
2.36786873
2.999415769
3.718712953
4.857158295
6.045257115
5.477936517
3.300847582
1.749893089
0.2148311021
0.4432005314
1.10660583
3.065267617
5.191021029
4.970633876
3.384666199
4.327264754
3.528986598
3.932936719
4.316129695
4.223822027
3.884445268
3.495971122
3.173749902
2.997957409
3.057241213
4.131407661
6.763929955
6.67933321
6.766104689
6.440328402
6.119080461
6.012029502
6.142873623
6.765002602
8.923884382
12.23739246
16.67573013
9.420893477
6.290930783
4.075645498
2.413901729
1.787336324
0.6290401809
0.5471539243
0.7411531996
0.9817950747
1.074012253
3.939898554
1.528727453
0.3445078223
0.408566127
1.019095143
0.2882074682
0.2234257513
0.1766359493
0.16586902
0.1300502475
0.07014182323
0.03120506595
0.03550681857
0.1190005937
0.2970249297
0.4595398098
0.7005867534
0.8789833635
0.7058150824
0.2145550458
0.0606409788
0.1364254922
0.1686250077
0.2573859089
0.4853900431
0.596400852
0.3827911118
0.01534986059
0.4589791041
0.3658752888
0.2961585381
0.1889998054
0.09103274455
0.05424312719
0.04864740164
0.05346856947
0.06627307232
0.1035701958
0.3247284412
3.208233081
1.215369607
1.224070492
1.556738756
1.893514588
2.228622578
2.91053753
5.087157021
9.846575707
10.84418709
13.33304022
8.574577104
4.869182807
5.127802685
4.626133019
3.875631848
2.790221018
2.398317859
3.840415943
2.737452764
5.204324214
7.291230378
0.9752495007
0.352510124
0.6544457013
1.210702167
0.4851906394
0.323178954
0.1514269993
0.08132820424
0.05750475582
0.02942891138
0.01196055679
0.01630308661
0.07417468653
0.1600550389
0.09925714264
0.07410288511
0.09664879123
0.1864650265
0.2800798595
0.1827842276
0.2907054689
0.4704096795
0.6984122913
0.4715835782
0.5657899584
0.810565894
0.7504942026
0.1906571627
0.2330743796
0.2173761107
0.186060304
0.1304528459
0.06857746646
0.03899861166
0.03717378102
0.05003619172
0.08412322443
0.2326547634
6.030211455
4.68348486
3.918569232
3.342284244
3.85830279
4.77739431
6.055371783
8.650912799
9.788300936
8.287383797
10.01142324
7.545978134
2.899084374
4.222402229
4.265256319
4.075579632
3.619869777
3.292907338
3.019995504
3.202908866
4.407736478
5.692874228
0.3475428029
0.06604233665
0.0454062974
0.3714269156
0.0989373631
0.1052586234
0.05512253657
0.02135967644
0.01461631269
0.007600596906
0.003167244071
0.006079978632
0.03564544806
0.08159536284
0.04356416452
0.03207122768
0.04190988105
0.08007275805
0.2184154429
0.4054742567
1.484303414
0.7485264914
0.3615808415
0.2093362363
0.1964961119
0.2586651985
0.4093298164
0.42975181
0.05706337269
0.02154137002
0.01307724714
0.009417949854
0.01186156195
0.01639988065
0.02559366653
0.04464638066
0.07507189741
0.167078104
4.339963384
3.15444328
2.845425621
3.24263242
3.809288316
4.942304804
6.592803049
7.808658179
7.668666855
4.971254005
7.71680807
6.818899359
1.750208779
3.120677975
3.775745996
3.813492598
3.75751114
3.794771065
4.126533014
4.356662354
6.275119636
3.868948196
0.1650423318
0.03387017956
0.02541734435
0.215327524
0.06737224993
0.05176630117
0.03176535786
0.004501320355
0.002344604754
0.0014249952
0.0008528497554
0.002628902395
0.02155095884
0.0650715233
0.03713526142
0.03018932062
0.0411047179
0.07104348135
0.1978165235
0.684631153
0.1523602919
0.1102454026
0.1256896142
0.08644772728
0.1099128786
0.1920530973
0.5563165765
1.106500092
0.04774955856
0.0206902966
0.01318293155
0.008583287191
0.008530834333
0.01235796549
0.02503705721
0.04888117843
0.07196359899
0.1183016243
2.117371784
5.298736946
3.431056598
3.947416545
4.779980652
5.832826975
6.596551065
6.660190338
5.39309887
3.338942912
6.896107712
6.264379807
1.213391189
1.944176273
2.188369236
2.860898883
3.476653338
4.002381045
4.513445051
4.631083035
6.086904735
1.706865471
0.1021822676
0.02527085948
0.007599935108
0.05524636929
0.0276552565
0.002011974494
0.0006823962318
0.00050077861
0.000369887863
0.0002552468877
0.0001593999795
0.0002240359973
0.005272289102
0.04191009043
0.02714553546
0.0273381053
0.03750785
0.05044005716
0.1110924729
0.6018060296
0.02957276789
0.02974763807
0.04315223113
0.02630990402
0.0564523791
0.1250768222
0.520035178
0.9299387034
0.0436712435
0.01938378919
0.01327125876
0.008043450957
0.005785883519
0.009655793504
0.03324800427
0.0587069598
0.06707969168
0.07661493523
0.3062010002
4.42234958
3.490674171
3.637338797
4.553374447
5.417865471
5.537027445
4.655450352
3.633325706
2.565520825
6.572043
6.067630623
1.06908967
1.742705192
1.741800376
2.684861358
3.621398892
4.215377541
4.47046337
3.703641961
4.739420726
0.3607484118
0.1400976361
0.05584141359
0.005148454229
0.002828461378
0.00137764092
0.0007121897588
0.0003854839344
0.0002239756439
0.0001434479578
9.611081373e-05
5.768859843e-05
2.356891641e-05
0.0001070267598
0.01418601997
0.01555044193
0.02415580287
0.03218944778
0.028892709
0.02820735979
0.07344881754
0.01708657087
0.01672570651
0.01419405886
0.007923105111
0.0424391182
0.0854794929
0.453470916
0.6028969475
0.03787924369
0.01820838152
0.01430340145
0.01569324466
0.01420701247
0.03028090576
0.08021781326
0.07697737697
0.05990757704
0.0538178538
0.08980001811
0.9761138016
4.923970913
4.266704217
3.673149691
4.269051039
4.522846757
3.478014172
2.72241659
2.407982857
6.682499507
6.154581677
1.016935396
1.69060812
1.364329863
2.666112826
3.18203364
3.573257218
3.430965975
4.326633897
2.257150093
0.235750433
0.1472968572
0.07911851171
0.006585244631
0.003385829515
0.001705152555
0.0007757858565
0.000327374462
0.0001417611268
7.367665295e-05
4.719645523e-05
2.998419973e-05
1.323992377e-05
3.285739033e-05
0.0007386393859
0.00380811767
0.01899961086
0.02428487306
0.01505404804
0.009857028703
0.00871849974
0.008568970437
0.008321367038
0.006068130381
0.005992362237
0.06782367843
0.07658395073
0.5307411489
0.4550241644
0.0280957334
0.01799409116
0.01767466599
0.1744881343
0.3457173233
0.3660229023
0.2030662532
0.0825443934
0.04345965874
0.03740628116
0.04933939585
0.1219411811
0.5854042672
4.560569631
5.647992998
3.953856797
3.343732349
2.286978374
3.019786853
2.92525834
7.141093575
6.480539688
1.411566807
1.752228028
1.360868735
2.13408927
2.794789842
3.455690071
4.176790633
1.637617384
0.241012786
0.181746284
0.1594879133
0.09503784436
0.007986427579
0.005028875492
0.002642140588
0.001097701385
0.0003661949701
0.0001070606045
3.695236077e-05
2.11548763e-05
1.534265993e-05
8.596113929e-06
1.817640012e-05
0.0001806143183
0.001226250524
0.009085347709
0.01265198083
0.005344305541
0.003433823144
0.003659889279
0.006333801436
0.008064133053
0.007306568911
0.01564855998
0.1412491003
0.06891382932
0.661872293
0.04409709349
0.01863592188
0.01919237319
0.02444148608
0.06462983096
0.06324809067
0.02754744423
0.01438316676
0.0136231422
0.01715400017
0.02362587683
0.03833326616
0.07444050079
0.1560165071
0.4084328423
1.625671941
4.586355141
5.192661017
2.971692897
4.724657628
3.271260076
7.884074341
5.759492005
1.736333202
3.469650745
2.431986597
3.326735151
3.356248331
2.193077516
0.5940804214
0.01587773054
0.03632203978
0.1269998545
0.2037579043
0.1523078026
0.008637063154
0.006973068053
0.004426298865
0.001932728806
0.0005531678582
0.0001126103205
2.095959988e-05
8.366428097e-06
7.462385279e-06
6.145300581e-06
1.2593804e-05
4.725443766e-05
0.0002687947442
0.002369463156
0.008498418147
0.004806384617
0.001358072769
0.001410594067
0.01130813433
0.01569307045
0.01695075498
0.05731994437
0.1625279146
0.05736169503
0.03320076593
0.01828036354
0.01676580735
0.01833515692
0.01990002426
0.01822444505
0.01345426979
0.007494168347
0.002700849959
0.005011197692
0.01007086209
0.01727847536
0.03214488251
0.06687709283
0.1271935354
0.1961127612
0.2604592895
0.375258059
1.000211729
1.94422533
4.493572825
2.780001811
8.135792395
4.75674894
0.6620699837
0.7977974015
0.305349648
0.1279104235
0.03730333286
0.01713970045
0.00860676262
0.003950379522
0.004992072481
0.009188470171
0.01476765639
0.01554392396
0.008284585599
0.008060358022
0.006705272641
0.003780592655
0.00107397492
0.0001719209919
1.794531876e-05
2.84146707e-06
3.280403417e-06
4.8613961e-06
1.082374807e-05
1.62325267e-05
4.57763814e-05
0.0002957132417
0.004332590685
0.0189377198
0.03646752673
0.04920994029
0.05476867507
0.04673509526
0.07304497317
0.07560953205
0.1115777531
0.03560116098
0.02055519177
0.01434663236
0.01339927553
0.0157205888
0.01904302878
0.01959857858
0.01448119881
0.007307893984
0.00176975047
0.003008894652
0.007175879449
0.01328909528
0.02702899221
0.05989702811
0.113542844
0.1599569043
0.1702975944
0.1491304072
0.1298957378
0.1211694554
0.2318397822
0.7342901398
7.402058133
4.523710446
0.1855974251
0.06649387699
0.02773662258
0.02150225115
0.01537840763
0.009281907909
0.005211665095
0.003464407244
0.003213388536
0.004394510409
0.005855688266
0.006736714949
0.007460448348
0.008223807228
0.008631353724
0.007003231591
0.002484379182
0.0004094230755
7.530327397e-05
2.431475545e-05
2.888100737e-05
4.318188496e-05
5.384226507e-05
2.694689837e-05
6.460858674e-06
3.640912439e-05
0.0001376385894
0.001570590659
0.008836089354
0.02199239765
0.06659200663
0.1842289916
0.2300261421
0.1252764197
0.04736679107
0.02290023226
0.01517213959
0.01092168148
0.008606551124
0.01072980537
0.01531444789
0.01899378287
0.01623142756
0.009396046932
0.001714228011
0.001785857957
0.004761045837
0.009356176766
0.02097909093
0.04879169128
0.09003521471
0.1189940572
0.1140061888
0.08765988025
0.06211085002
0.04552059396
0.07663566975
0.3911952527
6.572023769
0.005416617532
0.003560121997
0.003177437579
0.004095126971
0.005175936143
0.005967378242
0.006881303344
0.008478979939
0.01112439709
0.01328096597
0.009947406727
0.005567144267
0.001312652476
0.0005737337773
0.000730986646
0.000822007914
0.0003055213072
0.0001164900562
1.219487389e-05
0.0001612409795
0.0009402714438
0.006702287939
0.04265643987
0.09678624539
0.6465539512
0.4902778569
0.2690651653
0.2310970916
0.02354375878
0.01511119828
0.01408692053
0.01166845907
0.003619169218
0.004418211479
0.008323254816
0.01534854411
0.01823823512
0.01501825912
0.002281810855
0.001018497245
0.002602779693
0.005406242489
0.01377047862
0.03320556941
0.05718788709
0.06758784763
0.05770023064
0.0408941766
0.02851551493
0.02271524675
0.05173137937
0.3725910246
6.251771968
0.00474969581
0.005471287482
0.006535343224
0.008935663204
0.01426997248
0.02323244636
0.03415023801
0.07401000108
0.06778869648
0.01827117755
0.01117881891
0.007613015587
0.001627112299
0.0008873824707
0.0001081940474
0.002372104086
0.09693314989
0.6245533288
0.5364720557
0.6339268524
0.5566918595
0.2879530194
0.222299788
0.3453630996
0.01742336671
0.01171250784
0.01659845323
0.0248340972
9.329965762e-06
7.816031253e-08
0.0009892349583
0.009008995539
0.02238795527
0.02711059557
0.004675623986
0.0007224706995
0.0009573205282
0.002103173779
0.006647713436
0.01665647994
0.02517605653
0.02501297481
0.01865592967
0.01243434409
0.009733980533
0.01049569882
0.04363921113
0.4335405316
5.92262271
0.006631582
0.01020903685
0.01890313496
0.03586280944
0.07510397817
0.28034903
0.5383638345
0.3904962045
0.3150984102
0.5770007084
0.08739325354
0.1300429189
0.3589929517
0.9340178165
1.470782629
1.869828924
1.465134256
0.916923241
0.3773093656
0.110757954
0.1441696943
0.3773149315
0.016715876
0.01137373826
0.02366740787
0.06351216005
9.280602298e-06
2.597846685e-08
5.871445453e-09
6.850436009e-07
0.04273768131
0.04704009006
0.01839535707
0.004915491877
0.002407384355
0.00349761687
0.009087803952
0.0146496419
0.01248460265
0.00712360104
0.004024982324
0.003180192511
0.004073567718
0.006986725717
0.04368761489
0.5420128331
5.689916985
0.05407015986
0.1578133273
0.5603710576
0.7052926967
0.7338554343
1.253825663
1.262983145
1.221586717
1.942909944
3.481610281
2.532647629
2.088566292
1.679971418
1.010228073
0.3826427477
0.07319716776
0.08666673955
0.2934490405
0.01788959479
0.01026672889
0.03199822082
0.1908153179
9.70967482e-06
2.183459222e-08
3.891874474e-09
7.302450804e-07
0.09973275791
0.09750911104
0.05046659193
0.02253269632
0.01124786687
0.01300549498
0.02826476762
0.03837689327
0.02730947761
0.01448408135
0.008983066749
0.009143772106
0.01356559355
0.0183188789
0.05701457323
0.5371497216
5.766618653
0.2335854417
0.4050282142
0.4693415983
0.921350593
1.812218502
2.00963598
2.811355294
4.955050129
3.172142262
2.094436865
1.597366952
1.072650873
0.5502411471
0.1721813496
0.08769821993
0.189438615
0.02608814764
0.01017604187
0.03704396176
0.3999389557
1.041154798e-05
2.485653208e-08
3.852076775e-09
8.629387158e-07
0.1748096772
0.1802230934
0.06088590516
0.03061339792
0.01948679974
0.02452380941
0.05168699459
0.07486973704
0.05761480215
0.0322622007
0.02244296827
0.02691379478
0.03821029866
0.04321589933
0.0765844175
0.5091403228
5.984567979
1.186395008
0.7783622926
1.947964065
2.997335113
2.338076929
1.618391188
1.315542906
0.9613595796
0.6070126393
0.5000059989
0.4444552341
0.2393249722
0.0610904639
0.01218942656
0.03376641428
0.4265313721
1.007203276e-05
3.295812936e-08
5.282198203e-09
7.871879442e-07
0.1820195851
0.2043858771
0.05358582885
0.02820761537
0.02415744864
0.04994903815
0.1419208144
0.2509244358
0.2678213595
0.2395223979
0.2056760637
0.1981151957
0.1653188
0.1016157686
0.1022101868
0.5172417425
6.295898128
1.147277231
0.8278480648
1.177100666
1.392072036
0.9617472056
0.7219514173
0.5260248622
0.4466561888
0.6663902815
1.081037892
0.24152633
0.01800478053
0.02231139719
0.3723470609
9.088203547e-06
4.456544842e-08
8.228112167e-09
3.860561843e-07
0.1086573384
0.1254666932
0.03818435083
0.03650512135
0.05190541805
0.3619492671
0.3367454573
0.2314053183
0.2629389789
0.3730552128
0.448434703
0.4026871723
0.2887903225
0.1693747353
0.15861356
0.5775579328
6.676120049
0.05767866266
0.08844425765
0.405587132
0.6049406152
0.3752380213
0.3093889336
0.2567577602
0.3498497595
0.7825203897
0.5494426594
0.03592904143
0.01489055797
0.3296646614
6.214625708e-06
4.767709328e-08
2.802449177e-08
2.471805501e-07
0.03970812852
0.0426690252
0.02956167158
0.04538678719
0.1322030217
0.6315764456
0.05249441104
0.07770194432
0.1302357863
0.1858431169
0.2310744233
0.2634545533
0.2679349782
0.2242440731
0.2632517291
0.6192970189
7.029728461
0.09391109613
0.1096035139
0.06892241377
0.1055550095
0.2175670373
0.2144197084
0.2205775938
0.208146374
0.455980139
0.6519439915
0.1042131772
0.01120546058
0.2760503435
4.119717526e-06
8.085363943e-09
1.788088453e-08
4.983291557e-07
0.007101732747
0.006908159548
0.05003682251
0.08527184409
0.1594848913
0.09839910716
0.03455094949
0.05539612591
0.07852318971
0.1017396984
0.1309385052
0.1783551581
0.2376065463
0.2713125147
0.3927604561
0.4820230544
7.244208441
0.2369646898
0.1465606251
0.1752644698
0.2160420109
0.1412671008
0.1526475987
0.08846745101
0.1675422832
0.5963908573
0.3286850555
0.01455473494
0.1984499247
3.564600938e-06
1.303775663e-08
1.843483957e-08
7.607205068e-07
1.394039673e-05
9.527376392e-05
0.1371313877
0.2854340506
0.2533675086
0.09637251062
0.07950889622
0.07738430444
0.06833817738
0.06265533185
0.06775246002
0.1006485476
0.1816829541
0.2936979826
0.4707429883
0.62680259
6.672588058
0.1705087683
0.2850260988
0.5088560087
0.07292964943
0.0225375503
0.02626908583
0.01621777038
0.1458967029
0.9085540681
0.1560462194
0.01538749263
0.1546571074
4.099815505e-06
2.381838367e-08
3.038558362e-08
9.125347171e-07
4.776039015e-05
0.1393789908
0.2816495533
0.6238345474
0.604600524
0.3751943253
0.228906206
0.1324512202
0.07686441744
0.05117797993
0.04049601804
0.05093411095
0.1128805222
0.2591305809
0.5427186453
0.8662626112
6.642209092
0.5761502393
0.4302813344
0.5986770727
0.2349229902
0.02618229377
0.01966878065
0.1155332683
0.9843452375
0.4811529115
0.2539603025
0.1315041353
0.1733243565
5.161213441e-06
5.139665637e-08
7.838315804e-07
1.419258304e-05
0.0002741101209
0.1307648078
0.2724234261
0.7122044901
0.8170024783
0.4905843495
0.2492774447
0.1307177129
0.0795557433
0.05319427004
0.03628687878
0.03135582984
0.0513839016
0.1155787117
0.2641354739
0.4004161536
4.746408663
1.49739426
0.8669329
0.4340259701
0.05775554567
0.04308819801
0.2036215979
1.012705509
0.3998316052
0.2495871322
0.4168796976
0.4454437221
9.986259366e-06
1.507847078e-07
1.301889201e-05
0.6464459593
0.4365527194
0.2041467698
0.193980854
0.430992253
0.4418294153
0.2333035279
0.1257927573
0.08473825057
0.06932644734
0.05772777753
0.04375535665
0.03493072634
0.0395532031
0.04331221283
0.07045875789
0.08105305706
3.270454703
0.8834064125
0.5306224725
0.2784376443
0.3902696847
0.5313816985
1.044610821
0.5712471737
0.2593792023
0.4182332552
0.8036413245
4.041842564e-05
4.638821882e-06
1.567949663e-05
0.4109549879
0.2983645759
0.1441036757
0.08841459003
0.09961359515
0.0962384304
0.07398432543
0.05702169099
0.05129038638
0.05243733965
0.05427247269
0.05014791103
0.05191768054
0.09123617989
0.05715629121
0.05779998938
0.02444282554
2.367333787
0.6093784928
0.3110713745
0.3398609936
0.6894742145
0.905117153
1.214921501
1.061806788
0.9350974466
0.7079281979
1.027520288
0.5651939382
0.02996572106
0.009481253542
0.1349937026
0.1516209024
0.07768060206
0.03933275189
0.02502616531
0.021080651
0.02042685327
0.02139524718
0.02464387611
0.03132145231
0.04037595252
0.04668557116
0.074201644
0.3478281473
0.01801949111
0.007587454434
0.001355044233
1.504414507
0.3820818379
0.1767124127
0.3733576323
0.3270919542
0.2889323657
0.5291448159
0.5981652748
0.669763119
0.6343037989
0.6703270712
0.3593004478
0.03686085442
0.01080875876
0.2532450413
0.1127475213
0.06694827839
0.03869266389
0.02090782496
0.01383453962
0.01196315212
0.01220876379
0.01425916313
0.01922157807
0.02759949772
0.03568612977
0.07626490354
0.3094644766
0.009975968263
0.007435107427
0.00243282507
1.037040696
0.2322957668
0.5400837437
0.7395435646
0.7568506038
0.7381608331
0.1035888947
0.01335739179
0.07372486306
0.1283160991
0.07073040249
0.0655993564
0.05128801904
0.0296281567
0.01662922232
0.01179236991
0.01072070236
0.01183052107
0.01582957226
0.02391619726
0.03806643678
0.06158378859
0.075223865
0.06866677825
0.05585080502
0.03853532723
1.372126567
0.2143552999
0.4976885977
0.8713494027
1.525790027
1.142893431
0.2141647366
0.04963555575
0.02382452614
0.01586319854
0.03113400159
0.05766046622
0.06294875557
0.04247610205
0.02311661055
0.01370506947
0.01058142916
0.01078502074
0.01503167802
0.03019692631
0.09485832144
0.2069152733
0.2972413558
0.3225699919
0.2950103265
0.2244335938
2.11481913
)
;

boundaryField
{
    walls
    {
        type            zeroGradient;
    }
    wallFilmFace_top
    {
        type            zeroGradient;
    }
    region0_to_wallFilmRegion_wallFilmFace
    {
        type            zeroGradient;
    }
    mirrorFace_top
    {
        type            zeroGradient;
    }
    region0_to_wallFilmRegion_mirrorFace
    {
        type            zeroGradient;
    }
    procBoundary0to1
    {
        type            processor;
        value           nonuniform List<scalar> 
52
(
4.66912238
0.1154839839
0.03940863249
0.01954391353
0.0167117024
0.01272766153
0.008677618719
0.008677618719
0.005594308407
0.003723871504
0.00329559781
0.003973911622
0.003973911622
0.004513882713
0.005253292502
0.005253292502
0.007909495204
0.01467042959
0.02935716292
0.04761698528
0.04761698528
0.0830752698
0.06809854354
0.06809854354
0.05895342393
0.1063158789
0.09453830401
0.3937816917
0.3937816917
1.219084085
0.5935330606
0.5935330606
0.2038088765
0.2038088765
0.3678054467
0.2526673365
0.2526673365
0.4762233334
1.99178667
1.77798777
1.77798777
1.444974564
1.444974564
0.8417870499
0.8218436064
0.1489917454
0.05899848545
0.2896161365
0.1936127102
0.1311129221
0.1311129221
0.1301657558
)
;
    }
    procBoundary0to2
    {
        type            processor;
        value           nonuniform List<scalar> 
26
(
0.3867009397
1.227920517
1.171134485
2.87313273
1.118568478
0.7332773311
0.0695652695
0.0005371103365
0.007080882413
0.01887546586
0.0551766001
0.07780252197
0.06000878759
0.03402196084
0.02131965156
0.01989249078
0.02753375295
0.04778474662
0.08812536134
0.1589034314
0.207287504
0.2284432133
0.2274023655
0.2214604732
0.1959795144
2.806378241
)
;
    }
}


// ************************************************************************* //
