/*--------------------------------*- C++ -*----------------------------------*\
  =========                 |
  \\      /  F ield         | OpenFOAM: The Open Source CFD Toolbox
   \\    /   O peration     | Website:  https://openfoam.org
    \\  /    A nd           | Version:  8
     \\/     M anipulation  |
\*---------------------------------------------------------------------------*/
FoamFile
{
    version     2.0;
    format      ascii;
    class       volScalarField;
    location    "1.4/wallFilmRegion";
    object      delta;
}
// * * * * * * * * * * * * * * * * * * * * * * * * * * * * * * * * * * * * * //

dimensions      [0 1 0 0 0 0 0];

internalField   nonuniform List<scalar> 
1369
(
0.01016007866
0.009408194377
0.00868547686
0.008009297972
0.007158668358
0.0061643719
0.006077228639
0.006563441254
0.007143924331
0.007982059581
0.009361976889
0.006657960803
0.004025073745
0.002374682006
0.002411708596
0.001631284462
0.00150854712
0.001605290165
0.001812427309
0.001918018778
0.001804920825
0.001682819026
0.001866575584
0.00236786873
0.002999415769
0.003718712953
0.004857158295
0.006045257115
0.005477936517
0.003300847582
0.001749893089
0.0002148311021
0.0004432005314
0.00110660583
0.003065267617
0.005191021029
0.004970633876
0.003384666199
0.004327264754
0.003528986598
0.003932936719
0.004316129695
0.004223822027
0.003884445268
0.003495971122
0.003173749902
0.002997957409
0.003057241213
0.004131407661
0.006763929955
0.00667933321
0.006766104689
0.006440328402
0.006119080461
0.006012029502
0.006142873623
0.006765002602
0.008923884382
0.01223739246
0.01667573013
0.009420893477
0.006290930783
0.004075645498
0.002413901729
0.001787336324
0.0006290401809
0.0005471539243
0.0007411531996
0.0009817950747
0.001074012253
0.003939898554
0.001528727453
0.0003445078223
0.000408566127
0.001019095143
0.0002882074682
0.0002234257513
0.0001766359493
0.00016586902
0.0001300502475
7.014182323e-05
3.120506595e-05
3.550681857e-05
0.0001190005937
0.0002970249297
0.0004595398098
0.0007005867534
0.0008789833635
0.0007058150824
0.0002145550458
6.06409788e-05
0.0001364254922
0.0001686250077
0.0002573859089
0.0004853900431
0.000596400852
0.0003827911118
1.534986059e-05
0.0004589791041
0.0003658752888
0.0002961585381
0.0001889998054
9.103274455e-05
5.424312719e-05
4.864740164e-05
5.346856947e-05
6.627307232e-05
0.0001035701958
0.0003247284412
0.003208233081
0.001215369607
0.001224070492
0.001556738756
0.001893514588
0.002228622578
0.00291053753
0.005087157021
0.009846575707
0.01084418709
0.01333304022
0.008574577104
0.004869182807
0.005127802685
0.004626133019
0.003875631848
0.002790221018
0.002398317859
0.003840415943
0.002737452764
0.005204324214
0.007291230378
0.0009752495007
0.000352510124
0.0006544457013
0.001210702167
0.0004851906394
0.000323178954
0.0001514269993
8.132820424e-05
5.750475582e-05
2.942891138e-05
1.196055679e-05
1.630308661e-05
7.417468653e-05
0.0001600550389
9.925714264e-05
7.410288511e-05
9.664879123e-05
0.0001864650265
0.0002800798595
0.0001827842276
0.0002907054689
0.0004704096795
0.0006984122913
0.0004715835782
0.0005657899584
0.000810565894
0.0007504942026
0.0001906571627
0.0002330743796
0.0002173761107
0.000186060304
0.0001304528459
6.857746646e-05
3.899861166e-05
3.717378102e-05
5.003619172e-05
8.412322443e-05
0.0002326547634
0.006030211455
0.00468348486
0.003918569232
0.003342284244
0.00385830279
0.00477739431
0.006055371783
0.008650912799
0.009788300936
0.008287383797
0.01001142324
0.007545978134
0.002899084374
0.004222402229
0.004265256319
0.004075579632
0.003619869777
0.003292907338
0.003019995504
0.003202908866
0.004407736478
0.005692874228
0.0003475428029
6.604233665e-05
4.54062974e-05
0.0003714269156
9.89373631e-05
0.0001052586234
5.512253657e-05
2.135967644e-05
1.461631269e-05
7.600596906e-06
3.167244071e-06
6.079978632e-06
3.564544806e-05
8.159536284e-05
4.356416452e-05
3.207122768e-05
4.190988105e-05
8.007275805e-05
0.0002184154429
0.0004054742567
0.001484303414
0.0007485264914
0.0003615808415
0.0002093362363
0.0001964961119
0.0002586651985
0.0004093298164
0.00042975181
5.706337269e-05
2.154137002e-05
1.307724714e-05
9.417949854e-06
1.186156195e-05
1.639988065e-05
2.559366653e-05
4.464638066e-05
7.507189741e-05
0.000167078104
0.004339963384
0.00315444328
0.002845425621
0.00324263242
0.003809288316
0.004942304804
0.006592803049
0.007808658179
0.007668666855
0.004971254005
0.00771680807
0.006818899359
0.001750208779
0.003120677975
0.003775745996
0.003813492598
0.00375751114
0.003794771065
0.004126533014
0.004356662354
0.006275119636
0.003868948196
0.0001650423318
3.387017956e-05
2.541734435e-05
0.000215327524
6.737224993e-05
5.176630117e-05
3.176535786e-05
4.501320355e-06
2.344604754e-06
1.4249952e-06
8.528497554e-07
2.628902395e-06
2.155095884e-05
6.50715233e-05
3.713526142e-05
3.018932062e-05
4.11047179e-05
7.104348135e-05
0.0001978165235
0.000684631153
0.0001523602919
0.0001102454026
0.0001256896142
8.644772728e-05
0.0001099128786
0.0001920530973
0.0005563165765
0.001106500092
4.774955856e-05
2.06902966e-05
1.318293155e-05
8.583287191e-06
8.530834333e-06
1.235796549e-05
2.503705721e-05
4.888117843e-05
7.196359899e-05
0.0001183016243
0.002117371784
0.005298736946
0.003431056598
0.003947416545
0.004779980652
0.005832826975
0.006596551065
0.006660190338
0.00539309887
0.003338942912
0.006896107712
0.006264379807
0.001213391189
0.001944176273
0.002188369236
0.002860898883
0.003476653338
0.004002381045
0.004513445051
0.004631083035
0.006086904735
0.001706865471
0.0001021822676
2.527085948e-05
7.599935108e-06
5.524636929e-05
2.76552565e-05
2.011974494e-06
6.823962318e-07
5.0077861e-07
3.69887863e-07
2.552468877e-07
1.593999795e-07
2.240359973e-07
5.272289102e-06
4.191009043e-05
2.714553546e-05
2.73381053e-05
3.750785e-05
5.044005716e-05
0.0001110924729
0.0006018060296
2.957276789e-05
2.974763807e-05
4.315223113e-05
2.630990402e-05
5.64523791e-05
0.0001250768222
0.000520035178
0.0009299387034
4.36712435e-05
1.938378919e-05
1.327125876e-05
8.043450957e-06
5.785883519e-06
9.655793504e-06
3.324800427e-05
5.87069598e-05
6.707969168e-05
7.661493523e-05
0.0003062010002
0.00442234958
0.003490674171
0.003637338797
0.004553374447
0.005417865471
0.005537027445
0.004655450352
0.003633325706
0.002565520825
0.006572043
0.006067630623
0.00106908967
0.001742705192
0.001741800376
0.002684861358
0.003621398892
0.004215377541
0.00447046337
0.003703641961
0.004739420726
0.0003607484118
0.0001400976361
5.584141359e-05
5.148454229e-06
2.828461378e-06
1.37764092e-06
7.121897588e-07
3.854839344e-07
2.239756439e-07
1.434479578e-07
9.611081373e-08
5.768859843e-08
2.356891641e-08
1.070267598e-07
1.418601997e-05
1.555044193e-05
2.415580287e-05
3.218944778e-05
2.8892709e-05
2.820735979e-05
7.344881754e-05
1.708657087e-05
1.672570651e-05
1.419405886e-05
7.923105111e-06
4.24391182e-05
8.54794929e-05
0.000453470916
0.0006028969475
3.787924369e-05
1.820838152e-05
1.430340145e-05
1.569324466e-05
1.420701247e-05
3.028090576e-05
8.021781326e-05
7.697737697e-05
5.990757704e-05
5.38178538e-05
8.980001811e-05
0.0009761138016
0.004923970913
0.004266704217
0.003673149691
0.004269051039
0.004522846757
0.003478014172
0.00272241659
0.002407982857
0.006682499507
0.006154581677
0.001016935396
0.00169060812
0.001364329863
0.002666112826
0.00318203364
0.003573257218
0.003430965975
0.004326633897
0.002257150093
0.000235750433
0.0001472968572
7.911851171e-05
6.585244631e-06
3.385829515e-06
1.705152555e-06
7.757858565e-07
3.27374462e-07
1.417611268e-07
7.367665295e-08
4.719645523e-08
2.998419973e-08
1.323992377e-08
3.285739033e-08
7.386393859e-07
3.80811767e-06
1.899961086e-05
2.428487306e-05
1.505404804e-05
9.857028703e-06
8.71849974e-06
8.568970437e-06
8.321367038e-06
6.068130381e-06
5.992362237e-06
6.782367843e-05
7.658395073e-05
0.0005307411489
0.0004550241644
2.80957334e-05
1.799409116e-05
1.767466599e-05
0.0001744881343
0.0003457173233
0.0003660229023
0.0002030662532
8.25443934e-05
4.345965874e-05
3.740628116e-05
4.933939585e-05
0.0001219411811
0.0005854042672
0.004560569631
0.005647992998
0.003953856797
0.003343732349
0.002286978374
0.003019786853
0.00292525834
0.007141093575
0.006480539688
0.001411566807
0.001752228028
0.001360868735
0.00213408927
0.002794789842
0.003455690071
0.004176790633
0.001637617384
0.000241012786
0.000181746284
0.0001594879133
9.503784436e-05
7.986427579e-06
5.028875492e-06
2.642140588e-06
1.097701385e-06
3.661949701e-07
1.070606045e-07
3.695236077e-08
2.11548763e-08
1.534265993e-08
8.596113929e-09
1.817640012e-08
1.806143183e-07
1.226250524e-06
9.085347709e-06
1.265198083e-05
5.344305541e-06
3.433823144e-06
3.659889279e-06
6.333801436e-06
8.064133053e-06
7.306568911e-06
1.564855998e-05
0.0001412491003
6.891382932e-05
0.000661872293
4.409709349e-05
1.863592188e-05
1.919237319e-05
2.444148608e-05
6.462983096e-05
6.324809067e-05
2.754744423e-05
1.438316676e-05
1.36231422e-05
1.715400017e-05
2.362587683e-05
3.833326616e-05
7.444050079e-05
0.0001560165071
0.0004084328423
0.001625671941
0.004586355141
0.005192661017
0.002971692897
0.004724657628
0.003271260076
0.007884074341
0.005759492005
0.001736333202
0.003469650745
0.002431986597
0.003326735151
0.003356248331
0.002193077516
0.0005940804214
1.587773054e-05
3.632203978e-05
0.0001269998545
0.0002037579043
0.0001523078026
8.637063154e-06
6.973068053e-06
4.426298865e-06
1.932728806e-06
5.531678582e-07
1.126103205e-07
2.095959988e-08
8.366428097e-09
7.462385279e-09
6.145300581e-09
1.2593804e-08
4.725443766e-08
2.687947442e-07
2.369463156e-06
8.498418147e-06
4.806384617e-06
1.358072769e-06
1.410594067e-06
1.130813433e-05
1.569307045e-05
1.695075498e-05
5.731994437e-05
0.0001625279146
5.736169503e-05
3.320076593e-05
1.828036354e-05
1.676580735e-05
1.833515692e-05
1.990002426e-05
1.822444505e-05
1.345426979e-05
7.494168347e-06
2.700849959e-06
5.011197692e-06
1.007086209e-05
1.727847536e-05
3.214488251e-05
6.687709283e-05
0.0001271935354
0.0001961127612
0.0002604592895
0.000375258059
0.001000211729
0.00194422533
0.004493572825
0.002780001811
0.008135792395
0.00475674894
0.0006620699837
0.0007977974015
0.000305349648
0.0001279104235
3.730333286e-05
1.713970045e-05
8.60676262e-06
3.950379522e-06
4.992072481e-06
9.188470171e-06
1.476765639e-05
1.554392396e-05
8.284585599e-06
8.060358022e-06
6.705272641e-06
3.780592655e-06
1.07397492e-06
1.719209919e-07
1.794531876e-08
2.84146707e-09
3.280403417e-09
4.8613961e-09
1.082374807e-08
1.62325267e-08
4.57763814e-08
2.957132417e-07
4.332590685e-06
1.89377198e-05
3.646752673e-05
4.920994029e-05
5.476867507e-05
4.673509526e-05
7.304497317e-05
7.560953205e-05
0.0001115777531
3.560116098e-05
2.055519177e-05
1.434663236e-05
1.339927553e-05
1.57205888e-05
1.904302878e-05
1.959857858e-05
1.448119881e-05
7.307893984e-06
1.76975047e-06
3.008894652e-06
7.175879449e-06
1.328909528e-05
2.702899221e-05
5.989702811e-05
0.000113542844
0.0001599569043
0.0001702975944
0.0001491304072
0.0001298957378
0.0001211694554
0.0002318397822
0.0007342901398
0.007402058133
0.004523710446
0.0001855974251
6.649387699e-05
2.773662258e-05
2.150225115e-05
1.537840763e-05
9.281907909e-06
5.211665095e-06
3.464407244e-06
3.213388536e-06
4.394510409e-06
5.855688266e-06
6.736714949e-06
7.460448348e-06
8.223807228e-06
8.631353724e-06
7.003231591e-06
2.484379182e-06
4.094230755e-07
7.530327397e-08
2.431475545e-08
2.888100737e-08
4.318188496e-08
5.384226507e-08
2.694689837e-08
6.460858674e-09
3.640912439e-08
1.376385894e-07
1.570590659e-06
8.836089354e-06
2.199239765e-05
6.659200663e-05
0.0001842289916
0.0002300261421
0.0001252764197
4.736679107e-05
2.290023226e-05
1.517213959e-05
1.092168148e-05
8.606551124e-06
1.072980537e-05
1.531444789e-05
1.899378287e-05
1.623142756e-05
9.396046932e-06
1.714228011e-06
1.785857957e-06
4.761045837e-06
9.356176766e-06
2.097909093e-05
4.879169128e-05
9.003521471e-05
0.0001189940572
0.0001140061888
8.765988025e-05
6.211085002e-05
4.552059396e-05
7.663566975e-05
0.0003911952527
0.006572023769
5.416617532e-06
3.560121997e-06
3.177437579e-06
4.095126971e-06
5.175936143e-06
5.967378242e-06
6.881303344e-06
8.478979939e-06
1.112439709e-05
1.328096597e-05
9.947406727e-06
5.567144267e-06
1.312652476e-06
5.737337773e-07
7.30986646e-07
8.22007914e-07
3.055213072e-07
1.164900562e-07
1.219487389e-08
1.612409795e-07
9.402714438e-07
6.702287939e-06
4.265643987e-05
9.678624539e-05
0.0006465539512
0.0004902778569
0.0002690651653
0.0002310970916
2.354375878e-05
1.511119828e-05
1.408692053e-05
1.166845907e-05
3.619169218e-06
4.418211479e-06
8.323254816e-06
1.534854411e-05
1.823823512e-05
1.501825912e-05
2.281810855e-06
1.018497245e-06
2.602779693e-06
5.406242489e-06
1.377047862e-05
3.320556941e-05
5.718788709e-05
6.758784763e-05
5.770023064e-05
4.08941766e-05
2.851551493e-05
2.271524675e-05
5.173137937e-05
0.0003725910246
0.006251771968
4.74969581e-06
5.471287482e-06
6.535343224e-06
8.935663204e-06
1.426997248e-05
2.323244636e-05
3.415023801e-05
7.401000108e-05
6.778869648e-05
1.827117755e-05
1.117881891e-05
7.613015587e-06
1.627112299e-06
8.873824707e-07
1.081940474e-07
2.372104086e-06
9.693314989e-05
0.0006245533288
0.0005364720557
0.0006339268524
0.0005566918595
0.0002879530194
0.000222299788
0.0003453630996
1.742336671e-05
1.171250784e-05
1.659845323e-05
2.48340972e-05
9.329965762e-09
7.816031253e-11
9.892349583e-07
9.008995539e-06
2.238795527e-05
2.711059557e-05
4.675623986e-06
7.224706995e-07
9.573205282e-07
2.103173779e-06
6.647713436e-06
1.665647994e-05
2.517605653e-05
2.501297481e-05
1.865592967e-05
1.243434409e-05
9.733980533e-06
1.049569882e-05
4.363921113e-05
0.0004335405316
0.00592262271
6.631582e-06
1.020903685e-05
1.890313496e-05
3.586280944e-05
7.510397817e-05
0.00028034903
0.0005383638345
0.0003904962045
0.0003150984102
0.0005770007084
8.739325354e-05
0.0001300429189
0.0003589929517
0.0009340178165
0.001470782629
0.001869828924
0.001465134256
0.000916923241
0.0003773093656
0.000110757954
0.0001441696943
0.0003773149315
1.6715876e-05
1.137373826e-05
2.366740787e-05
6.351216005e-05
9.280602298e-09
2.597846685e-11
5.871445453e-12
6.850436009e-10
4.273768131e-05
4.704009006e-05
1.839535707e-05
4.915491877e-06
2.407384355e-06
3.49761687e-06
9.087803952e-06
1.46496419e-05
1.248460265e-05
7.12360104e-06
4.024982324e-06
3.180192511e-06
4.073567718e-06
6.986725717e-06
4.368761489e-05
0.0005420128331
0.005689916985
5.407015986e-05
0.0001578133273
0.0005603710576
0.0007052926967
0.0007338554343
0.001253825663
0.001262983145
0.001221586717
0.001942909944
0.003481610281
0.002532647629
0.002088566292
0.001679971418
0.001010228073
0.0003826427477
7.319716776e-05
8.666673955e-05
0.0002934490405
1.788959479e-05
1.026672889e-05
3.199822082e-05
0.0001908153179
9.70967482e-09
2.183459222e-11
3.891874474e-12
7.302450804e-10
9.973275791e-05
9.750911104e-05
5.046659193e-05
2.253269632e-05
1.124786687e-05
1.300549498e-05
2.826476762e-05
3.837689327e-05
2.730947761e-05
1.448408135e-05
8.983066749e-06
9.143772106e-06
1.356559355e-05
1.83188789e-05
5.701457323e-05
0.0005371497216
0.005766618653
0.0002335854417
0.0004050282142
0.0004693415983
0.000921350593
0.001812218502
0.00200963598
0.002811355294
0.004955050129
0.003172142262
0.002094436865
0.001597366952
0.001072650873
0.0005502411471
0.0001721813496
8.769821993e-05
0.000189438615
2.608814764e-05
1.017604187e-05
3.704396176e-05
0.0003999389557
1.041154798e-08
2.485653208e-11
3.852076775e-12
8.629387158e-10
0.0001748096772
0.0001802230934
6.088590516e-05
3.061339792e-05
1.948679974e-05
2.452380941e-05
5.168699459e-05
7.486973704e-05
5.761480215e-05
3.22622007e-05
2.244296827e-05
2.691379478e-05
3.821029866e-05
4.321589933e-05
7.65844175e-05
0.0005091403228
0.005984567979
0.001186395008
0.0007783622926
0.001947964065
0.002997335113
0.002338076929
0.001618391188
0.001315542906
0.0009613595796
0.0006070126393
0.0005000059989
0.0004444552341
0.0002393249722
6.10904639e-05
1.218942656e-05
3.376641428e-05
0.0004265313721
1.007203276e-08
3.295812936e-11
5.282198203e-12
7.871879442e-10
0.0001820195851
0.0002043858771
5.358582885e-05
2.820761537e-05
2.415744864e-05
4.994903815e-05
0.0001419208144
0.0002509244358
0.0002678213595
0.0002395223979
0.0002056760637
0.0001981151957
0.0001653188
0.0001016157686
0.0001022101868
0.0005172417425
0.006295898128
0.001147277231
0.0008278480648
0.001177100666
0.001392072036
0.0009617472056
0.0007219514173
0.0005260248622
0.0004466561888
0.0006663902815
0.001081037892
0.00024152633
1.800478053e-05
2.231139719e-05
0.0003723470609
9.088203547e-09
4.456544842e-11
8.228112167e-12
3.860561843e-10
0.0001086573384
0.0001254666932
3.818435083e-05
3.650512135e-05
5.190541805e-05
0.0003619492671
0.0003367454573
0.0002314053183
0.0002629389789
0.0003730552128
0.000448434703
0.0004026871723
0.0002887903225
0.0001693747353
0.00015861356
0.0005775579328
0.006676120049
5.767866266e-05
8.844425765e-05
0.000405587132
0.0006049406152
0.0003752380213
0.0003093889336
0.0002567577602
0.0003498497595
0.0007825203897
0.0005494426594
3.592904143e-05
1.489055797e-05
0.0003296646614
6.214625708e-09
4.767709328e-11
2.802449177e-11
2.471805501e-10
3.970812852e-05
4.26690252e-05
2.956167158e-05
4.538678719e-05
0.0001322030217
0.0006315764456
5.249441104e-05
7.770194432e-05
0.0001302357863
0.0001858431169
0.0002310744233
0.0002634545533
0.0002679349782
0.0002242440731
0.0002632517291
0.0006192970189
0.007029728461
9.391109613e-05
0.0001096035139
6.892241377e-05
0.0001055550095
0.0002175670373
0.0002144197084
0.0002205775938
0.000208146374
0.000455980139
0.0006519439915
0.0001042131772
1.120546058e-05
0.0002760503435
4.119717526e-09
8.085363943e-12
1.788088453e-11
4.983291557e-10
7.101732747e-06
6.908159548e-06
5.003682251e-05
8.527184409e-05
0.0001594848913
9.839910716e-05
3.455094949e-05
5.539612591e-05
7.852318971e-05
0.0001017396984
0.0001309385052
0.0001783551581
0.0002376065463
0.0002713125147
0.0003927604561
0.0004820230544
0.007244208441
0.0002369646898
0.0001465606251
0.0001752644698
0.0002160420109
0.0001412671008
0.0001526475987
8.846745101e-05
0.0001675422832
0.0005963908573
0.0003286850555
1.455473494e-05
0.0001984499247
3.564600938e-09
1.303775663e-11
1.843483957e-11
7.607205068e-10
1.394039673e-08
9.527376392e-08
0.0001371313877
0.0002854340506
0.0002533675086
9.637251062e-05
7.950889622e-05
7.738430444e-05
6.833817738e-05
6.265533185e-05
6.775246002e-05
0.0001006485476
0.0001816829541
0.0002936979826
0.0004707429883
0.00062680259
0.006672588058
0.0001705087683
0.0002850260988
0.0005088560087
7.292964943e-05
2.25375503e-05
2.626908583e-05
1.621777038e-05
0.0001458967029
0.0009085540681
0.0001560462194
1.538749263e-05
0.0001546571074
4.099815505e-09
2.381838367e-11
3.038558362e-11
9.125347171e-10
4.776039015e-08
0.0001393789908
0.0002816495533
0.0006238345474
0.000604600524
0.0003751943253
0.000228906206
0.0001324512202
7.686441744e-05
5.117797993e-05
4.049601804e-05
5.093411095e-05
0.0001128805222
0.0002591305809
0.0005427186453
0.0008662626112
0.006642209092
0.0005761502393
0.0004302813344
0.0005986770727
0.0002349229902
2.618229377e-05
1.966878065e-05
0.0001155332683
0.0009843452375
0.0004811529115
0.0002539603025
0.0001315041353
0.0001733243565
5.161213441e-09
5.139665637e-11
7.838315804e-10
1.419258304e-08
2.741101209e-07
0.0001307648078
0.0002724234261
0.0007122044901
0.0008170024783
0.0004905843495
0.0002492774447
0.0001307177129
7.95557433e-05
5.319427004e-05
3.628687878e-05
3.135582984e-05
5.13839016e-05
0.0001155787117
0.0002641354739
0.0004004161536
0.004746408663
0.00149739426
0.0008669329
0.0004340259701
5.775554567e-05
4.308819801e-05
0.0002036215979
0.001012705509
0.0003998316052
0.0002495871322
0.0004168796976
0.0004454437221
9.986259366e-09
1.507847078e-10
1.301889201e-08
0.0006464459593
0.0004365527194
0.0002041467698
0.000193980854
0.000430992253
0.0004418294153
0.0002333035279
0.0001257927573
8.473825057e-05
6.932644734e-05
5.772777753e-05
4.375535665e-05
3.493072634e-05
3.95532031e-05
4.331221283e-05
7.045875789e-05
8.105305706e-05
0.003270454703
0.0008834064125
0.0005306224725
0.0002784376443
0.0003902696847
0.0005313816985
0.001044610821
0.0005712471737
0.0002593792023
0.0004182332552
0.0008036413245
4.041842564e-08
4.638821882e-09
1.567949663e-08
0.0004109549879
0.0002983645759
0.0001441036757
8.841459003e-05
9.961359515e-05
9.62384304e-05
7.398432543e-05
5.702169099e-05
5.129038638e-05
5.243733965e-05
5.427247269e-05
5.014791103e-05
5.191768054e-05
9.123617989e-05
5.715629121e-05
5.779998938e-05
2.444282554e-05
0.002367333787
0.0006093784928
0.0003110713745
0.0003398609936
0.0006894742145
0.000905117153
0.001214921501
0.001061806788
0.0009350974466
0.0007079281979
0.001027520288
0.0005651939382
2.996572106e-05
9.481253542e-06
0.0001349937026
0.0001516209024
7.768060206e-05
3.933275189e-05
2.502616531e-05
2.1080651e-05
2.042685327e-05
2.139524718e-05
2.464387611e-05
3.132145231e-05
4.037595252e-05
4.668557116e-05
7.4201644e-05
0.0003478281473
1.801949111e-05
7.587454434e-06
1.355044233e-06
0.001504414507
0.0003820818379
0.0001767124127
0.0003733576323
0.0003270919542
0.0002889323657
0.0005291448159
0.0005981652748
0.000669763119
0.0006343037989
0.0006703270712
0.0003593004478
3.686085442e-05
1.080875876e-05
0.0002532450413
0.0001127475213
6.694827839e-05
3.869266389e-05
2.090782496e-05
1.383453962e-05
1.196315212e-05
1.220876379e-05
1.425916313e-05
1.922157807e-05
2.759949772e-05
3.568612977e-05
7.626490354e-05
0.0003094644766
9.975968263e-06
7.435107427e-06
2.43282507e-06
0.001037040696
0.0002322957668
0.0005400837437
0.0007395435646
0.0007568506038
0.0007381608331
0.0001035888947
1.335739179e-05
7.372486306e-05
0.0001283160991
7.073040249e-05
6.55993564e-05
5.128801904e-05
2.96281567e-05
1.662922232e-05
1.179236991e-05
1.072070236e-05
1.183052107e-05
1.582957226e-05
2.391619726e-05
3.806643678e-05
6.158378859e-05
7.5223865e-05
6.866677825e-05
5.585080502e-05
3.853532723e-05
0.001372126567
0.0002143552999
0.0004976885977
0.0008713494027
0.001525790027
0.001142893431
0.0002141647366
4.963555575e-05
2.382452614e-05
1.586319854e-05
3.113400159e-05
5.766046622e-05
6.294875557e-05
4.247610205e-05
2.311661055e-05
1.370506947e-05
1.058142916e-05
1.078502074e-05
1.503167802e-05
3.019692631e-05
9.485832144e-05
0.0002069152733
0.0002972413558
0.0003225699919
0.0002950103265
0.0002244335938
0.00211481913
)
;

boundaryField
{
    walls
    {
        type            zeroGradient;
    }
    wallFilmFace_top
    {
        type            zeroGradient;
    }
    region0_to_wallFilmRegion_wallFilmFace
    {
        type            zeroGradient;
    }
    mirrorFace_top
    {
        type            zeroGradient;
    }
    region0_to_wallFilmRegion_mirrorFace
    {
        type            zeroGradient;
    }
    procBoundary0to1
    {
        type            processor;
        value           nonuniform List<scalar> 
52
(
0.00466912238
0.0001154839839
3.940863249e-05
1.954391353e-05
1.67117024e-05
1.272766153e-05
8.677618719e-06
8.677618719e-06
5.594308407e-06
3.723871504e-06
3.29559781e-06
3.973911622e-06
3.973911622e-06
4.513882713e-06
5.253292502e-06
5.253292502e-06
7.909495204e-06
1.467042959e-05
2.935716292e-05
4.761698528e-05
4.761698528e-05
8.30752698e-05
6.809854354e-05
6.809854354e-05
5.895342393e-05
0.0001063158789
9.453830401e-05
0.0003937816917
0.0003937816917
0.001219084085
0.0005935330606
0.0005935330606
0.0002038088765
0.0002038088765
0.0003678054467
0.0002526673365
0.0002526673365
0.0004762233334
0.00199178667
0.00177798777
0.00177798777
0.001444974564
0.001444974564
0.0008417870499
0.0008218436064
0.0001489917454
5.899848545e-05
0.0002896161365
0.0001936127102
0.0001311129221
0.0001311129221
0.0001301657558
)
;
    }
    procBoundary0to2
    {
        type            processor;
        value           nonuniform List<scalar> 
26
(
0.0003867009397
0.001227920517
0.001171134485
0.00287313273
0.001118568478
0.0007332773311
6.95652695e-05
5.371103365e-07
7.080882413e-06
1.887546586e-05
5.51766001e-05
7.780252197e-05
6.000878759e-05
3.402196084e-05
2.131965156e-05
1.989249078e-05
2.753375295e-05
4.778474662e-05
8.812536134e-05
0.0001589034314
0.000207287504
0.0002284432133
0.0002274023655
0.0002214604732
0.0001959795144
0.002806378241
)
;
    }
}


// ************************************************************************* //
