/*--------------------------------*- C++ -*----------------------------------*\
  =========                 |
  \\      /  F ield         | OpenFOAM: The Open Source CFD Toolbox
   \\    /   O peration     | Website:  https://openfoam.org
    \\  /    A nd           | Version:  8
     \\/     M anipulation  |
\*---------------------------------------------------------------------------*/
FoamFile
{
    version     2.0;
    format      ascii;
    class       volScalarField;
    location    "1.4/wallFilmRegion";
    object      kappa;
}
// * * * * * * * * * * * * * * * * * * * * * * * * * * * * * * * * * * * * * //

dimensions      [1 1 -3 -1 0 0 0];

internalField   nonuniform List<scalar> 
1369
(
0.6088100031
0.6088100032
0.6088100033
0.6088100034
0.6088100035
0.6088100035
0.6088100034
0.6088100033
0.6088100032
0.608810003
0.6088100029
0.6088100025
0.6088100022
0.6088100027
0.6088100023
0.6088100029
0.6088100029
0.6088100028
0.6088100026
0.6088100023
0.6088100018
0.6088100011
0.6088100005
0.6088100002
0.6088099999
0.6088099996
0.6088099993
0.6088099992
0.6088099992
0.6088099996
0.6088099999
0.6088100002
0.6088100002
0.6088100003
0.6088100005
0.6088100007
0.6088100008
0.6088100007
0.6088100006
0.6088100006
0.6088100006
0.6088100005
0.6088100005
0.6088100004
0.6088100004
0.6088100005
0.6088100005
0.6088100006
0.6088100007
0.6088100009
0.6088100003
0.6088100001
0.60881
0.60881
0.60881
0.6088100002
0.6088100004
0.6088100006
0.6088100006
0.6088100003
0.6088100031
0.6088100031
0.6088100031
0.6088100032
0.6088100033
0.6088100036
0.6088100035
0.6088100035
0.6088100034
0.6088100034
0.6088100033
0.6088100018
0.6088100004
0.6088100004
0.6088100002
0.6088100013
0.6088100027
0.6088100033
0.6088100033
0.6088100036
0.6088100045
0.608810007
0.6088100078
0.6088100053
0.6088100037
0.6088100022
0.6088100012
0.6088100006
0.6088100002
0.6088100002
0.6088100002
0.6088100002
0.6088100002
0.6088100003
0.6088100009
0.6088100012
0.6088100013
0.6088100046
0.6088100003
0.6088100004
0.6088100006
0.6088100008
0.6088100012
0.6088100017
0.6088100017
0.6088100016
0.6088100015
0.6088100014
0.6088100014
0.6088100019
0.6088100018
0.6088100008
0.6088100004
0.6088100002
0.6088100002
0.6088100004
0.6088100006
0.6088100005
0.6088100005
0.6088100005
0.608810003
0.6088100031
0.6088100031
0.6088100032
0.6088100032
0.6088100033
0.6088100035
0.6088100038
0.6088100036
0.6088100035
0.6088100033
0.6088100012
0.6088100001
0.6088100001
0.60881
0.6088100003
0.6088100012
0.6088100032
0.6088100043
0.6088100049
0.6088100069
0.6088100124
0.6088100114
0.608810006
0.6088100043
0.6088100033
0.6088100026
0.6088100018
0.6088100009
0.6088100003
0.6088100001
0.6088100002
0.6088100005
0.608810001
0.6088100011
0.6088100012
0.6088100011
0.6088100009
0.6088100002
0.6088100004
0.6088100005
0.6088100007
0.608810001
0.6088100016
0.6088100022
0.6088100021
0.6088100018
0.6088100016
0.6088100013
0.6088100019
0.6088100016
0.6088100015
0.6088100012
0.6088100009
0.6088100009
0.6088100008
0.6088100007
0.6088100007
0.6088100006
0.6088100005
0.6088100029
0.608810003
0.6088100031
0.6088100032
0.6088100032
0.6088100033
0.6088100033
0.6088100035
0.6088100035
0.6088100035
0.6088100029
0.6088100002
0.6088100002
0.608810001
0.6088100001
0.6088100012
0.6088100025
0.6088100054
0.6088100089
0.6088100108
0.6088100171
0.6088100318
0.6088100171
0.6088100064
0.6088100043
0.6088100037
0.6088100034
0.6088100025
0.6088100014
0.6088100005
0.6088100001
0.6088100004
0.6088100006
0.6088100009
0.608810001
0.608810001
0.6088100011
0.6088100014
0.6088100007
0.6088100025
0.6088100032
0.6088100043
0.6088100048
0.6088100041
0.6088100033
0.6088100025
0.608810002
0.6088100017
0.6088100014
0.6088100019
0.6088100017
0.6088100016
0.6088100014
0.6088100012
0.608810001
0.6088100009
0.6088100008
0.6088100007
0.6088100006
0.6088100005
0.6088100029
0.608810003
0.6088100032
0.6088100032
0.6088100033
0.6088100033
0.6088100033
0.6088100034
0.6088100034
0.6088100034
0.6088100027
0.6088100002
0.6088100004
0.6088100024
0.6088100003
0.6088100018
0.6088100033
0.6088100063
0.6088100301
0.6088100449
0.6088100686
0.6088100959
0.6088100286
0.6088100081
0.6088100048
0.6088100044
0.608810004
0.6088100029
0.6088100017
0.6088100007
0.6088100002
0.6088100009
0.608810001
0.6088100011
0.6088100012
0.6088100009
0.6088100008
0.6088100011
0.6088100012
0.6088100032
0.6088100038
0.6088100045
0.6088100051
0.608810005
0.6088100039
0.6088100026
0.608810002
0.6088100018
0.6088100016
0.6088100018
0.6088100018
0.6088100017
0.6088100016
0.6088100014
0.6088100011
0.608810001
0.6088100009
0.6088100008
0.6088100006
0.6088100005
0.6088100028
0.608810003
0.6088100034
0.6088100034
0.6088100033
0.6088100033
0.6088100033
0.6088100034
0.6088100034
0.6088100034
0.6088100027
0.6088100003
0.6088100008
0.6088100125
0.6088100022
0.6088100064
0.6088100626
0.608810106
0.608810144
0.6088101944
0.6088102697
0.6088103786
0.6088102024
0.6088100187
0.6088100061
0.6088100058
0.6088100053
0.6088100037
0.6088100024
0.6088100012
0.6088100003
0.608810002
0.6088100018
0.6088100015
0.6088100019
0.6088100006
0.6088100006
0.6088100007
0.6088100014
0.6088100042
0.6088100045
0.6088100046
0.608810005
0.6088100058
0.6088100044
0.6088100024
0.608810002
0.6088100019
0.6088100018
0.6088100015
0.6088100017
0.6088100017
0.6088100016
0.6088100015
0.6088100013
0.6088100012
0.608810001
0.6088100009
0.6088100007
0.6088100005
0.6088100028
0.6088100031
0.6088100035
0.6088100036
0.6088100034
0.6088100034
0.6088100034
0.6088100034
0.6088100035
0.6088100039
0.6088100027
0.6088100005
0.6088100015
0.6088100313
0.6088100424
0.6088100614
0.6088100975
0.608810161
0.60881026
0.6088103866
0.6088105425
0.6088108084
0.6088113158
0.6088104682
0.6088100107
0.6088100087
0.6088100071
0.6088100049
0.6088100037
0.6088100033
0.6088100014
0.6088100031
0.6088100027
0.6088100025
0.6088100044
0.6088100003
0.6088100006
0.6088100004
0.608810001
0.608810005
0.608810005
0.6088100044
0.6088100031
0.6088100034
0.6088100024
0.6088100018
0.6088100019
0.6088100021
0.6088100021
0.6088100017
0.6088100016
0.6088100016
0.6088100016
0.6088100016
0.6088100016
0.6088100015
0.6088100013
0.6088100011
0.6088100009
0.6088100006
0.6088100028
0.6088100033
0.6088100036
0.6088100036
0.6088100035
0.6088100035
0.6088100034
0.6088100035
0.6088100036
0.6088100046
0.6088100029
0.6088100008
0.6088100016
0.6088100282
0.6088100366
0.6088100524
0.6088100901
0.6088101792
0.6088103666
0.6088106404
0.6088109155
0.6088113409
0.6088117882
0.608810957
0.6088100845
0.6088100235
0.6088100103
0.6088100065
0.6088100056
0.6088100066
0.6088100069
0.6088100064
0.608810005
0.608810005
0.6088100051
0.6088100002
0.6088100014
0.6088100005
0.6088100011
0.6088100054
0.608810005
0.6088100042
0.6088100013
0.6088100011
0.6088100012
0.6088100015
0.6088100021
0.6088100027
0.6088100025
0.608810002
0.6088100015
0.6088100015
0.6088100016
0.6088100016
0.6088100016
0.6088100016
0.6088100015
0.6088100015
0.6088100011
0.6088100007
0.6088100028
0.6088100036
0.6088100035
0.6088100035
0.6088100035
0.6088100035
0.6088100035
0.6088100037
0.6088100049
0.6088100068
0.6088100037
0.6088100017
0.6088100021
0.6088100242
0.608810028
0.608810038
0.6088100658
0.6088101521
0.6088104251
0.6088110324
0.608811589
0.6088123378
0.6088121451
0.6088113058
0.6088102496
0.6088100542
0.6088100156
0.6088100099
0.60881001
0.6088100144
0.6088100149
0.6088100118
0.6088100062
0.6088100046
0.608810002
0.6088100005
0.6088100031
0.6088100006
0.6088100054
0.6088100054
0.6088100047
0.6088100039
0.6088100027
0.608810003
0.6088100047
0.6088100072
0.608810007
0.6088100049
0.6088100034
0.6088100023
0.6088100017
0.6088100014
0.6088100014
0.6088100015
0.6088100016
0.6088100016
0.6088100016
0.6088100015
0.6088100013
0.6088100008
0.6088100027
0.6088100042
0.6088100037
0.6088100036
0.6088100036
0.6088100037
0.6088100038
0.6088100044
0.6088100212
0.6088100125
0.6088100065
0.608810004
0.6088100036
0.6088100198
0.6088100211
0.608810026
0.6088100416
0.6088101008
0.6088103608
0.6088114026
0.6088128021
0.6088142828
0.6088124288
0.6088114585
0.6088106341
0.6088101712
0.6088100338
0.6088100154
0.6088100202
0.6088100526
0.608810059
0.6088100172
0.6088100059
0.6088100023
0.6088100011
0.6088100018
0.6088100056
0.608810006
0.6088100061
0.6088100056
0.608810005
0.6088100047
0.6088100049
0.6088100061
0.6088100083
0.6088100195
0.6088100115
0.6088100064
0.608810004
0.6088100026
0.6088100018
0.6088100015
0.6088100014
0.6088100014
0.6088100014
0.6088100016
0.6088100017
0.6088100017
0.6088100017
0.6088100011
0.6088100026
0.6088100052
0.6088100049
0.6088100043
0.6088100047
0.608810007
0.6088100111
0.6088100183
0.6088100293
0.6088100312
0.6088100265
0.6088100216
0.6088100186
0.6088100165
0.6088100161
0.6088100178
0.6088100249
0.6088100577
0.6088102328
0.6088111972
0.608813814
0.6088136413
0.6088122583
0.6088112442
0.608811092
0.6088105827
0.6088101406
0.6088100182
0.6088100097
0.6088100073
0.6088100071
0.6088100101
0.6088100058
0.6088099995
0.6088100009
0.6088100037
0.6088100076
0.6088100074
0.608810007
0.6088100063
0.6088100053
0.6088100048
0.6088100047
0.6088100056
0.6088100079
0.6088100221
0.6088100126
0.6088100072
0.6088100046
0.6088100028
0.6088100019
0.6088100016
0.6088100015
0.6088100015
0.6088100015
0.6088100016
0.6088100016
0.6088100017
0.6088100019
0.6088100014
0.6088100025
0.6088100046
0.6088100042
0.6088100051
0.6088100063
0.6088100084
0.6088100122
0.6088100193
0.608810028
0.6088100308
0.6088100264
0.6088100206
0.6088100165
0.6088100139
0.6088100126
0.6088100125
0.6088100149
0.6088100298
0.6088101277
0.6088104329
0.6088107692
0.6088107116
0.6088104753
0.6088104774
0.6088107523
0.6088121206
0.6088107896
0.6088102926
0.6088100429
0.6088100193
0.6088100138
0.6088100059
0.6088099992
0.6088099984
0.6088100003
0.608810009
0.6088100093
0.6088100085
0.6088100082
0.6088100081
0.6088100061
0.6088100053
0.6088100047
0.6088100051
0.6088100072
0.608810021
0.6088100173
0.6088100095
0.6088100058
0.6088100034
0.6088100022
0.6088100018
0.6088100017
0.6088100017
0.6088100018
0.608810002
0.6088100022
0.6088100023
0.6088100021
0.6088100015
0.6088100184
0.6088100263
0.6088100288
0.6088100244
0.6088100189
0.6088100147
0.6088100117
0.6088100097
0.6088100089
0.6088100095
0.6088100133
0.6088100179
0.6088100574
0.6088101121
0.6088100963
0.608810094
0.6088101707
0.608810321
0.6088117115
0.6088102939
0.6088100875
0.608810026
0.6088100131
0.6088100106
0.6088099982
0.6088099979
0.6088099984
0.6088099995
0.6088100123
0.6088100104
0.6088100078
0.608810007
0.6088100149
0.6088100084
0.608810007
0.6088100049
0.6088100042
0.6088100052
0.6088100153
0.6088100237
0.608810014
0.6088100082
0.6088100043
0.6088100028
0.6088100023
0.6088100021
0.6088100022
0.6088100025
0.6088100029
0.6088100033
0.6088100032
0.6088100024
0.6088100017
0.608810017
0.6088100129
0.6088100096
0.6088100072
0.6088100057
0.6088100052
0.6088100055
0.6088100033
0.6088100035
0.6088100112
0.6088100174
0.6088100231
0.6088100637
0.6088100977
0.6088105117
0.6088100526
0.6088100023
0.6088099985
0.6088099983
0.6088099988
0.6088099974
0.6088099984
0.6088099988
0.6088099992
0.6088100115
0.6088100097
0.6088100053
0.6088100021
0.6088135321
0.6088135785
0.608810026
0.6088100056
0.608810003
0.6088100035
0.6088100087
0.6088100268
0.608810025
0.6088100141
0.6088100064
0.6088100039
0.6088100033
0.6088100032
0.6088100035
0.6088100043
0.6088100054
0.6088100058
0.6088100044
0.6088100025
0.6088100018
0.6088100075
0.6088100049
0.608810003
0.6088100022
0.6088100021
0.6088100014
0.6088100008
0.6088100008
0.6088100008
0.6088100005
0.6088100042
0.608810001
0.6088099976
0.6088099966
0.6088099959
0.6088099955
0.6088099956
0.6088099964
0.6088099974
0.6088099994
0.6088099994
0.6088099991
0.6088100089
0.6088100083
0.6088100033
0.6088099996
0.6088135474
0.6088136274
0.6088136443
0.608813657
0.6088100018
0.608810002
0.6088100038
0.6088100081
0.6088100138
0.6088100113
0.6088100071
0.6088100065
0.6088100073
0.6088100093
0.6088100124
0.6088100144
0.6088100125
0.6088100092
0.6088100052
0.6088100025
0.6088100019
0.60881
0.6088100011
0.6088100006
0.6088100005
0.6088100004
0.6088100002
0.6088100002
0.6088099999
0.6088099998
0.608809998
0.6088099962
0.6088099957
0.6088099958
0.6088099964
0.6088099977
0.6088100001
0.60881
0.6088099993
0.6088100063
0.6088100082
0.6088100019
0.6088099978
0.6088135594
0.6088136648
0.6088136848
0.6088137018
0.6088100011
0.6088100013
0.6088100024
0.6088100039
0.6088100057
0.6088100056
0.6088100051
0.6088100055
0.6088100065
0.608810008
0.6088100094
0.6088100086
0.6088100067
0.608810006
0.6088100049
0.6088100025
0.608810002
0.6088100008
0.6088100005
0.6088100003
0.6088099977
0.6088099951
0.6088099962
0.6088099978
0.6088099967
0.6088099962
0.608809996
0.6088099963
0.6088099968
0.6088099979
0.6088099994
0.6088100004
0.6088099996
0.6088100026
0.6088100077
0.6088100013
0.6088099966
0.6088135767
0.6088136999
0.608813718
0.6088137336
0.6088100008
0.608810001
0.608810002
0.608810003
0.6088100038
0.6088100041
0.6088100045
0.6088100052
0.608810006
0.6088100069
0.6088100069
0.6088100057
0.608810005
0.608810005
0.6088100048
0.6088100025
0.6088100021
0.6088099924
0.6088099943
0.608809997
0.6088099957
0.6088099955
0.6088099961
0.6088099965
0.6088099969
0.6088099973
0.6088099977
0.6088099981
0.6088099991
0.6088099991
0.6088100058
0.6088100014
0.6088099956
0.6088136063
0.6088137372
0.6088137488
0.6088137573
0.6088100007
0.6088100009
0.608810002
0.6088100028
0.6088100032
0.6088100034
0.6088100041
0.6088100042
0.6088100035
0.6088100032
0.6088100032
0.6088100032
0.6088100033
0.6088100035
0.6088100039
0.6088100024
0.6088100021
0.6088099967
0.6088099955
0.6088099946
0.6088099959
0.6088099967
0.608809997
0.6088099969
0.6088099967
0.6088099964
0.6088099965
0.6088099972
0.6088100029
0.6088100023
0.6088099945
0.6088136481
0.6088137771
0.6088137813
0.6088137871
0.6088100009
0.6088100011
0.6088100026
0.6088100028
0.6088100027
0.6088100034
0.6088100037
0.6088100031
0.6088100026
0.6088100023
0.6088100022
0.6088100021
0.6088100021
0.6088100022
0.6088100026
0.6088100022
0.6088100022
0.6088099972
0.6088099943
0.6088099942
0.6088099965
0.6088099966
0.6088099964
0.6088099962
0.6088099956
0.6088099957
0.6088099963
0.6088099999
0.6088100033
0.6088099935
0.6088137049
0.6088138159
0.6088138137
0.6088138123
0.6088100016
0.6088100018
0.6088100034
0.6088100035
0.6088100032
0.6088100032
0.6088100039
0.6088100032
0.6088100026
0.6088100022
0.608810002
0.6088100018
0.6088100017
0.6088100016
0.6088100018
0.6088100021
0.6088100022
0.6088099948
0.6088099933
0.6088099941
0.6088099947
0.6088099964
0.608809996
0.6088099954
0.608809995
0.6088099951
0.6088099958
0.6088099972
0.6088100027
0.6088099931
0.6088137666
0.6088138546
0.6088138464
0.6088138241
0.6088100046
0.6088100052
0.608810003
0.6088100029
0.6088100047
0.6088100041
0.6088100046
0.6088100036
0.608810003
0.6088100025
0.6088100021
0.6088100018
0.6088100015
0.6088100013
0.6088100013
0.6088100017
0.6088100022
0.6088099927
0.6088099931
0.6088099947
0.6088099976
0.608809997
0.6088099952
0.6088099949
0.6088099948
0.6088099953
0.608809996
0.6088099999
0.6088099935
0.6088137736
0.6088138797
0.6088138731
0.6088138452
0.6088113747
0.6088104879
0.6088100022
0.6088100021
0.6088100026
0.6088100035
0.6088100039
0.6088100035
0.6088100032
0.608810003
0.6088100026
0.608810002
0.6088100014
0.608810001
0.6088100009
0.608810001
0.6088100021
0.6088099926
0.6088099925
0.6088099967
0.6088099973
0.6088099989
0.6088099963
0.6088099962
0.6088099942
0.6088099946
0.6088099973
0.6088100027
0.6088099946
0.608813676
0.6088138932
0.6088138927
0.6088138727
0.6088107301
0.6088100024
0.6088100018
0.6088100018
0.608810002
0.6088100025
0.6088100028
0.6088100028
0.608810003
0.6088100033
0.6088100034
0.6088100027
0.6088100015
0.6088100009
0.6088100007
0.6088100006
0.6088100018
0.6088099945
0.6088099925
0.6088099932
0.6088099969
0.6088099984
0.6088099963
0.6088099931
0.608809996
0.608809996
0.6088099956
0.6088099957
0.6088099959
0.6088133756
0.6088138966
0.6088138796
0.6088122406
0.6088103859
0.6088100018
0.6088100014
0.6088100015
0.6088100016
0.6088100019
0.608810002
0.6088100023
0.6088100027
0.6088100031
0.6088100037
0.6088100039
0.6088100026
0.6088100013
0.6088100007
0.6088100005
0.6088100017
0.6088099931
0.608809993
0.6088099922
0.6088099942
0.6088099927
0.6088099929
0.6088099961
0.608809997
0.6088099968
0.608809996
0.6088099962
0.6088128117
0.6088138498
0.6088132345
0.6088100003
0.6088100008
0.6088100011
0.6088100012
0.6088100013
0.6088100014
0.6088100015
0.6088100018
0.6088100021
0.6088100025
0.6088100029
0.6088100034
0.6088100041
0.6088100039
0.6088100034
0.6088100026
0.6088100021
0.6088100019
0.6088099921
0.6088099916
0.6088099921
0.6088099912
0.6088099922
0.6088099949
0.6088099962
0.6088099967
0.608809996
0.6088099962
0.6088117462
0.6088128613
0.6088126496
0.6088100003
0.6088100008
0.6088100013
0.6088100016
0.6088100016
0.6088100017
0.6088100019
0.6088100021
0.6088100024
0.6088100026
0.6088100028
0.6088100031
0.6088100036
0.6088100033
0.6088100034
0.6088100033
0.6088100035
0.6088100019
0.6088099921
0.6088099915
0.6088099917
0.6088099906
0.6088099916
0.6088099925
0.6088099936
0.6088099944
0.6088099947
0.608809996
0.6088099983
0.6088100031
0.6088100125
0.6088100017
0.6088100019
0.6088100024
0.608810003
0.6088100037
0.6088100039
0.6088100038
0.6088100036
0.6088100034
0.6088100031
0.608810003
0.6088100031
0.6088100034
0.6088100028
0.6088100061
0.6088100119
0.6088100206
0.6088100018
0.608809993
0.6088099918
0.6088099915
0.6088099914
0.6088099914
0.6088099916
0.6088099923
0.6088099928
0.6088099931
0.6088099939
0.6088099957
0.6088100006
0.6088100096
0.6088100013
0.6088100019
0.6088100024
0.6088100033
0.6088100044
0.6088100055
0.6088100058
0.6088100055
0.6088100049
0.608810004
0.6088100034
0.6088100032
0.6088100032
0.6088100028
0.6088100083
0.6088100107
0.608810013
0.6088100014
0.6088099916
0.6088099921
0.6088099931
0.6088099943
0.6088099952
0.6088099973
0.6088100049
0.6088100021
0.6088100015
0.6088100019
0.6088100021
0.6088100026
0.6088100037
0.6088100051
0.6088100061
0.6088100063
0.6088100057
0.6088100046
0.6088100036
0.608810003
0.6088100028
0.6088100029
0.6088100032
0.6088100038
0.6088100046
0.6088100017
0.6088099915
0.608809992
0.6088099936
0.6088099953
0.6088099967
0.6088100005
0.608810002
0.6088100029
0.608810003
0.6088100023
0.6088100018
0.6088100021
0.6088100029
0.6088100041
0.6088100056
0.6088100063
0.608810006
0.6088100047
0.6088100031
0.6088100021
0.6088100019
0.6088100019
0.608810002
0.6088100023
0.6088100027
0.6088100019
)
;

boundaryField
{
    walls
    {
        type            zeroGradient;
    }
    wallFilmFace_top
    {
        type            zeroGradient;
    }
    region0_to_wallFilmRegion_wallFilmFace
    {
        type            zeroGradient;
    }
    mirrorFace_top
    {
        type            zeroGradient;
    }
    region0_to_wallFilmRegion_mirrorFace
    {
        type            zeroGradient;
    }
    procBoundary0to1
    {
        type            processor;
        value           nonuniform List<scalar> 
52
(
0.6088100024
0.608810004
0.6088100041
0.6088100053
0.6088100064
0.6088100084
0.608810012
0.608810012
0.6088100177
0.6088100248
0.6088100264
0.6088100221
0.6088100221
0.6088100148
0.6088100109
0.6088100109
0.6088100054
0.6088100027
0.6088100008
0.6088099998
0.6088099998
0.6088099976
0.6088099979
0.6088099979
0.6088100017
0.6088100011
0.6088100008
0.6088099948
0.6088099948
0.6088099921
0.608809995
0.608809995
0.6088099969
0.6088099969
0.6088099958
0.6088099933
0.6088099933
0.6088099915
0.6088099959
0.6088099954
0.6088099954
0.608809992
0.608809992
0.608809992
0.6088099923
0.6088099928
0.6088099926
0.6088099916
0.6088099917
0.6088099916
0.6088099916
0.6088099915
)
;
    }
    procBoundary0to2
    {
        type            processor;
        value           nonuniform List<scalar> 
26
(
0.6088099911
0.6088099878
0.6088099937
0.6088099956
0.6088099944
0.6088099957
0.6088100009
0.6088100574
0.6088100044
0.6088100025
0.6088100015
0.6088100016
0.6088100021
0.6088100031
0.608810004
0.6088100041
0.6088100034
0.6088100026
0.6088100023
0.608810002
0.6088100018
0.6088100018
0.6088100019
0.6088100023
0.6088100029
0.608810002
)
;
    }
}


// ************************************************************************* //
