/*--------------------------------*- C++ -*----------------------------------*\
  =========                 |
  \\      /  F ield         | OpenFOAM: The Open Source CFD Toolbox
   \\    /   O peration     | Website:  https://openfoam.org
    \\  /    A nd           | Version:  8
     \\/     M anipulation  |
\*---------------------------------------------------------------------------*/
FoamFile
{
    version     2.0;
    format      ascii;
    class       volScalarField;
    location    "1.4/wallFilmRegion";
    object      sigma;
}
// * * * * * * * * * * * * * * * * * * * * * * * * * * * * * * * * * * * * * //

dimensions      [1 0 -2 0 0 0 0];

internalField   nonuniform List<scalar> 
1369
(
0.07244713438
0.07244713437
0.07244713435
0.07244713433
0.07244713432
0.07244713432
0.07244713433
0.07244713435
0.07244713436
0.07244713438
0.0724471344
0.07244713447
0.07244713451
0.07244713444
0.07244713449
0.07244713441
0.07244713441
0.07244713442
0.07244713445
0.07244713449
0.07244713456
0.07244713466
0.07244713475
0.0724471348
0.07244713483
0.07244713488
0.07244713492
0.07244713495
0.07244713493
0.07244713489
0.07244713483
0.0724471348
0.0724471348
0.07244713479
0.07244713475
0.07244713473
0.07244713471
0.07244713472
0.07244713473
0.07244713473
0.07244713474
0.07244713475
0.07244713476
0.07244713476
0.07244713476
0.07244713476
0.07244713475
0.07244713474
0.07244713473
0.0724471347
0.07244713477
0.07244713482
0.07244713483
0.07244713483
0.07244713482
0.0724471348
0.07244713476
0.07244713473
0.07244713473
0.07244713478
0.07244713438
0.07244713437
0.07244713437
0.07244713437
0.07244713435
0.0724471343
0.07244713431
0.07244713432
0.07244713433
0.07244713433
0.07244713434
0.07244713456
0.07244713477
0.07244713476
0.0724471348
0.07244713463
0.07244713444
0.07244713435
0.07244713434
0.0724471343
0.07244713417
0.07244713382
0.0724471337
0.07244713405
0.07244713428
0.0724471345
0.07244713464
0.07244713473
0.07244713479
0.07244713479
0.07244713479
0.0724471348
0.07244713479
0.07244713478
0.0724471347
0.07244713465
0.07244713464
0.07244713415
0.07244713478
0.07244713477
0.07244713474
0.07244713471
0.07244713464
0.07244713458
0.07244713457
0.07244713459
0.07244713461
0.07244713462
0.07244713463
0.07244713454
0.07244713456
0.07244713471
0.07244713477
0.07244713479
0.07244713479
0.07244713477
0.07244713473
0.07244713475
0.07244713475
0.07244713475
0.07244713439
0.07244713438
0.07244713437
0.07244713437
0.07244713436
0.07244713435
0.07244713432
0.07244713427
0.07244713431
0.07244713431
0.07244713435
0.07244713465
0.07244713481
0.07244713481
0.07244713482
0.07244713479
0.07244713465
0.07244713436
0.0724471342
0.07244713411
0.07244713383
0.07244713302
0.07244713317
0.07244713396
0.0724471342
0.07244713434
0.07244713445
0.07244713456
0.07244713469
0.07244713477
0.07244713481
0.0724471348
0.07244713475
0.07244713468
0.07244713467
0.07244713465
0.07244713467
0.0724471347
0.0724471348
0.07244713476
0.07244713475
0.07244713473
0.07244713468
0.07244713459
0.07244713451
0.07244713452
0.07244713457
0.0724471346
0.07244713463
0.07244713455
0.07244713459
0.07244713461
0.07244713465
0.07244713469
0.0724471347
0.07244713471
0.07244713472
0.07244713473
0.07244713473
0.07244713475
0.0724471344
0.07244713438
0.07244713437
0.07244713436
0.07244713436
0.07244713435
0.07244713434
0.07244713432
0.07244713432
0.07244713432
0.07244713441
0.07244713479
0.07244713479
0.07244713467
0.07244713481
0.07244713466
0.07244713446
0.07244713405
0.07244713354
0.07244713326
0.07244713234
0.07244713021
0.07244713234
0.07244713389
0.07244713421
0.07244713428
0.07244713434
0.07244713446
0.07244713462
0.07244713475
0.07244713481
0.07244713476
0.07244713474
0.07244713469
0.07244713467
0.07244713468
0.07244713467
0.07244713461
0.07244713472
0.07244713446
0.07244713435
0.0724471342
0.07244713413
0.07244713423
0.07244713435
0.07244713446
0.07244713454
0.07244713458
0.07244713462
0.07244713455
0.07244713458
0.0724471346
0.07244713462
0.07244713465
0.07244713468
0.07244713469
0.07244713471
0.07244713472
0.07244713474
0.07244713475
0.07244713441
0.07244713439
0.07244713435
0.07244713435
0.07244713435
0.07244713435
0.07244713434
0.07244713434
0.07244713433
0.07244713433
0.07244713443
0.0724471348
0.07244713477
0.07244713448
0.07244713477
0.07244713456
0.07244713434
0.0724471339
0.07244713046
0.07244712831
0.07244712488
0.07244712092
0.07244713068
0.07244713365
0.07244713413
0.07244713418
0.07244713424
0.0724471344
0.07244713457
0.07244713472
0.0724471348
0.07244713469
0.07244713468
0.07244713466
0.07244713465
0.0724471347
0.07244713471
0.07244713466
0.07244713466
0.07244713436
0.07244713427
0.07244713418
0.07244713409
0.0724471341
0.07244713426
0.07244713444
0.07244713453
0.07244713456
0.0724471346
0.07244713457
0.07244713457
0.07244713458
0.0724471346
0.07244713463
0.07244713466
0.07244713468
0.0724471347
0.07244713471
0.07244713474
0.07244713475
0.07244713441
0.07244713438
0.07244713433
0.07244713433
0.07244713434
0.07244713434
0.07244713434
0.07244713434
0.07244713433
0.07244713433
0.07244713443
0.07244713478
0.07244713471
0.07244713301
0.0724471345
0.0724471339
0.07244712575
0.07244711946
0.07244711396
0.07244710665
0.07244709573
0.07244707994
0.07244710549
0.07244713212
0.07244713394
0.07244713398
0.07244713406
0.07244713428
0.07244713447
0.07244713465
0.07244713478
0.07244713453
0.07244713456
0.0724471346
0.07244713455
0.07244713473
0.07244713474
0.07244713472
0.07244713462
0.07244713422
0.07244713417
0.07244713416
0.0724471341
0.07244713399
0.07244713419
0.07244713448
0.07244713453
0.07244713454
0.07244713457
0.07244713461
0.07244713458
0.07244713458
0.07244713459
0.07244713461
0.07244713463
0.07244713466
0.07244713467
0.07244713469
0.07244713472
0.07244713475
0.07244713442
0.07244713437
0.07244713431
0.07244713431
0.07244713432
0.07244713433
0.07244713433
0.07244713433
0.07244713432
0.07244713426
0.07244713444
0.07244713475
0.07244713461
0.07244713028
0.07244712867
0.07244712592
0.07244712069
0.07244711148
0.07244709713
0.07244707878
0.07244705618
0.07244701765
0.07244694409
0.07244706696
0.07244713327
0.07244713356
0.07244713379
0.07244713412
0.07244713429
0.07244713435
0.07244713461
0.07244713438
0.07244713443
0.07244713446
0.07244713419
0.07244713478
0.07244713473
0.07244713476
0.07244713468
0.0724471341
0.0724471341
0.07244713418
0.07244713437
0.07244713434
0.07244713447
0.07244713456
0.07244713454
0.07244713451
0.07244713452
0.07244713458
0.07244713459
0.07244713458
0.07244713459
0.07244713459
0.0724471346
0.07244713461
0.07244713463
0.07244713466
0.0724471347
0.07244713474
0.07244713442
0.07244713435
0.0724471343
0.0724471343
0.07244713432
0.07244713432
0.07244713432
0.07244713432
0.0724471343
0.07244713416
0.0724471344
0.07244713471
0.07244713459
0.07244713073
0.07244712952
0.07244712722
0.07244712176
0.07244710885
0.07244708168
0.07244704199
0.07244700212
0.07244694045
0.07244687561
0.0724469961
0.07244712257
0.07244713142
0.07244713333
0.07244713388
0.07244713401
0.07244713387
0.07244713382
0.0724471339
0.0724471341
0.0724471341
0.07244713408
0.0724471348
0.07244713462
0.07244713476
0.07244713467
0.07244713405
0.0724471341
0.07244713422
0.07244713463
0.07244713466
0.07244713465
0.0724471346
0.07244713451
0.07244713444
0.07244713445
0.07244713453
0.0724471346
0.07244713461
0.07244713459
0.0724471346
0.07244713459
0.07244713459
0.0724471346
0.07244713461
0.07244713467
0.07244713473
0.07244713442
0.0724471343
0.07244713431
0.07244713431
0.07244713432
0.07244713432
0.07244713432
0.07244713429
0.07244713411
0.07244713384
0.07244713428
0.07244713458
0.07244713452
0.07244713132
0.07244713077
0.07244712931
0.07244712528
0.07244711277
0.0724470732
0.07244698517
0.07244690449
0.07244679593
0.07244682388
0.07244694554
0.07244709864
0.07244712696
0.07244713256
0.07244713339
0.07244713338
0.07244713274
0.07244713266
0.07244713311
0.07244713393
0.07244713416
0.07244713453
0.07244713474
0.07244713437
0.07244713473
0.07244713405
0.07244713404
0.07244713414
0.07244713426
0.07244713443
0.07244713439
0.07244713414
0.07244713378
0.07244713381
0.07244713412
0.07244713434
0.07244713449
0.07244713458
0.07244713461
0.07244713462
0.0724471346
0.0724471346
0.07244713459
0.07244713459
0.0724471346
0.07244713463
0.0724471347
0.07244713443
0.07244713422
0.07244713429
0.0724471343
0.0724471343
0.07244713429
0.07244713427
0.07244713418
0.07244713175
0.07244713301
0.07244713388
0.07244713424
0.07244713431
0.07244713195
0.07244713177
0.07244713106
0.07244712879
0.07244712021
0.07244708252
0.0724469315
0.07244672864
0.07244651399
0.07244678274
0.0724469234
0.07244704291
0.07244711001
0.07244712993
0.07244713259
0.07244713189
0.0724471272
0.07244712627
0.07244713233
0.07244713396
0.07244713449
0.07244713466
0.07244713456
0.07244713402
0.07244713395
0.07244713393
0.07244713401
0.07244713409
0.07244713414
0.07244713411
0.07244713394
0.07244713362
0.072447132
0.07244713315
0.0724471339
0.07244713424
0.07244713445
0.07244713456
0.0724471346
0.07244713462
0.07244713462
0.07244713462
0.0724471346
0.07244713458
0.07244713458
0.07244713458
0.07244713466
0.07244713445
0.07244713407
0.07244713411
0.0724471342
0.07244713414
0.07244713382
0.07244713321
0.07244713217
0.07244713057
0.0724471303
0.07244713098
0.07244713169
0.07244713213
0.07244713243
0.07244713249
0.07244713224
0.07244713121
0.07244712646
0.07244710108
0.07244696128
0.07244658195
0.07244660698
0.07244680746
0.07244695447
0.07244697653
0.07244705036
0.07244711444
0.07244713218
0.07244713342
0.07244713377
0.07244713379
0.07244713336
0.07244713398
0.0724471349
0.0724471347
0.07244713429
0.07244713372
0.07244713376
0.07244713381
0.07244713391
0.07244713405
0.07244713413
0.07244713414
0.07244713402
0.07244713368
0.07244713163
0.072447133
0.07244713377
0.07244713416
0.07244713441
0.07244713454
0.07244713459
0.0724471346
0.0724471346
0.0724471346
0.07244713459
0.07244713459
0.07244713458
0.07244713455
0.07244713463
0.07244713446
0.07244713416
0.07244713422
0.07244713408
0.07244713391
0.07244713361
0.07244713305
0.07244713203
0.07244713077
0.07244713036
0.072447131
0.07244713184
0.07244713243
0.07244713281
0.072447133
0.07244713301
0.07244713266
0.0724471305
0.07244711632
0.07244707207
0.07244702332
0.07244703168
0.07244706592
0.07244706562
0.07244702577
0.07244682742
0.07244702036
0.07244709241
0.0724471286
0.07244713203
0.07244713282
0.07244713397
0.07244713494
0.07244713506
0.07244713478
0.07244713352
0.07244713347
0.0724471336
0.07244713364
0.07244713365
0.07244713394
0.07244713406
0.07244713414
0.07244713408
0.07244713379
0.07244713178
0.07244713232
0.07244713344
0.07244713398
0.07244713434
0.0724471345
0.07244713456
0.07244713457
0.07244713457
0.07244713456
0.07244713454
0.0724471345
0.07244713449
0.07244713452
0.0724471346
0.07244713216
0.072447131
0.07244713065
0.07244713128
0.07244713209
0.07244713269
0.07244713313
0.07244713341
0.07244713353
0.07244713345
0.0724471329
0.07244713223
0.0724471265
0.07244711857
0.07244712087
0.0724471212
0.07244711009
0.07244708828
0.07244688673
0.07244709222
0.07244712214
0.07244713105
0.07244713292
0.07244713329
0.07244713508
0.07244713513
0.07244713506
0.07244713489
0.07244713304
0.07244713331
0.07244713369
0.07244713381
0.07244713266
0.0724471336
0.0724471338
0.07244713412
0.07244713421
0.07244713407
0.0724471326
0.07244713139
0.0724471328
0.07244713363
0.0724471342
0.07244713442
0.0724471345
0.07244713451
0.0724471345
0.07244713447
0.07244713441
0.07244713434
0.07244713436
0.07244713448
0.07244713458
0.07244713236
0.07244713296
0.07244713343
0.07244713378
0.072447134
0.07244713407
0.07244713403
0.07244713435
0.07244713432
0.0724471332
0.0724471323
0.07244713148
0.07244712559
0.07244712067
0.07244706064
0.07244712719
0.0724471345
0.07244713504
0.07244713507
0.072447135
0.0724471352
0.07244713506
0.07244713499
0.07244713494
0.07244713315
0.07244713342
0.07244713406
0.07244713452
0.07244662282
0.07244661609
0.07244713105
0.07244713401
0.07244713438
0.07244713432
0.07244713356
0.07244713094
0.0724471312
0.07244713278
0.0724471339
0.07244713425
0.07244713434
0.07244713436
0.07244713432
0.0724471342
0.07244713404
0.07244713398
0.07244713419
0.07244713446
0.07244713456
0.07244713373
0.07244713412
0.07244713438
0.0724471345
0.07244713451
0.07244713463
0.07244713471
0.0724471347
0.07244713471
0.07244713475
0.07244713422
0.07244713469
0.07244713517
0.07244713532
0.07244713541
0.07244713548
0.07244713546
0.07244713535
0.0724471352
0.0724471349
0.07244713492
0.07244713495
0.07244713353
0.07244713361
0.07244713435
0.07244713488
0.07244662059
0.072446609
0.07244660655
0.0724466047
0.07244713457
0.07244713453
0.07244713427
0.07244713365
0.07244713282
0.07244713319
0.0724471338
0.07244713388
0.07244713376
0.07244713348
0.07244713303
0.07244713274
0.07244713302
0.07244713349
0.07244713408
0.07244713446
0.07244713455
0.07244713482
0.07244713467
0.07244713474
0.07244713475
0.07244713477
0.0724471348
0.07244713479
0.07244713484
0.07244713486
0.07244713511
0.07244713537
0.07244713545
0.07244713543
0.07244713535
0.07244713516
0.07244713482
0.07244713482
0.07244713493
0.07244713391
0.07244713364
0.07244713454
0.07244713514
0.07244661885
0.07244660357
0.07244660067
0.07244659821
0.07244713467
0.07244713464
0.07244713448
0.07244713425
0.072447134
0.07244713401
0.07244713409
0.07244713402
0.07244713389
0.07244713367
0.07244713346
0.07244713358
0.07244713385
0.07244713396
0.07244713411
0.07244713446
0.07244713453
0.0724471347
0.07244713474
0.07244713477
0.07244713515
0.07244713554
0.07244713537
0.07244713515
0.0724471353
0.07244713538
0.07244713541
0.07244713537
0.07244713529
0.07244713513
0.07244713492
0.07244713476
0.07244713488
0.07244713444
0.0724471337
0.07244713464
0.07244713531
0.07244661634
0.07244659849
0.07244659587
0.0724465936
0.07244713471
0.07244713468
0.07244713453
0.0724471344
0.07244713427
0.07244713423
0.07244713417
0.07244713407
0.07244713395
0.07244713383
0.07244713382
0.072447134
0.07244713409
0.07244713409
0.07244713413
0.07244713446
0.07244713452
0.07244713593
0.07244713565
0.07244713526
0.07244713545
0.07244713548
0.07244713539
0.07244713533
0.07244713528
0.07244713521
0.07244713516
0.0724471351
0.07244713495
0.07244713496
0.07244713398
0.07244713463
0.07244713546
0.07244661206
0.07244659308
0.07244659139
0.07244659017
0.07244713472
0.07244713469
0.07244713453
0.07244713442
0.07244713436
0.07244713433
0.07244713422
0.07244713422
0.07244713432
0.07244713437
0.07244713437
0.07244713436
0.07244713435
0.07244713431
0.07244713427
0.07244713448
0.07244713452
0.0724471353
0.07244713548
0.0724471356
0.07244713542
0.0724471353
0.07244713527
0.07244713527
0.0724471353
0.07244713535
0.07244713534
0.07244713524
0.0724471344
0.0724471345
0.07244713562
0.07244660599
0.0724465873
0.07244658669
0.07244658585
0.07244713469
0.07244713466
0.07244713445
0.07244713442
0.07244713443
0.07244713433
0.07244713429
0.07244713437
0.07244713445
0.07244713449
0.07244713451
0.07244713452
0.07244713452
0.07244713451
0.07244713445
0.0724471345
0.07244713451
0.07244713523
0.07244713565
0.07244713567
0.07244713533
0.07244713532
0.07244713534
0.07244713537
0.07244713547
0.07244713545
0.07244713536
0.07244713484
0.07244713435
0.07244713577
0.07244659777
0.07244658167
0.07244658198
0.07244658219
0.07244713459
0.07244713456
0.07244713433
0.07244713432
0.07244713436
0.07244713435
0.07244713426
0.07244713436
0.07244713445
0.0724471345
0.07244713454
0.07244713456
0.07244713458
0.07244713459
0.07244713456
0.07244713452
0.07244713451
0.07244713557
0.07244713579
0.07244713568
0.0724471356
0.07244713535
0.07244713541
0.07244713548
0.07244713555
0.07244713553
0.07244713544
0.07244713523
0.07244713443
0.07244713582
0.07244658882
0.07244657606
0.07244657725
0.07244658049
0.07244713416
0.07244713407
0.07244713439
0.07244713441
0.07244713414
0.07244713422
0.07244713416
0.0724471343
0.07244713439
0.07244713446
0.07244713451
0.07244713457
0.07244713461
0.07244713464
0.07244713463
0.07244713458
0.0724471345
0.07244713587
0.07244713582
0.07244713559
0.07244713517
0.07244713526
0.07244713552
0.07244713557
0.07244713558
0.0724471355
0.0724471354
0.07244713484
0.07244713577
0.0724465878
0.07244657243
0.07244657338
0.07244657742
0.07244693555
0.0724470641
0.0724471345
0.07244713452
0.07244713445
0.07244713432
0.07244713426
0.07244713432
0.07244713436
0.07244713439
0.07244713444
0.07244713453
0.07244713462
0.07244713467
0.07244713469
0.07244713468
0.07244713452
0.0724471359
0.07244713591
0.07244713531
0.07244713522
0.07244713498
0.07244713537
0.07244713537
0.07244713567
0.0724471356
0.07244713522
0.07244713443
0.07244713561
0.07244660195
0.07244657046
0.07244657054
0.07244657344
0.07244702899
0.07244713447
0.07244713456
0.07244713457
0.07244713454
0.07244713446
0.07244713442
0.07244713441
0.07244713439
0.07244713435
0.07244713434
0.07244713443
0.0724471346
0.07244713469
0.07244713473
0.07244713473
0.07244713456
0.07244713562
0.07244713591
0.07244713581
0.07244713527
0.07244713506
0.07244713536
0.07244713583
0.0724471354
0.07244713541
0.07244713546
0.07244713544
0.07244713541
0.0724466455
0.07244656998
0.07244657244
0.07244681003
0.07244707888
0.07244713457
0.07244713462
0.07244713461
0.07244713458
0.07244713455
0.07244713453
0.07244713449
0.07244713444
0.07244713437
0.07244713429
0.07244713426
0.07244713445
0.07244713463
0.07244713472
0.07244713475
0.07244713457
0.07244713582
0.07244713583
0.07244713595
0.07244713567
0.07244713587
0.07244713585
0.07244713539
0.07244713526
0.07244713529
0.0724471354
0.07244713538
0.07244672724
0.07244657675
0.07244666594
0.07244713477
0.0724471347
0.07244713467
0.07244713465
0.07244713464
0.07244713463
0.0724471346
0.07244713457
0.07244713452
0.07244713446
0.07244713441
0.07244713433
0.07244713423
0.07244713425
0.07244713433
0.07244713445
0.07244713453
0.07244713455
0.07244713597
0.07244713604
0.07244713596
0.07244713611
0.07244713596
0.07244713557
0.07244713538
0.0724471353
0.0724471354
0.07244713538
0.07244688169
0.07244672005
0.07244675074
0.07244713477
0.0724471347
0.07244713464
0.07244713459
0.07244713459
0.07244713458
0.07244713455
0.07244713451
0.07244713448
0.07244713445
0.07244713442
0.07244713437
0.0724471343
0.07244713435
0.07244713433
0.07244713435
0.07244713432
0.07244713455
0.07244713596
0.07244713605
0.07244713602
0.07244713618
0.07244713604
0.07244713591
0.07244713575
0.07244713563
0.07244713559
0.07244713541
0.07244713507
0.07244713437
0.07244713302
0.07244713457
0.07244713455
0.07244713448
0.07244713438
0.07244713429
0.07244713426
0.07244713427
0.0724471343
0.07244713433
0.07244713437
0.07244713439
0.07244713438
0.07244713433
0.07244713442
0.07244713394
0.0724471331
0.07244713183
0.07244713457
0.07244713584
0.07244713601
0.07244713605
0.07244713607
0.07244713608
0.07244713605
0.07244713594
0.07244713587
0.07244713582
0.0724471357
0.07244713544
0.07244713474
0.07244713343
0.07244713464
0.07244713455
0.07244713447
0.07244713435
0.07244713418
0.07244713403
0.07244713399
0.07244713403
0.07244713412
0.07244713424
0.07244713433
0.07244713436
0.07244713436
0.07244713441
0.07244713362
0.07244713327
0.07244713294
0.07244713462
0.07244713605
0.07244713596
0.07244713583
0.07244713566
0.07244713552
0.07244713521
0.07244713411
0.07244713452
0.0724471346
0.07244713455
0.07244713452
0.07244713444
0.07244713429
0.07244713409
0.07244713393
0.07244713391
0.07244713399
0.07244713415
0.0724471343
0.07244713439
0.07244713442
0.0724471344
0.07244713436
0.07244713428
0.07244713416
0.07244713457
0.07244713606
0.07244713598
0.07244713576
0.0724471355
0.07244713531
0.07244713476
0.07244713453
0.0724471344
0.07244713439
0.0724471345
0.07244713456
0.07244713452
0.07244713441
0.07244713423
0.07244713402
0.0724471339
0.07244713395
0.07244713414
0.07244713437
0.07244713452
0.07244713455
0.07244713455
0.07244713453
0.07244713449
0.07244713443
0.07244713455
)
;

boundaryField
{
    walls
    {
        type            zeroGradient;
    }
    wallFilmFace_top
    {
        type            zeroGradient;
    }
    region0_to_wallFilmRegion_wallFilmFace
    {
        type            zeroGradient;
    }
    mirrorFace_top
    {
        type            zeroGradient;
    }
    region0_to_wallFilmRegion_mirrorFace
    {
        type            zeroGradient;
    }
    procBoundary0to1
    {
        type            processor;
        value           nonuniform List<scalar> 
52
(
0.07244713448
0.07244713424
0.07244713422
0.07244713405
0.0724471339
0.07244713361
0.07244713308
0.07244713308
0.07244713226
0.07244713123
0.07244713099
0.07244713161
0.07244713161
0.07244713267
0.07244713325
0.07244713325
0.07244713404
0.07244713443
0.0724471347
0.07244713485
0.07244713485
0.07244713518
0.07244713513
0.07244713513
0.07244713457
0.07244713466
0.0724471347
0.07244713557
0.07244713557
0.07244713596
0.07244713555
0.07244713555
0.07244713528
0.07244713528
0.07244713543
0.07244713579
0.07244713579
0.07244713605
0.07244713542
0.0724471355
0.0724471355
0.07244713598
0.07244713598
0.07244713598
0.07244713594
0.07244713587
0.0724471359
0.07244713604
0.07244713603
0.07244713605
0.07244713605
0.07244713605
)
;
    }
    procBoundary0to2
    {
        type            processor;
        value           nonuniform List<scalar> 
26
(
0.07244713611
0.07244713659
0.07244713574
0.07244713546
0.07244713563
0.07244713545
0.0724471347
0.07244712651
0.07244713419
0.07244713446
0.07244713461
0.0724471346
0.07244713452
0.07244713438
0.07244713424
0.07244713423
0.07244713434
0.07244713444
0.07244713449
0.07244713453
0.07244713456
0.07244713457
0.07244713454
0.07244713449
0.07244713441
0.07244713453
)
;
    }
}


// ************************************************************************* //
