/*--------------------------------*- C++ -*----------------------------------*\
  =========                 |
  \\      /  F ield         | OpenFOAM: The Open Source CFD Toolbox
   \\    /   O peration     | Website:  https://openfoam.org
    \\  /    A nd           | Version:  8
     \\/     M anipulation  |
\*---------------------------------------------------------------------------*/
FoamFile
{
    version     2.0;
    format      ascii;
    class       volVectorField;
    location    "1.4/wallFilmRegion";
    object      U;
}
// * * * * * * * * * * * * * * * * * * * * * * * * * * * * * * * * * * * * * //

dimensions      [0 1 -1 0 0 0 0];

internalField   nonuniform List<vector> 
1369
(
(0.1000253206 0.03803277501 0)
(0.02446649191 0.01437064796 0)
(-0.1009502807 -0.06591730767 0)
(-0.2355220612 -0.08384196589 0)
(-0.3000142828 -0.1677492284 0)
(-0.2925999712 -0.2564200891 0)
(-0.275507535 -0.3006218024 0)
(-0.2617314471 -0.3054028172 0)
(-0.2568547379 -0.2886241068 0)
(-0.2604334306 -0.2553064195 0)
(-0.3002722455 -0.2028486634 0)
(-0.6209537138 -0.3786857764 0)
(-0.8378642633 -0.4894255573 0)
(-0.5363816187 -0.4268692402 0)
(-1.036092355 -0.4208803482 0)
(-0.6036782113 -0.3585410041 0)
(-0.6290495644 -0.3881025051 0)
(-0.6284242103 -0.3902216005 0)
(-0.626067924 -0.3865667017 0)
(-0.6451901806 -0.3882540466 0)
(-0.6852223149 -0.3869578141 0)
(-0.7079570898 -0.366957614 0)
(-0.6678454752 -0.3352953393 0)
(-0.5846722063 -0.3103659628 0)
(-0.4855289448 -0.2918366682 0)
(-0.3716861009 -0.2800533027 0)
(-0.2487062144 -0.2918850559 0)
(-0.1774758508 -0.3365043292 0)
(-0.247678658 -0.3949126796 0)
(-0.6135773482 -0.4078523858 0)
(-1.409768773 -0.2547673955 0)
(-0.3050844377 0.07902209026 0)
(-0.5024891507 0.4093869029 0)
(-0.6739098158 0.5806254669 0)
(-0.8476098079 0.5763515324 0)
(-1.000369726 0.4547727213 0)
(-1.135851931 0.3231799995 0)
(-1.30018587 0.2787835613 0)
(-1.59342352 0.2136709711 0)
(-1.27042622 0.3126378683 0)
(-1.042921882 0.3166239273 0)
(-0.920003421 0.3061417473 0)
(-0.8930947643 0.3276225304 0)
(-0.8915728413 0.366901373 0)
(-0.879847173 0.4128594439 0)
(-0.8526041628 0.459346888 0)
(-0.8157948807 0.5024620177 0)
(-0.7746056995 0.5342354028 0)
(-0.7483146048 0.5445310876 0)
(-0.5184445225 0.3224324922 0)
(-0.376648783 0.3060772197 0)
(-0.2478960842 0.2884100104 0)
(-0.1574404458 0.2928571123 0)
(-0.0992706946 0.3013941861 0)
(-0.0612983169 0.306177444 0)
(-0.03566870655 0.3044832976 0)
(-0.0240016283 0.2791007161 0)
(-0.04008952849 0.2204208509 0)
(0.004335833581 0.06322009098 0)
(0.1111413672 -0.02366901038 0)
(-0.1078956209 0.07674320327 0)
(0.03107616352 0.2025373188 0)
(0.1210427643 0.2559404156 0)
(0.2455555336 0.2758540773 0)
(0.3374694213 0.1820586922 0)
(0.3425037774 -0.2291602198 0)
(0.3289800402 -0.2655520415 0)
(0.3119454894 -0.2499619894 0)
(0.3234749466 -0.2184214475 0)
(0.2812388082 -0.1586896618 0)
(-0.1725691442 0.02431727 0)
(-1.054686617 -0.6079724549 0)
(-1.571952324 -1.157783731 0)
(-1.585334435 -1.175477545 0)
(-2.044709235 -0.5243436438 0)
(-1.161656654 0.9760943421 0)
(-0.8395889564 0.4034125089 0)
(-0.6998347246 -0.3589792272 0)
(-0.6559551827 -0.4506881326 0)
(-0.6504462496 -0.4843085623 0)
(-0.6222206523 -0.4829700846 0)
(-0.48772122 -0.3981937022 0)
(-0.2640377184 -0.2769742961 0)
(-0.2918111369 -0.3306667516 0)
(-0.2318941517 -0.5110538564 0)
(-0.006082036217 -0.7523627049 0)
(0.1362220356 -0.9322222432 0)
(0.2314234076 -1.058717962 0)
(0.324395964 -1.070363341 0)
(0.6175871675 -1.003929323 0)
(0.8239266863 -0.02737061011 0)
(0.5471567831 0.6619597516 0)
(0.5531473456 1.051355028 0)
(0.6110615512 1.414463843 0)
(-0.2850837802 0.8661578423 0)
(-0.7292290179 0.2750393892 0)
(-0.7037873022 -0.7857819672 0)
(1.31316443 0.2209499205 0)
(-1.523921848 0.2424361797 0)
(-1.278023035 0.7537648621 0)
(-1.042849474 1.067636784 0)
(-0.7389072355 1.115176482 0)
(-0.2945671874 0.9885502633 0)
(-0.09824475376 0.7345479989 0)
(-0.3246699077 0.6910435363 0)
(-0.5425032783 0.7890212953 0)
(-0.7009545083 0.9035930599 0)
(-0.8768632639 1.025722805 0)
(-1.044730267 0.7910354328 0)
(-0.3008435711 -0.04462348298 0)
(0.3409505731 -0.05111866793 0)
(0.2888968531 0.0993367558 0)
(0.2328296701 0.1983559477 0)
(0.194191587 0.247359553 0)
(0.1639195383 0.2689052927 0)
(0.1427724537 0.2472198434 0)
(0.1073191044 0.1056787959 0)
(0.08252338874 -0.09966286677 0)
(0.04165002148 -0.1524130531 0)
(-0.07153344507 -0.07935456318 0)
(-0.212662444 -0.02654391102 0)
(-0.06013206828 0.1829266226 0)
(-0.01006874934 0.2075218183 0)
(0.04963196624 0.2476976962 0)
(0.1233627035 0.2504067566 0)
(0.1447201187 0.1996874772 0)
(0.1428814256 0.03390582961 0)
(-0.005111054007 -0.1089458824 0)
(-0.02876402026 -0.1157801631 0)
(-0.1147795793 0.06203637077 0)
(-0.2943970927 0.03777480473 0)
(-1.106218366 -0.8576227721 0)
(-1.131757049 -1.920047713 0)
(-1.020436206 -1.549244892 0)
(-1.01578861 -0.5719416916 0)
(-0.9936174758 1.408375664 0)
(-0.974054381 1.756030271 0)
(-0.8997224408 0.5267840608 0)
(-0.8159283739 -0.4661047826 0)
(-0.7998738778 -0.4861571631 0)
(-0.8151800111 -0.4654752519 0)
(-0.8862267484 -0.3924943957 0)
(-0.983579859 -0.2600892762 0)
(-0.9579563475 -0.3517180353 0)
(-1.006767173 -0.5218054719 0)
(-1.138217476 -0.8234624619 0)
(-1.093361206 -0.6730480533 0)
(-0.8426911065 -0.5204258552 0)
(-0.211922304 -0.4711233615 0)
(0.5445172503 -0.6085383699 0)
(1.185285674 -0.02762736394 0)
(0.8308810392 0.5637490582 0)
(0.4798678441 0.6956188776 0)
(-0.268876655 0.497462112 0)
(-0.8859775031 0.3561319839 0)
(-0.9974514669 -0.08679697819 0)
(-0.8657019647 -0.833778863 0)
(-0.8414410082 -0.9110134533 0)
(-1.000867774 0.2748805489 0)
(-0.9842524719 0.8422705272 0)
(-0.9899555433 1.287932258 0)
(-0.9991668545 1.502875526 0)
(-1.001488078 1.461963339 0)
(-1.012995745 1.182750728 0)
(-0.9974820674 0.8284664788 0)
(-0.9414880017 0.8028856871 0)
(-0.9327282298 0.8844729229 0)
(-1.027981866 0.9654505587 0)
(-1.183073422 0.6124637291 0)
(-0.257885711 -0.1186782848 0)
(-0.08645718136 -0.1407591484 0)
(-0.05472165562 -0.08466138886 0)
(-0.02060018136 0.0327300891 0)
(0.02805149634 0.0989338981 0)
(0.04882369245 0.1000841956 0)
(0.07407783759 0.03125476168 0)
(0.06862347805 -0.09122722134 0)
(0.04305197769 -0.1247152246 0)
(-0.06983335239 -0.1492253987 0)
(-0.2404378601 -0.01296874685 0)
(-0.2634510861 -0.08927056454 0)
(-0.1336096969 0.2068617939 0)
(0.004117918143 0.177051375 0)
(0.06100967365 0.2139567316 0)
(0.09772276128 0.2394426395 0)
(0.110223326 0.2406658613 0)
(0.1080919574 0.1997911118 0)
(0.07789722081 0.1635218974 0)
(-0.0199173551 0.1499614813 0)
(-0.05065873775 0.1179039046 0)
(-0.3351793323 -0.1917512016 0)
(-1.083208605 -1.081306099 0)
(-1.17158145 -0.7765026276 0)
(-1.026578769 0.766231784 0)
(1.29868632 -0.4330270609 0)
(-0.220641584 0.7593989847 0)
(-0.8709764937 0.8782308408 0)
(-0.9110559409 0.2030787403 0)
(-0.8551867796 -0.4734800783 0)
(-0.8474885816 -0.4740546445 0)
(-0.8568690482 -0.4591242231 0)
(-0.9058932664 -0.406509692 0)
(-1.033212433 -0.2543596377 0)
(-0.9165220613 -0.3589050541 0)
(-0.9027888169 -0.542802616 0)
(-0.9768319897 -0.7811926257 0)
(-0.9895830079 -0.6853291246 0)
(-0.8334295678 -0.5353852418 0)
(-0.3069186278 -0.3700968702 0)
(0.5501006422 -0.2900639033 0)
(1.449010985 -0.03837445152 0)
(0.4694737002 0.1607320043 0)
(-0.1064732276 0.2389117561 0)
(-0.6384580774 0.2938103408 0)
(-1.066710336 0.2936864789 0)
(-1.078704023 0.3330990961 0)
(-0.8845092189 0.4114575943 0)
(-0.6039706263 0.3154474333 0)
(1.16211825 0.04824903661 0)
(-0.7870804782 -0.5452910933 0)
(-0.8347997369 -0.391252963 0)
(-0.9781358292 -0.1076109923 0)
(-0.8933352196 0.3266291004 0)
(-0.8879750602 0.5257238845 0)
(-0.8265383799 0.6742724573 0)
(-0.7552580388 0.776531481 0)
(-0.8039753253 0.834916071 0)
(-0.9770814182 0.8899448729 0)
(-1.180791081 0.7432133255 0)
(-0.3227788706 0.02338602702 0)
(-0.006911110948 -0.193446419 0)
(0.002472279009 -0.1860565602 0)
(-0.01260096703 -0.1486434793 0)
(0.03347922281 -0.09526180298 0)
(0.09284828275 -0.06841612645 0)
(0.1151112783 -0.09818790359 0)
(0.1085517356 -0.1338101068 0)
(0.02057878679 -0.134197091 0)
(-0.1763248999 -0.1614206778 0)
(-0.3025440263 0.01215556546 0)
(-0.2992341694 -0.1333803217 0)
(-0.2566465122 0.2330591221 0)
(-0.116587132 0.1512542491 0)
(0.01862290855 0.1816337797 0)
(0.08252676341 0.2163431265 0)
(0.1039031747 0.2317661459 0)
(0.098001611 0.2200173609 0)
(0.04706117638 0.1997773405 0)
(-0.02306221455 0.1527155959 0)
(-0.109859484 0.1090943225 0)
(-0.2962733795 -0.3547426447 0)
(-0.7596429874 -1.082633802 0)
(-0.9626237046 -0.7665011459 0)
(-0.9357057778 0.7135007987 0)
(1.573266028 -0.152186196 0)
(-0.2751098717 0.8089921641 0)
(-0.8468450847 1.041159736 0)
(-0.9465162996 0.7155280555 0)
(-0.9634703075 -0.5001872075 0)
(-0.9509592247 -0.4869705717 0)
(-0.9507138858 -0.4617320983 0)
(-0.9861373367 -0.4095392753 0)
(-1.114272131 -0.2462272339 0)
(-0.8855393621 -0.3003009903 0)
(-0.8314053202 -0.5057300118 0)
(-0.9066350063 -0.7152164042 0)
(-0.9292431154 -0.6539234472 0)
(-0.8536881045 -0.5832687247 0)
(-0.4896761701 -0.4353375804 0)
(0.3534022722 -0.2034845059 0)
(1.423989315 -0.04401582516 0)
(-1.013809285 0.03503449573 0)
(-1.109338677 0.1571345989 0)
(-1.080186795 0.208142643 0)
(-1.228158038 0.243908605 0)
(-1.083016144 0.352010482 0)
(-0.8613303961 0.4605742511 0)
(-0.5726089084 0.4346181967 0)
(0.9114189206 -0.1045760327 0)
(-0.7419222991 -0.4517300098 0)
(-0.771664449 -0.3309422081 0)
(-0.9390763623 -0.007194223764 0)
(-0.7426642915 0.2972375115 0)
(-0.7382735189 0.5103505163 0)
(-0.6382242821 0.6657368024 0)
(-0.5473139318 0.7260233194 0)
(-0.6910331945 0.7518542846 0)
(-0.9436479752 0.8045084741 0)
(-1.197826518 0.8387378099 0)
(-0.5728078093 0.2099961159 0)
(-0.06161214806 -0.2067708959 0)
(-0.01076127778 -0.187874205 0)
(0.009571988385 -0.1749378954 0)
(0.04528522278 -0.1502576848 0)
(0.09017536557 -0.1341170452 0)
(0.09994450055 -0.1429690061 0)
(0.05124864601 -0.1492539853 0)
(-0.1077941679 -0.1368102075 0)
(-0.2634790748 -0.1821749908 0)
(-0.3213832761 0.03559804437 0)
(-0.3070686304 -0.1660812464 0)
(-0.270826006 0.2535059349 0)
(-0.1669442118 0.1125750287 0)
(0.0009628203515 0.1347868398 0)
(0.08269423121 0.1704427997 0)
(0.09907037387 0.1885573005 0)
(0.0857753865 0.1799869759 0)
(0.0568944123 0.1689766341 0)
(0.02492815223 0.1350806654 0)
(-0.02007306588 0.1145687608 0)
(-0.1036273846 -0.4269699588 0)
(0.4885691726 -0.9886502826 0)
(0.9434705142 -0.7122541288 0)
(-0.8311709219 0.241761301 0)
(0.860349777 0.1641492539 0)
(-0.751934975 0.6314276119 0)
(-1.046844943 -0.8877179032 0)
(-1.102968054 -0.7784178568 0)
(-1.140494713 -0.6729653638 0)
(-1.168275392 -0.5792128212 0)
(-1.188688393 -0.4955059912 0)
(-1.20469684 -0.4101636645 0)
(-1.206476685 -0.2637802822 0)
(-0.98844985 0.07729085661 0)
(-0.7797988508 -0.4089261199 0)
(-0.8207210483 -0.5747643236 0)
(-0.8485526544 -0.5678965916 0)
(-0.8684814977 -0.6609287069 0)
(-0.6972527733 -0.6102130081 0)
(0.03556660749 -0.3414172087 0)
(1.101123074 -0.09130251736 0)
(-0.9480623149 -0.3239812232 0)
(-0.9734155578 -0.1145856554 0)
(-1.051864804 0.03496178934 0)
(-1.230375605 0.1789636854 0)
(-0.9469388069 0.3385632567 0)
(-0.8269280244 0.5102971733 0)
(-0.5270196769 0.5351115415 0)
(-0.3232020796 0.1224811933 0)
(-0.7195575975 -0.4170431284 0)
(-0.7328646622 -0.2976950966 0)
(-0.8915231772 0.005050142128 0)
(-0.5007411134 0.2953939713 0)
(-0.492112913 0.5008555816 0)
(-0.3450738453 0.6430530158 0)
(-0.3125771031 0.622771456 0)
(-0.5822040911 0.6461068422 0)
(-0.8998284426 0.717347939 0)
(-1.162992464 0.834816843 0)
(-1.094957056 0.6987943237 0)
(-0.1789996368 -0.01105672214 0)
(0.05206682629 -0.2000460002 0)
(0.07675994466 -0.2012671701 0)
(0.09329070782 -0.1753137911 0)
(0.1032857912 -0.1456177181 0)
(0.09924840525 -0.1253076989 0)
(0.04199422837 -0.1138280179 0)
(-0.1351870976 -0.1203813987 0)
(-0.2532192548 -0.2033260742 0)
(-0.3029753809 0.06370920811 0)
(-0.2962223699 -0.1913744235 0)
(-0.2356362325 0.2671152953 0)
(-0.1506199323 0.03412613062 0)
(0.01954894625 0.05085510055 0)
(0.07132821279 0.09078930221 0)
(0.08529848336 0.1131606961 0)
(0.0826251198 0.1264817676 0)
(0.07880234198 0.1190988017 0)
(0.0143912733 0.1144869651 0)
(0.03677297094 0.1081595233 0)
(0.2934835606 -0.5300254266 0)
(0.7757819268 -0.9374732985 0)
(1.104307734 -0.7653582053 0)
(-0.7014335605 -1.069524048 0)
(-0.7634365589 -1.083134857 0)
(-0.8671543629 -1.059352895 0)
(-0.9537292539 -0.9857846846 0)
(-1.007041289 -0.8799893526 0)
(-1.048567938 -0.7653248971 0)
(-1.086000996 -0.6496444143 0)
(-1.118064198 -0.5370562201 0)
(-1.148927531 -0.4283206008 0)
(-1.192887462 -0.3061237157 0)
(-1.050346014 0.3104338113 0)
(-0.7133634911 -0.1999992246 0)
(-0.7140585591 -0.3114108392 0)
(-0.7250343761 -0.3499692451 0)
(-0.8302483829 -0.7133050486 0)
(-0.8510531807 -0.8401381757 0)
(-0.7687912563 -0.7451556856 0)
(0.2651742384 -0.3220708631 0)
(-0.8832456334 -0.4854153432 0)
(-0.8998621747 -0.3083650317 0)
(-0.9662197076 -0.1793239978 0)
(-1.175154568 0.176620028 0)
(-0.6689137943 0.2111539527 0)
(-0.7313411716 0.41535889 0)
(-0.4536799299 0.5566972829 0)
(-0.4874041885 0.3821997244 0)
(-0.7369030675 -0.4528560612 0)
(-0.7494885332 -0.3262276584 0)
(-0.8410323972 -0.1119764738 0)
(-0.08410821616 0.3402171338 0)
(0.3059880141 0.4531778609 0)
(0.2346115634 0.5426196842 0)
(-0.1545404737 0.4935937238 0)
(-0.4859303896 0.5421104861 0)
(-0.8553844226 0.6479672314 0)
(-1.131236851 0.7997899029 0)
(-1.249983153 0.9639906705 0)
(-0.6269393723 0.4447497992 0)
(-0.105614299 0.00282280468 0)
(0.07063787983 -0.1464043933 0)
(0.1028066826 -0.1531221183 0)
(0.1209013339 -0.1065991291 0)
(0.1080505395 -0.0406030451 0)
(0.05976361284 -0.01598339309 0)
(-0.135901188 -0.09069121926 0)
(-0.2063252821 -0.2228431183 0)
(-0.271603326 0.09575367149 0)
(-0.2701327608 -0.2180783528 0)
(-0.1617839842 0.2754963806 0)
(-0.07940727758 -0.0584920957 0)
(0.001455987256 -0.09449001668 0)
(0.04867670717 -0.04882609495 0)
(0.07120487389 0.02095484598 0)
(0.105796466 0.07525802535 0)
(0.0845626403 0.03536359682 0)
(0.1056773176 0.1039852918 0)
(0.07032100659 0.117793779 0)
(0.5823283228 -0.7112375407 0)
(0.9790772724 -0.8806019261 0)
(1.20587571 -0.7826849039 0)
(-0.7453989564 -1.049619623 0)
(-0.7408021357 -1.091785453 0)
(-0.7977315506 -1.091013473 0)
(-0.8713217376 -1.031581385 0)
(-0.919825447 -0.9290232403 0)
(-0.9613865842 -0.813088794 0)
(-1.001340448 -0.6916347191 0)
(-1.032433975 -0.5689314279 0)
(-1.055412189 -0.4525107227 0)
(-1.094363725 -0.3404733012 0)
(-1.012859022 0.3705375075 0)
(-0.6584825898 0.3048767261 0)
(-0.5553699176 0.3517502497 0)
(-0.5413403284 0.1138574084 0)
(-0.7463891101 -0.6584947364 0)
(-0.8004441991 -0.9900726235 0)
(-0.7995422881 -0.9979636215 0)
(-0.7879041941 -0.8477170433 0)
(-0.7384718726 -0.6436722949 0)
(-0.6957647078 -0.4765180081 0)
(-0.6986401258 -0.3193940561 0)
(-0.91237452 0.1720001231 0)
(-0.4354680607 -0.006927937399 0)
(-0.6326341938 0.1071071882 0)
(-0.3692971785 0.4769488176 0)
(-0.4451361703 0.3447709005 0)
(-0.7548254055 -0.5602781641 0)
(-0.7734907178 -0.425428772 0)
(-0.8111202184 -0.2687009305 0)
(-0.1224057721 0.3899793776 0)
(0.002857882313 0.3711354101 0)
(-0.1038788005 0.4135074917 0)
(-0.2132032206 0.3693308526 0)
(-0.4830937782 0.4528922394 0)
(-0.8795871761 0.6148336206 0)
(-1.130577878 0.8136792792 0)
(-1.170552755 0.991175028 0)
(-1.086388578 1.094843352 0)
(-0.7437642713 0.7763219647 0)
(-0.209730313 0.1779035985 0)
(0.0672469539 -0.03262549836 0)
(0.1264455151 -0.04198030185 0)
(0.1235912964 0.02403526873 0)
(0.1129908099 0.0292687342 0)
(0.02347766298 0.06444073911 0)
(-0.1314883029 -0.2360351124 0)
(-0.2356456234 0.1340787758 0)
(-0.2378498356 -0.2534365142 0)
(-0.01612870659 0.1676453047 0)
(0.02416882894 -0.1898939969 0)
(0.05950138927 -0.132380949 0)
(0.08190077715 -0.1002535221 0)
(0.0977690748 -0.05654671112 0)
(0.1358431719 -0.0334025521 0)
(0.0865957133 0.05280159262 0)
(0.1143399728 0.1088518741 0)
(0.2036065662 -0.3082262158 0)
(0.7464559016 -0.7834645948 0)
(1.078543637 -0.8331270773 0)
(1.23651715 -0.7967440671 0)
(-0.8370402874 -0.9538927376 0)
(-0.7648269366 -1.008877141 0)
(-0.739641597 -1.060059903 0)
(-0.7772537608 -1.04562513 0)
(-0.8188936284 -0.9614854469 0)
(-0.8639364144 -0.8541838967 0)
(-0.9151387702 -0.7341007221 0)
(-0.9530361407 -0.5999400997 0)
(-0.9676004187 -0.4685719787 0)
(-0.9843279637 -0.3459071647 0)
(-0.9363475228 0.3993880138 0)
(-0.6435255113 0.4030151621 0)
(-0.5127300425 0.4333434727 0)
(-0.4043471465 0.397132033 0)
(-0.5433964403 -0.3088496738 0)
(-0.7459329961 -0.9874212372 0)
(-0.7141124512 -1.075916568 0)
(-0.6627581197 -0.8809793654 0)
(-0.5009116425 -0.4994461026 0)
(-0.41317804 -0.3442385463 0)
(-0.3870699009 -0.2345723016 0)
(-0.4035845607 -0.04708240107 0)
(-0.3347718828 -0.21730923 0)
(-0.6090441864 -0.3511122215 0)
(-0.3476085764 0.3625177194 0)
(-0.6975233151 -0.6960926662 0)
(-0.7228308797 -0.6736461639 0)
(-0.7503196619 -0.5317495717 0)
(-0.8094883284 -0.3432214886 0)
(-0.9227810784 -0.07038406591 0)
(-0.8770013592 -0.101747813 0)
(-0.8111168826 0.02028165533 0)
(-0.8584856109 0.2317002738 0)
(-1.077384303 0.5208436702 0)
(-1.15664652 0.7228332638 0)
(-1.149744617 0.8848327396 0)
(-1.088256144 1.033107292 0)
(-1.001595164 1.124135974 0)
(-0.9123341302 1.107974449 0)
(-0.7309627029 0.9852562428 0)
(-0.4685505039 0.5447971705 0)
(-0.1075935458 0.2067094173 0)
(0.103794833 0.1238801178 0)
(0.1484877663 0.07892278992 0)
(0.1222733373 0.1640334894 0)
(-0.1080345897 -0.2066731829 0)
(-0.2161696398 0.1754948068 0)
(-0.2510466947 -0.3308445322 0)
(-0.06938106572 0.03454420666 0)
(0.100248408 -0.2505912513 0)
(0.111150928 -0.1737629203 0)
(0.10398908 -0.1618842443 0)
(0.07607452795 -0.1158351199 0)
(0.04389062611 -0.09979976286 0)
(0.1492133027 -0.01609545549 0)
(-1.081725687 -0.8285749052 0)
(-0.08138138691 -0.7728100923 0)
(0.5967087356 -0.7788236672 0)
(0.9092871563 -0.795067147 0)
(1.052822133 -0.8064390872 0)
(-0.9415765992 -0.7955494128 0)
(-0.8194939251 -0.8083294467 0)
(-0.7000747716 -0.8567085219 0)
(-0.6544341598 -0.9351599091 0)
(-0.6788102244 -0.9273621265 0)
(-0.7259926263 -0.8644354907 0)
(-0.8043542832 -0.7806123208 0)
(-0.8700627542 -0.6415311544 0)
(-0.8804489028 -0.486698663 0)
(-0.8754172886 -0.3473463919 0)
(-0.8092692388 0.3936150512 0)
(-0.5815014208 0.4751743228 0)
(-0.4368073917 0.5372751153 0)
(-0.3123823808 0.5150176222 0)
(0.04327547712 0.3442377236 0)
(0.6868012838 0.1632750799 0)
(0.3505010524 0.2163750148 0)
(0.1326009322 0.1838036296 0)
(-0.1236182353 0.1008870975 0)
(-0.09196994073 -0.06522539668 0)
(-0.07333124648 -0.1192663437 0)
(-0.1947668703 -0.3219389965 0)
(-0.4397728544 -0.478227152 0)
(-0.5901225559 -0.770909304 0)
(-0.5867788614 -0.8967980293 0)
(-0.6793175383 -0.9018415379 0)
(-0.6977117489 -0.8074409906 0)
(-0.7098179774 -0.7079627291 0)
(-0.7133509971 -0.6379519722 0)
(-0.7076001764 -0.5875260107 0)
(-0.701824381 -0.5146899261 0)
(-0.7194389845 -0.3401441571 0)
(-0.8231798556 0.136009015 0)
(-1.090054144 0.605026166 0)
(-1.08594712 0.7775829209 0)
(-1.046887252 0.9226822378 0)
(-0.976608258 1.061880653 0)
(-0.9019440327 1.136146678 0)
(-0.8385384568 1.122586511 0)
(-0.804958843 1.052741609 0)
(-0.7821864311 0.997059706 0)
(-0.6853108041 0.9490114112 0)
(-0.4222131737 0.6844787383 0)
(-0.1946435175 0.4372439477 0)
(0.01570469892 0.387269963 0)
(-0.2003478532 0.1563380433 0)
(-0.2491206983 0.2096975328 0)
(-0.3127976462 -0.4255552064 0)
(-0.4546942116 -0.1133139478 0)
(-0.2846053509 -0.6671170261 0)
(-0.3693329509 -0.6670525212 0)
(-0.441348362 -0.8928270086 0)
(-0.3336885587 -1.036893677 0)
(-0.7777562444 -0.9909524614 0)
(-1.335847862 -0.9419385977 0)
(-1.477649059 -0.8736709019 0)
(-1.504260915 -0.7578793702 0)
(-1.156948557 -0.6192347674 0)
(-1.156554984 -0.6596995831 0)
(-1.129463149 -0.6805909945 0)
(-1.040443193 -0.6646569297 0)
(-0.8793934599 -0.6108955295 0)
(-0.6781090552 -0.5624164182 0)
(-0.507069983 -0.5853114291 0)
(-0.4597430291 -0.6664484802 0)
(-0.4768587212 -0.7111619022 0)
(-0.5877611053 -0.7865569961 0)
(-0.7669708805 -0.7085975001 0)
(-0.7832155547 -0.5167823632 0)
(-0.7350312419 -0.3505270028 0)
(-0.5456599875 0.3250574821 0)
(-0.442786001 0.5821033644 0)
(-0.368647137 0.7063408417 0)
(-0.3847667122 0.6519870381 0)
(-0.3040157609 0.5949724207 0)
(-0.1916293765 0.5473432243 0)
(-0.2142149393 0.5551945877 0)
(-0.17932482 0.5229730533 0)
(-0.1011384737 0.3747838324 0)
(-0.05413355456 0.03610312443 0)
(0.1299017474 0.09053141565 0)
(0.3482371959 -0.1006166899 0)
(-0.518892495 -0.4559669407 0)
(-0.590347306 -0.8294445716 0)
(-0.6291089816 -0.9747723581 0)
(-0.6556651971 -1.00176333 0)
(-0.6809697853 -0.9382427561 0)
(-0.69261874 -0.8239899382 0)
(-0.6937504383 -0.7388916715 0)
(-0.6823879926 -0.6872812251 0)
(-0.6667232031 -0.6400570275 0)
(-0.675064239 -0.5553757891 0)
(-0.7532724665 -0.1781267552 0)
(-1.021358064 0.6482493547 0)
(-0.9886379566 0.8071176024 0)
(-0.9403490657 0.9490452474 0)
(-0.8686574357 1.082586823 0)
(-0.8119068089 1.138528869 0)
(-0.779477868 1.121337605 0)
(-0.7532711356 1.045267839 0)
(-0.7558943046 0.9894398945 0)
(-0.7838531879 0.9621653694 0)
(-0.8040579486 0.974673772 0)
(-0.7844567892 1.036958505 0)
(-0.6120083914 1.186156098 0)
(-0.6149765305 0.4716870828 0)
(-0.2985368094 0.245472852 0)
(-0.3390976592 -0.4773796514 0)
(-0.8108116066 -0.283390338 0)
(-0.9787292253 -1.269302324 0)
(-1.005287215 -1.152073184 0)
(-1.022460097 -1.098708385 0)
(-1.049392836 -1.048125263 0)
(-1.101517379 -1.000801008 0)
(-1.194529185 -0.9511090512 0)
(-1.329746826 -0.8885842547 0)
(-1.424408725 -0.782155358 0)
(-1.14377562 -0.5994214394 0)
(-1.183537921 -0.622630882 0)
(-1.180507158 -0.6444990655 0)
(-1.096040615 -0.6178232707 0)
(-0.9037713418 -0.5244441349 0)
(-0.638610173 -0.4052541763 0)
(-0.3732069124 -0.30192781 0)
(-0.188984297 -0.2106978614 0)
(-0.07076917416 -0.1923789114 0)
(0.2967653316 -0.300541404 0)
(0.7367594832 -0.4579158183 0)
(0.7545999434 -0.4434891941 0)
(0.6164910012 -0.374211093 0)
(0.366504659 -0.3239978706 0)
(0.3044151851 -0.2687942504 0)
(0.2921437329 0.310630406 0)
(0.2701352694 0.3482141464 0)
(0.2858611742 0.3410189978 0)
(0.2552042745 0.3291712153 0)
(0.2117608214 0.2255689533 0)
(0.213653162 0.2021260254 0)
(0.03594311943 -0.05474544658 0)
(0.1713143494 -0.0160133868 0)
(0.2453186488 -0.09226971182 0)
(0.7846664985 -0.04457664636 0)
(-0.4776751653 -0.4678897314 0)
(-0.5526277859 -0.7461711753 0)
(-0.5841477291 -0.8721333063 0)
(-0.6108083564 -0.9771498969 0)
(-0.6714263982 -1.046001946 0)
(-0.690591594 -0.865237684 0)
(-0.694552189 -0.720341158 0)
(-0.672161198 -0.6459362645 0)
(-0.6347197651 -0.5803099757 0)
(-0.632109135 -0.5476715928 0)
(-0.6643401574 -0.5672485849 0)
(-0.9219790633 0.7050550595 0)
(-0.8871804875 0.8349034391 0)
(-0.8351053712 0.9767010239 0)
(-0.7634444372 1.098610378 0)
(-0.725167504 1.12784516 0)
(-0.7271324619 1.104425405 0)
(-0.7266047246 1.03067446 0)
(-0.741913908 0.946102675 0)
(-0.7381400552 0.9319342102 0)
(-0.7425386941 0.9546625556 0)
(-0.7425571138 1.027541899 0)
(-0.7460461006 1.220823488 0)
(-0.6123602264 0.1829577659 0)
(-0.2901953518 0.2425906406 0)
(-1.054955899 -0.9568770596 0)
(-1.170145969 -0.8972504953 0)
(-1.272092415 -0.7990022514 0)
(-1.104308715 -0.6296434622 0)
(-1.156000195 -0.6383153725 0)
(-1.167168414 -0.6537710136 0)
(-1.083204365 -0.6149951848 0)
(-0.8556948331 -0.4941526695 0)
(-0.5419373638 -0.3544949829 0)
(-0.2374413417 -0.2541471575 0)
(0.06567940948 -0.2020157878 0)
(0.229353195 -0.2240831003 0)
(0.4365482918 -0.2971695139 0)
(0.768493914 -0.4025685577 0)
(0.7677742922 -0.4078394576 0)
(0.5993713247 -0.3871185243 0)
(0.4111491123 -0.3643559734 0)
(0.3745357131 -0.3177391413 0)
(0.6424310993 0.04024575323 0)
(0.49055444 0.211542065 0)
(0.5483366248 0.2071570502 0)
(0.319144926 0.1903562146 0)
(0.1164030331 0.09049701712 0)
(0.4099209303 0.2333214595 0)
(0.05459877405 -0.185803014 0)
(0.05592118597 -0.2060963419 0)
(0.3137084212 -0.1415893254 0)
(0.9104270408 -0.01590853185 0)
(-0.4495468606 -0.3813732789 0)
(-0.4962545346 -0.4709225046 0)
(-0.502887656 -0.4723510087 0)
(-0.4744206587 -0.5419406965 0)
(-0.6582076776 -1.192666791 0)
(-0.6982373623 -0.9004336373 0)
(-0.7224088777 -0.600198337 0)
(-0.6686063535 -0.5042941548 0)
(-0.5812006514 -0.3374280663 0)
(-0.5736797488 -0.2738220084 0)
(-0.6158099088 -0.7060536881 0)
(-0.8034808619 0.7403553019 0)
(-0.7841270026 0.8576894874 0)
(-0.7247246004 1.010362416 0)
(-0.6499750864 1.107844277 0)
(-0.6261144233 1.098960699 0)
(-0.638974233 1.053485295 0)
(-0.6552246085 0.9823343902 0)
(-0.6617479977 0.9326951094 0)
(-0.6610410667 0.9217415741 0)
(-0.6507546 0.9660733698 0)
(-0.6326602372 1.06033567 0)
(-0.6220936714 1.209407173 0)
(-0.5448280705 -0.07164619351 0)
(-0.2736823221 0.2336945013 0)
(-1.109317528 -0.6750620067 0)
(-1.120315013 -0.6672629375 0)
(-1.023700242 -0.5962665883 0)
(-0.768844375 -0.4380062734 0)
(-0.4635346343 -0.2884494441 0)
(-0.2047095199 -0.1953522473 0)
(0.09772636614 -0.09801865944 0)
(0.3830602867 -0.04919967595 0)
(0.5233792212 -0.2554527816 0)
(0.3463338038 -0.4165520508 0)
(0.138372384 -0.4255447169 0)
(-0.1174254332 -0.4192679895 0)
(0.4527488142 -0.3861087126 0)
(0.4538142001 -0.3464269972 0)
(0.803516917 -0.1014384398 0)
(0.4575613855 0.1421223264 0)
(0.2159022109 0.1048524658 0)
(0.04301609144 -0.09881027358 0)
(0.05626048725 -0.1704144445 0)
(0.04672731463 -0.1881352498 0)
(-0.01778772131 -0.2724544092 0)
(0.05825989867 -0.2799115197 0)
(0.4054159435 -0.1580312213 0)
(0.9172889976 -0.02630472948 0)
(-0.422735388 -0.3157412421 0)
(-0.4568254565 -0.2584734799 0)
(-0.4380104106 -0.08736754014 0)
(-0.2857069413 -0.004406063511 0)
(-0.7214840503 -0.2485790793 0)
(-0.7657667284 -0.08628865048 0)
(-1.078975456 0.2378379711 0)
(-0.6745461003 -0.3461619479 0)
(-0.4728878027 0.0130283908 0)
(-0.4890466039 0.03485125319 0)
(-0.4789246206 -0.490332073 0)
(-0.6619505158 0.726746615 0)
(-0.6717418037 0.8784848381 0)
(-0.5739586144 1.057801998 0)
(-0.4865293121 1.0960486 0)
(-0.4688053454 1.030552826 0)
(-0.4876238398 0.9753267586 0)
(-0.5182985353 0.9348936342 0)
(-0.5437154049 0.9051434816 0)
(-0.5395493883 0.9258550501 0)
(-0.4937569491 1.01799927 0)
(-0.4579330655 1.09576685 0)
(-0.496657099 1.136184207 0)
(-0.4604994646 -0.2521621268 0)
(-0.2474301416 0.2179794063 0)
(-0.8850773729 -0.5409596664 0)
(-0.6144685626 -0.3404383663 0)
(-0.3827048809 -0.208352711 0)
(-0.2198789031 -0.1543413419 0)
(-0.022753114 -0.0949366676 0)
(0.1881781408 0.002202113552 0)
(0.2568064811 -0.1503497359 0)
(0.2377948037 -0.1594451805 0)
(0.1900682057 -0.1069589078 0)
(0.1244422532 -0.01019612574 0)
(0.09242994177 -0.113811966 0)
(-0.01380348784 -0.04850096756 0)
(-0.02004068702 -0.1450941758 0)
(-0.04159119845 -0.177434566 0)
(-0.01583234166 -0.1751242565 0)
(-0.02900576405 -0.1586908441 0)
(-0.01466138105 -0.1740658521 0)
(-0.01251877352 -0.2438039629 0)
(-0.03296391799 -0.3181326584 0)
(0.04838973707 -0.3626521051 0)
(0.4712033784 -0.1569623533 0)
(0.8778585193 -0.04900695999 0)
(-0.3862655662 -0.291954225 0)
(-0.4449115907 -0.1961136423 0)
(-0.4265909586 0.01487380424 0)
(-0.1860108657 0.05205353911 0)
(-0.7799856327 -0.3678152614 0)
(-0.8116815329 -0.1807051714 0)
(-1.122607913 0.3111173888 0)
(-1.091677477 0.4786356731 0)
(-0.3739445107 0.2010994185 0)
(-0.4025376401 0.1489331735 0)
(-0.2086247551 0.2215038411 0)
(0.4455419224 0.5450258559 0)
(0.65607822 0.8193693368 0)
(0.5295570655 0.8409808232 0)
(0.4000123731 0.7600580184 0)
(0.2990814399 0.6803183601 0)
(0.2575104392 0.6320267667 0)
(0.3709970907 0.6835131129 0)
(0.4871749047 0.8070735763 0)
(0.3347291395 0.8684978497 0)
(0.05760880461 0.8972839712 0)
(-0.1431231925 0.9150675479 0)
(-0.3632904653 1.004627701 0)
(-0.3744332962 -0.253550036 0)
(-0.2372398579 0.2008583149 0)
(-0.1583516309 -0.09796254118 0)
(0.06668815772 -0.02720416449 0)
(0.1957890988 -0.1190422009 0)
(0.200541079 -0.1361091637 0)
(0.1762372546 -0.10172233 0)
(0.1496854573 0.02296147658 0)
(0.1217959853 0.08499603498 0)
(0.06646002488 0.1296934011 0)
(0.02850991795 0.130770515 0)
(0.0104483776 -0.04085539284 0)
(0.01975122645 -0.1194181449 0)
(-0.008011794834 -0.1508935597 0)
(-0.008704095034 -0.1870462755 0)
(-0.008988536114 -0.2276279432 0)
(-0.01793216369 -0.3058256413 0)
(0.1478276714 -0.3677724377 0)
(0.5316064894 -0.1572279437 0)
(0.8119092937 -0.08529930196 0)
(-0.2966781557 -0.2522890049 0)
(-0.404035975 -0.1438635481 0)
(-0.4173481372 0.07715541426 0)
(-0.1067147419 0.08499672788 0)
(-0.7947413586 -0.4717729633 0)
(-0.8354864185 -0.3117439545 0)
(-1.078167642 0.3906947008 0)
(-1.004483111 0.5602746068 0)
(-0.3599087468 0.2098135873 0)
(-0.3708569918 0.08794020439 0)
(-0.3059815022 0.1968452913 0)
(0.03519245308 0.3775390386 0)
(0.4343550796 0.6109927894 0)
(0.5811629542 0.766506036 0)
(0.5108456566 0.7186962817 0)
(0.4074601724 0.6291390615 0)
(0.3622125284 0.5837585187 0)
(0.4372864942 0.6342985866 0)
(0.5441998364 0.7577961649 0)
(0.4743605397 0.8282106976 0)
(0.2992390265 0.8541032764 0)
(0.1112026156 0.8702547466 0)
(-0.2211010222 0.9559873661 0)
(-0.3295254294 -0.2455689969 0)
(-0.2463442647 0.1912284606 0)
(0.1290699747 -0.05997386322 0)
(0.1608903726 -0.1022617515 0)
(0.1319990026 -0.06625303601 0)
(0.005761397145 0.0922443608 0)
(-0.08803979322 0.07435416023 0)
(-0.04398475444 0.1148855657 0)
(0.008441710794 0.07922448056 0)
(0.05097361 -0.0680099612 0)
(0.04015243815 -0.07507731461 0)
(-0.01234001672 -0.1527422864 0)
(-0.01095014064 -0.1939688619 0)
(-0.0274767358 -0.2062206293 0)
(-0.04534537147 -0.2173983885 0)
(0.1325773764 -0.3302986088 0)
(0.4927270117 -0.1889452309 0)
(0.7193464671 -0.1345539338 0)
(-0.1846891002 -0.2210406289 0)
(-0.3383557774 -0.1173645914 0)
(-0.4153517005 0.09576847111 0)
(-0.2723463267 0.1172990664 0)
(-0.7878251213 -0.5829904 0)
(-0.8274848297 -0.4372812305 0)
(-0.9223135585 0.4753285768 0)
(-0.8517824421 0.6348047091 0)
(-0.3772355776 0.2456921169 0)
(-0.377001368 0.04150472427 0)
(-0.3920619899 0.1288824609 0)
(-0.04997130953 0.3230833378 0)
(0.3692419865 0.5518982723 0)