/*--------------------------------*- C++ -*----------------------------------*\
  =========                 |
  \\      /  F ield         | OpenFOAM: The Open Source CFD Toolbox
   \\    /   O peration     | Website:  https://openfoam.org
    \\  /    A nd           | Version:  8
     \\/     M anipulation  |
\*---------------------------------------------------------------------------*/
FoamFile
{
    version     2.0;
    format      ascii;
    class       volScalarField;
    location    "1.6/wallFilmRegion";
    object      kappa;
}
// * * * * * * * * * * * * * * * * * * * * * * * * * * * * * * * * * * * * * //

dimensions      [1 1 -3 -1 0 0 0];

internalField   nonuniform List<scalar> 
1369
(
0.6088100019
0.6088100026
0.6088100038
0.6088100048
0.6088100058
0.6088100067
0.6088100065
0.6088100019
0.6088100029
0.6088100042
0.6088100053
0.6088100062
0.6088100065
0.6088100054
0.6088100031
0.6088100011
0.6088099999
0.6088099992
0.6088100019
0.608810003
0.6088100046
0.6088100058
0.6088100065
0.6088100063
0.6088100044
0.6088100019
0.6088100003
0.6088099995
0.608809999
0.6088099988
0.6088099989
0.6088100018
0.608810003
0.6088100049
0.608810006
0.6088100067
0.6088100062
0.608810004
0.6088100015
0.6088100002
0.6088099996
0.6088099993
0.6088099991
0.6088099994
0.6088099995
0.6088099985
0.6088099991
0.6088100002
0.6088100018
0.6088100028
0.6088100048
0.6088100061
0.6088100065
0.6088100062
0.6088100046
0.6088100022
0.6088100008
0.6088100002
0.6088099999
0.6088099997
0.6088099999
0.60881
0.6088099996
0.6088099994
0.6088099995
0.6088100012
0.6088100007
0.6088100018
0.6088100024
0.6088100046
0.6088100062
0.6088100064
0.6088100058
0.6088100048
0.6088100032
0.6088100016
0.6088100009
0.6088100006
0.6088100002
0.6088100001
0.6088100001
0.6088099997
0.6088099995
0.6088099993
0.608810002
0.6088100013
0.6088100024
0.608810001
0.6088099984
0.6088099968
0.6088100018
0.6088100019
0.6088100039
0.6088100082
0.6088100084
0.6088100068
0.6088100054
0.6088100046
0.608810004
0.6088100028
0.6088100026
0.608810002
0.6088100007
0.60881
0.6088099994
0.6088099989
0.6088099987
0.6088100032
0.6088100019
0.6088100019
0.60881
0.6088099969
0.6088099949
0.6088099956
0.6088099964
0.6088100019
0.6088100016
0.6088100018
0.6088100025
0.6088100037
0.6088100046
0.6088100046
0.608810005
0.6088100058
0.608810004
0.6088100027
0.6088100017
0.608810001
0.6088100003
0.6088099995
0.6088099991
0.6088099988
0.6088100006
0.6088100009
0.6088100001
0.6088099988
0.608809997
0.6088099952
0.6088099955
0.6088099965
0.6088099965
0.6088100021
0.6088100017
0.6088100016
0.6088100017
0.6088100019
0.6088100023
0.6088100035
0.6088100068
0.6088100086
0.6088100036
0.6088100022
0.6088100015
0.608810001
0.6088100004
0.6088099996
0.6088099992
0.6088099988
0.6088099987
0.6088099996
0.6088100002
0.6088099976
0.6088099965
0.6088099952
0.6088099939
0.608809996
0.608809996
0.6088100024
0.6088100028
0.6088100049
0.6088100079
0.6088100114
0.6088100152
0.6088100166
0.6088100115
0.6088100052
0.6088100028
0.6088100018
0.6088100013
0.6088100008
0.6088100003
0.6088099997
0.6088099991
0.6088099985
0.6088099979
0.608809999
0.6088100043
0.6088099963
0.6088099951
0.6088099937
0.6088099923
0.6088099941
0.6088099933
0.6088099884
0.6088100026
0.6088100027
0.6088100051
0.6088100102
0.6088100205
0.6088100284
0.6088100141
0.6088100063
0.6088100038
0.6088100025
0.6088100017
0.6088100012
0.6088100007
0.6088100002
0.6088099996
0.6088099987
0.6088099977
0.608809997
0.6088099974
0.6088100066
0.6088099948
0.6088099936
0.6088099926
0.6088099909
0.6088099906
0.6088099888
0.6088099878
0.6088100026
0.6088100029
0.6088100052
0.6088100098
0.6088100177
0.6088100196
0.6088100099
0.6088100061
0.6088100044
0.6088100031
0.6088100023
0.6088100015
0.6088100007
0.6088100002
0.6088100002
0.6088100021
0.6088099994
0.6088099976
0.6088099976
0.6088099977
0.6088099976
0.6088099976
0.6088099977
0.6088099938
0.6088099971
0.6088099991
0.6088099914
0.6088100023
0.6088100035
0.6088100064
0.6088100113
0.6088100199
0.6088100301
0.6088100289
0.6088100219
0.6088100153
0.6088100104
0.6088100061
0.6088100026
0.6088100004
0.6088099996
0.6088099993
0.6088100007
0.6088100009
0.6088099999
0.6088099978
0.6088099978
0.6088099979
0.6088099986
0.6088100004
0.6088099947
0.6088099954
0.6088099983
0.6088099944
0.6088099969
0.6088100022
0.6088100045
0.6088100081
0.6088100143
0.608810024
0.6088100326
0.6088100296
0.6088100206
0.6088100128
0.6088100082
0.6088100052
0.6088100037
0.6088100022
0.6088100011
0.6088100006
0.6088100003
0.60881
0.6088099996
0.6088099986
0.6088099983
0.6088099986
0.6088100013
0.6088099985
0.6088099923
0.6088099954
0.6088099973
0.6088099957
0.6088099938
0.6088099932
0.6088100023
0.6088100051
0.6088100089
0.608810016
0.6088100275
0.6088100361
0.6088100311
0.6088100205
0.6088100103
0.6088100063
0.6088100035
0.6088100027
0.6088100021
0.6088100016
0.6088100011
0.6088100008
0.6088100008
0.6088099995
0.6088099986
0.6088099981
0.6088099982
0.6088100031
0.6088099904
0.6088099897
0.6088099915
0.6088099955
0.6088099938
0.6088099926
0.6088099896
0.6088100023
0.6088100048
0.6088100076
0.6088100124
0.6088100197
0.6088100306
0.6088100339
0.6088100223
0.6088100054
0.6088100082
0.6088100025
0.608810002
0.6088100018
0.6088100016
0.6088100014
0.6088100013
0.6088100023
0.6088099992
0.6088099985
0.6088099981
0.6088099982
0.6088099904
0.6088099896
0.6088099895
0.6088099907
0.6088099916
0.6088099929
0.6088099928
0.6088099898
0.6088100021
0.6088100041
0.6088100051
0.6088100053
0.608810005
0.6088100051
0.6088100164
0.6088100068
0.6088100024
0.6088100021
0.6088100019
0.6088100018
0.608810002
0.6088100021
0.6088100021
0.6088100021
0.6088100013
0.6088099988
0.6088099984
0.6088099979
0.608809998
0.6088099924
0.6088099917
0.6088099912
0.6088099915
0.6088099903
0.6088099927
0.6088099919
0.6088099903
0.608809991
0.6088099859
0.6088099876
0.6088099878
0.60880999
0.6088100024
0.6088100043
0.6088100038
0.6088100031
0.6088100026
0.6088100022
0.6088100018
0.6088100016
0.6088100014
0.6088100015
0.6088100019
0.6088100025
0.6088100033
0.6088100039
0.6088100038
0.6088100023
0.6088100003
0.6088099985
0.6088099981
0.6088099978
0.6088099978
0.6088099965
0.6088099941
0.6088099931
0.6088099932
0.6088099923
0.6088099929
0.6088099922
0.6088099912
0.6088099919
0.6088099857
0.6088099874
0.6088099885
0.6088099895
0.6088100025
0.6088100038
0.6088100035
0.608810003
0.6088100025
0.6088100021
0.6088100018
0.6088100016
0.6088100016
0.6088100018
0.6088100025
0.608810004
0.6088100058
0.6088100059
0.6088100036
0.6088100012
0.6088099994
0.6088099982
0.6088099978
0.6088099976
0.6088099976
0.6088099971
0.6088099958
0.6088099955
0.6088099944
0.6088099932
0.6088099929
0.6088099921
0.6088099921
0.6088099954
0.6088099862
0.6088099887
0.6088099925
0.6088099926
0.6088100022
0.6088100042
0.6088100043
0.6088100041
0.6088100036
0.6088100031
0.6088100027
0.6088100023
0.608810002
0.6088100019
0.6088100023
0.6088100044
0.6088100066
0.6088100053
0.6088100024
0.6088100004
0.608809999
0.608809998
0.6088099975
0.6088099974
0.6088099973
0.6088099951
0.6088099978
0.6088099972
0.6088099953
0.6088099932
0.6088099924
0.6088099917
0.6088099926
0.6088099943
0.6088099912
0.6088099934
0.6088099937
0.608810002
0.6088100037
0.6088100055
0.6088100056
0.6088100052
0.6088100049
0.6088100045
0.6088100038
0.6088100027
0.6088100016
0.608810001
0.6088100007
0.6088100008
0.6088100011
0.6088100008
0.6088099999
0.6088099989
0.6088099979
0.6088099973
0.6088099971
0.6088099973
0.6088099977
0.6088099982
0.6088099985
0.608809997
0.6088099958
0.6088099926
0.6088099924
0.6088099927
0.6088099932
0.6088099938
0.6088099944
0.6088100017
0.6088100034
0.6088100053
0.6088100056
0.6088100056
0.6088100058
0.6088100058
0.6088100049
0.6088100032
0.6088100017
0.6088100007
0.6088100003
0.6088100002
0.6088100002
0.6088100003
0.6088100001
0.6088099992
0.6088099979
0.6088099971
0.6088099969
0.608809997
0.6088099973
0.6088099979
0.6088099981
0.6088099975
0.6088099939
0.6088099934
0.6088099942
0.6088099937
0.6088099945
0.6088099964
0.6088099976
0.6088100018
0.6088100037
0.6088100051
0.6088100057
0.6088100061
0.6088100069
0.6088100078
0.608810007
0.6088100045
0.6088100021
0.6088100007
0.60881
0.6088099997
0.6088099995
0.6088099994
0.6088099993
0.6088099992
0.6088099981
0.608809997
0.6088099966
0.6088099965
0.6088099967
0.6088099972
0.6088099976
0.6088099973
0.608809995
0.608809996
0.6088099949
0.6088099942
0.6088099955
0.6088099969
0.6088099979
0.608810002
0.608810004
0.6088100051
0.608810006
0.6088100065
0.608810006
0.6088100119
0.6088100152
0.608810018
0.6088100182
0.6088100157
0.6088100122
0.608810009
0.6088100063
0.6088100042
0.6088100024
0.6088100008
0.6088099983
0.6088099968
0.6088099963
0.6088099961
0.608809996
0.6088099965
0.6088099968
0.6088099967
0.6088099961
0.6088099961
0.6088099951
0.6088099949
0.6088099958
0.6088099968
0.6088100022
0.6088100043
0.6088100052
0.6088100057
0.6088099988
0.6088099866
0.6088100167
0.6088100235
0.6088100342
0.6088100476
0.6088100559
0.608810054
0.6088100468
0.6088100358
0.6088100231
0.6088100101
0.608810002
0.608809998
0.6088099967
0.6088099961
0.6088099959
0.6088099952
0.6088099954
0.6088099955
0.6088099957
0.6088099957
0.6088099955
0.6088099952
0.6088099953
0.6088099965
0.608809998
0.6088100013
0.6088100035
0.6088100039
0.6088099905
0.6088099777
0.6088099755
0.6088100268
0.6088100396
0.6088100591
0.608810082
0.6088100911
0.6088100811
0.6088100637
0.6088100473
0.6088100386
0.6088100179
0.6088100059
0.6088099999
0.6088099971
0.6088099958
0.6088099954
0.608809995
0.6088099948
0.6088099947
0.6088099945
0.6088099944
0.6088099941
0.6088099943
0.6088099952
0.6088099987
0.6088100022
0.6088100001
0.6088100013
0.6088100033
0.6088100047
0.6088099976
0.6088099861
0.6088100158
0.6088100237
0.608810042
0.6088100926
0.6088102734
0.6088107775
0.6088101642
0.6088100143
0.6088100646
0.6088100433
0.6088100278
0.6088100178
0.6088100109
0.6088100129
0.6088099963
0.6088099962
0.6088099961
0.6088099962
0.6088099959
0.6088099951
0.6088099935
0.6088099927
0.6088099931
0.6088099961
0.6088100042
0.6088099996
0.6088099997
0.6088100026
0.6088100045
0.6088100054
0.6088100052
0.6088100086
0.6088100046
0.6088099886
0.6088099818
0.6088099807
0.6088099806
0.6088099929
0.6088100104
0.6088100504
0.6088100356
0.6088100232
0.6088100141
0.6088100076
0.6088100036
0.6088099976
0.6088099959
0.6088099947
0.608809996
0.6088099953
0.6088099936
0.6088099889
0.6088099913
0.6088099756
0.6088099799
0.6088099992
0.6088099999
0.6088099995
0.6088100021
0.6088100035
0.6088100042
0.6088100048
0.6088100049
0.6088099998
0.608809987
0.6088099808
0.6088099794
0.6088099838
0.6088100092
0.6088100153
0.6088100442
0.6088100341
0.6088100247
0.6088100174
0.6088100123
0.6088100098
0.6088099961
0.6088099924
0.608809992
0.6088099954
0.6088099941
0.6088099925
0.608809988
0.6088099892
0.6088099734
0.6088099649
0.6088099958
0.6088100005
0.60881
0.6088100017
0.6088100025
0.6088100028
0.6088100029
0.608810003
0.608810003
0.6088100022
0.6088099977
0.6088099888
0.6088100008
0.6088100141
0.6088100215
0.608810039
0.6088100318
0.6088100248
0.6088100189
0.6088100148
0.6088100135
0.6088100404
0.6088099994
0.6088099952
0.6088099956
0.6088099948
0.6088099933
0.6088099875
0.6088099854
0.6088099629
0.6088099629
0.6088099868
0.6088100011
0.6088100005
0.6088100015
0.608810002
0.6088100021
0.6088100022
0.6088100024
0.6088100028
0.6088100034
0.6088100046
0.6088100039
0.6088100161
0.60881002
0.6088100267
0.6088100333
0.6088100278
0.6088100217
0.6088100155
0.6088100101
0.6088100067
0.6088100041
0.6088100012
0.6088099967
0.6088099955
0.6088099947
0.6088099931
0.6088099891
0.6088099949
0.6088099949
0.6088099942
0.6088099998
0.6088100015
0.6088100011
0.6088100015
0.6088100017
0.6088100019
0.608810002
0.6088100023
0.6088100029
0.6088100045
0.6088100091
0.6088100176
0.6088100193
0.6088100219
0.6088100262
0.6088100283
0.6088100247
0.60881002
0.608810015
0.6088100102
0.6088100045
0.6088099975
0.6088099967
0.608809996
0.6088099953
0.6088099939
0.6088099918
0.6088099897
0.6088099944
0.6088099946
0.6088099952
0.6088099987
0.6088100017
0.6088100016
0.6088100017
0.6088100018
0.6088100019
0.6088100021
0.6088100026
0.6088100036
0.6088100062
0.6088100122
0.6088100171
0.6088100174
0.6088100192
0.6088100224
0.6088100239
0.6088100217
0.6088100183
0.6088100139
0.608810007
0.6088099982
0.6088099955
0.6088099951
0.6088099945
0.6088099935
0.6088099913
0.6088099873
0.6088099837
0.6088099884
0.6088099905
0.6088099923
0.6088099951
0.6088100019
0.6088100024
0.6088100022
0.608810002
0.6088100021
0.6088100024
0.6088100032
0.6088100049
0.6088100086
0.6088100139
0.6088100138
0.6088100161
0.6088100163
0.6088100181
0.6088100191
0.6088100172
0.6088100158
0.6088100137
0.6088100083
0.6088100007
0.6088099975
0.6088099974
0.6088099979
0.6088099972
0.6088099969
0.6088099909
0.60880999
0.6088099972
0.608809996
0.6088099959
0.6088099993
0.6088100018
0.6088100034
0.6088100034
0.6088100033
0.6088100032
0.6088100029
0.608810004
0.6088100068
0.6088100106
0.608810009
0.6088100023
0.6088100149
0.6088100147
0.6088100155
0.6088100155
0.6088100121
0.6088100116
0.6088100133
0.6088100098
0.6088100037
0.6088100006
0.6088100006
0.608810001
0.60881
0.608809997
0.6088099912
0.6088099907
0.6088099973
0.6088099969
0.6088099975
0.6088099975
0.6088100019
0.6088100032
0.6088100033
0.6088100033
0.6088100032
0.6088100029
0.6088100024
0.6088100077
0.6088100083
0.6088100021
0.6088100002
0.608810015
0.6088100145
0.6088100144
0.6088100143
0.6088100086
0.6088100076
0.6088100126
0.6088100115
0.6088100072
0.6088100048
0.6088100047
0.6088100052
0.6088100033
0.6088099948
0.6088099921
0.6088099921
0.6088099975
0.6088099973
0.6088099993
0.6088100092
0.608810002
0.6088100027
0.6088100033
0.6088100034
0.6088100032
0.6088100029
0.6088100023
0.608810003
0.6088100052
0.6088100006
0.60881
0.6088099994
0.6088100158
0.6088100153
0.6088100141
0.6088100069
0.6088100052
0.6088100119
0.6088100135
0.608810011
0.6088100095
0.6088100088
0.6088100065
0.608810001
0.6088099943
0.6088099928
0.6088099928
0.608809998
0.6088099974
0.6088099981
0.6088100085
0.6088100021
0.6088100025
0.6088100033
0.6088100034
0.6088100033
0.6088100031
0.6088100025
0.6088100016
0.6088100004
0.6088100001
0.60881
0.6088100001
0.6088100005
0.6088100053
0.6088100145
0.6088100058
0.6088100038
0.6088100115
0.6088100157
0.6088100147
0.6088100133
0.6088100096
0.6088100042
0.6088099988
0.6088099953
0.6088099944
0.6088099946
0.6088099982
0.608809998
0.6088099986
0.6088100024
0.6088100022
0.6088100025
0.6088100032
0.6088100033
0.6088100033
0.6088100031
0.6088100026
0.6088100018
0.6088100009
0.6088100002
0.6088100001
0.608810001
0.6088100029
0.6088100134
0.6088100164
0.6088100051
0.6088100031
0.6088100113
0.6088100182
0.6088100185
0.6088100165
0.6088100099
0.6088100035
0.608809999
0.6088099969
0.6088099966
0.6088099968
0.6088099985
0.6088099986
0.6088099988
0.6088099994
0.6088100022
0.6088100025
0.6088100032
0.6088100032
0.6088100032
0.608810003
0.6088100028
0.6088100026
0.6088100026
0.6088100007
0.6088100002
0.6088100065
0.6088100107
0.6088100174
0.6088100175
0.6088100046
0.6088100027
0.6088100114
0.6088100209
0.608810023
0.6088100207
0.6088100117
0.6088100046
0.6088100001
0.6088099981
0.6088099978
0.608809998
0.6088099988
0.6088099989
0.6088099992
0.6088099999
0.6088100023
0.6088100025
0.6088100031
0.608810003
0.6088100031
0.6088100032
0.6088100034
0.6088100031
0.6088100024
0.608810002
0.6088100006
0.6088100114
0.6088100138
0.6088100167
0.6088100163
0.6088100039
0.6088100026
0.6088100119
0.6088100239
0.6088100286
0.6088100271
0.6088100156
0.6088100069
0.6088100017
0.6088099993
0.6088099987
0.6088099988
0.6088099991
0.6088099992
0.6088099996
0.6088100005
0.6088100023
0.6088100025
0.6088100028
0.6088100029
0.608810003
0.6088100032
0.6088100033
0.6088100034
0.6088100027
0.6088100026
0.6088100017
0.6088100087
0.60881001
0.6088100113
0.6088100104
0.6088100036
0.6088100027
0.6088100129
0.6088100274
0.6088100359
0.6088100374
0.6088100227
0.6088100111
0.6088100041
0.6088100008
0.6088099998
0.60881
0.6088099999
0.6088099997
0.6088100007
0.6088100008
0.6088100023
0.6088100025
0.6088100028
0.6088100029
0.608810003
0.6088100032
0.6088100033
0.6088100034
0.608810003
0.6088100025
0.608810003
0.6088100052
0.6088100056
0.6088100055
0.6088100049
0.6088100032
0.608810003
0.608810014
0.6088100287
0.6088100407
0.608810047
0.6088100319
0.608810014
0.6088100044
0.6088100016
0.608810001
0.6088100008
0.6088100005
0.6088100005
0.6088100008
0.6088100006
0.6088100023
0.6088100026
0.6088100028
0.6088100029
0.608810003
0.6088100032
0.6088100033
0.6088100034
0.6088100032
0.6088100025
0.6088100022
0.6088100031
0.6088100031
0.6088100029
0.6088100028
0.6088100029
0.6088100036
0.60881001
0.6088100092
0.6088100065
0.6088100048
0.608810005
0.6088100065
0.608810005
0.6088100019
0.6088100013
0.608810001
0.6088100008
0.6088100006
0.6088100004
0.6088100001
0.6088100023
0.6088100026
0.6088100029
0.608810003
0.608810003
0.6088100031
0.6088100033
0.6088100035
0.6088100034
0.6088100024
0.6088100015
0.6088100025
0.6088100026
0.6088100026
0.6088100027
0.608810003
0.6088100038
0.6088100053
0.6088100037
0.6088100027
0.6088100023
0.6088100023
0.6088100025
0.608810003
0.6088100028
0.6088100021
0.6088100017
0.6088100014
0.6088100009
0.6088100005
0.6088100001
0.6088100022
0.6088100027
0.6088100029
0.6088100029
0.6088100028
0.6088100029
0.6088100029
0.6088100031
0.6088100033
0.6088100023
0.6088100014
0.6088100021
0.6088100025
0.6088100026
0.6088100028
0.6088100031
0.6088100034
0.6088100032
0.6088100023
0.6088100019
0.6088100019
0.608810002
0.6088100019
0.6088100019
0.6088100026
0.6088100013
0.6088100009
0.6088100008
0.6088100005
0.6088100002
0.60881
0.6088100023
0.6088100027
0.6088100029
0.6088100026
0.6088100022
0.6088100021
0.608810002
0.608810002
0.6088100022
0.608810002
0.6088100013
0.6088100019
0.6088100022
0.6088100022
0.6088100021
0.6088100024
0.6088100029
0.6088100027
0.608810002
0.6088100019
0.6088100018
0.6088100017
0.6088100016
0.6088100015
0.6088100014
0.6088100011
0.6088100008
0.6088100007
0.6088100004
0.6088100001
0.60881
0.6088100026
0.6088100028
0.6088100027
0.6088100023
0.6088100021
0.6088100019
0.6088100018
0.6088100018
0.6088100017
0.6088100018
0.6088100017
0.6088100019
0.6088100019
0.6088100018
0.6088100017
0.6088100016
0.6088100017
0.6088100017
0.6088100016
0.6088100015
0.6088100014
0.6088100013
0.6088100013
0.6088100013
0.6088100012
0.6088100011
0.608810001
0.6088100009
0.6088100008
0.6088100004
0.6088100001
)
;

boundaryField
{
    walls
    {
        type            zeroGradient;
    }
    wallFilmFace_top
    {
        type            zeroGradient;
    }
    region0_to_wallFilmRegion_wallFilmFace
    {
        type            zeroGradient;
    }
    mirrorFace_top
    {
        type            zeroGradient;
    }
    region0_to_wallFilmRegion_mirrorFace
    {
        type            zeroGradient;
    }
    procBoundary1to0
    {
        type            processor;
        value           nonuniform List<scalar> 
52
(
0.608810002
0.6088100022
0.6088100029
0.6088100037
0.6088100046
0.6088100059
0.6088100069
0.6088100048
0.6088100048
0.6088100026
0.6088100009
0.6088099999
0.6088099988
0.6088099988
0.6088099988
0.608809999
0.608809999
0.6088099983
0.6088099986
0.6088099995
0.6088100004
0.6088100004
0.6088100002
0.608810002
0.608810002
0.6088100012
0.6088099997
0.6088099974
0.6088099959
0.6088099959
0.608809996
0.6088099966
0.6088099966
0.6088099961
0.6088099929
0.6088099929
0.6088099908
0.6088099889
0.6088099952
0.6088099952
0.6088099961
0.6088099961
0.6088099935
0.6088099918
0.6088099916
0.6088099916
0.6088099913
0.6088099907
0.608809989
0.6088099907
0.6088099898
0.60880999
)
;
    }
    procBoundary1to2
    {
        type            processor;
        value           nonuniform List<scalar> 
33
(
0.6088099929
0.6088099945
0.6088099945
0.6088099953
0.6088099953
0.6088099976
0.6088099984
0.6088099979
0.6088099979
0.6088100005
0.6088099997
0.608809999
0.608809994
0.6088099942
0.6088099959
0.608810002
0.6088100022
0.6088100037
0.608809997
0.6088099819
0.6088100338
0.6088100525
0.60881018
0.608810002
0.6088100011
0.6088100014
0.6088100011
0.6088100008
0.6088100003
0.6088100003
0.6088100001
0.6088100001
0.6088100001
)
;
    }
}


// ************************************************************************* //
