/*--------------------------------*- C++ -*----------------------------------*\
  =========                 |
  \\      /  F ield         | OpenFOAM: The Open Source CFD Toolbox
   \\    /   O peration     | Website:  https://openfoam.org
    \\  /    A nd           | Version:  8
     \\/     M anipulation  |
\*---------------------------------------------------------------------------*/
FoamFile
{
    version     2.0;
    format      ascii;
    class       volScalarField;
    location    "1.3/wallFilmRegion";
    object      alpha;
}
// * * * * * * * * * * * * * * * * * * * * * * * * * * * * * * * * * * * * * //

dimensions      [0 0 0 0 0 0 0];

internalField   nonuniform List<scalar> 
1369
(
4.931231694
0.1336552494
0.03345983624
0.01783956107
0.01820127243
0.0187989897
0.01911074669
4.621548447
0.09253177878
0.03142675738
0.01946371161
0.02004330624
0.01994935017
0.01870759414
0.01653862169
0.01424117922
0.01248668278
0.01121721195
4.29075153
0.07557635333
0.03462454074
0.02362607223
0.02336380507
0.0215311459
0.01816982752
0.01421011477
0.0107854584
0.008419353734
0.006909156282
0.005708919721
0.004434167053
4.067995712
0.08578382877
0.04523337929
0.03217790264
0.02857064872
0.02316410877
0.01708418345
0.01178299954
0.008093780392
0.005914329106
0.00468869695
0.003926917185
0.003378485503
0.003021574839
0.002874472067
0.002864324918
0.002469825855
4.147102364
0.1429965721
0.07323943595
0.04933601651
0.03674040839
0.02493974134
0.01563552579
0.009542042328
0.006155805635
0.004459954218
0.003626161798
0.003230857157
0.003128547893
0.003306553128
0.003711619692
0.004127063255
0.003886200371
0.001327468573
0.007448252158
4.604368086
0.2638566785
0.1328486718
0.07691041934
0.04583272234
0.02564050375
0.01366951883
0.007607770531
0.004849904935
0.003643740032
0.003140811032
0.003043197749
0.003302418129
0.003981361099
0.005112660005
0.00647237921
0.007433982982
0.005409723611
0.02351736407
0.001674530971
0.003039803351
0.1640818816
0.5566678397
5.018974912
0.3183669831
0.1549530372
0.07987300665
0.04108855892
0.02019239406
0.01008368609
0.005693491747
0.003869391363
0.00311037749
0.002874689736
0.003034147503
0.003652946685
0.004953541025
0.007323764077
0.01146665662
0.01883194204
0.02554079994
0.1234021784
0.001928856088
0.01492938814
0.1545502524
0.4123724461
0.9509304889
0.5174983738
5.003469023
0.2188489157
0.07793510921
0.03184599957
0.01646929713
0.008863454029
0.005322873738
0.003688214171
0.002910659825
0.002574490943
0.002567161156
0.002936015756
0.00390169306
0.00607332172
0.01137084835
0.02606560203
0.06579851772
0.1346919178
0.6408123697
0.007358213904
0.3405985152
0.1658135346
0.1475201931
0.8680608767
0.3279758304
0.1450058186
5.243192197
0.2012839986
0.06125083895
0.01870319719
0.0088106312
0.004551245329
0.002930170426
0.002278913669
0.001985923342
0.001892863471
0.002008816698
0.002462651856
0.003645228382
0.006994422486
0.01928341186
0.06745545662
0.2003406195
0.4474723456
1.582920226
0.2548954186
0.1666342096
0.01878364611
0.02782359699
0.934765707
0.3415826032
0.1070706342
5.732095081
0.2471513704
0.07868220399
0.02188679997
0.009772352427
0.003674873732
0.001743187873
0.001195946512
0.001020115748
0.0009846199868
0.00107059019
0.001377743531
0.002297232532
0.005864800759
0.02561028943
0.1266226688
0.2631875192
0.3628551043
0.7615121672
2.337863363
0.6876122356
0.128529513
0.1143013742
1.180029195
0.5665815149
0.1509131203
0.05789344006
5.97283306
0.2835536236
0.0876434241
0.02423094068
0.01077630538
0.002582602306
0.0005038568513
0.0001392499927
6.341473542e-05
3.313864241e-05
1.466364041e-05
4.453989135e-06
7.238555705e-06
2.733631704e-05
0.001984585467
0.1858703924
0.1509354091
0.08903110165
0.1138310342
0.2015225436
0.1962299995
0.1027539092
0.7194559466
1.507552945
0.5684101477
0.1704915126
0.04466638641
5.881474147
0.3250823701
0.1006595221
0.05618501125
0.07174943988
0.06066039011
0.03514258119
0.01706389276
0.01186835366
0.0130691026
0.01499809063
0.01247250704
0.007321559259
0.01640683281
0.1033610873
0.1447951452
0.03423754833
0.01337739582
0.01581085802
0.05762441864
0.6476015589
1.103476459
1.221441056
1.861179861
3.101354327
1.44427936
0.2219882275
4.909322486
0.1863658477
0.09822248457
0.09795456931
0.1985085506
0.254262042
0.194121783
0.1068840018
0.05229121088
0.03786371371
0.03963517241
0.03934878204
0.04780889238
0.08956583444
0.1369463668
0.05625602785
0.005251136277
0.001215808507
0.0003656566431
7.702384377e-05
0.01421953685
0.1220963108
0.387126357
0.8988917282
1.936204338
3.49306905
1.352641669
1.000037621
3.818727396
0.0575190392
0.02625921222
0.02567976761
0.06706930635
0.138991873
0.1961403702
0.1990914248
0.1686927821
0.1253457328
0.1023105063
0.09371401699
0.08160717351
0.06491190556
0.03238355536
0.002203969488
0.0001680734023
3.743327432e-05
1.009011506e-05
1.934671032e-06
0.00169564026
0.009467855239
0.03108428412
0.2907685608
1.214888009
2.81382402
1.63017979
1.21308677
0.4859784043
2.921614945
0.02245092546
0.02214992611
0.01584886143
0.03472281951
0.07796325588
0.1561750291
0.244147021
0.2700614346
0.2041385671
0.1341408929
0.0933616684
0.05831605738
0.03012300738
0.009806126402
0.001413013299
0.0005956063224
0.0006658942053
0.001532562406
0.006942682138
0.004308006366
0.02900849044
0.1049792683
0.6761517815
0.9794210367
1.043627452
1.428973616
0.90173746
0.9855727007
1.757435299
0.01761128095
0.02340055535
0.02357575503
0.04205466423
0.0830968727
0.1669278071
0.2719973858
0.3019809811
0.2204472199
0.1238433919
0.07042949778
0.03759224217
0.0172943227
0.007044854314
0.004606070065
0.01010101607
0.05219930907
0.1737316245
0.1473122872
0.005909445317
0.08556353344
0.4205739379
0.6641714895
0.7156162304
0.8224230336
1.13605865
0.9531387726
0.9422549063
1.468060636
0.01875673046
0.02525737586
0.03127873507
0.05438642275
0.1017337019
0.1897556999
0.2813824779
0.293224349
0.2088481934
0.1123361717
0.06009372402
0.032584805
0.01912243835
0.01702656864
0.03404844031
0.1195147485
0.3222277155
0.3435094632
0.1244186989
0.02205995266
0.1934743552
0.4418569857
0.5519038167
0.6707204648
0.6117607159
0.8013095923
0.983021871
0.8644578845
0.6511995854
0.4136683287
0.2941149368
0.4826192656
0.5026229117
1.41878393
0.01792610278
0.02329701655
0.02966785608
0.05045023309
0.09154460551
0.1653646278
0.2455463759
0.2560980402
0.1883122148
0.1080936605
0.06147103161
0.03893200708
0.03386323873
0.05240724436
0.1272847947
0.2968893721
0.3803289781
0.1982900678
0.03707753712
0.02191354432
0.2014499079
0.8389290079
1.590421758
0.8540559048
0.7178874526
0.6831030836
0.9438900028
1.245618752
0.6106304726
0.6045582434
0.4340066019
0.5098467671
0.4021766497
1.497207046
0.01680692823
0.01953606005
0.02289865432
0.03653312563
0.06483940543
0.1183740638
0.1910371001
0.2172320122
0.1656574358
0.1037115189
0.06712970522
0.04792635619
0.04470574676
0.06462862125
0.128836047
0.2106543329
0.1458969167
0.02972971304
0.001428264656
0.05400482747
0.2861298848
0.9303416689
2.468455517
1.632451602
0.6399818003
0.6522562164
0.8890009089
0.8479332909
0.6452203559
0.8096485571
0.5012263076
0.4979334537
0.5055451147
1.699400458
0.01668272519
0.01758573534
0.01967194613
0.03298221077
0.06579801012
0.1319648347
0.2110284094
0.2349736331
0.1708848369
0.1034940482
0.08679775703
0.07300377408
0.06802919156
0.07962878551
0.1076463015
0.09327293121
0.02929891369
0.003509369028
5.555740995e-05
0.001598839779
0.006185164727
0.02540246803
0.4673655135
1.560459927
1.026156063
0.8908853341
1.011065362
0.8738418876
0.599337731
0.8367319062
0.4297258053
0.616041497
1.941124828
0.0188586974
0.01935842928
0.02487368341
0.05226039981
0.1097359816
0.1815419494
0.2398201223
0.2639358644
0.226451902
0.1580599204
0.1682906059
0.1553010265
0.1327863751
0.1077427503
0.07195885853
0.02375532949
0.004384417707
0.001505376179
1.809809096e-05
0.0006208277446
0.003533722136
0.009794558321
0.05618855575
0.2317032156
0.8642342774
1.44639583
0.963319332
0.7361687039
0.6292439382
0.8503148435
0.7960008431
2.382424177
0.04618469424
0.03607321655
0.03400132071
0.05338336781
0.08469555626
0.1126078782
0.1409752125
0.1801547124
0.2272448476
0.2520311952
0.261908595
0.2249437226
0.160614999
0.0908645725
0.03773343188
0.01024548079
0.002526559595
0.00087931935
6.601376865e-05
0.0002009149223
0.03829334988
0.1744659939
0.3622176086
1.28405399
1.386396532
0.6237123805
0.4030494862
0.4660627648
0.9295770666
1.504688711
2.257245421
3.418447789
0.482560302
0.3594203648
0.1761882443
0.107012232
0.0789184339
0.08129039442
0.09590478622
0.132692391
0.1970271019
0.2498290835
0.2448245321
0.1959137983
0.1256686022
0.06292281491
0.02518524634
0.008566833794
0.002938763532
0.001012365815
0.0001401085161
9.893076783e-05
0.24647828
0.7079909216
1.23037428
1.265477362
1.291495506
0.8901121077
0.4192203103
0.6438853899
1.503851753
2.060914472
1.891064443
2.930047066
0.2967367218
0.3482180637
0.3445579585
0.2736746375
0.1609264083
0.09599567055
0.07175538799
0.0637802698
0.0683554761
0.1120992848
0.2944654527
0.3383151389
0.1013704476
0.05278245942
0.02674172425
0.01165155998
0.004609357363
0.00202337852
0.0006556919754
0.001357006938
0.851896216
1.43881916
1.560297431
1.376856715
0.9710747406
0.6021754259
0.4774640928
0.6947248866
0.870070526
0.4231753756
2.651572686
0.1217781549
0.116571483
0.1760516085
0.306685184
0.3096086808
0.2206567836
0.1410970819
0.09321370967
0.06235969492
0.08781704877
0.2872518368
0.1710047403
0.03220358326
0.02142575189
0.03077261286
0.01778303838
0.01071519738
0.01771407154
0.08504659483
0.5171539543
1.330911236
1.745014751
1.949798818
1.875281385
1.631183677
1.329580183
0.75679169
0.4714062435
0.3434800739
0.2787818195
2.823372726
0.1334875202
0.0509032631
0.06032611218
0.188330825
0.3704023052
0.4531981414
0.3806613737
0.2644544429
0.1936601638
0.2350440125
0.2836485482
0.1177870412
0.02988655562
0.008382308068
0.02152210129
0.02456069543
0.01757341686
0.02996549038
0.1235751726
0.5644232836
1.517315793
1.756381456
2.085395634
2.161109772
1.87739881
1.829670187
1.598855643
0.7288516878
0.4708331433
0.3905434216
2.998751219
0.1939947676
0.02039229593
0.01682925304
0.05852004176
0.2003413724
0.4381973156
0.6135002495
0.6013087267
0.4937240831
0.4484637973
0.367897202
0.184993724
0.005790739472
0.002733472295
0.006229364259
0.06391182081
0.0208008253
0.02247130249
0.04059890602
0.1918728905
1.619760664
1.410074189
1.795392234
1.878581924
1.82245822
1.250539489
2.149216685
1.072700849
0.5373923345
0.6362787125
3.187573195
0.2465487973
0.006053200063
0.004828997478
0.01376115682
0.05252392342
0.1933495868
0.4507632614
0.6539476424
0.629041188
0.414802775
0.2082633786
0.005064495408
0.004781015729
0.007912103687
0.00177745968
0.2189403565
0.02309256724
0.01835017225
0.01568850274
0.004831839559
0.4698391283
0.6895710994
1.241211548
1.559478332
1.448448837
1.321348958
1.834169809
0.7324028948
0.1739155759
0.06125418805
3.390270259
0.2695605502
0.001825597455
0.001400234559
0.004414695697
0.01509706424
0.05388090857
0.1718175355
0.3684373895
0.4863920884
0.3348292388
0.09635605312
0.001571389653
0.007561169325
0.05163334504
0.002460099448
0.1367275766
0.02782177709
0.0175819666
0.0106133516
0.001709613784
0.01772876824
0.05891987746
0.6734066834
1.500609656
1.324904707
0.8555838589
0.7420038311
0.302807151
0.06042301255
0.02272356112
3.623871383
0.262653933
0.002811227201
0.0007787879488
0.002012072866
0.005339254175
0.01422162076
0.04002147229
0.1124894172
0.2500810454
0.0994519227
0.03823791067
0.007676794675
0.01481515635
0.03046954994
0.01882213412
0.07397538755
0.04132020506
0.01998399132
0.00929223643
0.001217520117
0.007491997862
0.0262840012
0.2750999784
1.587383255
1.136005454
0.3244462165
0.1182666201
0.1959631049
0.2446582629
0.1889783053
3.882660691
0.2350675327
0.004421349363
0.0004860396127
0.0008265617724
0.00178789499
0.003949659425
0.008920230938
0.03385129211
0.135901176
0.01333888095
0.01528573911
0.01325788337
0.02156962724
0.03290640242
0.02890630428
0.04340379439
0.0690224448
0.03018434691
0.009528764711
0.001586121486
0.006281534708
0.01920393136
0.1364987808
0.994813171
1.286452662
0.6127563643
0.3628463615
0.192740768
0.2748229383
0.1650988499
4.145426279
0.2054862264
0.006981899241
0.0006221395381
0.000606866428
0.0009067152013
0.002556112334
0.01550389135
0.08561153892
0.08472159628
0.003120402843
0.01390226714
0.01932401522
0.02817596901
0.03744191607
0.03711365412
0.05006894048
0.1073552256
0.06600978959
0.01349950438
0.006015561843
0.01805945185
0.05207840649
0.04322962491
0.1013968475
0.7178889012
1.147241117
1.382878843
0.3277983595
0.3251984427
0.4025517015
4.390042233
0.1877958709
0.01081734433
0.001210293843
0.001230245486
0.002540664542
0.01284163713
0.06480720958
0.1050566992
0.0714127825
0.009325274443
0.020885147
0.0266952242
0.03685789691
0.05425087334
0.1512908022
0.1998041886
0.1767877541
0.1500191642
0.04255326274
0.0356619856
0.05644805575
0.05013367173
0.009203033903
0.003826970761
0.03913496946
0.2169193314
0.8171685079
1.118880741
0.8777805336
0.4838005943
4.594112781
0.1786464032
0.01621507722
0.002405564385
0.003024741045
0.007701230283
0.0310676065
0.07139327374
0.08368259708
0.05723878766
0.0145572392
0.03061379116
0.04743384248
0.1391331315
0.1677898202
0.3319355146
0.3039311191
0.2688188865
0.2903873175
0.1433128351
0.04764079962
0.06622876288
0.0161077706
0.003025038019
0.001534793615
0.008932581774
0.2977290993
0.991016923
0.9702397126
0.6260877861
0.2862139616
4.729132288
0.1691363955
0.02424246232
0.004815367602
0.00641313603
0.01333819682
0.03094666586
0.04770167308
0.05401591542
0.03995172412
0.01955043482
0.06644239273
0.35595945
0.5365648543
0.231458034
0.3033360367
0.271958802
0.2822164665
0.3641001741
0.2581494064
0.03457631147
0.03267133378
0.00556794895
0.00144182007
0.0008143500279
0.004504942233
0.2442411622
2.104458402
1.209726334
0.1968079971
0.108400543
4.805220266
0.1502206376
0.07875228187
0.06266977441
0.07657832559
0.092508889
0.1058297336
0.1118480635
0.1064523819
0.07186133852
0.05145483638
0.1843970462
0.7124060521
0.2336806979
0.1558825328
0.1645889165
0.1551192936
0.1732800798
0.2393162655
0.1984521203
0.0168891811
0.01089405541
0.002338389515
0.0008274625016
0.000512442101
0.001996634744
0.3773497668
1.618951829
0.8273047973
0.1495893375
0.1481236415
4.768362897
0.1486059763
0.1454703304
0.1149517217
0.1254703029
0.1240544259
0.1418442391
0.1579645051
0.1591873661
0.1139037182
0.08507573916
0.3245205652
0.178786844
0.06131934356
0.06139106161
0.06445425137
0.06572923571
0.07417146805
0.09277058575
0.07768548521
0.007393779915
0.00396077066
0.001149403498
0.0005409474334
0.0003567178096
0.001278418201
0.05006860498
0.3307576723
0.1940055989
0.170251497
0.1506729558
5.252055278
0.2187215664
0.3488578082
0.679308806
0.8148258307
0.2131734234
0.1670790148
0.2020279817
0.2432512289
0.2520743012
0.2139894132
0.1916829751
0.08202916154
0.04997975981
0.04320386358
0.06866634084
0.1085288659
0.07126730997
0.0332367206
0.02180221822
0.003489545121
0.001795487492
0.0006754605671
0.0003994040331
0.0002839159545
0.0009664573371
0.06290453941
0.2169407426
0.1616392193
0.1654341844
0.1312282797
7.099170269
1.906885918
3.63080573
3.64218154
4.547712242
2.790838659
0.3133824427
0.2640844468
0.3212627998
0.3354712172
0.2488704169
0.1800927918
0.1230608896
0.07607761797
0.04202429498
0.07801516781
0.1234608102
0.03773706597
0.01190173559
0.0068428602
0.001778581075
0.0009831732326
0.0004993596322
0.0003850236559
0.0002960879405
0.000897648588
0.06793186045
0.1860553236
0.1439002433
0.138382647
0.1096532168
6.721153523
0.6380926783
2.274800043
2.363862277
4.371209354
5.057191499
4.309663606
0.4806318323
0.4027145956
0.377775188
0.2546249686
0.1803262012
0.1349937778
0.08684196262
0.03593747711
0.06468080711
0.06509468761
0.01289060209
0.004941152219
0.002937065438
0.001066793119
0.0007234551117
0.0005843000235
0.0006730732177
0.001186224206
0.004460499058
0.03341724358
0.09028223463
0.09123457632
0.09627330029
0.08643881529
6.14305468
0.2121856827
1.781578183
2.403131647
3.566232837
4.095776988
4.479888696
5.137896511
0.5674947121
0.3505963857
0.2198383017
0.1710995678
0.1331239858
0.08800778914
0.02428087016
0.03172376254
0.01882084205
0.004834042981
0.002518314245
0.001616729039
0.0008379058636
0.0007795035328
0.001125846044
0.002769813258
0.009360065298
0.04210423517
0.3271639173
0.1204003803
0.06582704189
0.0793083618
0.1055837661
6.318469962
0.2616510003
1.853798959
3.303233432
3.692959554
4.133453012
3.630614172
4.127220697
4.269104147
0.2968004166
0.1668146824
0.1529019289
0.1256156281
0.08185089788
0.01228228934
0.01038974798
0.005593912897
0.002403966842
0.001614313703
0.001201514431
0.0009155306427
0.001070243577
0.008218083119
0.002858028163
0.008809817301
0.03452669485
0.2479921433
0.06516315366
0.03817302507
0.07115397606
0.2148269541
6.91979191
0.5064701588
3.157164357
4.298114365
4.182556128
3.429215243
3.581188921
3.250882708
4.773596273
0.8009786898
0.1380854652
0.1286235221
0.113886052
0.07268036662
0.006335107295
0.004396797826
0.002763295676
0.001850090679
0.001624061147
0.004517983678
0.05191575055
0.4193644913
4.33904926
0.2754484058
0.03082370026
0.02214810775
0.1135876548
0.03019536583
0.02726715412
0.3722734224
0.6843249369
7.731704643
1.75957337
4.521316609
4.879610049
4.262142477
3.164808691
2.641151069
2.612183718
3.632886716
1.541047297
0.1074682443
0.1002250307
0.09809742987
0.06335031932
0.004617689012
0.003275756614
0.002639629031
0.002637107486
0.003343529118
0.004893414782
0.008459532023
0.03686120362
0.5715945265
0.02545260637
0.02490997604
0.04202017693
0.08295520883
0.04083078634
0.06732830916
0.7246456144
0.3442506438
8.726937318
3.668966306
5.633201821
5.036280306
3.991925983
2.549401455
1.90460299
1.253920237
2.597406315
1.026556993
0.07586957784
0.06920715101
0.0780865539
0.05366843401
0.004691325518
0.004045233891
0.004489403885
0.00656355533
0.01170603968
0.02239855525
0.0420770615
0.07398371534
0.1796657812
0.2468456323
0.5545505697
1.083716751
1.074131173
0.1860011357
0.1147211659
0.0333031375
0.04809886514
10.01106391
5.237101402
6.038237348
4.625509711
2.591696649
1.43119193
1.163369933
1.164239605
3.949386468
1.10639556
0.09958090721
0.06239229393
0.06944828953
0.0534232083
0.01348735647
0.01416098195
0.01915335166
0.03328193819
0.06963004571
0.1526705815
0.2979157535
0.4560456522
0.5943153456
0.6656007527
0.7188535285
0.6522194677
0.4996017637
0.3673562554
0.1723733326
0.03241884002
0.01685283031
10.79530355
7.691040279
5.914341791
2.022453537
0.9046021987
0.5415930451
0.4434377476
0.3796168875
0.6248142543
0.4503357253
0.09491145494
0.05578610623
0.05628092393
0.05307550414
0.04253618587
0.05293333324
0.0795374134
0.1499832391
0.3040007764
0.5614101264
0.9518777134
1.345240294
1.417694456
0.9167537454
0.3210133309
0.06563917865
0.1479252747
0.3729282239
0.1530811353
0.02016088073
0.0084525483
9.722171784
10.39267459
9.355478258
6.813818732
6.195723508
5.948589144
6.055392426
6.174531506
6.069838441
4.612044555
3.253489019
2.767201554
2.594069803
2.543980423
2.584855105
2.735491463
3.010063163
3.423207073
3.952584028
4.566006173
5.21349465
5.833834602
6.331016771
6.304685012
5.223783953
3.64904698
3.066909896
3.758197933
4.937029139
3.649728489
2.730082901
)
;

boundaryField
{
    walls
    {
        type            zeroGradient;
    }
    wallFilmFace_top
    {
        type            zeroGradient;
    }
    region0_to_wallFilmRegion_wallFilmFace
    {
        type            zeroGradient;
    }
    mirrorFace_top
    {
        type            zeroGradient;
    }
    region0_to_wallFilmRegion_mirrorFace
    {
        type            zeroGradient;
    }
    procBoundary1to0
    {
        type            processor;
        value           nonuniform List<scalar> 
52
(
5.158597914
0.1978852759
0.04090208444
0.01808580101
0.01785758783
0.01879993934
0.02044675341
0.01897994745
0.01897994745
0.01876830533
0.01890408883
0.01893014204
0.009589524307
0.009589524307
0.006985151544
0.00326762834
0.00326762834
0.002607302665
0.00247579732
0.002468458243
0.0009465209297
0.0009465209297
0.002100223648
0.0007086774019
0.0007086774019
0.001727747208
0.176640865
0.8137466408
1.029945866
1.029945866
1.61946027
0.6744366328
0.6744366328
0.04071673689
0.0354564334
0.0354564334
0.08772951669
0.130509607
0.4250526802
0.4250526802
0.7286957464
0.7286957464
0.2748366761
0.5045967226
0.6057175041
0.6057175041
0.3431812573
0.1198353259
0.3084507987
0.6230498287
0.6808215464
0.370059474
)
;
    }
    procBoundary1to2
    {
        type            processor;
        value           nonuniform List<scalar> 
33
(
0.5276270598
0.9916894803
0.9916894803
1.292550783
1.292550783
3.211080118
1.71306686
0.2423489638
0.2423489638
0.2427714923
0.2912584316
0.1296885409
0.0228650744
0.006712247428
0.1005802438
0.07413684512
0.4581141867
0.1414975331
0.1990063451
0.270851128
0.1892273075
0.110587635
0.07322329105
0.06181765084
0.06126414309
0.1010040632
0.5632317788
0.7050749239
0.0003494206841
8.066454293e-05
0.000640828664
0.001914566128
1.553223979
)
;
    }
}


// ************************************************************************* //
