/*--------------------------------*- C++ -*----------------------------------*\
  =========                 |
  \\      /  F ield         | OpenFOAM: The Open Source CFD Toolbox
   \\    /   O peration     | Website:  https://openfoam.org
    \\  /    A nd           | Version:  8
     \\/     M anipulation  |
\*---------------------------------------------------------------------------*/
FoamFile
{
    version     2.0;
    format      ascii;
    class       volScalarField;
    location    "1.3/wallFilmRegion";
    object      delta;
}
// * * * * * * * * * * * * * * * * * * * * * * * * * * * * * * * * * * * * * //

dimensions      [0 1 0 0 0 0 0];

internalField   nonuniform List<scalar> 
1369
(
0.004931231694
0.0001336552494
3.345983624e-05
1.783956107e-05
1.820127243e-05
1.87989897e-05
1.911074669e-05
0.004621548447
9.253177878e-05
3.142675738e-05
1.946371161e-05
2.004330624e-05
1.994935017e-05
1.870759414e-05
1.653862169e-05
1.424117922e-05
1.248668278e-05
1.121721195e-05
0.00429075153
7.557635333e-05
3.462454074e-05
2.362607223e-05
2.336380507e-05
2.15311459e-05
1.816982752e-05
1.421011477e-05
1.07854584e-05
8.419353734e-06
6.909156282e-06
5.708919721e-06
4.434167053e-06
0.004067995712
8.578382877e-05
4.523337929e-05
3.217790264e-05
2.857064872e-05
2.316410877e-05
1.708418345e-05
1.178299954e-05
8.093780392e-06
5.914329106e-06
4.68869695e-06
3.926917185e-06
3.378485503e-06
3.021574839e-06
2.874472067e-06
2.864324918e-06
2.469825855e-06
0.004147102364
0.0001429965721
7.323943595e-05
4.933601651e-05
3.674040839e-05
2.493974134e-05
1.563552579e-05
9.542042328e-06
6.155805635e-06
4.459954218e-06
3.626161798e-06
3.230857157e-06
3.128547893e-06
3.306553128e-06
3.711619692e-06
4.127063255e-06
3.886200371e-06
1.327468573e-06
7.448252158e-06
0.004604368086
0.0002638566785
0.0001328486718
7.691041934e-05
4.583272234e-05
2.564050375e-05
1.366951883e-05
7.607770531e-06
4.849904935e-06
3.643740032e-06
3.140811032e-06
3.043197749e-06
3.302418129e-06
3.981361099e-06
5.112660005e-06
6.47237921e-06
7.433982982e-06
5.409723611e-06
2.351736407e-05
1.674530971e-06
3.039803351e-06
0.0001640818816
0.0005566678397
0.005018974912
0.0003183669831
0.0001549530372
7.987300665e-05
4.108855892e-05
2.019239406e-05
1.008368609e-05
5.693491747e-06
3.869391363e-06
3.11037749e-06
2.874689736e-06
3.034147503e-06
3.652946685e-06
4.953541025e-06
7.323764077e-06
1.146665662e-05
1.883194204e-05
2.554079994e-05
0.0001234021784
1.928856088e-06
1.492938814e-05
0.0001545502524
0.0004123724461
0.0009509304889
0.0005174983738
0.005003469023
0.0002188489157
7.793510921e-05
3.184599957e-05
1.646929713e-05
8.863454029e-06
5.322873738e-06
3.688214171e-06
2.910659825e-06
2.574490943e-06
2.567161156e-06
2.936015756e-06
3.90169306e-06
6.07332172e-06
1.137084835e-05
2.606560203e-05
6.579851772e-05
0.0001346919178
0.0006408123697
7.358213904e-06
0.0003405985152
0.0001658135346
0.0001475201931
0.0008680608767
0.0003279758304
0.0001450058186
0.005243192197
0.0002012839986
6.125083895e-05
1.870319719e-05
8.8106312e-06
4.551245329e-06
2.930170426e-06
2.278913669e-06
1.985923342e-06
1.892863471e-06
2.008816698e-06
2.462651856e-06
3.645228382e-06
6.994422486e-06
1.928341186e-05
6.745545662e-05
0.0002003406195
0.0004474723456
0.001582920226
0.0002548954186
0.0001666342096
1.878364611e-05
2.782359699e-05
0.000934765707
0.0003415826032
0.0001070706342
0.005732095081
0.0002471513704
7.868220399e-05
2.188679997e-05
9.772352427e-06
3.674873732e-06
1.743187873e-06
1.195946512e-06
1.020115748e-06
9.846199868e-07
1.07059019e-06
1.377743531e-06
2.297232532e-06
5.864800759e-06
2.561028943e-05
0.0001266226688
0.0002631875192
0.0003628551043
0.0007615121672
0.002337863363
0.0006876122356
0.000128529513
0.0001143013742
0.001180029195
0.0005665815149
0.0001509131203
5.789344006e-05
0.00597283306
0.0002835536236
8.76434241e-05
2.423094068e-05
1.077630538e-05
2.582602306e-06
5.038568513e-07
1.392499927e-07
6.341473542e-08
3.313864241e-08
1.466364041e-08
4.453989135e-09
7.238555705e-09
2.733631704e-08
1.984585467e-06
0.0001858703924
0.0001509354091
8.903110165e-05
0.0001138310342
0.0002015225436
0.0001962299995
0.0001027539092
0.0007194559466
0.001507552945
0.0005684101477
0.0001704915126
4.466638641e-05
0.005881474147
0.0003250823701
0.0001006595221
5.618501125e-05
7.174943988e-05
6.066039011e-05
3.514258119e-05
1.706389276e-05
1.186835366e-05
1.30691026e-05
1.499809063e-05
1.247250704e-05
7.321559259e-06
1.640683281e-05
0.0001033610873
0.0001447951452
3.423754833e-05
1.337739582e-05
1.581085802e-05
5.762441864e-05
0.0006476015589
0.001103476459
0.001221441056
0.001861179861
0.003101354327
0.00144427936
0.0002219882275
0.004909322486
0.0001863658477
9.822248457e-05
9.795456931e-05
0.0001985085506
0.000254262042
0.000194121783
0.0001068840018
5.229121088e-05
3.786371371e-05
3.963517241e-05
3.934878204e-05
4.780889238e-05
8.956583444e-05
0.0001369463668
5.625602785e-05
5.251136277e-06
1.215808507e-06
3.656566431e-07
7.702384377e-08
1.421953685e-05
0.0001220963108
0.000387126357
0.0008988917282
0.001936204338
0.00349306905
0.001352641669
0.001000037621
0.003818727396
5.75190392e-05
2.625921222e-05
2.567976761e-05
6.706930635e-05
0.000138991873
0.0001961403702
0.0001990914248
0.0001686927821
0.0001253457328
0.0001023105063
9.371401699e-05
8.160717351e-05
6.491190556e-05
3.238355536e-05
2.203969488e-06
1.680734023e-07
3.743327432e-08
1.009011506e-08
1.934671032e-09
1.69564026e-06
9.467855239e-06
3.108428412e-05
0.0002907685608
0.001214888009
0.00281382402
0.00163017979
0.00121308677
0.0004859784043
0.002921614945
2.245092546e-05
2.214992611e-05
1.584886143e-05
3.472281951e-05
7.796325588e-05
0.0001561750291
0.000244147021
0.0002700614346
0.0002041385671
0.0001341408929
9.33616684e-05
5.831605738e-05
3.012300738e-05
9.806126402e-06
1.413013299e-06
5.956063224e-07
6.658942053e-07
1.532562406e-06
6.942682138e-06
4.308006366e-06
2.900849044e-05
0.0001049792683
0.0006761517815
0.0009794210367
0.001043627452
0.001428973616
0.00090173746
0.0009855727007
0.001757435299
1.761128095e-05
2.340055535e-05
2.357575503e-05
4.205466423e-05
8.30968727e-05
0.0001669278071
0.0002719973858
0.0003019809811
0.0002204472199
0.0001238433919
7.042949778e-05
3.759224217e-05
1.72943227e-05
7.044854314e-06
4.606070065e-06
1.010101607e-05
5.219930907e-05
0.0001737316245
0.0001473122872
5.909445317e-06
8.556353344e-05
0.0004205739379
0.0006641714895
0.0007156162304
0.0008224230336
0.00113605865
0.0009531387726
0.0009422549063
0.001468060636
1.875673046e-05
2.525737586e-05
3.127873507e-05
5.438642275e-05
0.0001017337019
0.0001897556999
0.0002813824779
0.000293224349
0.0002088481934
0.0001123361717
6.009372402e-05
3.2584805e-05
1.912243835e-05
1.702656864e-05
3.404844031e-05
0.0001195147485
0.0003222277155
0.0003435094632
0.0001244186989
2.205995266e-05
0.0001934743552
0.0004418569857
0.0005519038167
0.0006707204648
0.0006117607159
0.0008013095923
0.000983021871
0.0008644578845
0.0006511995854
0.0004136683287
0.0002941149368
0.0004826192656
0.0005026229117
0.00141878393
1.792610278e-05
2.329701655e-05
2.966785608e-05
5.045023309e-05
9.154460551e-05
0.0001653646278
0.0002455463759
0.0002560980402
0.0001883122148
0.0001080936605
6.147103161e-05
3.893200708e-05
3.386323873e-05
5.240724436e-05
0.0001272847947
0.0002968893721
0.0003803289781
0.0001982900678
3.707753712e-05
2.191354432e-05
0.0002014499079
0.0008389290079
0.001590421758
0.0008540559048
0.0007178874526
0.0006831030836
0.0009438900028
0.001245618752
0.0006106304726
0.0006045582434
0.0004340066019
0.0005098467671
0.0004021766497
0.001497207046
1.680692823e-05
1.953606005e-05
2.289865432e-05
3.653312563e-05
6.483940543e-05
0.0001183740638
0.0001910371001
0.0002172320122
0.0001656574358
0.0001037115189
6.712970522e-05
4.792635619e-05
4.470574676e-05
6.462862125e-05
0.000128836047
0.0002106543329
0.0001458969167
2.972971304e-05
1.428264656e-06
5.400482747e-05
0.0002861298848
0.0009303416689
0.002468455517
0.001632451602
0.0006399818003
0.0006522562164
0.0008890009089
0.0008479332909
0.0006452203559
0.0008096485571
0.0005012263076
0.0004979334537
0.0005055451147
0.001699400458
1.668272519e-05
1.758573534e-05
1.967194613e-05
3.298221077e-05
6.579801012e-05
0.0001319648347
0.0002110284094
0.0002349736331
0.0001708848369
0.0001034940482
8.679775703e-05
7.300377408e-05
6.802919156e-05
7.962878551e-05
0.0001076463015
9.327293121e-05
2.929891369e-05
3.509369028e-06
5.555740995e-08
1.598839779e-06
6.185164727e-06
2.540246803e-05
0.0004673655135
0.001560459927
0.001026156063
0.0008908853341
0.001011065362
0.0008738418876
0.000599337731
0.0008367319062
0.0004297258053
0.000616041497
0.001941124828
1.88586974e-05
1.935842928e-05
2.487368341e-05
5.226039981e-05
0.0001097359816
0.0001815419494
0.0002398201223
0.0002639358644
0.000226451902
0.0001580599204
0.0001682906059
0.0001553010265
0.0001327863751
0.0001077427503
7.195885853e-05
2.375532949e-05
4.384417707e-06
1.505376179e-06
1.809809096e-08
6.208277446e-07
3.533722136e-06
9.794558321e-06
5.618855575e-05
0.0002317032156
0.0008642342774
0.00144639583
0.000963319332
0.0007361687039
0.0006292439382
0.0008503148435
0.0007960008431
0.002382424177
4.618469424e-05
3.607321655e-05
3.400132071e-05
5.338336781e-05
8.469555626e-05
0.0001126078782
0.0001409752125
0.0001801547124
0.0002272448476
0.0002520311952
0.000261908595
0.0002249437226
0.000160614999
9.08645725e-05
3.773343188e-05
1.024548079e-05
2.526559595e-06
8.7931935e-07
6.601376865e-08
2.009149223e-07
3.829334988e-05
0.0001744659939
0.0003622176086
0.00128405399
0.001386396532
0.0006237123805
0.0004030494862
0.0004660627648
0.0009295770666
0.001504688711
0.002257245421
0.003418447789
0.000482560302
0.0003594203648
0.0001761882443
0.000107012232
7.89184339e-05
8.129039442e-05
9.590478622e-05
0.000132692391
0.0001970271019
0.0002498290835
0.0002448245321
0.0001959137983
0.0001256686022
6.292281491e-05
2.518524634e-05
8.566833794e-06
2.938763532e-06
1.012365815e-06
1.401085161e-07
9.893076783e-08
0.00024647828
0.0007079909216
0.00123037428
0.001265477362
0.001291495506
0.0008901121077
0.0004192203103
0.0006438853899
0.001503851753
0.002060914472
0.001891064443
0.002930047066
0.0002967367218
0.0003482180637
0.0003445579585
0.0002736746375
0.0001609264083
9.599567055e-05
7.175538799e-05
6.37802698e-05
6.83554761e-05
0.0001120992848
0.0002944654527
0.0003383151389
0.0001013704476
5.278245942e-05
2.674172425e-05
1.165155998e-05
4.609357363e-06
2.02337852e-06
6.556919754e-07
1.357006938e-06
0.000851896216
0.00143881916
0.001560297431
0.001376856715
0.0009710747406
0.0006021754259
0.0004774640928
0.0006947248866
0.000870070526
0.0004231753756
0.002651572686
0.0001217781549
0.000116571483
0.0001760516085
0.000306685184
0.0003096086808
0.0002206567836
0.0001410970819
9.321370967e-05
6.235969492e-05
8.781704877e-05
0.0002872518368
0.0001710047403
3.220358326e-05
2.142575189e-05
3.077261286e-05
1.778303838e-05
1.071519738e-05
1.771407154e-05
8.504659483e-05
0.0005171539543
0.001330911236
0.001745014751
0.001949798818
0.001875281385
0.001631183677
0.001329580183
0.00075679169
0.0004714062435
0.0003434800739
0.0002787818195
0.002823372726
0.0001334875202
5.09032631e-05
6.032611218e-05
0.000188330825
0.0003704023052
0.0004531981414
0.0003806613737
0.0002644544429
0.0001936601638
0.0002350440125
0.0002836485482
0.0001177870412
2.988655562e-05
8.382308068e-06
2.152210129e-05
2.456069543e-05
1.757341686e-05
2.996549038e-05
0.0001235751726
0.0005644232836
0.001517315793
0.001756381456
0.002085395634
0.002161109772
0.00187739881
0.001829670187
0.001598855643
0.0007288516878
0.0004708331433
0.0003905434216
0.002998751219
0.0001939947676
2.039229593e-05
1.682925304e-05
5.852004176e-05
0.0002003413724
0.0004381973156
0.0006135002495
0.0006013087267
0.0004937240831
0.0004484637973
0.000367897202
0.000184993724
5.790739472e-06
2.733472295e-06
6.229364259e-06
6.391182081e-05
2.08008253e-05
2.247130249e-05
4.059890602e-05
0.0001918728905
0.001619760664
0.001410074189
0.001795392234
0.001878581924
0.00182245822
0.001250539489
0.002149216685
0.001072700849
0.0005373923345
0.0006362787125
0.003187573195
0.0002465487973
6.053200063e-06
4.828997478e-06
1.376115682e-05
5.252392342e-05
0.0001933495868
0.0004507632614
0.0006539476424
0.000629041188
0.000414802775
0.0002082633786
5.064495408e-06
4.781015729e-06
7.912103687e-06
1.77745968e-06
0.0002189403565
2.309256724e-05
1.835017225e-05
1.568850274e-05
4.831839559e-06
0.0004698391283
0.0006895710994
0.001241211548
0.001559478332
0.001448448837
0.001321348958
0.001834169809
0.0007324028948
0.0001739155759
6.125418805e-05
0.003390270259
0.0002695605502
1.825597455e-06
1.400234559e-06
4.414695697e-06
1.509706424e-05
5.388090857e-05
0.0001718175355
0.0003684373895
0.0004863920884
0.0003348292388
9.635605312e-05
1.571389653e-06
7.561169325e-06
5.163334504e-05
2.460099448e-06
0.0001367275766
2.782177709e-05
1.75819666e-05
1.06133516e-05
1.709613784e-06
1.772876824e-05
5.891987746e-05
0.0006734066834
0.001500609656
0.001324904707
0.0008555838589
0.0007420038311
0.000302807151
6.042301255e-05
2.272356112e-05
0.003623871383
0.000262653933
2.811227201e-06
7.787879488e-07
2.012072866e-06
5.339254175e-06
1.422162076e-05
4.002147229e-05
0.0001124894172
0.0002500810454
9.94519227e-05
3.823791067e-05
7.676794675e-06
1.481515635e-05
3.046954994e-05
1.882213412e-05
7.397538755e-05
4.132020506e-05
1.998399132e-05
9.29223643e-06
1.217520117e-06
7.491997862e-06
2.62840012e-05
0.0002750999784
0.001587383255
0.001136005454
0.0003244462165
0.0001182666201
0.0001959631049
0.0002446582629
0.0001889783053
0.003882660691
0.0002350675327
4.421349363e-06
4.860396127e-07
8.265617724e-07
1.78789499e-06
3.949659425e-06
8.920230938e-06
3.385129211e-05
0.000135901176
1.333888095e-05
1.528573911e-05
1.325788337e-05
2.156962724e-05
3.290640242e-05
2.890630428e-05
4.340379439e-05
6.90224448e-05
3.018434691e-05
9.528764711e-06
1.586121486e-06
6.281534708e-06
1.920393136e-05
0.0001364987808
0.000994813171
0.001286452662
0.0006127563643
0.0003628463615
0.000192740768
0.0002748229383
0.0001650988499
0.004145426279
0.0002054862264
6.981899241e-06
6.221395381e-07
6.06866428e-07
9.067152013e-07
2.556112334e-06
1.550389135e-05
8.561153892e-05
8.472159628e-05
3.120402843e-06
1.390226714e-05
1.932401522e-05
2.817596901e-05
3.744191607e-05
3.711365412e-05
5.006894048e-05
0.0001073552256
6.600978959e-05
1.349950438e-05
6.015561843e-06
1.805945185e-05
5.207840649e-05
4.322962491e-05
0.0001013968475
0.0007178889012
0.001147241117
0.001382878843
0.0003277983595
0.0003251984427
0.0004025517015
0.004390042233
0.0001877958709
1.081734433e-05
1.210293843e-06
1.230245486e-06
2.540664542e-06
1.284163713e-05
6.480720958e-05
0.0001050566992
7.14127825e-05
9.325274443e-06
2.0885147e-05
2.66952242e-05
3.685789691e-05
5.425087334e-05
0.0001512908022
0.0001998041886
0.0001767877541
0.0001500191642
4.255326274e-05
3.56619856e-05
5.644805575e-05
5.013367173e-05
9.203033903e-06
3.826970761e-06
3.913496946e-05
0.0002169193314
0.0008171685079
0.001118880741
0.0008777805336
0.0004838005943
0.004594112781
0.0001786464032
1.621507722e-05
2.405564385e-06
3.024741045e-06
7.701230283e-06
3.10676065e-05
7.139327374e-05
8.368259708e-05
5.723878766e-05
1.45572392e-05
3.061379116e-05
4.743384248e-05
0.0001391331315
0.0001677898202
0.0003319355146
0.0003039311191
0.0002688188865
0.0002903873175
0.0001433128351
4.764079962e-05
6.622876288e-05
1.61077706e-05
3.025038019e-06
1.534793615e-06
8.932581774e-06
0.0002977290993
0.000991016923
0.0009702397126
0.0006260877861
0.0002862139616
0.004729132288
0.0001691363955
2.424246232e-05
4.815367602e-06
6.41313603e-06
1.333819682e-05
3.094666586e-05
4.770167308e-05
5.401591542e-05
3.995172412e-05
1.955043482e-05
6.644239273e-05
0.00035595945
0.0005365648543
0.000231458034
0.0003033360367
0.000271958802
0.0002822164665
0.0003641001741
0.0002581494064
3.457631147e-05
3.267133378e-05
5.56794895e-06
1.44182007e-06
8.143500279e-07
4.504942233e-06
0.0002442411622
0.002104458402
0.001209726334
0.0001968079971
0.000108400543
0.004805220266
0.0001502206376
7.875228187e-05
6.266977441e-05
7.657832559e-05
9.2508889e-05
0.0001058297336
0.0001118480635
0.0001064523819
7.186133852e-05
5.145483638e-05
0.0001843970462
0.0007124060521
0.0002336806979
0.0001558825328
0.0001645889165
0.0001551192936
0.0001732800798
0.0002393162655
0.0001984521203
1.68891811e-05
1.089405541e-05
2.338389515e-06
8.274625016e-07
5.12442101e-07
1.996634744e-06
0.0003773497668
0.001618951829
0.0008273047973
0.0001495893375
0.0001481236415
0.004768362897
0.0001486059763
0.0001454703304
0.0001149517217
0.0001254703029
0.0001240544259
0.0001418442391
0.0001579645051
0.0001591873661
0.0001139037182
8.507573916e-05
0.0003245205652
0.000178786844
6.131934356e-05
6.139106161e-05
6.445425137e-05
6.572923571e-05
7.417146805e-05
9.277058575e-05
7.768548521e-05
7.393779915e-06
3.96077066e-06
1.149403498e-06
5.409474334e-07
3.567178096e-07
1.278418201e-06
5.006860498e-05
0.0003307576723
0.0001940055989
0.000170251497
0.0001506729558
0.005252055278
0.0002187215664
0.0003488578082
0.000679308806
0.0008148258307
0.0002131734234
0.0001670790148
0.0002020279817
0.0002432512289
0.0002520743012
0.0002139894132
0.0001916829751
8.202916154e-05
4.997975981e-05
4.320386358e-05
6.866634084e-05
0.0001085288659
7.126730997e-05
3.32367206e-05
2.180221822e-05
3.489545121e-06
1.795487492e-06
6.754605671e-07
3.994040331e-07
2.839159545e-07
9.664573371e-07
6.290453941e-05
0.0002169407426
0.0001616392193
0.0001654341844
0.0001312282797
0.007099170269
0.001906885918
0.00363080573
0.00364218154
0.004547712242
0.002790838659
0.0003133824427
0.0002640844468
0.0003212627998
0.0003354712172
0.0002488704169
0.0001800927918
0.0001230608896
7.607761797e-05
4.202429498e-05
7.801516781e-05
0.0001234608102
3.773706597e-05
1.190173559e-05
6.8428602e-06
1.778581075e-06
9.831732326e-07
4.993596322e-07
3.850236559e-07
2.960879405e-07
8.97648588e-07
6.793186045e-05
0.0001860553236
0.0001439002433
0.000138382647
0.0001096532168
0.006721153523
0.0006380926783
0.002274800043
0.002363862277
0.004371209354
0.005057191499
0.004309663606
0.0004806318323
0.0004027145956
0.000377775188
0.0002546249686
0.0001803262012
0.0001349937778
8.684196262e-05
3.593747711e-05
6.468080711e-05
6.509468761e-05
1.289060209e-05
4.941152219e-06
2.937065438e-06
1.066793119e-06
7.234551117e-07
5.843000235e-07
6.730732177e-07
1.186224206e-06
4.460499058e-06
3.341724358e-05
9.028223463e-05
9.123457632e-05
9.627330029e-05
8.643881529e-05
0.00614305468
0.0002121856827
0.001781578183
0.002403131647
0.003566232837
0.004095776988
0.004479888696
0.005137896511
0.0005674947121
0.0003505963857
0.0002198383017
0.0001710995678
0.0001331239858
8.800778914e-05
2.428087016e-05
3.172376254e-05
1.882084205e-05
4.834042981e-06
2.518314245e-06
1.616729039e-06
8.379058636e-07
7.795035328e-07
1.125846044e-06
2.769813258e-06
9.360065298e-06
4.210423517e-05
0.0003271639173
0.0001204003803
6.582704189e-05
7.93083618e-05
0.0001055837661
0.006318469962
0.0002616510003
0.001853798959
0.003303233432
0.003692959554
0.004133453012
0.003630614172
0.004127220697
0.004269104147
0.0002968004166
0.0001668146824
0.0001529019289
0.0001256156281
8.185089788e-05
1.228228934e-05
1.038974798e-05
5.593912897e-06
2.403966842e-06
1.614313703e-06
1.201514431e-06
9.155306427e-07
1.070243577e-06
8.218083119e-06
2.858028163e-06
8.809817301e-06
3.452669485e-05
0.0002479921433
6.516315366e-05
3.817302507e-05
7.115397606e-05
0.0002148269541
0.00691979191
0.0005064701588
0.003157164357
0.004298114365
0.004182556128
0.003429215243
0.003581188921
0.003250882708
0.004773596273
0.0008009786898
0.0001380854652
0.0001286235221
0.000113886052
7.268036662e-05
6.335107295e-06
4.396797826e-06
2.763295676e-06
1.850090679e-06
1.624061147e-06
4.517983678e-06
5.191575055e-05
0.0004193644913
0.00433904926
0.0002754484058
3.082370026e-05
2.214810775e-05
0.0001135876548
3.019536583e-05
2.726715412e-05
0.0003722734224
0.0006843249369
0.007731704643
0.00175957337
0.004521316609
0.004879610049
0.004262142477
0.003164808691
0.002641151069
0.002612183718
0.003632886716
0.001541047297
0.0001074682443
0.0001002250307
9.809742987e-05
6.335031932e-05
4.617689012e-06
3.275756614e-06
2.639629031e-06
2.637107486e-06
3.343529118e-06
4.893414782e-06
8.459532023e-06
3.686120362e-05
0.0005715945265
2.545260637e-05
2.490997604e-05
4.202017693e-05
8.295520883e-05
4.083078634e-05
6.732830916e-05
0.0007246456144
0.0003442506438
0.008726937318
0.003668966306
0.005633201821
0.005036280306
0.003991925983
0.002549401455
0.00190460299
0.001253920237
0.002597406315
0.001026556993
7.586957784e-05
6.920715101e-05
7.80865539e-05
5.366843401e-05
4.691325518e-06
4.045233891e-06
4.489403885e-06
6.56355533e-06
1.170603968e-05
2.239855525e-05
4.20770615e-05
7.398371534e-05
0.0001796657812
0.0002468456323
0.0005545505697
0.001083716751
0.001074131173
0.0001860011357
0.0001147211659
3.33031375e-05
4.809886514e-05
0.01001106391
0.005237101402
0.006038237348
0.004625509711
0.002591696649
0.00143119193
0.001163369933
0.001164239605
0.003949386468
0.00110639556
9.958090721e-05
6.239229393e-05
6.944828953e-05
5.34232083e-05
1.348735647e-05
1.416098195e-05
1.915335166e-05
3.328193819e-05
6.963004571e-05
0.0001526705815
0.0002979157535
0.0004560456522
0.0005943153456
0.0006656007527
0.0007188535285
0.0006522194677
0.0004996017637
0.0003673562554
0.0001723733326
3.241884002e-05
1.685283031e-05
0.01079530355
0.007691040279
0.005914341791
0.002022453537
0.0009046021987
0.0005415930451
0.0004434377476
0.0003796168875
0.0006248142543
0.0004503357253
9.491145494e-05
5.578610623e-05
5.628092393e-05
5.307550414e-05
4.253618587e-05
5.293333324e-05
7.95374134e-05
0.0001499832391
0.0003040007764
0.0005614101264
0.0009518777134
0.001345240294
0.001417694456
0.0009167537454
0.0003210133309
6.563917865e-05
0.0001479252747
0.0003729282239
0.0001530811353
2.016088073e-05
8.4525483e-06
0.009722171784
0.01039267459
0.009355478258
0.006813818732
0.006195723508
0.005948589144
0.006055392426
0.006174531506
0.006069838441
0.004612044555
0.003253489019
0.002767201554
0.002594069803
0.002543980423
0.002584855105
0.002735491463
0.003010063163
0.003423207073
0.003952584028
0.004566006173
0.00521349465
0.005833834602
0.006331016771
0.006304685012
0.005223783953
0.00364904698
0.003066909896
0.003758197933
0.004937029139
0.003649728489
0.002730082901
)
;

boundaryField
{
    walls
    {
        type            zeroGradient;
    }
    wallFilmFace_top
    {
        type            zeroGradient;
    }
    region0_to_wallFilmRegion_wallFilmFace
    {
        type            zeroGradient;
    }
    mirrorFace_top
    {
        type            zeroGradient;
    }
    region0_to_wallFilmRegion_mirrorFace
    {
        type            zeroGradient;
    }
    procBoundary1to0
    {
        type            processor;
        value           nonuniform List<scalar> 
52
(
0.005158597914
0.0001978852759
4.090208444e-05
1.808580101e-05
1.785758783e-05
1.879993934e-05
2.044675341e-05
1.897994745e-05
1.897994745e-05
1.876830533e-05
1.890408883e-05
1.893014204e-05
9.589524307e-06
9.589524307e-06
6.985151544e-06
3.26762834e-06
3.26762834e-06
2.607302665e-06
2.47579732e-06
2.468458243e-06
9.465209297e-07
9.465209297e-07
2.100223648e-06
7.086774019e-07
7.086774019e-07
1.727747208e-06
0.000176640865
0.0008137466408
0.001029945866
0.001029945866
0.00161946027
0.0006744366328
0.0006744366328
4.071673689e-05
3.54564334e-05
3.54564334e-05
8.772951669e-05
0.000130509607
0.0004250526802
0.0004250526802
0.0007286957464
0.0007286957464
0.0002748366761
0.0005045967226
0.0006057175041
0.0006057175041
0.0003431812573
0.0001198353259
0.0003084507987
0.0006230498287
0.0006808215464
0.000370059474
)
;
    }
    procBoundary1to2
    {
        type            processor;
        value           nonuniform List<scalar> 
33
(
0.0005276270598
0.0009916894803
0.0009916894803
0.001292550783
0.001292550783
0.003211080118
0.00171306686
0.0002423489638
0.0002423489638
0.0002427714923
0.0002912584316
0.0001296885409
2.28650744e-05
6.712247428e-06
0.0001005802438
7.413684512e-05
0.0004581141867
0.0001414975331
0.0001990063451
0.000270851128
0.0001892273075
0.000110587635
7.322329105e-05
6.181765084e-05
6.126414309e-05
0.0001010040632
0.0005632317788
0.0007050749239
3.494206841e-07
8.066454293e-08
6.40828664e-07
1.914566128e-06
0.001553223979
)
;
    }
}


// ************************************************************************* //
