/*--------------------------------*- C++ -*----------------------------------*\
  =========                 |
  \\      /  F ield         | OpenFOAM: The Open Source CFD Toolbox
   \\    /   O peration     | Website:  https://openfoam.org
    \\  /    A nd           | Version:  8
     \\/     M anipulation  |
\*---------------------------------------------------------------------------*/
FoamFile
{
    version     2.0;
    format      ascii;
    class       volScalarField;
    location    "1.3/wallFilmRegion";
    object      mu;
}
// * * * * * * * * * * * * * * * * * * * * * * * * * * * * * * * * * * * * * //

dimensions      [1 -1 -1 0 0 0 0];

internalField   nonuniform List<scalar> 
1369
(
0.0008861473757
0.0008861473676
0.0008861473409
0.000886147323
0.0008861473211
0.0008861473206
0.0008861473197
0.0008861473763
0.0008861473641
0.0008861473399
0.0008861473285
0.0008861473267
0.0008861473239
0.0008861473183
0.0008861473093
0.0008861472974
0.000886147284
0.0008861472679
0.000886147377
0.0008861473636
0.0008861473464
0.0008861473385
0.0008861473348
0.0008861473283
0.0008861473167
0.0008861472984
0.0008861472731
0.0008861472437
0.0008861472115
0.0008861471698
0.0008861471046
0.0008861473781
0.0008861473697
0.0008861473586
0.0008861473512
0.0008861473441
0.0008861473325
0.0008861473132
0.0008861472828
0.0008861472415
0.0008861471958
0.0008861471524
0.0008861471115
0.0008861470771
0.0008861470713
0.0008861471095
0.0008861471512
0.0008861471107
0.0008861473802
0.0008861473792
0.0008861473717
0.0008861473637
0.0008861473534
0.000886147336
0.0008861473067
0.0008861472613
0.0008861472043
0.0008861471507
0.0008861471125
0.0008861470949
0.0008861471074
0.000886147158
0.0008861472307
0.0008861472924
0.0008861473193
0.000886147174
0.0008861473708
0.0008861473832
0.0008861473854
0.00088614738
0.000886147372
0.000886147359
0.0008861473355
0.000886147294
0.0008861472322
0.000886147166
0.0008861471192
0.0008861471019
0.0008861471173
0.0008861471667
0.00088614724
0.0008861473133
0.000886147367
0.0008861473968
0.0008861474012
0.0008861474582
0.000886146973
0.000886147138
0.0008861474623
0.0008861474828
0.000886147386
0.0008861473867
0.0008861473806
0.0008861473708
0.0008861473528
0.0008861473185
0.0008861472602
0.0008861471864
0.0008861471262
0.0008861470994
0.0008861471089
0.000886147153
0.0008861472234
0.0008861473015
0.0008861473671
0.0008861474105
0.000886147434
0.0008861474519
0.0008861474835
0.000886146856
0.0008861473165
0.000886147464
0.0008861475019
0.0008861475417
0.0008861475169
0.0008861473881
0.0008861473841
0.0008861473691
0.0008861473428
0.0008861473023
0.0008861472408
0.0008861471679
0.0008861471062
0.000886147073
0.0008861470743
0.0008861471111
0.0008861471786
0.000886147262
0.0008861473409
0.0008861473996
0.0008861474335
0.0008861474479
0.0008861474586
0.0008861474881
0.0008861471247
0.000886147464
0.0008861474668
0.0008861475223
0.0008861475514
0.0008861475293
0.0008861475125
0.0008861473903
0.0008861473847
0.000886147363
0.000886147314
0.0008861472374
0.0008861471268
0.0008861470327
0.0008861469849
0.0008861469778
0.0008861470091
0.0008861470776
0.0008861471728
0.0008861472741
0.0008861473602
0.0008861474169
0.0008861474429
0.0008861474505
0.0008861474581
0.0008861474848
0.0008861474256
0.0008861474607
0.0008861474099
0.0008861474641
0.0008861475415
0.0008861475265
0.0008861475119
0.0008861473923
0.0008861473882
0.0008861473694
0.0008861473276
0.0008861472505
0.0008861470651
0.000886146827
0.0008861467053
0.0008861466962
0.0008861467671
0.0008861469024
0.0008861470705
0.0008861472269
0.00088614735
0.0008861474197
0.0008861474421
0.0008861474447
0.0008861474461
0.0008861474512
0.0008861474558
0.0008861474582
0.0008861474524
0.0008861474359
0.0008861475219
0.000886147524
0.0008861475156
0.0008861475063
0.0008861473935
0.0008861473913
0.0008861473746
0.0008861473479
0.0008861472892
0.0008861470188
0.0008861458591
0.0008861431797
0.0008861399636
0.0008861357438
0.000886128505
0.0008861157548
0.000886125424
0.0008861377977
0.0008861471048
0.0008861474343
0.0008861474346
0.0008861474283
0.0008861474331
0.0008861474458
0.0008861474774
0.0008861474437
0.0008861474277
0.0008861474806
0.0008861474926
0.0008861475149
0.0008861475022
0.0008861473937
0.0008861473923
0.0008861473782
0.0008861473796
0.000886147382
0.00088614738
0.0008861473725
0.0008861473557
0.0008861473448
0.000886147353
0.0008861473627
0.000886147363
0.0008861473562
0.0008861474037
0.0008861474253
0.000886147426
0.0008861474066
0.0008861473814
0.0008861473856
0.000886147419
0.0008861474395
0.0008861474308
0.0008861474201
0.0008861474121
0.0008861474295
0.0008861474811
0.0008861475215
0.0008861473923
0.0008861473874
0.0008861473735
0.0008861473869
0.0008861473922
0.0008861473943
0.0008861473942
0.0008861473913
0.0008861473852
0.0008861473832
0.0008861473882
0.0008861473948
0.0008861474068
0.0008861474169
0.0008861474193
0.0008861474125
0.0008861473446
0.0008861470987
0.0008861463199
0.0008861433377
0.0008861473569
0.0008861473916
0.0008861473946
0.0008861473939
0.0008861474016
0.0008861474507
0.0008861474955
0.0008861475269
0.000886147384
0.0008861473621
0.0008861473227
0.0008861473712
0.0008861473865
0.0008861473927
0.0008861473954
0.0008861473968
0.0008861473986
0.0008861474014
0.0008861474046
0.0008861474075
0.0008861474097
0.0008861474102
0.0008861474027
0.0008861472547
0.0008861460766
0.0008861419435
0.0008861307023
0.00088610342
0.0008861470469
0.0008861472798
0.0008861473531
0.0008861473922
0.0008861474063
0.0008861474556
0.0008861475091
0.0008861475293
0.0008861475194
0.0008861473814
0.0008861473405
0.0008861473223
0.0008861473538
0.000886147377
0.0008861473897
0.0008861473961
0.0008861473997
0.0008861474026
0.0008861474054
0.0008861474074
0.0008861474075
0.0008861474058
0.0008861474001
0.0008861473759
0.0008861472035
0.0008861469218
0.0008861468367
0.0008861470757
0.000886147325
0.0008861471949
0.0008861473504
0.000886147387
0.0008861474151
0.0008861474791
0.0008861474722
0.0008861475188
0.0008861475227
0.000886147522
0.0008861473808
0.0008861473297
0.0008861473391
0.00088614736
0.0008861473776
0.00088614739
0.0008861473973
0.0008861474013
0.000886147404
0.0008861474062
0.000886147407
0.000886147405
0.0008861473995
0.0008861473859
0.0008861473496
0.0008861473068
0.0008861473546
0.000886147404
0.0008861474149
0.0008861474119
0.0008861472798
0.0008861474064
0.0008861474398
0.0008861474754
0.0008861474999
0.0008861474653
0.0008861475153
0.0008861475174
0.0008861475107
0.0008861473808
0.0008861473361
0.0008861473479
0.000886147365
0.0008861473797
0.0008861473905
0.0008861473973
0.0008861474014
0.000886147404
0.0008861474059
0.0008861474059
0.0008861474028
0.000886147396
0.000886147386
0.0008861473838
0.0008861474
0.0008861474151
0.0008861474214
0.0008861474216
0.0008861474163
0.0008861474339
0.0008861474628
0.00088614748
0.0008861474948
0.0008861475112
0.000886147514
0.0008861475285
0.000886147523
0.0008861475288
0.0008861475306
0.0008861475392
0.0008861475393
0.0008861475463
0.0008861475445
0.0008861473814
0.000886147335
0.0008861473462
0.0008861473625
0.0008861473771
0.0008861473881
0.0008861473955
0.0008861474
0.0008861474029
0.0008861474048
0.0008861474051
0.000886147403
0.0008861473999
0.0008861474012
0.0008861474103
0.0008861474195
0.0008861474244
0.0008861474262
0.000886147424
0.0008861474081
0.0008861474221
0.0008861474633
0.0008861474729
0.0008861474853
0.0008861475197
0.0008861474983
0.0008861475296
0.0008861475278
0.0008861475333
0.0008861475301
0.0008861475395
0.000886147541
0.0008861475453
0.0008861475434
0.0008861473805
0.0008861473277
0.0008861473365
0.0008861473529
0.0008861473692
0.0008861473822
0.0008861473912
0.0008861473968
0.0008861474003
0.0008861474028
0.000886147404
0.0008861474037
0.0008861474035
0.0008861474071
0.0008861474153
0.0008861474227
0.0008861474271
0.0008861474292
0.0008861474206
0.0008861472038
0.0008861474189
0.0008861474355
0.0008861474216
0.0008861474342
0.000886147505
0.000886147524
0.0008861475273
0.0008861475291
0.0008861475312
0.0008861475316
0.0008861475391
0.0008861475373
0.0008861475431
0.0008861475375
0.0008861473804
0.0008861473168
0.0008861473211
0.000886147338
0.0008861473577
0.0008861473741
0.000886147386
0.0008861473932
0.0008861473969
0.0008861473994
0.0008861474026
0.0008861474044
0.000886147406
0.0008861474094
0.0008861474152
0.0008861474212
0.0008861474267
0.0008861474327
0.0008861473838
0.0008861439989
0.0008861471552
0.0008861472891
0.0008861473387
0.0008861474
0.0008861474381
0.0008861474782
0.0008861475199
0.0008861475258
0.0008861475257
0.0008861475302
0.0008861475375
0.0008861475377
0.0008861475385
0.0008861473815
0.0008861473074
0.0008861473089
0.0008861473361
0.0008861473654
0.000886147385
0.0008861473961
0.0008861474018
0.0008861474045
0.0008861474053
0.0008861474069
0.0008861474096
0.0008861474119
0.0008861474147
0.000886147419
0.0008861474254
0.000886147437
0.0008861474323
0.0008861473228
0.0008861381307
0.0008861467464
0.0008861472435
0.0008861473148
0.0008861473735
0.0008861473984
0.000886147424
0.0008861474717
0.0008861475078
0.0008861475131
0.0008861475217
0.0008861475263
0.000886147516
0.000886147381
0.0008861473148
0.0008861473068
0.0008861473316
0.0008861473674
0.0008861473893
0.0008861474001
0.0008861474047
0.0008861474071
0.0008861474087
0.00088614741
0.0008861474116
0.0008861474128
0.000886147414
0.0008861474156
0.0008861474161
0.0008861474024
0.0008861473197
0.0008861470942
0.0008861438226
0.0008861441888
0.0008861474588
0.0008861474115
0.0008861474252
0.0008861473836
0.0008861474336
0.0008861474567
0.0008861474933
0.0008861474996
0.0008861474996
0.0008861474831
0.0008861474661
0.0008861473769
0.0008861473578
0.0008861473614
0.0008861473641
0.0008861473727
0.0008861473914
0.0008861474017
0.0008861474047
0.0008861474057
0.0008861474065
0.0008861474074
0.0008861474076
0.0008861474068
0.000886147405
0.000886147402
0.0008861473946
0.0008861473695
0.000886147291
0.0008861470621
0.0008861453187
0.0008861429483
0.0008861474916
0.0008861474406
0.0008861474433
0.0008861474165
0.0008861473988
0.0008861473858
0.0008861474021
0.0008861474663
0.0008861474647
0.0008861474534
0.0008861474525
0.0008861473804
0.0008861473646
0.0008861473798
0.0008861473918
0.0008861473974
0.0008861474032
0.0008861474058
0.0008861474058
0.0008861474051
0.0008861474048
0.000886147406
0.0008861474075
0.0008861473973
0.0008861473782
0.0008861473704
0.0008861473697
0.0008861473572
0.0008861473
0.0008861471429
0.0008861466319
0.0008861466127
0.0008861474472
0.0008861474464
0.0008861474397
0.0008861474273
0.0008861474192
0.0008861474167
0.0008861474201
0.000886147444
0.0008861474552
0.0008861474798
0.0008861473838
0.0008861473505
0.0008861473633
0.0008861473882
0.0008861473952
0.0008861474006
0.000886147405
0.0008861474073
0.0008861474077
0.0008861474074
0.0008861474119
0.0008861474114
0.0008861473916
0.0008861473451
0.0008861473238
0.0008861473498
0.0008861473604
0.0008861473593
0.0008861473943
0.000886147438
0.0008861474581
0.000886147463
0.000886147461
0.0008861474555
0.0008861474461
0.0008861474438
0.0008861474474
0.0008861474343
0.0008861474327
0.0008861474429
0.0008861474535
0.0008861473849
0.0008861473479
0.0008861473312
0.0008861473751
0.0008861473916
0.0008861473992
0.0008861474042
0.0008861474084
0.0008861474116
0.0008861474149
0.0008861474206
0.0008861474167
0.0008861474038
0.0008861473866
0.000886147338
0.0008861473433
0.0008861473645
0.0008861473853
0.0008861474252
0.0008861474593
0.0008861474718
0.000886147475
0.0008861474765
0.0008861474764
0.0008861474725
0.0008861474645
0.0008861474867
0.0008861474938
0.000886147456
0.0008861474569
0.0008861474662
0.0008861473853
0.0008861473537
0.0008861472708
0.0008861473425
0.0008861473814
0.000886147397
0.000886147404
0.0008861474089
0.0008861474129
0.0008861474167
0.0008861474213
0.000886147421
0.000886147419
0.0008861474419
0.0008861474527
0.0008861472295
0.0008861473666
0.0008861473879
0.0008861474177
0.0008861474488
0.0008861474707
0.0008861474763
0.0008861474808
0.0008861474831
0.0008861474982
0.0008861475373
0.000886147534
0.0008861475581
0.0008861474787
0.0008861474703
0.0008861475559
0.0008861473851
0.0008861473598
0.0008861471451
0.0008861472795
0.0008861473591
0.0008861473921
0.0008861474034
0.0008861474089
0.000886147413
0.0008861474165
0.00088614742
0.0008861474209
0.0008861474294
0.0008861474792
0.000886147502
0.0008861470067
0.0008861474516
0.0008861473869
0.000886147408
0.000886147429
0.0008861474018
0.0008861474683
0.0008861475066
0.0008861474926
0.0008861475217
0.0008861475189
0.0008861475348
0.0008861475898
0.00088614752
0.000886147501
0.0008861474908
0.0008861473845
0.0008861473617
0.000886146733
0.0008861470814
0.0008861473048
0.0008861473752
0.0008861473983
0.0008861474072
0.0008861474119
0.0008861474153
0.0008861474198
0.0008861474169
0.0008861472642
0.0008861473341
0.0008861475146
0.0008861473503
0.0008861474549
0.0008861473858
0.0008861474015
0.0008861474145
0.0008861472841
0.000886147419
0.0008861474583
0.0008861474642
0.0008861475166
0.0008861475436
0.0008861474992
0.000886147519
0.0008861475628
0.0008861475469
0.0008861475087
0.0008861473838
0.0008861473616
0.0008861467511
0.0008861465667
0.0008861471028
0.0008861473045
0.0008861473742
0.0008861473985
0.000886147407
0.0008861474111
0.0008861474403
0.0008861474059
0.0008861473556
0.0008861473502
0.000886147426
0.0008861474133
0.0008861474442
0.0008861473856
0.0008861473978
0.0008861474052
0.000886147132
0.000886147372
0.0008861474248
0.0008861474714
0.0008861474686
0.0008861474831
0.0008861475001
0.0008861475176
0.0008861475286
0.0008861475327
0.0008861475348
0.0008861473833
0.0008861473615
0.0008861468832
0.0008861457743
0.0008861465159
0.0008861470435
0.0008861472686
0.0008861473541
0.0008861473767
0.0008861474044
0.0008861474307
0.000886147383
0.0008861473607
0.0008861473572
0.0008861473906
0.0008861473957
0.0008861474278
0.0008861473926
0.0008861473975
0.0008861473999
0.0008861471283
0.0008861473426
0.0008861474187
0.0008861474926
0.0008861474707
0.0008861474661
0.0008861474921
0.0008861475236
0.000886147559
0.0008861475745
0.0008861475778
0.000886147383
0.000886147362
0.0008861470162
0.0008861459201
0.0008861459753
0.0008861465389
0.0008861471052
0.0008861473322
0.0008861473834
0.0008861473969
0.0008861472984
0.000886147357
0.0008861473579
0.0008861473588
0.0008861473757
0.000886147394
0.0008861474617
0.0008861474532
0.0008861474057
0.0008861473974
0.0008861473301
0.00088614744
0.000886147491
0.0008861474606
0.0008861474199
0.0008861474406
0.0008861474566
0.0008861474825
0.0008861476491
0.000886147679
0.0008861475821
0.0008861473829
0.0008861473634
0.0008861471187
0.00088614653
0.00088614657
0.0008861470044
0.0008861473016
0.0008861473757
0.0008861473957
0.000886147401
0.0008861473382
0.0008861473546
0.0008861473571
0.0008861473614
0.0008861473971
0.0008861475385
0.0008861475587
0.0008861475014
0.0008861474302
0.0008861474278
0.0008861474908
0.0008861475208
0.0008861474949
0.0008861473805
0.0008861472754
0.0008861474086
0.000886147415
0.0008861474386
0.0008861474534
0.0008861475443
0.0008861475833
0.0008861473829
0.0008861473652
0.0008861471915
0.0008861469066
0.0008861470025
0.0008861472292
0.0008861473484
0.0008861473886
0.0008861474012
0.0008861474025
0.0008861473513
0.0008861473601
0.0008861473748
0.0008861474595
0.0008861475416
0.0008861475835
0.0008861475689
0.0008861475207
0.0008861474661
0.0008861474642
0.0008861475193
0.0008861475227
0.0008861474347
0.0008861472534
0.0008861471128
0.0008861473075
0.000886147411
0.0008861474197
0.0008861474378
0.0008861475343
0.0008861475548
0.0008861473832
0.0008861473668
0.0008861472421
0.0008861471038
0.0008861471716
0.0008861472924
0.0008861473682
0.0008861473954
0.0008861474032
0.0008861474026
0.0008861473726
0.0008861474531
0.0008861475088
0.0008861475175
0.000886147584
0.0008861475909
0.0008861475688
0.0008861475311
0.0008861474965
0.0008861474908
0.0008861475141
0.0008861474877
0.0008861473197
0.0008861470679
0.0008861468947
0.0008861472195
0.0008861474081
0.0008861474227
0.0008861474169
0.0008861475295
0.0008861475165
0.0008861473837
0.000886147365
0.0008861473486
0.0008861473819
0.0008861473928
0.0008861474001
0.0008861474056
0.000886147408
0.0008861474085
0.0008861474082
0.0008861474048
0.0008861474274
0.000886147487
0.0008861474911
0.0008861475928
0.0008861475869
0.000886147565
0.0008861475359
0.0008861475122
0.0008861475034
0.0008861474654
0.0008861474171
0.0008861471356
0.0008861468119
0.0008861466413
0.0008861470184
0.000886147404
0.0008861474095
0.000886147411
0.0008861475489
0.0008861474973
0.0008861473844
0.0008861473652
0.0008861473584
0.0008861473869
0.000886147398
0.0008861474043
0.0008861474074
0.0008861474089
0.0008861474094
0.0008861474093
0.0008861474306
0.0008861474725
0.0008861474685
0.0008861474718
0.0008861475819
0.0008861475714
0.0008861475524
0.0008861475304
0.0008861475124
0.000886147499
0.0008861473699
0.0008861472827
0.0008861468542
0.000886146494
0.0008861463479
0.000886146852
0.0008861473724
0.0008861473964
0.0008861474444
0.0008861475
0.0008861474797
0.0008861473857
0.0008861473727
0.0008861473653
0.0008861473685
0.0008861473749
0.0008861474068
0.0008861474127
0.0008861474165
0.0008861474217
0.0008861474309
0.0008861474443
0.0008861474441
0.0008861474123
0.0008861474118
0.0008861474756
0.0008861474674
0.0008861474668
0.0008861474858
0.0008861474855
0.0008861474612
0.00088614721
0.0008861470361
0.0008861464443
0.0008861460988
0.0008861459489
0.0008861466534
0.0008861473651
0.0008861473928
0.0008861474329
0.0008861474555
0.0008861474498
0.0008861473829
0.0008861473678
0.0008861473649
0.0008861473669
0.000886147368
0.0008861473749
0.0008861474255
0.0008861474297
0.0008861474357
0.0008861474431
0.0008861474451
0.000886147429
0.0008861474129
0.0008861474098
0.0008861474347
0.0008861474355
0.0008861474417
0.000886147448
0.0008861474159
0.0008861473574
0.0008861469482
0.0008861466276
0.000886145904
0.0008861456333
0.0008861455092
0.000886146405
0.0008861473426
0.0008861473807
0.0008861474079
0.0008861474219
0.0008861474189
0.000886147382
0.0008861473592
0.0008861473562
0.0008861473605
0.0008861473603
0.0008861473662
0.0008861473791
0.0008861474564
0.0008861474561
0.0008861474601
0.0008861474534
0.0008861474274
0.0008861474137
0.00088614741
0.0008861474204
0.0008861474201
0.0008861474204
0.0008861473688
0.0008861472748
0.0008861471367
0.0008861464838
0.0008861459515
0.0008861454427
0.0008861458624
0.0008861466257
0.0008861471598
0.0008861473515
0.0008861473682
0.0008861473883
0.0008861473989
0.0008861473962
0.0008861473824
0.0008861473639
0.0008861473581
0.0008861473618
0.0008861473615
0.0008861473604
0.0008861473615
0.0008861473828
0.0008861474851
0.0008861474768
0.0008861474595
0.0008861474294
0.0008861474145
0.0008861474094
0.0008861473965
0.0008861473865
0.0008861473623
0.0008861472007
0.0008861470179
0.000886146744
0.0008861459163
0.0008861463128
0.0008861473682
0.0008861469954
0.0008861473185
0.0008861473989
0.0008861474219
0.0008861474049
0.000886147465
0.0008861474784
0.000886147426
0.0008861473814
0.0008861473714
0.0008861473632
0.0008861473634
0.0008861473625
0.0008861473614
0.0008861473601
0.0008861473607
0.0008861473847
0.0008861474916
0.0008861474613
0.0008861474317
0.0008861474151
0.0008861474067
0.0008861473279
0.0008861472941
0.0008861471967
0.0008861469107
0.0008861466266
0.0008861461947
0.0008861455022
0.0008861468685
0.0008861474071
0.0008861469266
0.0008861472976
0.0008861473941
0.00088614742
0.0008861474085
0.0008861475454
0.0008861476692
0.0008861474974
0.000886147379
0.0008861473734
0.0008861473667
0.0008861473646
0.0008861473632
0.0008861473619
0.0008861473607
0.0008861473594
0.0008861473682
0.0008861474107
0.0008861474641
0.0008861474331
0.0008861474153
0.0008861474035
0.0008861472127
0.0008861471096
0.0008861469239
0.0008861466428
0.0008861464143
0.0008861468389
0.0008861473754
0.0008861474046
0.0008861474101
0.0008861474063
0.0008861473961
0.0008861473605
0.0008861474126
0.0008861474176
0.0008861475584
0.0008861475774
0.0008861474565
0.0008861473764
0.0008861473704
0.0008861473661
0.0008861473643
0.0008861473631
0.0008861473617
0.0008861473605
0.0008861473593
0.0008861473592
0.0008861473797
0.0008861474662
0.0008861474321
0.000886147414
0.0008861473993
0.0008861471182
0.0008861469705
0.0008861468237
0.0008861467432
0.000886146772
0.0008861468676
0.000886147039
0.0008861473123
0.0008861474038
0.000886147302
0.0008861472871
0.000886147334
0.000886147378
0.0008861473958
0.0008861474452
0.0008861474397
0.0008861474335
0.0008861473746
0.0008861473671
0.0008861473649
0.000886147364
0.0008861473628
0.0008861473607
0.0008861473589
0.0008861473578
0.0008861473581
0.0008861473814
0.0008861474637
0.0008861474264
0.0008861474088
0.0008861473917
0.0008861471042
0.0008861470089
0.0008861469907
0.0008861470564
0.000886147153
0.0008861472349
0.0008861472909
0.0008861473272
0.0008861473675
0.0008861473696
0.0008861473791
0.0008861473836
0.0008861473861
0.0008861473873
0.0008861474018
0.0008861473947
0.0008861474114
0.000886147373
0.0008861473667
0.0008861473648
0.0008861473644
0.0008861473627
0.0008861473599
0.0008861473579
0.0008861473567
0.0008861473562
0.0008861473831
0.0008861474525
0.0008861474097
0.0008861473902
0.0008861473678
0.0008861472098
0.000886147194
0.0008861472247
0.0008861472754
0.0008861473177
0.0008861473449
0.0008861473599
0.0008861473679
0.000886147373
0.0008861473769
0.0008861473806
0.0008861473847
0.0008861473871
0.0008861473861
0.000886147386
0.0008861473432
0.0008861473318
0.0008861473705
0.0008861473662
0.0008861473654
0.0008861473661
0.000886147365
0.0008861473624
0.0008861473604
0.0008861473597
0.0008861473619
0.000886147415
0.0008861474228
0.0008861473856
0.0008861473642
0.0008861473438
0.0008861473176
0.000886147318
0.0008861473302
0.0008861473465
0.0008861473592
0.0008861473672
0.0008861473726
0.0008861473763
0.0008861473789
0.0008861473812
0.0008861473832
0.0008861473846
0.0008861473863
0.0008861473862
0.0008861473824
0.0008861473393
0.0008861472823
0.0008861473659
0.000886147365
0.0008861473666
0.000886147367
0.0008861473656
0.0008861473636
0.0008861473626
0.0008861473638
0.0008861473682
0.0008861473769
0.0008861473773
0.0008861473797
0.0008861473814
0.0008861473821
0.000886147382
0.0008861473814
0.0008861473807
0.0008861473801
0.00088614738
0.0008861473801
0.0008861473804
0.000886147381
0.0008861473819
0.0008861473836
0.0008861473866
0.0008861473909
0.000886147394
0.0008861473872
0.0008861473881
0.0008861473899
0.0008861473916
)
;

boundaryField
{
    walls
    {
        type            zeroGradient;
    }
    wallFilmFace_top
    {
        type            zeroGradient;
    }
    region0_to_wallFilmRegion_wallFilmFace
    {
        type            zeroGradient;
    }
    mirrorFace_top
    {
        type            zeroGradient;
    }
    region0_to_wallFilmRegion_mirrorFace
    {
        type            zeroGradient;
    }
    procBoundary1to0
    {
        type            processor;
        value           nonuniform List<scalar> 
52
(
0.0008861473751
0.0008861473709
0.0008861473476
0.0008861473233
0.0008861473199
0.0008861473205
0.0008861473232
0.000886147318
0.000886147318
0.000886147316
0.0008861473141
0.0008861473094
0.0008861472392
0.0008861472392
0.0008861471745
0.0008861470214
0.0008861470214
0.0008861469731
0.0008861469599
0.000886146922
0.0008861466533
0.0008861466533
0.000886147163
0.0008861467829
0.0008861467829
0.0008861470309
0.0008861474464
0.000886147457
0.0008861474999
0.0008861474999
0.0008861474833
0.0008861474803
0.0008861474803
0.0008861474961
0.0008861474934
0.0008861474934
0.0008861475037
0.00088614753
0.0008861475352
0.0008861475352
0.0008861475204
0.0008861475204
0.0008861475212
0.000886147527
0.0008861475042
0.0008861475042
0.0008861475397
0.0008861475283
0.0008861475437
0.0008861475356
0.0008861475272
0.0008861475352
)
;
    }
    procBoundary1to2
    {
        type            processor;
        value           nonuniform List<scalar> 
33
(
0.0008861475269
0.0008861475131
0.0008861475131
0.0008861475086
0.0008861475086
0.0008861474588
0.0008861474579
0.000886147523
0.000886147523
0.0008861474661
0.0008861474628
0.0008861474734
0.0008861474693
0.0008861474243
0.0008861475347
0.0008861475351
0.0008861474406
0.0008861475156
0.0008861475519
0.0008861475414
0.0008861475445
0.0008861475371
0.0008861474881
0.000886147431
0.0008861473959
0.0008861473841
0.0008861474117
0.0008861474111
0.0008861448712
0.0008861429057
0.0008861462506
0.0008861469815
0.000886147393
)
;
    }
}


// ************************************************************************* //
