/*--------------------------------*- C++ -*----------------------------------*\
  =========                 |
  \\      /  F ield         | OpenFOAM: The Open Source CFD Toolbox
   \\    /   O peration     | Website:  https://openfoam.org
    \\  /    A nd           | Version:  8
     \\/     M anipulation  |
\*---------------------------------------------------------------------------*/
FoamFile
{
    version     2.0;
    format      ascii;
    class       surfaceScalarField;
    location    "1.3/wallFilmRegion";
    object      phi;
}
// * * * * * * * * * * * * * * * * * * * * * * * * * * * * * * * * * * * * * //

dimensions      [1 0 -1 0 0 0 0];

internalField   nonuniform List<scalar> 
2656
(
-0.0004543065011
-0.01580251726
-0.0002206180802
-0.0005834299274
-0.0001852244082
-0.0002037715413
-0.0001733560871
-0.0001297932329
-0.0001653702348
-0.0001364984193
-0.0001547736312
-0.0001411225087
-0.0001406677108
-0.0003177980064
-0.01356187377
-0.0002031037559
-0.0004060732757
-0.0002045730932
-0.0001838034986
-0.0001968995866
-0.0001305720413
-0.0001853615307
-0.0001352237543
-0.0001644170561
-0.0001331133658
-0.0001362607232
-0.0001225403801
-0.0001079222456
-0.0001063733541
-8.51303756e-05
-9.046253277e-05
-6.834350172e-05
-7.888386758e-05
-7.109117215e-05
-0.0003081388877
-0.01197495704
-0.000240627542
-0.0003488591829
-0.0002539619112
-0.000185347434
-0.0002405454655
-0.0001418000448
-0.0002144282301
-0.0001374018542
-0.0001747722164
-0.0001233342211
-0.0001306811335
-0.0001021767041
-9.305388779e-05
-7.994704116e-05
-6.647798317e-05
-6.249173721e-05
-4.891907168e-05
-5.158595554e-05
-3.639960242e-05
-4.528990612e-05
-2.660131749e-05
-4.098341544e-05
-3.762275721e-05
-0.0004959041153
-0.01172890057
-0.0003887508
-0.0004278891237
-0.0003617200148
-0.0002292385579
-0.0003146044558
-0.0001720191376
-0.0002504550733
-0.0001459648305
-0.000180610269
-0.000113112688
-0.0001205206183
-8.178240605e-05
-7.881433267e-05
-5.777257561e-05
-5.367231298e-05
-4.30629921e-05
-3.877043235e-05
-3.564588259e-05
-2.925434577e-05
-3.23161279e-05
-2.305359109e-05
-3.119435265e-05
-1.980211283e-05
-3.22569445e-05
-1.893524082e-05
-3.655682268e-05
-1.795805858e-05
-4.409558045e-05
-1.419329471e-05
-5.275094625e-05
-5.259017116e-05
-0.001085444203
-0.01315357565
-0.0007667150822
-0.0007265370608
-0.0005912243844
-0.0003486237091
-0.0004371729243
-0.0002297899183
-0.0002934048233
-0.0001584885439
-0.00018095646
-0.0001014628719
-0.0001075557268
-6.283371163e-05
-6.67224065e-05
-4.075738798e-05
-4.571049601e-05
-3.024383529e-05
-3.443857262e-05
-2.613164544e-05
-2.796541629e-05
-2.517805629e-05
-2.463777142e-05
-2.638975772e-05
-2.408369298e-05
-3.049195778e-05
-2.548306631e-05
-3.92632357e-05
-2.57390036e-05
-5.399324703e-05
-2.076232237e-05
-7.297717427e-05
-6.267824217e-06
-8.77009989e-05
4.58152814e-07
-3.657528835e-05
-9.958499668e-05
-0.002217027441
-0.01495122035
-0.001523705055
-0.001066654399
-0.0009872727646
-0.0004854836468
-0.0005865953527
-0.0002590131556
-0.0003248237369
-0.0001421657687
-0.0001707707835
-7.697364339e-05
-9.292251419e-05
-4.325680851e-05
-5.733304688e-05
-2.772904657e-05
-4.109284274e-05
-2.152350045e-05
-3.313574776e-05
-1.962934267e-05
-2.94457972e-05
-2.006423156e-05
-2.89406728e-05
-2.272933975e-05
-3.144083781e-05
-2.895742924e-05
-3.607808915e-05
-4.156492426e-05
-3.948517983e-05
-6.41267596e-05
-3.663553892e-05
-9.817527069e-05
-2.304721121e-05
-0.0001417684928
-1.609980053e-05
-0.0001111037522
1.073181169e-05
-0.0002412014981
3.181603539e-07
1.542434001e-05
6.934639685e-06
9.402299711e-06
0.0003307691677
-0.0002888981934
-0.000817643041
-0.00267408004
-0.01527227636
-0.001806426471
-0.0009008026982
-0.001071514518
-0.0003343236814
-0.0005595421231
-0.0001324645797
-0.0002717997098
-6.853351229e-05
-0.0001336196811
-3.834986302e-05
-7.385634218e-05
-2.416067168e-05
-4.868913828e-05
-1.766923526e-05
-3.739181041e-05
-1.48671769e-05
-3.229386459e-05
-1.41156169e-05
-3.10753763e-05
-1.502885079e-05
-3.337918237e-05
-1.812361013e-05
-3.956079064e-05
-2.51588704e-05
-4.929377919e-05
-4.035360429e-05
-5.95379097e-05
-7.2309684e-05
-6.45501987e-05
-0.0001377037191
-5.572567005e-05
-0.0002655200619
-4.522591115e-05
-0.0003637524736
-5.48274924e-07
-0.0009129635521
9.566960889e-07
1.728734691e-05
3.296382347e-05
3.091353047e-05
0.0002325747025
-0.0002666346393
0.0001856661196
-0.0003430672316
-0.0005011121096
-0.001224737805
-0.0004519353295
-0.001519269214
-0.01555743048
-0.0008188311798
-0.000837349459
-0.0004203968144
-0.0002626558203
-0.000223630861
-7.636835128e-05
-0.0001221261438
-3.590191362e-05
-7.332477848e-05
-1.917631062e-05
-5.003034698e-05
-1.275109988e-05
-3.82648129e-05
-1.009227118e-05
-3.214260531e-05
-8.890994124e-06
-2.963897881e-05
-8.610654772e-06
-3.03881515e-05
-9.353100967e-06
-3.499859546e-05
-1.175858371e-05
-4.496113532e-05
-1.769487123e-05
-6.236537095e-05
-3.313181141e-05
-9.020267738e-05
-7.843208841e-05
-0.0001328935959
-0.0002241738566
-0.000168171771
-0.0006394599424
-9.562045128e-05
-0.001325074799
-2.706605961e-06
-0.002635322158
1.104453681e-06
3.62403537e-05
0.0005025918351
-1.203679543e-05
0.0001324284196
-3.028295341e-05
-0.0001363415911
-4.696803105e-05
-0.0005062873164
-0.001112134951
-0.0003245255293
-0.000562194539
-0.0002668371604
-0.0009253960168
-0.01578516779
-0.0004731122097
-0.0009094439731
-0.0002179714918
-0.000282343188
-0.0001105225125
-6.774818905e-05
-6.124424543e-05
-2.893046892e-05
-4.114337548e-05
-1.139888554e-05
-3.203498541e-05
-5.817813155e-06
-2.700693266e-05
-4.177607777e-06
-2.424211938e-05
-3.589453895e-06
-2.348360764e-05
-3.437953643e-06
-2.516010007e-05
-3.693035983e-06
-3.055902692e-05
-4.67274001e-06
-4.294457656e-05
-7.536151033e-06
-7.190826899e-05
-1.780163483e-05
-0.0001473239251
-6.996388433e-05
-0.0003297183513
-0.0003352697766
-0.0006087871346
-0.0009556896565
-0.0006778135204
-0.001338710698
0.0005318190062
-0.001556606848
-4.81700406e-06
9.391205868e-05
-5.219758422e-06
-0.000311095367
3.915831029e-06
-0.0001184984012
9.000503834e-06
-6.74537424e-06
-0.0005006868972
-0.000780043284
-0.0002767840337
-0.0004275783913
-0.0001588436494
-0.0006612473938
-0.01432808049
-0.0004187785796
-0.0009477965204
-0.0002172642949
-0.0002820529798
-0.0001028238464
-5.467180859e-05
-4.297953414e-05
-2.188897676e-05
-2.268485983e-05
-5.239342825e-06
-1.643106636e-05
-1.068608246e-06
-1.386994754e-05
-3.109915412e-07
-1.267902862e-05
-1.461025352e-07
-1.25341945e-05
-7.61672159e-08
-1.36872966e-05
-3.322192655e-08
-1.712050985e-05
-9.853071785e-09
-2.620404714e-05
-1.419027026e-08
-5.666578485e-05
-4.985877169e-08
-0.0001958344557
-3.04221592e-06
-0.0005143772826
-0.0003600806694
-0.0007727277467
-0.0006709833427
-0.001256359994
-0.0004397064178
-0.001840051554
-0.0004119930714
0.001117918243
-0.0002205512354
0.0007524404017
0.0001373709277
0.0001995942074
-5.753572925e-05
0.0001292131052
-5.441272035e-05
-0.0009681633905
-0.0004926767077
-0.0004208901132
-0.0002023388639
1.150594198e-05
0.0001539581411
2.509459937e-05
-0.0001673101882
-0.01059840127
-0.0002211836268
-0.000939698927
-0.00019080553
-0.0002222006112
-8.552489137e-05
-2.975082331e-05
-2.282009867e-05
1.524395694e-06
-5.161671165e-06
1.852440663e-06
-1.636350562e-06
4.205839089e-07
-7.584361376e-07
1.435156126e-07
-3.611196332e-07
6.586570389e-08
-1.408464173e-07
2.972391487e-08
-3.584151159e-08
1.082561261e-08
-1.964002324e-09
2.767273146e-09
5.314960895e-08
4.893326008e-09
2.368202731e-07
1.315476613e-08
7.908852501e-06
-3.120966203e-05
-0.0003509678283
-0.0002520496623
-0.0002667290187
-0.0001659332725
-0.0002513368269
-7.59934855e-05
-0.0003126409645
-7.245979257e-05
-0.0001834830555
-9.932479312e-05
-3.647293257e-05
2.762519103e-05
5.765143377e-05
-0.0001902922275
0.0003160832619
-0.0004624420844
-0.0003421407412
-0.0008099833449
-0.0002419087894
-0.001989462148
-3.533438247e-05
0.0001737237417
8.654883293e-05
0.0008311012869
-0.005020051928
-8.401563858e-05
-0.0004833948501
-0.0003167082287
-9.254461376e-05
-0.0003451518871
4.223489624e-05
-0.0002917166
0.0001145008266
-0.0001789748755
0.0001518282748
-8.814989518e-05
0.000108034706
-5.67128279e-05
6.461882349e-05
-5.532136293e-05
4.579255995e-05
-5.687562365e-05
4.540567992e-05
-4.45642176e-05
4.766774106e-05
-2.445064004e-05
3.790675438e-05
-3.574119654e-05
2.066551638e-05
-0.000181750011
3.364041799e-05
-0.0004281195684
-1.483964647e-05
-0.0001420410428
-9.901354204e-05
-5.52837572e-05
-2.298625905e-05
-4.203563264e-05
-6.571974919e-06
-7.037912627e-05
-1.98767242e-06
-0.0001367656937
-4.292996887e-07
0.0003378111315
-1.183903453e-05
0.001214131465
-7.010819365e-05
0.001880941568
-0.000260548644
0.003056567644
-0.0006821871935
0.003622188693
-0.001337525172
0.0003913234222
-0.001687804093
0.000317640414
0.0005277538333
-0.000184167643
-4.700448377e-06
-8.84367944e-05
-0.0004388394343
-1.952658207e-05
-0.000674220802
6.026319445e-05
-0.0009465746231
0.000263070828
-0.0008508810079
0.0004802110933
-0.0005146723125
0.000556304238
-0.0002589874107
0.000400088845
-0.0001699414861
0.0002117689009
-0.0001582655632
0.0001462461623
-0.0001442535566
0.0001407952161
-0.0001596675029
0.0001266736714
-0.0002873953699
0.000129277553
-0.0004877140896
0.0001621880795
-0.000279751321
3.831962128e-05
-3.267217845e-05
-2.682622713e-06
-7.423866074e-06
-5.127079163e-07
-1.956289764e-06
-1.444003542e-07
-3.27391436e-07
-4.524856144e-08
3.533907966e-08
-1.137586049e-08
6.627540614e-05
-3.137967163e-06
0.0005288101481
-1.669684404e-05
0.001387732283
-3.728437742e-05
0.002481345796
-0.0002748642468
0.003365353459
-0.0007459824904
0.003592444186
-0.001844539733
0.0001752991737
0.00121601644
0.0005562137322
0.0002049582176
0.0004144739112
-2.578896992e-05
2.156320823e-05
-0.0001930747883
1.617495985e-05
-0.0003227741549
3.440771131e-05
-0.0005278618801
0.0001212244603
-0.0007394075088
0.0002975333596
-0.0007951094398
0.0005652527582
-0.000726749913
0.0006962792383
-0.000631621597
0.000667107476
-0.0006207270874
0.0005071872008
-0.0006368580698
0.0003724679135
-0.0005725801969
0.0002848867325
-0.0004366803181
0.0002043911243
-0.0002102265495
0.0001270620599
-1.94549433e-05
4.159994322e-05
-1.921151715e-06
1.405327808e-06
-4.131008931e-07
8.928399584e-08
-9.340784153e-08
2.968992341e-08
-1.22636831e-08
1.16291941e-08
1.280789499e-09
1.095600236e-09
8.269884978e-06
-7.891450891e-06
4.182844741e-05
-3.700560123e-05
0.0001271920047
-9.525024723e-06
0.0007326915821
-0.0004564446087
0.001445791047
-0.0002074033474
0.002076586549
0.0005921768137
0.0004893251014
0.002042929347
-0.0001920185231
0.0001897843348
8.136424574e-05
0.0001238701199
-0.0003426790471
5.289715999e-07
4.536766734e-05
-0.0001107224813
5.644329694e-05
-0.0001757397428
4.140775393e-05
-0.0003050063864
9.553771718e-05
-0.0005483614175
0.0002361792739
-0.0009093741794
0.0005321979873
-0.001206248886
0.0009130069633
-0.001156040261
0.001077171783
-0.0009602940629
0.0008159217034
-0.0007699409323
0.0004761855131
-0.0004982109934
0.0002830008754
-0.0002541684396
0.0001637141882
-8.400059582e-05
7.764587408e-05
-1.333884484e-05
2.534152198e-05
-5.67349532e-06
4.752422547e-06
-5.462505727e-06
2.215608989e-06
-1.025009024e-05
7.832844162e-07
-3.265393953e-05
2.367399748e-07
-5.549756343e-06
-0.0001607798529
1.740136843e-06
-6.902901477e-06
2.615537249e-05
-4.98817114e-05
9.704265109e-05
3.701637286e-05
-0.0004587095458
-4.530025027e-05
-0.0004946711813
0.0003849643253
0.0001355326827
0.0007520697788
6.225861776e-05
0.001731743128
-0.0003048724847
0.0003488755626
0.0001312890498
-9.234708431e-05
-1.503409529e-05
-0.0001017696441
5.466207485e-05
-0.0001500152049
7.120472322e-05
-0.0002070377349
7.256753128e-05
-0.0003349464387
0.0001370930604
-0.0006091278014
0.0002937665777
-0.001082114782
0.0006377636526
-0.001469598277
0.001104561906
-0.001353545217
0.001286771174
-0.0009653031117
0.0009477877383
-0.0006290308143
0.0005000924556
-0.0003469441078
0.0002641627164
-0.0001601520232
0.0001383315497
-6.502758442e-05
6.505494897e-05
-4.08095566e-05
2.654056066e-05
-7.672842537e-05
1.312865978e-05
-0.0002774855909
1.334699736e-05
-0.0006346201318
-0.000790191091
-0.000514233891
-0.001646849911
-9.880065463e-06
-0.0008072644641
-1.013018093e-05
1.586452248e-06
-0.0001931275236
6.903993054e-05
-0.0005457421258
0.0001166127429
-0.000817860149
0.000335647452
-0.0003513992085
0.0007154289665
6.756664061e-07
0.0007039407752
-0.0002970355244
0.001114611095
-0.0002360374344
0.0009014860225
-0.0001629847234
-0.0001355764203
0.0004147219154
-0.0001487365142
7.063781235e-05
-0.0001979871213
8.714523174e-05
-0.0002773351805
0.0001018483021
-0.0004356769548
0.0001796665995
-0.0007518658669
0.0003559335785
-0.001225358109
0.0007142302424
-0.001529107149
0.001186373843
-0.001339412767
0.001324839771
-0.0008986201332
0.0009797137221
-0.000543566034
0.000528177999
-0.0002996755453
0.0002805535455
-0.0001698347074
0.0001524682345
-0.0001335657731
8.563081403e-05
-0.0002019366797
5.852770652e-05
-0.0004945534704
3.603565651e-05
-0.001089531896
-0.0004010896479
-0.001143826821
-0.001274475978
-0.0004413265146
-0.001119687251
-4.55913134e-05
-0.0002907567602
-7.598558779e-05
4.966734506e-05
-0.0003489992105
0.0003891220964
-0.0006307115086
0.0004453678404
-0.0006044383317
0.0004281672035
-0.0003610849603
0.0009361631134
-0.0003273953521
0.0006744181706
-0.0004679992475
0.0009061385621
-0.001026550681
0.001160919818
-0.001201764856
0.0004788412658
-0.0003161606282
0.001071086629
0.0002397338402
0.001085689214
0.0002809158677
0.0005382803953
0.0009033232771
0.001046618513
0.0008366021523
-0.0001437097762
0.0009209877742
-0.0001554633408
8.250899984e-05
-0.0002034589459
9.608533469e-05
-0.000284205786
0.000108129516
-0.000438146718
0.0001730492177
-0.0007207591406
0.0003188896948
-0.001135894574
0.0006112442379
-0.001391500928
0.001035520207
-0.001224148405
0.001192119679
-0.0008487447989
0.0009434342567
-0.0005304791028
0.0005722104152
-0.0003275831087
0.0003379944954
-0.0002506620671
0.0002120743385
-0.0002984405945
0.0001571170165
-0.0005184629183
0.0001464439682
-0.0009914447058
9.18967378e-05
-0.001261096187
-0.0003260524435
-0.0006934010269
-0.0005904183453
-0.0001302305233
-0.0002034670365
-2.025764989e-05
-1.479941464e-05
3.269426161e-05
1.795165999e-05
0.0002614866616
0.0001660499092
0.0004568961448
0.0004976657071
-0.00023187794
0.001057984729
-0.0003040097448
0.0009997220835
-0.0002211361702
0.0009873880568
-0.0008127456382
0.0009161385577
-0.001313036783
0.001207016769
-0.0002217959259
0.002663185147
-3.489382616e-05
0.001246554169
0.000219539353
0.002167513819
0.0004120004576
0.0006535033037
0.0008454940678
0.001519025099
0.0008747576984
-0.0001357900639
0.001403249651
-0.0001435677672
9.43415098e-05
-0.000179472068
0.0001006045219
-0.0002412034472
0.0001016773971
-0.0003617490383
0.0001365894537
-0.0005876167154
0.0002060846766
-0.0009432502212
0.0003057714516
-0.001194065854
0.0004909212476
-0.001059121131
0.0007375410819
-0.0007740365075
0.0008071645011
-0.0005345062272
0.0006082395049
-0.0003626882386
0.0004257583704
-0.0002918323184
0.0003023142863
-0.0003231554619
0.0002413799822
-0.0004671187125
0.0002252408108
-0.0006630893346
0.0001280715968
-0.0005069365461
-0.000129657049
-0.000115610452
-0.0001181712452
-5.273574877e-06
-2.213065591e-05
7.152398167e-07
-6.024038302e-07
0.0002144863093
-4.132465632e-06
0.0007661667222
-1.045089327e-05
0.001050841514
-2.192148419e-05
0.001150792743
0.001484216594
0.0001570607165
0.0009485365316
-0.0001479984416
0.000750741557
-0.0002885773242
0.0008629929497
-0.0004063856194
0.001183476041
-0.0003605034839
0.001913343732
-0.0003968587426
0.001279908317
-3.793721085e-05
0.002716420444
0.0003384670302
0.0007215392959
0.0006504139277
0.001486744831
-0.0001307854324
0.00196785417
-0.0001356021212
0.000108361511
-0.0001752571266
0.0001049095083
-0.0002596888525
8.360940375e-05
-0.0004540501432
5.272475252e-05
-0.000849496708
-6.221375409e-05
-0.001351868177
-0.0003570652775
-0.001512887494
-0.0005259030765
-0.001101788645
-0.0001959393008
-0.0007017257179
0.0004418718251
-0.0006049794377
0.0006302609706
-0.0004787641069
0.0005669874197
-0.0003914850782
0.0004751748836
-0.000371126904
0.0003972430296
-0.0003952027274
0.0003436236119
-0.0003399507357
0.0002088157829
-0.0001215751963
-8.061023391e-07
-1.646247296e-05
-8.954600367e-06
-2.66660304e-07
-4.56875081e-06
2.655336568e-08
-7.855967577e-08
9.618348447e-06
-9.905597087e-07
4.242684081e-05
-4.301967109e-06
0.0001137459999
-5.344103056e-06
0.0006041389888
0.0003218611058
0.00100152353
0.0006392614686
0.0002156220988
0.0005135267866
-0.0001773241667
0.00100305055
-0.0002911551813
0.001315209708
-0.0002776728152
0.001409297624
-0.0004377982948
0.001068218651
-0.0001401129281
0.002180254605
9.850404064e-05
0.0007464724739
-0.0001409063478
0.002650602219
-0.0001497553305
0.0001280828582
-0.0002384703988
0.000115780212
-0.0004763212552
7.432117728e-05
-0.0009695025759
-7.218744176e-05
-0.001588549932
-0.0003581802502
-0.002076589913
-0.0006105438997
-0.002209144985
-0.0006947728647
-0.001783474001
-0.0004999869757
-0.001177916617
0.0002687588643
-0.001235020275
0.0008659951594
-0.001130595529
0.0009403152696
-0.0009304421069
0.0008517753032
-0.0007223542299
0.0006662301509
-0.0004487295128
0.0004262558567
-0.0001454247769
0.0001818457531
-2.824928404e-05
3.472830467e-05
-8.219255109e-06
5.054731647e-06
-7.902653842e-08
1.95700937e-06
2.622720903e-08
7.634007307e-08
4.753634732e-06
-2.4021661e-07
2.907812758e-05
-1.039004922e-05
7.009498301e-05
-1.482821549e-05
0.0003304051577
8.700783192e-07
0.001148163656
0.0001004545613
0.002506198072
0.000454731715
0.001332971327
0.001292045841
-0.0001034463388
0.001155220141
-0.0002812844508
0.00101277725
-0.0004288205512
0.0009420451568
-0.0004268261717
0.001393751098
0.001019017947
-0.0003521751981
0.002803640448
-0.0002923521903
0.0001393698815
-0.0003285324601
9.31524527e-05
-0.0005108413483
5.302480256e-05
-0.0008219997175
-9.297807865e-05
-0.0010941844
-0.0002796101057
-0.001331666294
-0.0003600393267
-0.001623062406
-0.0003498106332
-0.00196754864
-0.0001891855539
-0.002162207888
0.0004326509836
-0.00227199066
0.001147870724
-0.001973366621
0.001164804438
-0.001408660513
0.000954013997
-0.0007876109426
0.0006160509931
-0.0003131641773
0.0003059599626
-8.296116681e-05
0.0001142557822
-2.016208464e-05
3.231395629e-05
-6.024631721e-06
1.095721258e-05
-3.549012672e-07
4.840986e-06
-5.843897193e-10
6.116121451e-07
5.749845495e-07
-3.455139453e-08
2.30117177e-05
-0.0001345524333
4.623834981e-05
-0.0006152610615
0.0001398129088
-0.001044886436
0.0006919208419
-0.0002041623579
0.001157604215
0.0003362874894
0.0003129558296
0.0001742694382
-0.0001529482285
0.0003278100441
-0.0005804181043
0.0005663060411
-0.001381185786
0.001015171717
-0.002797782322
0.001040014167
0.0003421005943
-0.003455284421
0.002712406686
-0.002529579389
-0.0005270382879
-0.001331204799
-0.0003297109252
-0.0008906710109
0.0001395889049
-0.0007733463819
0.0001154996522
-0.0008596923347
2.514467776e-06
-0.0009727069861
-2.899917993e-05
-0.001225888795
-1.306286926e-05
-0.001741198187
9.105632072e-05
-0.00224186034
0.0004282751803
-0.002270885622
0.0009413069647
-0.001870982779
0.0008839889476
-0.001229612973
0.0006455123804
-0.0006098501879
0.0003530296377
-0.0002313754866
0.0001851109879
-7.396497049e-05
8.989310562e-05
-2.331677124e-05
4.099872222e-05
-6.894541856e-06
1.937394051e-05
-7.688824567e-07
8.715088543e-06
-7.348424664e-09
1.673664348e-06
2.016026303e-07
3.532850024e-07
-0.0004737913999
-0.0004810213483
-0.001080998666
-0.001598756413
-0.0009540279688
-0.001606988512
-0.0004325511197
-0.0009461656017
0.0004831062241
-0.000278775917
0.0005355064073
-1.08996656e-05
-0.0001829525028
0.0002714291121
-0.001667921444
0.0005644760607
-0.002679338488
0.0008521805066
-0.002611319857
-3.62492268e-05
-0.001988581053
0.002980487864
-0.00290846186
-0.0003012578413
-0.003981539877
-0.0001996581878
-0.003677182157
0.0003797295547
-0.002356019596
0.0006396793381
-0.001388567607
0.0005493271221
-0.0009031001061
0.0003979982626
-0.000636051397
0.0003203493432
-0.0004918938799
0.0002889420123
-0.0004419495184
0.0002913767116
1.220027793e-06
0.0003964637317
-0.0002196379777
0.001008907593
-0.0006318410519
0.0009728223254
-0.0004562244404
0.000159251627
-0.0002150681076
3.302627849e-05
-8.914620276e-05
9.550669756e-05
-3.309565842e-05
6.827625339e-05
-1.287207768e-05
3.559290579e-05
-3.487321092e-06
1.5322728e-05
-1.926666124e-07
4.550127547e-06
2.169833144e-06
2.728655295e-06
-0.001715423601
-0.001334773319
-0.001887088798
-0.001710406727
-0.001471843965
-0.001604188688
-0.0009114444356
-0.001091871346
-0.0005735883483
-0.0005449401764
-0.000505090323
-0.0001033431231
-0.0008918291774
0.0001752390548
-0.00132540402
0.0001632084877
-0.000716888332
-0.0001007643228
-0.0002226936761
-0.0003961612978
0.003973663139
-0.0004461968164
-0.0001851320611
-0.001433630496
-0.0001424017657
-0.002799477984
7.910742896e-05
-0.003192292499
0.0006559682375
-0.0024125154
0.00117742151
-0.001497601756
0.00119830465
-0.0008666972644
0.0009761393967
-0.0004311182807
0.0007226638729
-0.0001243278321
0.00044274653
0.0002466328506
0.0003307803108
-4.407160939e-05
0.00103380218
-0.0001694966933
0.0004962415317
-0.0001281011425
2.594532982e-05
-0.000169369656
-2.398638783e-05
-0.0001102073702
9.415312559e-05
-6.354183253e-05
0.0001162446667
-7.494720575e-05
8.419093432e-05
-0.000182840625
8.238148829e-05
-0.0006196249567
3.423184941e-05
-0.001662575735
-0.0005356379199
-0.002455866915
-0.001470613914
-0.002563798169
-0.001406204698
-0.002274759275
-0.001335759409
-0.001975132141
-0.0007444324541
-0.001716131479
-0.0005843078519
-0.001103676579
-0.0005321337828
-0.0007820785504
-0.0006841929752
-0.0005662232595
-0.0003467168473
-0.0003870867926
-0.0004710582667
-0.0005934895442
-0.0001332744552
0.005180785829
-8.276839078e-05
1.800017546e-05
-0.0003903731057
-7.762544207e-05
-0.001058940961
-2.636209623e-05
-0.00234430901
0.0002291127229
-0.003201056876
0.00113485458
-0.002806793397
0.002216037996
-0.001863813995
0.002578736602
-0.001104831276
0.00216643905
-0.0007577036583
0.001484729578
-0.0004846512172
0.0008486505171
-0.000404391272
0.0009390033139
-0.0001667159982
0.0002905062074
-4.435016464e-05
-1.168292988e-05
-9.820789209e-05
-1.217390984e-05
-0.0001210946611
6.960670535e-05
-8.732057807e-05
0.0001679512458
-0.0001051758017
0.0001472984356
-0.0002011810467
0.0001554684063
-0.0006118294722
0.000109237842
-0.002055935515
-0.0002076055256
-0.002308886287
-0.001453315967
-0.002331656983
-0.001109304856
-0.001837606855
-0.001321132703
-0.00120212945
-0.0008208578125
-0.001190500773
-3.63425576e-05
-0.001290766049
-7.138384384e-05
-0.0007863651009
-0.002292170703
-0.0006015216615
-0.0008245805636
-0.0004663503329
-0.0006382344423
-0.0008779067702
9.534192628e-05
0.006386681035
-3.287597136e-05
0.0002797624379
-0.000138419445
-2.084293797e-05
-0.0003494718071
-1.673776758e-05
-0.0009821942718
-9.687943146e-06
-0.002224279706
0.0004661900724
-0.003315934979
0.001823240287
-0.003240409028
0.003556628869
-0.00238471362
0.004258204353
-0.001693212196
0.003375141244
-0.001248000866
0.001452861566
-0.000787965363
0.001025849054
-2.958123695e-05
-4.156205871e-06
-1.465730527e-05
-1.84593247e-05
-1.73558375e-06
-2.261073864e-05
2.060127103e-06
1.124436181e-06
-8.947173811e-05
0.0003202746665
-8.170885359e-05
0.0002013839214
-8.99043436e-05
0.0001735561691
-0.0002717049544
0.0001538609587
-0.001948963829
7.152186331e-05
-0.001537897221
-0.0004276398636
-0.001614906091
-0.0005780865244
-0.001559788868
-0.001062549575
-0.00120737162
-0.001117494356
-6.349433046e-05
0.0003257562634
0.0002427506867
-0.0002271460581
-0.0002518977618
-0.002349354391
-0.0004948663968
-0.0006536357695
-0.0005847806127
-0.0003381942414
-5.968598757e-05
0.0001541339461
0.007641755992
-1.313414322e-05
0.0005532388848
-5.013890257e-05
5.526231512e-07
-0.0001274694492
-1.935797331e-07
-0.0003467803378
1.053398815e-05
-0.0009187533576
0.0001407075828
-0.002038770725
0.0007374807082
-0.00297353626
0.002243025789
-0.002699448529
0.003871970876
-0.001546339149
0.003579822677
-0.0007659515605
0.0009500700591
-2.334578688e-05
0.0005458242612
-2.445272668e-05
8.675595273e-08
-3.700246263e-05
2.434227724e-06
2.867014073e-06
-4.535459364e-05
8.980643793e-07
-3.497579484e-07
-9.597604047e-05
0.0006320534908
-6.84162156e-05
0.0002537362562
-4.217666546e-05
0.0001904533146
5.583720317e-06
0.0001229450007
5.506106522e-06
3.531211248e-05
-0.0005625634562
4.529529484e-05
-0.0008776069177
0.0001609936028
-0.000693831163
-0.000460820143
-0.0006115572629
-0.0008503192837
-0.0009316566787
6.170115211e-05
-0.001194385666
-0.000561802717
0.000641461271
-0.0009521749883
3.171882127e-07
-0.0001698020849
-7.250207353e-05
-0.0001049787602
-2.484715084e-05
0.0002002914066
0.009081769605
-6.445957533e-06
0.0007567755012
-1.772304366e-05
6.665285718e-06
-5.200632813e-05
6.508541421e-06
-0.0001438111544
2.0663958e-05
-0.0003382802946
6.807847283e-05
-0.0007395430231
0.0002399106706
-0.001431392199
0.0007886783249
-0.001798243261
0.001754631379
-0.001112345205
0.001538004691
-0.0003205473522
-0.0002502409077
-2.172225567e-07
0.0002638893341
6.954201544e-06
5.763473809e-06
6.344440533e-06
3.024959958e-05
8.011835824e-06
4.423956824e-05
6.713515072e-07
7.259703486e-06
-0.000105058807
0.000465358109
-6.437510033e-05
0.0003301647009
-3.188085258e-05
0.0002241834532
4.15070548e-06
0.0001220278176
3.672121048e-06
2.188611582e-05
7.782848515e-06
4.454095309e-05
2.118604997e-05
0.0001014314472
4.474952095e-05
2.631346796e-05
-0.0008092845681
-0.0001617895089
-0.0002620764377
0.0003545747571
-0.0001839722546
-5.508219938e-05
-0.0001995541102
-3.324679933e-05
2.232469889e-05
7.290990797e-05
4.808859516e-05
2.726812707e-06
2.681972417e-06
0.0002418406196
0.01083997104
-9.646321502e-06
0.0008503056534
-9.307599661e-06
1.386237771e-05
-2.190783738e-05
4.630211443e-06
-5.251447786e-05
1.235106718e-05
-0.0001133527139
3.373178069e-05
-0.0002115849258
8.784258267e-05
-0.0003651809912
0.0002240845208
-0.0006227104099
0.0002904143956
-0.0002860933875
-0.0005101838039
-0.0001078664104
-8.658871896e-05
1.570372214e-05
0.0001119922876
3.205607155e-05
2.869790846e-05
5.070384082e-05
6.148641514e-05
5.892721044e-05
8.962233762e-05
-8.660949438e-07
5.987849501e-05
-0.0001120214843
0.0002959017213
-6.509844568e-05
0.0004800891226
-2.91626e-05
0.000295831464
1.290314597e-06
0.0001342341084
3.75991572e-06
1.457717328e-05
2.016499839e-05
3.643653569e-05
7.498425169e-05
6.705758953e-05
0.000535421135
-1.494890178e-05
-0.001082074011
-0.0001375265385
-0.0008523816877
0.0007372736196
-0.0002132939192
0.0003230062903
7.090873742e-05
0.000214006683
0.0004855056733
0.0001382034703
0.0006963139503
0.0001069325405
0.000236922607
0.0002790104897
0.01289374713
-1.39801675e-05
0.0008550260892
-5.462569753e-06
2.631626985e-05
-8.303714738e-06
3.419369564e-06
-1.61198944e-05
6.007529307e-06
-3.039180091e-05
1.340029434e-05
-4.971133219e-05
2.981070813e-05
-7.966651033e-05
4.035204549e-05
-0.000270287903
-0.0003207121533
-4.561315767e-05
-0.0008685581054
-1.687100308e-05
-2.735595414e-06
3.860065648e-05
5.534823605e-05
5.983093876e-05
5.401311472e-05
9.438125789e-05
9.338077388e-05
0.0001146060054
0.0001263082357
5.908498305e-05
0.0001091214258
-2.982303069e-05
0.0001740098218
-7.136795461e-05
0.0006926985941
-2.901811041e-05
0.0004856371853
-1.295369766e-07
0.0001595887789
5.37036402e-06
1.566419061e-05
2.629526752e-05
3.443593639e-05
9.404439717e-05
5.16016203e-05
0.0004331426912
5.14417949e-07
-0.0002101278138
-6.866788245e-05
-0.000819864942
0.000393881759
-0.0004075806495
0.0007450950238
-2.227979821e-05
0.0008338681495
8.769424808e-05
0.000133941034
0.0001114149265
0.0002297590621
0.0002223601318
0.0003017604155
0.01509700559
-1.96740574e-05
0.0008458607194
-6.566084429e-06
4.771586906e-05
-5.626151071e-06
4.931383119e-06
-7.402222896e-06
4.921441955e-06
-1.714563564e-05
7.411023412e-06
-7.459296737e-05
1.507688283e-05
-0.0003658911496
-0.0001242957506
-0.0004342115863
-0.0009490032438
-4.123055393e-06
-0.0008163386162
9.372387579e-06
1.505980648e-05
5.03103586e-05
6.19573452e-05
8.45500877e-05
8.747224679e-05
0.000123068307
0.0001286705287
0.0001400596714
0.0001608602297
0.0001088496206
0.0001613884234
6.724110011e-05
0.0002147352066
-8.179429766e-05
0.0008834825878
-3.834564349e-05
0.001026145612
-1.596552418e-06
0.0002261401745
1.673059641e-05
3.832392181e-05
5.640242903e-05
7.398141897e-05
0.0001150812846
0.000116246897
3.866774599e-05
5.340840308e-05
-2.15052524e-05
-1.52977214e-07
-0.0007906475892
0.0001957609159
-0.0005821227858
0.0006222468715
-0.0001149094276
0.001579600413
-4.130234625e-05
0.0001164856571
-0.0004031385955
0.0004883786355
0.00062824515
0.0003274662073
0.01726068389
-2.648484702e-05
0.0008731654383
-1.201030718e-05
8.225240086e-05
-1.055973127e-05
1.04291089e-05
-1.88446227e-05
1.066789013e-05
-7.662383068e-05
1.985596733e-05
-0.0003481371368
1.528294118e-05
-0.0006161284957
-0.0004825202193
-0.0004425358776
-0.0007828235279
-1.806022635e-05
-0.0005792608919
2.484640902e-05
4.688386343e-05
6.718738493e-05
0.0001019334892
9.76424171e-05
0.000128543855
0.0001269933543
0.0001326220169
0.0001020541522
0.0002442518426
-7.512714204e-05
0.0006271310118
-0.0002468765705
0.0008279216546
-0.0002949349239
0.001219657893
-0.0001135237924
0.001920990965
-5.264237955e-05
0.0005904461664
3.114140347e-05
0.0001344843282
9.298511921e-05
0.0001627175173
-3.402919997e-06
0.0001203172898
-5.454894678e-06
3.0871416e-05
-2.227608449e-05
1.240066605e-05
6.77453687e-06
3.940258393e-05
0.0001406233072
-4.857707068e-05
0.0006342498275
-0.0003837290331
0.001122464882
0.0004694882927
0.0007999092733
0.00120379973
0.0006819041798
0.0003438499561
0.01917343555
-3.390617455e-05
0.0009239275545
-2.252993964e-05
0.000134229355
-2.419244361e-05
2.192587178e-05
-5.23304008e-05
2.683272463e-05
-0.0001854594929
4.771002768e-05
-0.0004467137945
-6.040029131e-05
-0.0005717027265
-0.0003176547267
-0.0003859197667
-0.0004231269263
-3.522392306e-05
-0.0002997504979
2.748489234e-05