/*--------------------------------*- C++ -*----------------------------------*\
  =========                 |
  \\      /  F ield         | OpenFOAM: The Open Source CFD Toolbox
   \\    /   O peration     | Website:  https://openfoam.org
    \\  /    A nd           | Version:  8
     \\/     M anipulation  |
\*---------------------------------------------------------------------------*/
FoamFile
{
    version     2.0;
    format      ascii;
    class       volVectorField;
    location    "1.3/wallFilmRegion";
    object      U;
}
// * * * * * * * * * * * * * * * * * * * * * * * * * * * * * * * * * * * * * //

dimensions      [0 1 -1 0 0 0 0];

internalField   nonuniform List<vector> 
1369
(
(-0.3571985886 -0.5044247932 0)
(-0.661043558 -0.2506647896 0)
(-0.7073862115 -1.192133919 0)
(-0.726674462 -1.085723763 0)
(-0.7365311048 -1.003793765 0)
(-0.7570049385 -0.926091971 0)
(-0.7956969177 -0.850665177 0)
(-0.3304426207 -0.5495483218 0)
(-0.6069536399 -0.2157892567 0)
(-0.5965735499 -1.197356904 0)
(-0.614380621 -1.108512841 0)
(-0.633020747 -1.046670043 0)
(-0.6656112303 -0.9917778771 0)
(-0.7164593575 -0.9363582523 0)
(-0.7871909186 -0.8711494088 0)
(-0.8756423038 -0.7913970567 0)
(-0.9729204252 -0.7043089477 0)
(-1.063789562 -0.6323513965 0)
(-0.3051978234 -0.5966206306 0)
(-0.4735808177 -0.310346324 0)
(-0.4709808328 -1.209405605 0)
(-0.4970412127 -1.148836588 0)
(-0.5309166877 -1.109882799 0)
(-0.5776852922 -1.074977048 0)
(-0.6398183229 -1.035255697 0)
(-0.7182214213 -0.9822932477 0)
(-0.8111062278 -0.9105065525 0)
(-0.9112910374 -0.8217325587 0)
(-1.005450402 -0.7315910775 0)
(-1.083984802 -0.6671955281 0)
(-1.154978994 -0.6489377125 0)
(-0.2868004957 -0.6440776878 0)
(-0.3442539869 -0.6340845899 0)
(-0.3530589662 -1.247494821 0)
(-0.3891737117 -1.218691302 0)
(-0.436230902 -1.197066861 0)
(-0.4930650072 -1.174978674 0)
(-0.562938604 -1.144321679 0)
(-0.6462572203 -1.099633941 0)
(-0.7416074742 -1.036667577 0)
(-0.8427760232 -0.95425139 0)
(-0.9370873012 -0.8598319762 0)
(-1.014842022 -0.7745268346 0)
(-1.084509119 -0.7224851846 0)
(-1.164405586 -0.7152766021 0)
(-1.250846912 -0.7299019292 0)
(-1.337344763 -0.6455514144 0)
(-1.366969666 -0.6151889261 0)
(-0.2819698705 -0.6940814835 0)
(-0.2575143541 -0.9774268371 0)
(-0.2763961495 -1.316773891 0)
(-0.3120126346 -1.312278171 0)
(-0.3627281242 -1.298187656 0)
(-0.4190289237 -1.282789306 0)
(-0.4889447815 -1.25625567 0)
(-0.5713314451 -1.216612532 0)
(-0.6652156735 -1.161298306 0)
(-0.7645322233 -1.087208974 0)
(-0.8551369162 -0.9963544753 0)
(-0.9268413957 -0.9025901349 0)
(-0.9889745603 -0.8251060724 0)
(-1.058971569 -0.7728187486 0)
(-1.13834918 -0.733430971 0)
(-1.23310625 -0.6347998499 0)
(-1.354475566 -0.537286224 0)
(-0.7714923042 -0.498574435 0)
(-0.5860099509 0.5742920194 0)
(-0.2925204908 -0.7377154611 0)
(-0.2962305397 -1.109794667 0)
(-0.2513432148 -1.404789443 0)
(-0.288836565 -1.411407355 0)
(-0.3326837957 -1.396428817 0)
(-0.3767651704 -1.382836681 0)
(-0.4354546817 -1.357911388 0)
(-0.5060491311 -1.321702986 0)
(-0.5888602772 -1.271762984 0)
(-0.6777145441 -1.202395769 0)
(-0.756995067 -1.112139106 0)
(-0.8170740758 -1.010625823 0)
(-0.8678610283 -0.9119581796 0)
(-0.9242659029 -0.8205340772 0)
(-0.9854465079 -0.7275886065 0)
(-1.034372864 -0.6107898071 0)
(-1.018007943 -0.4703696986 0)
(-0.5881758662 -0.464287128 0)
(-0.2655778817 0.3140976312 0)
(0.9083864911 -0.2139844995 0)
(0.2591330758 0.2556608493 0)
(-0.1975830345 0.2451118734 0)
(-0.1886038232 0.1972018589 0)
(-0.3065372272 -0.7329149769 0)
(-0.3775429229 -1.113859015 0)
(-0.3787327567 -1.442082834 0)
(-0.3633042624 -1.501046599 0)
(-0.3631320663 -1.486541312 0)
(-0.3898449227 -1.466502991 0)
(-0.4272365601 -1.440596219 0)
(-0.4733877336 -1.40529208 0)
(-0.5297799875 -1.355274268 0)
(-0.5914351749 -1.282102363 0)
(-0.6466320657 -1.182448598 0)
(-0.6894300723 -1.064475839 0)
(-0.7263171894 -0.9401859934 0)
(-0.7631861035 -0.8119102551 0)
(-0.7754148162 -0.6647022171 0)
(-0.6874384986 -0.4744074929 0)
(-0.4959209435 -0.2775808636 0)
(-0.2866429308 -0.2010894639 0)
(-0.1275740792 0.120685809 0)
(0.9440086692 -0.1833315498 0)
(0.3627824123 0.2921307687 0)
(-0.1783379338 0.1923214903 0)
(-0.2101313469 0.1378254773 0)
(-0.1460730365 -0.03895004227 0)
(-0.08336408737 -0.1735883936 0)
(-0.3073335002 -0.6490689955 0)
(-0.4502323784 -0.8798368116 0)
(-0.4839686592 -1.422813568 0)
(-0.4732022586 -1.473303914 0)
(-0.4737221419 -1.505660382 0)
(-0.4802796223 -1.517174372 0)
(-0.4855791186 -1.50495711 0)
(-0.4900459539 -1.470996433 0)
(-0.4974253329 -1.413147356 0)
(-0.5111920131 -1.325893266 0)
(-0.5306833803 -1.207011548 0)
(-0.5519550343 -1.063661823 0)
(-0.5704387236 -0.9042529263 0)
(-0.5730285878 -0.7198732011 0)
(-0.5034476126 -0.4833868045 0)
(-0.3749880889 -0.2758221194 0)
(-0.3156146248 -0.1672741072 0)
(-0.2564962636 -0.1067074291 0)
(-0.1590504994 0.07396744666 0)
(0.8583669473 -0.1569681205 0)
(0.05400636618 0.1907802251 0)
(-0.1450387418 0.1329327349 0)
(-0.2575938563 0.04218163813 0)
(-0.1376733634 -0.07666321384 0)
(-0.1936515555 -0.2621111644 0)
(-0.2952815822 -0.2288604014 0)
(-0.2893761093 -0.5573542956 0)
(-0.3863649473 -0.4583253476 0)
(-0.3784015221 -1.233449775 0)
(-0.3479369364 -1.323348651 0)
(-0.3457429748 -1.428675711 0)
(-0.3670550264 -1.523510834 0)
(-0.3895557073 -1.556950756 0)
(-0.4005510739 -1.526985685 0)
(-0.4029177775 -1.456483407 0)
(-0.4036310177 -1.353217276 0)
(-0.4056607982 -1.211463209 0)
(-0.4082681698 -1.029930275 0)
(-0.4057704027 -0.8092467798 0)
(-0.3795778472 -0.5377459827 0)
(-0.3145087391 -0.2803511183 0)
(-0.2933408763 -0.1988015069 0)
(-0.3262855691 -0.1622744888 0)
(-0.3390222284 -0.1363243233 0)
(-0.1757014865 0.04241766175 0)
(0.1319000037 0.03134585405 0)
(-0.0686375711 -0.03742908822 0)
(-0.1792645862 -0.023606669 0)
(-0.0819013008 0.06880784809 0)
(-0.1015920756 0.003687439233 0)
(-0.1373434732 -0.3253893633 0)
(-0.2058321302 -0.2417315464 0)
(-0.2644070267 -0.5028402328 0)
(-0.3536359376 -0.09098746055 0)
(-0.3432375745 -1.07392534 0)
(-0.2745571281 -1.103885373 0)
(-0.2496125788 -1.204471936 0)
(-0.2567374811 -1.361359058 0)
(-0.2816192987 -1.49360512 0)
(-0.3019323982 -1.52053027 0)
(-0.304700646 -1.462338382 0)
(-0.2985540233 -1.362711356 0)
(-0.2880532403 -1.205802617 0)
(-0.2737931811 -0.9737033374 0)
(-0.253957484 -0.661306981 0)
(-0.2308394529 -0.3189139548 0)
(-0.2348790189 -0.1665115264 0)
(-0.2391417606 -0.1728021346 0)
(-0.4039592824 -0.2559694772 0)
(-0.4029336825 -0.2112473479 0)
(-0.2355518596 -0.15086853 0)
(-0.05658630554 -0.02172620226 0)
(-0.02232630783 0.1265796894 0)
(-0.006121690798 0.113701987 0)
(0.06994013535 0.2267767452 0)
(-0.03134653382 0.02186920664 0)
(-0.01439895681 -0.3968616044 0)
(-0.005833820613 -0.2150523204 0)
(-0.08500252492 0.2318147902 0)
(-0.2180150788 -0.4765127167 0)
(-0.3185689159 0.3405647366 0)
(-0.3039527982 -0.8916218375 0)
(-0.1791912297 -0.8359508748 0)
(-0.1588757832 -0.9051771805 0)
(-0.1512439622 -1.033336168 0)
(-0.1448930541 -1.214123629 0)
(-0.1471992064 -1.363918144 0)
(-0.1586265535 -1.259923567 0)
(-0.1636711692 -1.130777133 0)
(-0.1675672927 -0.9764573153 0)
(-0.1710868848 -0.7889547019 0)
(-0.1402817467 0.7294297573 0)
(-0.1359615636 0.8814273243 0)
(-0.07341102614 1.019151578 0)
(-0.1504450976 -0.1442320783 0)
(-0.4900630342 -0.3659091866 0)
(-0.5903484396 -0.2913573254 0)
(-0.4925131914 -0.1930377736 0)
(-0.1650386198 -0.1473239454 0)
(0.06243685998 -0.05779953597 0)
(-0.1068048159 -0.02019984143 0)
(-0.08522804141 0.1434974374 0)
(-0.03437693727 -0.04697460196 0)
(-0.05764587047 -0.08528335033 0)
(0.2107420651 -0.225991597 0)
(0.1721740162 0.05243428287 0)
(-0.1443478155 -0.4864984297 0)
(-0.2627439147 0.5192960226 0)
(-0.1399730515 -0.7002049714 0)
(0.07270188473 -0.5364636086 0)
(0.1873322601 -0.5188926892 0)
(0.2955205565 -0.5361382573 0)
(0.3128220532 -0.581156779 0)
(0.3545041346 -0.5521635074 0)
(0.3675378852 -0.4961699972 0)
(0.3441461813 -0.4324880682 0)
(0.3163566463 -0.3994651523 0)
(0.296640655 -0.3843999366 0)
(0.2762907595 -0.3482483999 0)
(0.2329542296 -0.1296774508 0)
(0.012687685 -0.2560949517 0)
(-0.1996275995 -0.3925657628 0)
(-0.4846180425 -0.5176282212 0)
(-0.552066609 -0.3890021932 0)
(-0.4290761242 -0.1942691609 0)
(-0.1808984642 -0.07383292602 0)
(-0.03394562678 0.02737091141 0)
(0.07196255993 0.08711420929 0)
(0.009124785293 0.1542267898 0)
(-0.05310491551 0.1835995601 0)
(-0.07143092778 0.1769102662 0)
(-0.005315717645 0.07922060329 0)
(0.21737613 -0.01958543823 0)
(-0.06134977295 -0.5569921638 0)
(-0.2588946043 0.5829017834 0)
(-0.04950339644 -0.5907003801 0)
(0.07847707831 -0.3921748845 0)
(0.1336270119 -0.3529531416 0)
(0.2078856326 -0.4637806041 0)
(0.3054625119 -0.4978451894 0)
(0.4070759507 -0.5585580907 0)
(0.4083945115 -0.5280165052 0)
(0.3545402832 -0.4566386065 0)
(0.3228011695 -0.4193814592 0)
(0.3145593049 -0.3848929957 0)
(0.2913456216 -0.3477928017 0)
(0.179410514 -0.3561653479 0)
(-0.0344760943 -0.4251406413 0)
(-0.1543392876 -0.665841955 0)
(-0.3956858796 -0.6991753741 0)
(-0.5349851813 -0.6404189276 0)
(-0.6641133129 -0.5333118116 0)
(-0.9415810601 -0.3991926098 0)
(-0.1349000994 0.4998879355 0)
(-0.1880100496 0.5226642523 0)
(-0.144676557 0.4275386386 0)
(-0.09966721262 0.3589072746 0)
(-0.06773520525 0.2467240065 0)
(-0.09178105394 0.1348698188 0)
(0.07081783779 0.09065054309 0)
(0.07869593537 -0.06204488364 0)
(0.05161362004 -0.7989558721 0)
(-0.05032764932 0.815451771 0)
(-0.1000567036 -1.025901564 0)
(0.04524401148 -0.6235769677 0)
(0.1328774006 -0.4322317804 0)
(0.1719174572 -0.4009514822 0)
(0.2708473728 -0.4260854208 0)
(0.3457061653 -0.4500747775 0)
(0.406054827 -0.4950691062 0)
(0.4222246042 -0.610426649 0)
(0.3915849264 -0.7206072995 0)
(0.3328534198 -0.7702862548 0)
(0.252453368 -0.7689907757 0)
(0.1847504431 -0.7068790938 0)
(0.09074800699 -0.7173269182 0)
(-0.0904855429 -1.219255114 0)
(-0.2177815378 -1.288420793 0)
(-0.2407806733 -1.132647842 0)
(-0.2377254751 -0.8982872694 0)
(-0.240908923 -0.4923784048 0)
(-0.2368921496 0.6376169374 0)
(-0.1664623163 0.4323610927 0)
(-0.09672544952 0.5368458397 0)
(-0.0905423913 0.3608923275 0)
(-0.05574190267 0.1920429913 0)
(-0.0401444356 0.06933270679 0)
(0.1099779448 0.09246566619 0)
(0.03318485698 -0.02652943362 0)
(0.01441482903 -0.06026717067 0)
(-0.02974444421 -0.8823996185 0)
(0.1257256395 0.8972785904 0)
(0.2239372092 -0.8863358608 0)
(0.2242159483 -0.6463333052 0)
(0.2306193651 -0.4640280565 0)
(0.2585815259 -0.3942534497 0)
(0.3087055216 -0.3760572289 0)
(0.3576107953 -0.4410882402 0)
(0.3892326747 -0.5388132394 0)
(0.3915099833 -0.7035786543 0)
(0.3405480584 -0.8669749241 0)
(0.278492585 -0.9422704953 0)
(0.2512234497 -0.9320084897 0)
(0.2089014876 -0.9191021611 0)
(0.1676017304 -0.9601883547 0)
(0.2187170362 -1.110814896 0)
(0.324611937 -0.9789631442 0)
(0.4002845335 -0.8207174425 0)
(0.4694990418 -0.6465804296 0)
(0.3549686255 -0.3852706849 0)
(-0.1314918975 0.1026482064 0)
(-0.0900810017 -0.01402798065 0)
(0.07851621472 0.2117580796 0)
(-0.04513921548 -0.008753105286 0)
(0.01319029881 -0.09399390725 0)
(0.08246770589 -0.01003700543 0)
(0.1420370622 0.0386065884 0)
(-0.001768035648 -0.02910980356 0)
(0.01936670653 -0.03868817526 0)
(-0.009578581424 -0.9991108661 0)
(0.2806566333 -0.1593769258 0)
(0.2885230849 -0.7925793919 0)
(0.3012012051 -0.6034020779 0)
(0.322706957 -0.4766498157 0)
(0.3506387623 -0.4076538344 0)
(0.3765984295 -0.3929003565 0)
(0.3944329696 -0.4799036767 0)
(0.4128928848 -0.5877418487 0)
(0.4122809197 -0.7592937644 0)
(0.3733465898 -0.9507269494 0)
(0.3310984922 -1.008686839 0)
(0.3133477566 -1.016057712 0)
(0.3094706139 -1.015540258 0)
(0.3521018787 -1.00950332 0)
(0.4576599306 -0.9342452058 0)
(0.423471362 -0.7322355098 0)
(-0.1636220586 -0.434007428 0)
(-0.4376676923 -0.3673823754 0)
(-0.574463509 -0.3984429931 0)
(-0.1034203718 0.03150709966 0)
(-0.02716761289 -0.05750801775 0)
(-0.007517070886 -0.04325895879 0)
(0.03141159991 -0.1370067806 0)
(0.06584245803 -0.1137356122 0)
(0.06262428522 0.01998931442 0)
(0.1016733791 -0.01977055974 0)
(0.07960286159 -0.04863068357 0)
(0.007397172991 -0.006303724603 0)
(0.00756772185 -1.075539324 0)
(0.3435301241 -0.5155426869 0)
(0.3234086003 -0.7748633394 0)
(0.3178082622 -0.6138020786 0)
(0.3328677882 -0.5049243012 0)
(0.3603114416 -0.434604942 0)
(0.3917407548 -0.4346669052 0)
(0.4222363435 -0.5207083741 0)
(0.4440298769 -0.6233452367 0)
(0.4523410705 -0.7836559849 0)
(0.4387310976 -0.9713033378 0)
(0.423189837 -1.013109706 0)
(0.4266722993 -1.004536443 0)
(0.4470085518 -0.9439255532 0)
(0.4055290496 -0.7770584458 0)
(0.1155447749 -0.5240952402 0)
(-0.1576954373 -0.383743861 0)
(-0.3295613815 -0.3580535475 0)
(-0.5264529482 -0.3724606694 0)
(-0.7303644244 -0.4057649892 0)
(0.15741091 -0.04767680071 0)
(0.189454911 -0.03850145951 0)
(0.06323913321 -0.1347818474 0)
(0.07010578405 -0.1159442126 0)
(0.1352169759 -0.08174537584 0)
(0.1094894721 -0.04776842629 0)
(0.09563097493 -0.04186032329 0)
(0.1106057777 -0.06257477409 0)
(-0.04534282867 -0.197958317 0)
(0.1284793292 -0.2069175101 0)
(0.1733229438 0.03922858181 0)
(0.1701056318 0.08790773209 0)
(0.1474303672 0.1216630895 0)
(0.112033532 0.2889477462 0)
(0.04924775482 -1.130305357 0)
(0.4138260051 -0.6336259141 0)
(0.3704573175 -0.8289139769 0)
(0.3370159179 -0.675614129 0)
(0.3314821142 -0.5602734765 0)
(0.3432855453 -0.4897447177 0)
(0.3652019165 -0.4664742609 0)
(0.4256629008 -0.548400834 0)
(0.4645919188 -0.6436255394 0)
(0.49104327 -0.7825264224 0)
(0.5068114974 -0.9400838136 0)
(0.5156835338 -0.9531607421 0)
(0.5143168987 -0.892804204 0)
(0.4535408671 -0.7311318593 0)
(0.2857575243 -0.5181965017 0)
(0.09731876567 -0.3754284339 0)
(-0.1139839341 -0.3571994841 0)
(-0.344328816 -0.3702342987 0)
(-0.6091465627 -0.3969629913 0)
(-0.8466785075 -0.3736417019 0)
(0.2953658582 0.1708297541 0)
(0.2149989917 0.1565090082 0)
(0.1395194314 0.1283772278 0)
(0.0860860113 -0.008779267933 0)
(0.1454319883 -0.05091653799 0)
(0.1122447021 -0.04194015125 0)
(0.1317932496 -0.02909675512 0)
(0.1268860326 -0.1598107305 0)
(0.1568168065 -0.07140516654 0)
(0.2022804507 -0.008401205811 0)
(0.3544913298 -0.004203289152 0)
(0.1979559273 0.08385446208 0)
(0.2886821711 0.1244292516 0)
(0.2226925367 0.2393749653 0)
(0.08129579351 -1.096416552 0)
(0.5118001544 -0.6821568329 0)
(0.4589673831 -0.9284507108 0)
(0.3959405591 -0.7910263424 0)
(0.358322934 -0.6574308713 0)
(0.3572452067 -0.5665590673 0)
(0.3781436877 -0.5224899407 0)
(0.4224300562 -0.5607326648 0)
(0.4715308014 -0.6451712116 0)
(0.5164749576 -0.7574640058 0)
(0.5577622561 -0.8798958816 0)
(0.5900721642 -0.8669190429 0)
(0.5811552052 -0.7933093641 0)
(0.4795301704 -0.6388088406 0)
(0.2761953732 -0.4581652814 0)
(0.04787168854 -0.3372616384 0)
(-0.1972991181 -0.3533077929 0)
(-0.4695479977 -0.4089832351 0)
(-0.7672435764 -0.4441750746 0)
(-1.237145991 -0.3658691255 0)
(-0.1306143237 0.4757758065 0)
(-0.0492142588 0.3955610972 0)
(-0.020205499 0.1918861422 0)
(0.04784861366 0.05622565651 0)
(0.09008996519 0.04597187552 0)
(0.1643065336 -0.02483625379 0)
(0.137906818 -0.02487151296 0)
(0.1302716906 -0.04632890523 0)
(0.2730950265 -0.05882189205 0)
(0.2082692572 -0.06378222421 0)
(0.366538882 -0.04371820866 0)
(0.1048614935 0.02706642226 0)
(0.3104743849 0.121097669 0)
(0.2147022258 0.1654697798 0)
(0.1071939133 -1.064799754 0)
(0.617045689 -0.6629455844 0)
(0.5766533174 -1.02661294 0)
(0.4970248203 -0.9278966299 0)
(0.393559906 -0.7994622621 0)
(0.2819387655 -0.7144500708 0)
(0.1413274029 -0.6978050145 0)
(0.09436369847 -0.7076012964 0)
(0.2112542247 -0.7049225911 0)
(0.4633997336 -0.7095850046 0)
(0.6216529811 -0.7779323861 0)
(0.6853896938 -0.751182561 0)
(0.6873826063 -0.6875669145 0)
(0.6062885112 -0.5749254952 0)
(0.4246820834 -0.4475697321 0)
(0.1520389657 -0.357861505 0)
(-0.08226500376 -0.4417326656 0)
(-0.3415785799 -0.46861575 0)
(-0.5009334744 -0.5605271079 0)
(-0.9434033223 -0.4924653506 0)
(-0.389239795 0.5973197157 0)
(-0.29114752 0.7224696513 0)
(-0.1551354488 0.782298197 0)
(0.07313880433 0.2003736003 0)
(0.02677955679 0.08348176081 0)
(0.07167683786 0.05725577283 0)
(0.1281562357 -0.01114427507 0)
(0.1374637864 -0.02730609281 0)
(0.1807318274 -0.04579934103 0)
(0.1906464748 -0.0558842259 0)
(0.3081729214 -0.05885485465 0)
(0.1846063569 -0.01275855865 0)
(0.2899569932 0.06307455193 0)
(0.1256725528 -1.034866023 0)
(0.6892113019 -0.6135740057 0)
(0.6230522543 -1.080921122 0)
(0.3577038397 -1.022392514 0)
(-0.07207656265 -0.9771773487 0)
(-0.3959488799 -0.9610703806 0)
(-0.5368618304 -0.9586273874 0)
(-0.5353599355 -0.941023796 0)
(-0.3605433016 -0.8952366314 0)
(0.05661836294 -0.8325895287 0)
(0.6030351586 -0.8023564848 0)
(0.6282828951 -0.8076272655 0)
(0.6215920046 -0.7895089189 0)
(0.5680249423 -0.7477419772 0)
(0.443148441 -0.7231167229 0)
(0.238068497 -0.6449575335 0)
(0.07543252492 -0.6980803344 0)
(-0.06914363835 -0.7154472562 0)
(-0.1094075209 -0.4823853332 0)
(0.07045778157 -0.4755782568 0)
(0.06836979157 0.7935057623 0)
(0.04636962449 0.8863170221 0)
(0.04598490375 0.9189557916 0)
(0.06568373229 0.6510939965 0)
(0.05553487467 0.6389278315 0)
(0.02889295479 0.4483139515 0)
(0.09837964686 0.187971058 0)
(0.1241438292 0.01416034959 0)
(0.1435979511 -0.04497616123 0)
(0.1677768474 -0.05310593811 0)
(0.2157946017 -0.05750791707 0)
(0.1646494752 -0.06017447923 0)
(0.1489061316 -0.977347043 0)
(0.6765271712 -0.701767424 0)
(0.579650937 -1.073892797 0)
(0.2431678874 -1.045895934 0)
(-0.1998686582 -1.053474013 0)
(-0.4545295721 -1.075742705 0)
(-0.5535046885 -1.055979738 0)
(-0.4557605211 -1.016363198 0)
(-0.1975947397 -0.9601445657 0)
(0.182055101 -0.9393585486 0)
(0.4988039093 -0.9427816635 0)
(0.4953848965 -0.9603343805 0)
(0.4814040793 -0.9642768787 0)
(0.4409767053 -0.9598321514 0)
(0.3524640486 -0.9418017697 0)
(0.2701374962 -0.8789697578 0)
(0.2185698289 -0.8974744083 0)
(0.3009935001 -0.8532369602 0)
(0.3708451307 -0.6498794981 0)
(0.7778238108 -0.529576639 0)
(-0.308812191 0.5289385121 0)
(-0.1009586306 0.09912854665 0)
(-0.06314745177 0.03273645507 0)
(-0.0624840863 0.0253289987 0)
(0.03232318129 0.05956360328 0)
(0.07701567645 0.05865920418 0)
(0.08117800132 0.124492802 0)
(0.1170065932 -0.01436037961 0)
(0.1330478242 -0.05765187297 0)
(0.1332931736 -0.07934621667 0)
(0.1138893261 -0.1220622583 0)
(0.09311348568 -0.1498842604 0)
(0.08789506778 -0.8591943261 0)
(-0.06938141124 -0.7129023009 0)
(-0.06014650782 -0.8306108687 0)
(0.07048558165 -0.8270063049 0)
(0.02512645571 -0.9989542605 0)
(-0.2579909451 -1.150876271 0)
(-0.3371936732 -1.169254254 0)
(-0.277758759 -1.055851768 0)
(-0.08912547987 -0.9709635602 0)
(0.2008284086 -0.9678275066 0)
(0.4171206269 -1.000846834 0)
(0.3989891291 -1.034083111 0)
(0.3714843317 -1.061061718 0)
(0.3303694096 -1.085537389 0)
(0.32469375 -1.04076377 0)
(0.3388004577 -0.9747245202 0)
(0.4157058968 -0.9194261559 0)
(0.5711556023 -0.8212280392 0)
(0.7363072484 -0.6728617708 0)
(1.085386121 -0.5310764165 0)
(0.2385770538 0.514780291 0)
(-0.008898873506 -0.04545113455 0)
(-0.11168287 -0.1013954815 0)
(-0.1083208224 -0.09133927705 0)
(-0.06482110841 -0.07407864814 0)
(-0.02825512199 0.0006220656213 0)
(-0.02485255501 0.08143636975 0)
(0.0465997322 0.05053875154 0)
(0.111344932 -0.1128928546 0)
(0.0864235341 -0.1304398864 0)
(0.02521655724 -0.1547567892 0)
(-0.06266542211 -0.1482212726 0)
(0.07159499102 -0.7875705182 0)
(-0.2878339113 -0.6841348871 0)
(-0.1302718351 -1.147656437 0)
(0.08887362016 -1.387463641 0)
(0.191956197 -1.560281688 0)
(0.2644012886 -1.651615065 0)
(0.2764363264 -1.521780421 0)
(0.2411441195 -1.239368926 0)
(0.2271256223 -0.9484659402 0)
(0.2363078693 -0.6302618032 0)
(0.3405944793 -0.2346764525 0)
(0.3271444161 0.2370931381 0)
(0.291160297 -0.3795141718 0)
(0.2345751852 -0.987970298 0)
(0.2669301802 -0.9082710187 0)
(0.3789948616 -0.8561228541 0)
(0.5467263503 -0.8224016018 0)
(0.7546306388 -0.7528117231 0)
(0.9949217526 -0.642850328 0)
(1.316895768 -0.5239615107 0)
(0.479526341 0.4927089549 0)
(-0.1046871034 -0.122398196 0)
(-0.1117733945 -0.1391589864 0)
(-0.09883056554 -0.1261815451 0)
(-0.07338607383 -0.1083448804 0)
(-0.02955626165 -0.09759524164 0)
(0.02109606475 -0.1113962765 0)
(0.08359931245 -0.1206841685 0)
(0.0649694048 -0.1609348302 0)
(0.02749664613 -0.1732431894 0)
(-0.04301119515 -0.1984868225 0)
(0.1329679531 -0.7372024113 0)
(-0.2096811089 0.02052324764 0)
(-0.2142174484 -0.8590730438 0)
(0.1327468044 -0.9274504923 0)
(0.2781008185 -1.075139048 0)
(0.4220896187 -1.186892238 0)
(0.5573442629 -1.21173624 0)
(0.6566684478 -1.11682463 0)
(0.6839246125 -0.9230163319 0)
(0.6209318698 -0.5936909788 0)
(0.3706500822 0.2830759594 0)
(0.3618824855 0.3331133693 0)
(0.2870985108 -0.3896721638 0)
(0.08135686576 -0.7650540296 0)
(-0.1410986573 -0.5466063705 0)
(0.3392372954 -0.6608723631 0)
(0.6317092539 -0.6987367654 0)
(0.7982686353 -0.602236188 0)
(0.5280085126 -0.3259757267 0)
(0.07907119568 -0.1457396583 0)
(-0.06730234756 -0.1172003166 0)
(-0.0970018357 -0.1568724777 0)
(-0.08534912713 -0.1518909815 0)
(-0.06661740221 -0.1365767429 0)
(-0.04369402351 -0.1295486921 0)
(-0.0375796151 -0.1361035724 0)
(-0.03670541001 -0.1470626466 0)
(-0.009821868587 -0.1729385669 0)
(-0.01776000053 -0.1910224695 0)
(-0.08656443808 -0.1706324592 0)
(-0.117408264 -0.1339798313 0)
(0.1684313293 -0.6967703147 0)
(-0.06921678695 0.4746525544 0)
(-0.3483575773 -0.8301445922 0)
(-0.04236982557 -0.5895281078 0)
(0.1520346339 -0.6440396558 0)
(0.3427026694 -0.7444731356 0)
(0.5348105551 -0.8051041824 0)
(0.734640451 -0.812537278 0)
(0.8751931242 -0.7336509792 0)
(0.806885806 -0.5179492991 0)
(0.3868634689 -0.1892736595 0)
(0.3618717063 -0.1855694002 0)
(0.2964924271 -0.5676634075 0)
(0.08067219075 -0.6561435239 0)
(-0.434369183 -0.5046094615 0)
(0.2760688829 -0.4964723906 0)
(0.6828697321 -0.5851950884 0)
(0.7818346608 -0.5049121133 0)
(0.4072507489 -0.2651159026 0)
(0.001880380533 -0.09209313736 0)
(-0.1235424022 -0.1458038858 0)
(-0.09792585803 -0.1514674542 0)
(-0.07565557446 -0.1369584592 0)
(-0.06218525189 -0.1083224635 0)
(-0.02555667517 -0.07821330159 0)
(-0.02501984138 -0.06230095802 0)
(-0.02174623909 -0.0804181144 0)
(-0.07624466949 -0.09669007057 0)
(-0.07789905309 -0.1401274127 0)
(-0.1145832383 -0.1401173451 0)
(-0.1882116262 -0.1218479477 0)
(0.2005853814 -0.6776076417 0)
(0.09633883311 0.6853261753 0)
(-0.4171663397 -1.038147718 0)
(-0.2726474639 -0.7662882767 0)
(0.09262515014 -0.5438589498 0)
(0.2734403511 -0.5317204893 0)
(0.4485403703 -0.5818824547 0)
(0.6277400916 -0.6038820993 0)
(0.772321934 -0.5783766753 0)
(0.7349574386 -0.4812779333 0)
(0.3392723352 -0.347026636 0)
(0.3038884387 -0.3971865245 0)
(0.1995219389 -0.5372875917 0)
(-0.4864087409 -0.5836316228 0)
(-0.4612752954 -0.5927317985 0)
(0.3743390439 0.5316062887 0)
(0.6923092202 -0.4590284401 0)
(0.9037950645 -0.4846367716 0)
(0.6361251516 -0.3130794026 0)
(0.1758896501 -0.172745625 0)
(-0.094132996 -0.138229308 0)
(-0.08246256516 -0.1259037284 0)
(-0.08256817866 -0.1134588224 0)
(-0.08581291295 -0.08383136935 0)
(-0.06235400461 -0.09833566636 0)
(0.02101697899 -0.04698421215 0)
(0.01015058387 0.03570561686 0)
(-0.1382084687 0.007085905439 0)
(-0.07666038893 -0.05878495169 0)
(-0.1242488433 -0.1432546715 0)
(-0.08922838142 -0.05831352833 0)
(0.2277223196 -0.6542204573 0)
(0.1936779431 0.6654536495 0)
(-0.275292867 -1.141022167 0)
(-0.4243966248 -1.136827812 0)
(-0.2342018685 -0.8953428847 0)
(0.194538224 -0.5531272574 0)
(0.3882035204 -0.4893647439 0)
(0.53810133 -0.5029097699 0)
(0.6518114965 -0.4946446264 0)
(0.6398175373 -0.4468237388 0)
(0.3122224571 -0.3710410687 0)
(0.2568631166 -0.4358297949 0)
(-0.3648391872 -0.5757841147 0)
(-0.2900446595 -0.5462555347 0)
(-0.1134288616 -0.4797446918 0)
(-0.3380381227 0.5592319442 0)
(0.3155025896 -0.4474003993 0)
(1.043197345 -0.4644989164 0)
(0.9170914437 -0.3534157752 0)
(0.5862557436 -0.236376598 0)
(0.1691431219 0.314367941 0)
(-0.1008673608 -0.06263742641 0)
(-0.08610114345 -0.1163695385 0)
(-0.08637450447 -0.0387461483 0)
(-0.0817666439 -0.05885621664 0)
(0.01490268031 -0.03378893232 0)
(-0.0446448088 -0.1209298222 0)
(-0.11940164 -0.02185410487 0)
(-0.1028601908 0.09854440779 0)
(-0.2668961473 -0.09834781681 0)
(-0.1070951171 -0.1612887842 0)
(0.254395556 -0.627667168 0)
(0.2575857248 0.641268156 0)
(0.2936527366 -1.416463317 0)
(0.3965944329 -1.360343705 0)
(0.3881460332 -1.224082846 0)
(0.3442178311 -0.865738215 0)
(0.3788744642 -0.511640127 0)
(0.4626107618 -0.4326619766 0)
(0.5388982615 -0.419662929 0)
(0.5046402509 -0.3914229721 0)
(0.1483939446 -0.3374191783 0)
(0.2702052887 -0.3924561481 0)
(0.3683039387 0.3619416619 0)
(0.3924353342 0.6089525385 0)
(-0.06321890092 -0.4248557526 0)
(0.3094466029 0.4588904806 0)
(0.2650492416 -0.3987418662 0)
(1.166488443 -0.429722442 0)
(1.170130229 -0.3735322277 0)
(0.9897204343 -0.2854690282 0)
(1.300576833 0.3712673486 0)
(0.1205094945 0.09996009739 0)
(0.1332129445 -0.003789112117 0)
(-0.05128477491 0.08301269085 0)
(-0.03218436132 -0.06831042821 0)
(-0.006312861807 -0.06572147151 0)
(-0.08745499978 -0.001522231997 0)
(-0.1388409978 -0.0528455316 0)
(-0.009964471245 -0.09179592223 0)
(-0.08251307932 0.1080094616 0)
(-0.112671533 0.06661852526 0)
(0.2843174973 -0.6078444599 0)
(0.3070008191 0.6232604282 0)
(0.4405803615 -1.375924145 0)
(0.5381719513 -1.246039306 0)
(0.5531645845 -1.142676967 0)
(0.5626376289 -1.015103347 0)
(0.5165742759 -0.7335017584 0)
(0.4605237492 -0.4263486396 0)
(0.4188507097 -0.2858668295 0)
(0.1312651292 -0.2604039288 0)
(-0.6544630347 -0.370733436 0)
(0.2805632919 -0.2481358458 0)
(0.3692958575 0.3382367154 0)
(0.412110973 0.5778559403 0)
(0.2355220423 0.1729789023 0)
(0.284009891 0.2513031906 0)
(0.4194201003 -0.2538707505 0)
(1.220036268 -0.3409021179 0)
(1.394095591 -0.3737545897 0)
(1.322485422 -0.3147624072 0)
(1.273911183 0.34522635 0)
(0.3848855774 0.3322759993 0)
(0.2131571024 0.2581865872 0)
(0.05917022496 0.367634374 0)
(0.01172762398 0.059825965 0)
(0.06010932755 -0.2688674223 0)
(0.05321129441 -0.3076536031 0)
(0.08212110694 -0.08797627913 0)
(0.05841357452 0.2195370007 0)
(0.09164660538 0.3240031156 0)
(0.1364883413 0.3003810442 0)
(0.3172401818 -0.6022513884 0)
(0.3440438656 0.6190650006 0)
(0.5510777869 -1.311905539 0)
(0.6574718287 -1.153759791 0)
(0.6813066764 -1.050211194 0)
(0.7078747253 -0.927800927 0)
(0.7255832717 -0.7603277586 0)
(0.6654896376 -0.4622829361 0)
(0.100358915 -0.05403611661 0)
(-0.886223564 -0.3822889942 0)
(-0.6510022558 -0.367976868 0)
(0.3084379833 0.1258535345 0)
(0.382483821 0.4281551633 0)
(0.4225174905 0.5619024536 0)
(0.3560009678 0.3980558018 0)
(0.3557582217 0.3660178908 0)
(0.3849981072 0.08241031904 0)
(1.116539276 -0.1771995594 0)
(1.582927398 -0.3415235037 0)
(1.582626364 -0.3265764463 0)
(1.133871986 0.3086593334 0)
(0.5931609436 0.4341472962 0)
(0.2999118014 0.4842293682 0)
(-0.08117856773 0.590029469 0)
(-0.03959495285 0.1064846567 0)
(0.07046232978 -0.1422956793 0)
(0.1470486312 -0.1513531202 0)
(0.2818085496 -0.09505870352 0)
(0.08341678327 0.06968786008 0)
(-0.003753731767 0.03015124865 0)
(0.1156079363 0.05878182322 0)
(0.3505983844 -0.6100762266 0)
(0.3874432832 0.6274781248 0)
(0.6459099584 -1.244194191 0)
(0.757326652 -1.071220406 0)
(0.7803345676 -0.9626676679 0)
(0.7994004095 -0.8283506701 0)
(0.7922806854 -0.6432244329 0)
(0.2442319041 -0.4122999879 0)
(-0.853713346 -0.5253241868 0)
(-1.175473888 -0.5990639146 0)
(0.4747043435 0.3091033796 0)
(0.4197405619 0.3498435954 0)
(0.4368205615 0.4440832129 0)
(0.4481156352 0.51581586 0)
(0.4159175918 0.4424290452 0)
(0.4033985249 0.3782308452 0)
(0.4212310825 0.2651969983 0)
(0.9017071594 0.02944219427 0)
(1.652638169 -0.3012945054 0)
(1.785479513 -0.3218861306 0)
(0.8521833594 0.263662627 0)
(0.5093035008 0.3464951995 0)
(0.2404550824 0.3386896352 0)
(0.08194430245 0.14609884 0)
(-0.09710014916 0.05003347764 0)
(-0.008912981982 -0.05668401933 0)
(0.09759448057 -0.09451406906 0)
(0.1806512675 0.002200637545 0)
(0.05624826633 -0.0794077661 0)
(0.1718294692 0.05168121201 0)
(0.1552876929 -0.2713850077 0)
(0.3817928336 -0.6258638665 0)
(0.440377915 0.6440344654 0)
(0.7284784066 -1.179195693 0)
(0.8367204458 -0.9978867245 0)
(0.8505358729 -0.885197954 0)
(0.844318271 -0.7420318521 0)
(0.3939029785 -0.567009117 0)
(-0.6299351583 -0.6115100796 0)
(-0.9629067318 -0.6751258425 0)
(-1.123394741 -0.6843843955 0)
(0.4958705174 0.2594812642 0)
(0.4765060098 0.3250583663 0)
(0.4734981439 0.3807046732 0)
(0.4702528438 0.4217372488 0)
(0.4480680368 0.334147903 0)
(0.4711165542 0.07856526574 0)
(0.4412962208 -0.1610533427 0)
(0.7532837628 -0.145313553 0)
(1.473595612 -0.2859930871 0)
(1.583355484 -0.2993089777 0)
(0.4290174237 -0.02452791009 0)
(0.3145369999 0.2160972596 0)
(0.2084612385 0.145312609 0)
(0.1665153924 -0.2264613383 0)
(0.08918548943 -0.0862342502 0)
(0.06399711131 -0.03865884179 0)
(0.0114982325 0.07663419448 0)
(0.04897777513 0.06570966796 0)
(0.01542938439 0.1046060674 0)
(0.130311957 0.1154603541 0)
(0.1585747887 0.0844686589 0)
(0.4089053861 -0.6445868538 0)
(0.4946636058 0.6631178218 0)
(0.8006648137 -1.119510838 0)
(0.8961918551 -0.935224165 0)
(0.8933054383 -0.819465406 0)
(0.7273611699 -0.6712778997 0)
(-0.1545651397 -0.6383584157 0)
(-0.729249218 -0.7343578922 0)
(-0.9183556908 -0.7644423198 0)
(-0.9117909182 -0.7147204614 0)
(0.5152013423 0.1838679649 0)
(0.5050147531 0.2303494645 0)
(0.4948114614 0.2411653983 0)
(0.2533336225 0.04586138559 0)
(0.4573763902 0.0057072433 0)
(0.3625292113 -0.1867828265 0)
(0.3920199627 -0.3006879883 0)
(0.6341384794 -0.2924076854 0)
(1.101546866 -0.2888707603 0)
(1.207066002 -0.3213377019 0)
(0.3293604419 0.01002864176 0)
(0.2651660616 0.1188403189 0)
(0.2741586881 -0.2264295724 0)
(0.5080845566 -0.4821904198 0)
(0.562455861 -0.1699289796 0)
(0.1387418555 0.0596314312 0)
(-0.04414511941 -0.02109493215 0)
(-0.1268885524 -0.01626224974 0)
(0.06888757503 0.03002994028 0)
(0.1454599383 0.08311935624 0)
(0.1248661245 0.09606913916 0)
(0.4303967106 -0.6623352709 0)
(0.545410123 0.6809547072 0)
(0.8640803136 -1.06556985 0)