/*--------------------------------*- C++ -*----------------------------------*\
  =========                 |
  \\      /  F ield         | OpenFOAM: The Open Source CFD Toolbox
   \\    /   O peration     | Website:  https://openfoam.org
    \\  /    A nd           | Version:  8
     \\/     M anipulation  |
\*---------------------------------------------------------------------------*/
FoamFile
{
    version     2.0;
    format      ascii;
    class       volScalarField;
    location    "1/wallFilmRegion";
    object      delta;
}
// * * * * * * * * * * * * * * * * * * * * * * * * * * * * * * * * * * * * * //

dimensions      [0 1 0 0 0 0 0];

internalField   nonuniform List<scalar> 
1342
(
2.526559801e-06
1.644572644e-06
1.507065181e-05
7.627026739e-05
6.169502672e-05
7.565305038e-06
2.952416054e-06
1.459144634e-05
9.971749304e-06
6.027704356e-06
3.417936829e-06
1.807327142e-06
8.937848815e-07
4.02790876e-07
1.397402437e-07
6.692959587e-08
1.448836494e-07
6.663686892e-07
6.104578614e-08
2.7236218e-08
1.624512333e-08
2.17351041e-08
5.802948393e-08
6.783959227e-08
4.779297152e-08
1.400663231e-06
7.707630951e-07
4.046261606e-07
2.012140888e-07
9.362900428e-08
3.983736239e-08
1.472767008e-08
3.983521444e-09
2.413656977e-09
6.888062123e-09
1.697175562e-08
1.429085556e-08
1.740741574e-08
1.40523947e-08
4.875117376e-09
4.306132804e-09
1.565332545e-08
9.961831609e-09
1.367605298e-07
6.817413825e-08
3.165409197e-08
1.335020756e-08
4.832736421e-09
1.250463597e-09
8.249832644e-10
2.308728441e-09
3.783787407e-10
7.73599131e-10
1.250265635e-08
1.014041125e-05
1.317991877e-06
1.13854424e-09
3.413165589e-10
1.065397791e-09
4.957912885e-09
3.280016633e-09
5.150638021e-09
4.468830301e-09
1.600357812e-09
4.988529497e-10
9.447015803e-10
2.457636773e-08
6.598680291e-06
2.286158283e-09
1.263144954e-10
6.005568883e-11
2.289264385e-10
8.86658583e-10
6.816170135e-10
8.562246378e-10
6.689676097e-10
1.140862475e-09
2.13958713e-09
1.332193289e-07
2.754375059e-08
5.688365061e-11
9.095112588e-12
6.339641219e-12
2.555562274e-11
3.152754634e-11
8.446297224e-11
3.971463537e-11
7.578852204e-12
2.193794692e-11
1.623689665e-09
8.090224563e-10
3.583793996e-10
1.382136624e-10
4.341797075e-11
8.82628525e-12
4.490745582e-12
1.347541156e-11
3.86070624e-11
1.441406905e-07
1.423014352e-06
1.188195093e-07
9.836288936e-08
8.660281696e-08
7.910687311e-08
1.241067564e-06
4.577074099e-05
5.064751957e-08
8.891783728e-08
8.380779154e-05
1.532424193e-07
2.286420707e-07
1.689955026e-05
6.891084632e-06
8.818203757e-06
2.372216642e-05
1.055150873e-05
1.163110789e-05
2.522189807e-05
1.261120022e-05
1.30302796e-05
1.478651823e-05
1.239303058e-05
1.01569893e-05
1.984280231e-05
1.123137545e-05
1.374209926e-05
2.260889433e-05
1.442660749e-05
1.447191933e-05
2.408461949e-05
1.428368322e-05
1.966584119e-05
0.0002840484456
0.000115508748
8.548061655e-05
0.0001911437332
2.839436626e-05
3.059648781e-05
0.001803368433
4.922583533e-05
4.096830602e-05
1.94848259e-06
1.591945765e-05
3.300215171e-06
2.37347636e-06
1.156986302e-06
1.044740265e-06
9.895012952e-06
1.669982659e-06
2.429892766e-06
9.556642071e-06
1.796796158e-06
2.01686095e-06
7.735163263e-06
2.305634493e-06
2.960829876e-06
9.83008441e-06
4.45606904e-06
5.643164666e-06
1.026083994e-05
6.59030222e-06
7.304214143e-06
4.452281669e-05
1.377434287e-05
5.675862244e-05
1.282034895e-05
1.68614368e-05
4.99052918e-06
9.64565982e-06
5.334183901e-06
6.690086444e-06
2.351100715e-05
1.030870052e-05
1.614183651e-05
0.0002293884022
2.158938839e-05
7.562699294e-05
0.0009430603587
0.0002411183336
0.0005398232416
1.364294822e-05
0.0001607965483
2.887754585e-05
1.119635027e-06
5.683835661e-06
1.574055372e-06
1.258825322e-06
1.085177051e-06
9.706529777e-07
4.812360536e-07
6.548449601e-07
4.452159917e-07
8.103917512e-09
6.649579652e-07
1.632101235e-07
1.124748367e-07
4.333197229e-14
5.480562291e-13
8.462467664e-07
3.361737997e-11
1.03135833e-06
3.167889908e-05
1.934832154e-05
2.252073149e-05
2.856121296e-06
5.292876332e-06
1.748262961e-06
4.360066943e-06
1.950085307e-06
2.742931819e-06
1.045631776e-05
4.036131721e-06
6.279291013e-06
3.662419974e-05
8.848830194e-06
1.185224864e-05
0.0002934696625
1.943144679e-05
0.00016478283
0.000176943651
0.002738351317
0.001637566258
3.984726634e-06
0.0004478575527
0.0002100377014
8.735716307e-07
1.739902887e-05
2.685805126e-06
4.110996713e-07
8.250144958e-07
4.388077109e-07
1.01434369e-06
4.097971384e-07
7.306597508e-07
4.473945688e-11
1.734706067e-06
1.268755218e-06
1.78738841e-06
2.03769581e-09
2.75276189e-06
1.737883252e-05
2.069545539e-05
1.343206254e-05
1.080887682e-06
2.389913321e-06
6.494008848e-07
1.653700088e-06
5.751649509e-07
8.710247165e-07
3.907868921e-06
1.423961474e-06
2.610838301e-06
5.539653242e-06
5.763451918e-06
9.778558087e-06
5.585803287e-05
8.12889691e-06
3.982655982e-05
0.002032129427
0.0002738448556
0.003706190354
0.0008000065101
0.0001041920743
9.078316853e-05
0.001074404281
0.0004346222144
0.0007040179845
6.709769028e-05
0.0001699600207
1.403515898e-05
1.607735525e-06
5.939083769e-06
1.882570917e-06
6.503073352e-07
7.42099238e-07
6.142479719e-07
3.035730798e-06
1.254230776e-06
2.944001375e-06
3.496505515e-06
5.85111292e-06
3.666474841e-06
9.890690857e-06
1.444091205e-05
6.507755229e-06
3.692564953e-07
9.574675149e-07
2.038214892e-07
3.355138509e-07
8.4722467e-08
1.023299236e-07
1.210696198e-06
2.57861148e-07
6.057242953e-07
5.563039276e-06
1.025164559e-06
8.535390533e-07
0.001248790175
5.495246849e-06
0.000153114713
0.007385148384
0.001120440101
0.01000694561
2.212732474e-05
1.64571917e-05
1.335696863e-05
0.0003409417846
2.272062063e-05
9.526096745e-06
9.520236732e-06
3.05657347e-07
6.341054916e-06
1.907643326e-06
4.256867362e-06
1.86183621e-06
5.924596865e-07
8.21691146e-07
5.821962161e-07
2.982259722e-06
1.084586926e-06
3.157382915e-06
3.536521853e-06
8.348820768e-06
4.32440576e-06
2.943114941e-06
1.19497386e-06
7.336532045e-07
1.213388252e-07
9.202471597e-08
4.359796338e-08
1.303620466e-07
5.614646889e-08
1.315501188e-07
8.484287157e-07
3.592495059e-07
7.837196054e-07
1.147496424e-06
1.056498849e-06
2.611377474e-06
6.256275034e-05
1.040455109e-05
7.489253302e-05
9.899019819e-06
9.958636211e-06
6.497929045e-06
1.176776597e-05
1.044689456e-05
7.566966242e-07
1.324297501e-06
1.590018886e-06
5.591849008e-06
2.381270284e-06
5.807711228e-06
1.795018003e-06
3.134958928e-06
1.467106653e-06
6.683708961e-07
7.894668363e-07
1.81496965e-06
4.405499878e-06
4.643594209e-06
5.002443878e-06
1.883544967e-06
3.539084832e-06
1.147281655e-06
3.249076554e-07
4.789964183e-07
2.2916518e-07
3.968909805e-08
8.013403558e-08
5.252052375e-08
4.422879314e-08
5.236172392e-08
8.62136998e-08
2.440827012e-08
1.881303115e-07
1.615136415e-07
5.840473817e-06
6.973643343e-06
1.848954282e-05
0.0001474585703
8.524732598e-05
0.0004048674889
2.408208661e-05
0.0001518792423
2.419864795e-05
0.0001831630833
0.0001599707539
3.095195827e-06
0.0001036222834
9.577722707e-06
5.306196016e-06
9.511463558e-06
5.639720579e-06
1.384464455e-06
2.643126992e-06
3.560387983e-06
3.906150364e-06
4.922713548e-06
6.198254455e-06
3.790908149e-06
6.661979128e-06
5.793230584e-06
9.495553866e-07
3.837902286e-06
1.843557618e-06
2.522859927e-07
8.511309504e-07
5.390862863e-07
1.882708706e-07
4.483279122e-07
4.354765569e-07
3.654216191e-07
3.893861572e-07
1.20525276e-07
7.684609319e-06
3.417100095e-05
5.960327517e-05
3.479760513e-10
2.59798615e-10
1.337281049e-09
5.61865621e-10
9.589217379e-10
3.041090892e-09
1.470150844e-09
2.175371899e-09
8.561751579e-07
9.42240475e-09
1.027470103e-06
1.128372622e-05
6.055193966e-06
1.149328954e-05
9.794185595e-06
1.135842878e-05
5.885734696e-06
8.342539455e-07
1.498775206e-06
2.600812021e-07
5.434387468e-08
5.128503245e-08
1.659853369e-08
3.861072071e-08
1.391448613e-08
2.06757258e-08
3.395988944e-08
3.49964234e-08
3.372183545e-08
2.884543577e-08
3.44196944e-08
2.082994229e-08
2.164117158e-10
7.372901672e-10
1.636085565e-09
1.228333883e-06
1.082734326e-05
2.986359667e-06
6.872364246e-08
5.791650809e-09
2.052170104e-10
4.040563818e-10
1.596953539e-06
8.767539075e-06
9.367063762e-06
5.197244403e-06
2.719528172e-09
9.923839957e-09
3.366128324e-09
4.681579673e-09
1.814717314e-08
7.573132943e-09
1.933900238e-08
1.019051485e-08
1.035152042e-08
2.094723851e-10
5.610346664e-10
1.112480076e-09
7.91296877e-10
1.159443942e-09
3.033107555e-06
1.534520525e-08
5.814011683e-06
9.890333014e-09
4.643921212e-07
2.983578439e-09
2.518722595e-10
5.923603801e-10
1.23040144e-10
5.927430992e-10
2.412334757e-09
4.502795409e-09
1.745412127e-09
5.586244767e-09
2.544979702e-09
2.790943848e-09
1.56578311e-09
2.916715349e-10
2.432075776e-09
4.238246569e-06
4.820228134e-08
2.787162647e-10
9.010161738e-11
2.596455214e-11
3.136236328e-11
7.457692417e-12
1.192458637e-10
1.940159959e-11
4.831640585e-10
1.6371571e-10
1.502220587e-10
2.251185164e-09
1.095503753e-08
1.445781364e-11
4.317107215e-11
3.155799477e-11
0.0001289436075
5.858120459e-09
0.0001442186362
1.388654412e-08
4.971401389e-05
4.594961626e-08
2.47389066e-05
5.720765606e-06
0.0001294520178
3.600740627e-05
0.0003418595825
3.190596434e-05
0.0003871420102
7.403585633e-06
0.0006619541838
1.733804169e-06
5.655129559e-06
0.001463409271
6.789985114e-06
1.334923596e-05
2.055237737e-05
2.563492628e-05
2.16611743e-05
1.402134835e-05
2.193050536e-05
2.259353878e-05
8.610865149e-05
0.0001582651364
0.001028629393
0.002232310642
1.784772584e-06
0.0008574931135
1.264437059e-06
1.634727325e-06
2.100002286e-06
4.329270096e-06
9.953066181e-06
8.378174302e-06
9.002966751e-06
1.015455662e-05
1.144083862e-05
5.638915539e-05
8.710104268e-06
1.581447433e-05
7.640314963e-05
0.0006710128313
1.620174011e-06
1.065643333e-06
0.0008460228
5.060482025e-05
2.884356686e-06
1.195540505e-06
8.613105968e-07
1.16595891e-08
3.860280325e-08
2.532927676e-07
1.69384914e-05
8.504183666e-06
3.25583203e-06
6.607341524e-06
1.365275998e-05
7.708501882e-05
0.0008295951808
0.0007358207847
1.459095989e-05
1.370314513e-06
5.902539987e-07
4.702477651e-07
6.105564479e-07
2.30469892e-10
2.04943963e-05
3.539366156e-06
1.123517595e-06
2.414818232e-06
6.098481584e-06
8.784379283e-06
0.0003559656947
0.001122700912
0.000349793298
0.0005005377522
7.913692994e-06
6.172941429e-07
1.462238594e-06
1.172663648e-06
1.889696902e-05
1.576330043e-06
2.375740785e-07
6.237720482e-07
2.756519539e-06
0.0001198892013
0.0005465027879
2.609506602e-05
0.0001572850438
3.887030303e-05
4.92091343e-06
8.013518927e-07
1.113652245e-06
6.11031475e-06
6.432302844e-06
4.403252456e-07
7.531137226e-08
3.570565561e-07
1.339177136e-06
4.897401192e-06
0.001086558537
1.242508873e-05
6.20181859e-07
8.866937108e-07
3.780064214e-06
8.398456327e-07
1.425246214e-06
7.461557149e-06
6.06987354e-07
7.290875948e-08
3.566106777e-08
5.638912478e-08
1.904242245e-06
2.658270354e-05
0.001187205269
2.921277551e-05
2.660040025e-05
3.016074955e-06
4.488634164e-06
2.013159967e-06
2.354592229e-06
4.796167881e-06
2.254114101e-06
4.697629564e-07
1.611137032e-07
2.856401797e-07
4.128066885e-07
4.20276552e-05
0.0003403788914
0.0009966980402
0.0008456028296
0.0001926248533
9.625632749e-06
1.485848932e-05
1.564041988e-05
2.812817504e-05
5.382184455e-05
1.127277912e-06
9.78132714e-06
0.0003230981053
1.641233806e-06
0.0006103112928
3.519473252e-12
7.701397533e-10
2.064249946e-09
1.084165816e-08
4.705783366e-06
1.427444653e-05
3.554679413e-06
1.859875351e-07
3.227788551e-08
5.078801046e-08
6.047176702e-08
2.86785221e-08
5.147988423e-08
4.820182227e-08
3.962971041e-08
2.408020349e-08
3.826968212e-08
3.006046717e-08
4.465119909e-10
1.108280556e-09
9.45471877e-10
9.059797664e-09
1.012417533e-08
7.533184205e-06
8.067312724e-06
5.105016991e-07
1.764733058e-07
1.366269539e-08
4.948291449e-09
6.982162961e-09
1.917472927e-08
2.071726861e-08
1.861256945e-08
5.143484669e-09
3.725455348e-09
2.628278307e-09
5.510762986e-09
1.49248876e-09
9.008613043e-10
2.466199056e-09
3.764495353e-08
2.56526363e-08
1.945672683e-08
9.274654414e-09
6.451526988e-09
3.956493908e-09
1.417543987e-09
9.791862305e-10
3.515065337e-10
2.288774271e-10
1.526552242e-10
6.362352089e-10
4.475980753e-10
1.302496388e-09
3.844863713e-10
3.993361583e-10
3.595588564e-10
7.378071105e-11
6.25588523e-09
2.896499635e-09
5.542607279e-10
1.842275625e-10
1.009179679e-10
2.265563877e-11
4.499026435e-10
1.618358131e-10
5.480548172e-09
1.046330193e-08
1.998757285e-07
1.63496565e-08
9.074742517e-09
3.385786655e-11
9.638413801e-12
1.887442216e-12
1.244931249e-12
4.943224831e-12
1.488965202e-10
5.643408287e-21
2.379462658e-20
2.011378519e-08
3.341588098e-12
6.646810599e-13
4.044701654e-13
1.657145579e-12
5.694027236e-12
1.751000797e-09
9.142075927e-10
5.423920174e-10
3.125728543e-12
9.613393516e-13
1.90155073e-13
9.977617609e-14
3.895389135e-13
1.291707732e-12
2.011164841e-10
9.29067229e-11
3.868730713e-11
1.409066535e-11
4.194620766e-12
7.993118926e-13
3.614513358e-13
1.184441657e-12
3.167164419e-12
0.000132611144
3.082534406e-09
8.027629459e-05
5.392831791e-10
0.0001355893851
9.362636175e-09
7.376771207e-05
6.462692771e-05
1.182467977e-09
2.019437153e-09
0.0001035565694
1.912497218e-08
5.434953511e-05
4.346007484e-05
3.082227087e-09
4.456757571e-09
2.327380785e-05
1.262971184e-06
3.320752239e-05
2.093440456e-05
1.353887358e-08
7.39115943e-07
5.280354226e-05
1.772584298e-05
1.711334855e-05
2.408362274e-05
3.845674617e-06
1.055920255e-05
0.0002464151446
4.308671305e-05
2.660897733e-05
2.995166467e-05
1.623105674e-05
1.383274781e-05
0.0003796885732
1.681230731e-05
3.262668012e-05
3.15442523e-05
6.571727588e-06
2.020705072e-06
0.0004495640963
3.184816273e-06
5.131834203e-05
0.0002728698956
5.373965542e-07
1.614819963e-07
0.001098514958
1.590596224e-06
0.0002505003451
0.0005427333211
7.706398761e-08
7.492770779e-08
0.001619537644
0.0008726002456
1.29742735e-07
0.00143415931
0.001252166748
0.0007950518747
0.001154459645
0.001172872479
0.001109610521
8.842372993e-08
0.0008900050459
6.974921068e-08
6.261934548e-08
0.001007716664
0.0006011105933
1.234051476e-06
0.00143367371
5.265725912e-08
4.050036492e-08
0.004876380674
0.001047836081
0.0001039930289
5.58673517e-05
0.002741491659
2.469590417e-07
2.677298396e-07
2.456725291e-07
1.085352204e-05
0.001359449692
1.685200896e-07
7.025667644e-05
0.0002661976833
2.587177022e-06
0.0004212356653
4.625311425e-06
0.0009568806378
0.0009109394099
1.497836846e-07
1.106820267e-07
8.888036578e-08
0.0008356204731
0.0005037483201
1.640771822e-05
3.065881e-06
0.00101049201
0.0005443747033
0.0005970457676
1.23564434e-05
2.358374502e-06
1.769414967e-06
0.0005628796652
0.0006314905506
0.0005910620604
7.807946018e-06
1.304580498e-06
9.508352128e-07
5.428803873e-05
0.0005484420162
0.000485273747
4.588121438e-06
6.863346724e-07
4.896077611e-07
1.372458382e-05
0.0004834580625
0.0004664439953
2.504820333e-06
3.44809746e-07
2.393451068e-07
1.628133543e-05
0.0004576583556
0.0004502541404
1.282807452e-06
1.634102314e-07
1.093493532e-07
9.271354749e-06
0.0004431207455
0.0004442222215
6.089556161e-07
7.1374368e-08
4.512933931e-08
8.521470731e-05
0.0004508209379
0.0004814737433
2.529803454e-07
2.735335283e-08
1.557282961e-08
2.600270221e-06
0.0005437916594
0.0005938425186
6.206361527e-08
7.837030277e-09
2.587171765e-09
2.604576639e-07
0.0006144347596
0.0006051882379
8.780650274e-08
4.380217957e-09
7.186042678e-09
3.964421648e-05
0.000613261555
0.000691734028
2.801061992e-07
1.193118245e-08
1.921119365e-08
1.246264249e-06
0.0004282989268
0.0008399954354
4.456885073e-08
3.011720289e-08
7.224803676e-08
5.57259551e-08
5.626981335e-08
2.974261159e-08
4.300399641e-08
2.657581657e-08
1.517793552e-08
2.213666819e-08
1.673536843e-08
1.076592162e-08
1.354804902e-08
1.6492777e-08
8.843454498e-09
8.24895352e-09
3.722386382e-08
9.614154099e-09
1.646589888e-08
6.485815231e-08
7.408597032e-08
2.990718069e-08
3.312405544e-08
4.141217348e-08
7.008891771e-08
4.050184384e-08
5.50258686e-08
2.765043247e-08
3.472542921e-08
3.502510964e-08
1.848957099e-06
1.045530217e-06
5.61827772e-07
3.199086593e-07
2.874691667e-07
2.304557021e-07
1.636235101e-07
1.385387488e-07
1.143655342e-07
7.857013062e-08
6.189661708e-08
5.293659386e-08
3.48565853e-08
2.477825476e-08
2.232283188e-08
1.37922458e-08
8.181053677e-09
8.124849779e-09
4.457600864e-09
1.316709073e-09
2.135903797e-09
7.281451822e-10
4.08296448e-09
1.371299872e-09
2.316107605e-09
1.131420816e-08
3.913634935e-09
6.617892416e-09
2.2790865e-08
1.045631755e-08
1.314188662e-08
2.143391735e-08
1.732798387e-08
6.446038318e-10
1.388476596e-09
1.366344685e-06
2.194920275e-08
1.937562207e-08
9.235546861e-09
1.023848036e-08
8.701623148e-09
8.629675464e-09
5.234226674e-09
7.345608475e-09
1.227315968e-08
8.612154527e-09
6.244115223e-09
5.365445716e-09
2.749430711e-09
4.222669381e-09
2.28271007e-09
1.182666238e-09
6.586710092e-09
2.771848265e-09
2.132698647e-09
9.133963257e-10
1.718993864e-08
7.909449591e-09
7.356769691e-09
1.009474899e-08
9.979592698e-09
5.477740038e-09
6.757968386e-09
1.461449914e-08
1.264361342e-08
9.242814619e-09
8.604752294e-09
1.215059428e-07
1.893941504e-07
9.732163259e-08
8.814519218e-08
6.300070079e-08
4.431651376e-08
3.061157885e-08
4.692384167e-08
2.071267917e-08
1.368053613e-08
2.085461334e-08
8.234458533e-09
8.769878387e-09
5.409067408e-09
3.16839553e-09
1.718323803e-09
2.63317076e-09
2.810798308e-10
4.335442368e-10
8.107625449e-10
5.379462788e-10
1.37987001e-09
8.994978792e-10
3.9347848e-09
1.463414217e-09
1.887792021e-09
7.034888472e-09
2.743257006e-09
3.852448515e-09
5.063222713e-09
2.311997038e-10
4.05417523e-10
5.857078248e-10
3.992504877e-06
9.51764955e-06
3.513220908e-06
1.987452817e-10
3.582679416e-10
6.421009416e-10
1.207100197e-09
7.067960331e-10
1.498418356e-09
2.549084084e-07
4.262206857e-10
1.976729191e-09
7.618637254e-10
1.115563389e-09
2.636892403e-09
4.438367794e-09
2.831376227e-09
1.753924877e-09
1.707220236e-10
4.78178599e-10
3.504903477e-10
1.141816127e-10
5.019702267e-10
1.664742228e-10
1.108407953e-09
2.603152874e-09
8.783442791e-10
1.296179526e-09
6.96056406e-10
2.654382694e-09
2.05639097e-09
1.173248398e-08
1.874524056e-08
8.670604093e-09
1.344000935e-08
9.426794147e-09
3.00107975e-09
1.981518472e-09
2.752072855e-09
1.259817676e-09
4.352809171e-10
5.20753925e-10
2.266395573e-10
2.388192305e-10
7.84837879e-11
6.064984823e-11
1.044818442e-10
4.147750419e-10
1.718966124e-10
2.793424901e-09
2.622071194e-09
1.038236982e-09
8.208890445e-10
3.628053609e-09
1.707081887e-09
1.313501432e-09
5.110182684e-08
3.451982248e-08
2.729778322e-08
1.358878627e-08
6.159250759e-09
4.287793461e-09
2.436282366e-09
1.690264547e-09
7.590335581e-10
1.179419131e-10
3.92370618e-10
2.5960987e-10
1.022131759e-09
6.503276796e-10
4.128964612e-10
6.875527383e-10
9.597809373e-10
1.287044085e-09
3.535024838e-06
2.051355678e-06
1.795098133e-09
4.014810408e-11
7.757878905e-11
1.912304979e-10
2.569992147e-10
7.130978154e-10
1.117279206e-09
1.564419676e-09
1.679062455e-09
5.650183947e-09
3.198633885e-09
2.167426183e-06
2.440642785e-07
1.13942655e-06
1.361183564e-10
7.576941579e-11
2.33774313e-11
2.350465113e-12
5.716789004e-12
1.483959418e-12
1.33204074e-11
3.991838008e-12
8.410088348e-12
5.593240989e-11
1.64069377e-11
3.373111226e-10
6.26793612e-11
2.880516781e-10
8.693611774e-11
4.358667687e-10
1.170521784e-09
5.625879895e-11
3.277268572e-10
5.968889615e-11
7.127513939e-10
2.273914619e-10
1.676075787e-10
5.117119244e-11
2.07616534e-11
6.092856092e-11
3.854317342e-11
1.137902153e-11
1.576726071e-11
6.009871079e-11
2.841913069e-11
4.882636672e-11
1.990623358e-10
1.612553037e-10
3.943731564e-11
3.2856356e-09
5.463342856e-09
2.451982239e-09
4.036179711e-09
1.77459847e-09
1.246130172e-09
8.489556687e-10
2.270153321e-10
1.360748671e-09
5.605628361e-10
3.574363028e-10
2.189653185e-10
3.300484248e-10
1.275940929e-10
2.135840898e-11
6.962321951e-11
3.448170489e-11
2.224458317e-12
4.037153567e-11
1.437596474e-11
1.139880115e-11
3.712872248e-12
7.463151264e-12
1.324600459e-11
6.512387468e-11
2.180886016e-11
3.617383106e-11
1.036307412e-10
1.758198716e-10
4.274132683e-10
5.15981512e-11
2.432598169e-10
2.515525829e-10
1.554172432e-08
7.19503657e-09
4.396146339e-09
2.017120373e-09
8.859031227e-10
7.639941221e-10
9.361937602e-11
3.085392413e-11
3.952774937e-11
2.820346717e-10
1.157469425e-10
4.586009798e-09
3.332745437e-08
6.78421176e-09
1.474259322e-08
1.168300528e-08
3.211866377e-08
9.940331437e-09
9.236344131e-09
2.431642494e-08
9.377434136e-09
1.072116841e-08
1.835928472e-11
1.301767222e-08
1.127969573e-11
4.587972457e-12
5.910633201e-12
2.845130144e-12
4.820045027e-13
1.171422858e-12
2.947979897e-13
2.606870297e-12
7.491079926e-13
1.570395675e-12
8.551226562e-12
3.04756675e-12
5.933907372e-12
9.347742368e-12
1.604562765e-09
1.659688912e-09
8.972678289e-22
4.863780223e-10
9.855727507e-20
1.252145292e-20
1.407079138e-16
3.741236707e-16
9.571996307e-16
8.061957397e-16
7.381340594e-09
6.490494879e-12
4.186971991e-09
3.491952421e-12
1.617217323e-12
1.801016286e-12
8.765257024e-13
1.635260807e-13
3.590140501e-13
8.597375062e-14
8.460399329e-13
2.052687301e-13
4.257992538e-13
3.099746648e-12
8.293975454e-13
1.564686307e-12
8.060937287e-12
2.763095137e-12
4.318718243e-12
1.357398242e-11
2.278453712e-09
5.024302137e-11
1.40442246e-09
3.537388041e-11
2.436348775e-11
6.697395763e-10
1.63793338e-11
1.071919804e-11
4.709724554e-10
6.797481658e-12
4.152701879e-12
1.784333599e-12
2.427657864e-12
1.35022401e-12
4.676140843e-13
7.035316469e-13
3.323115165e-13
4.394045048e-14
1.308567481e-13
2.770008366e-14
2.029174898e-13
5.746451888e-14
1.120743821e-13
7.273388971e-13
2.082061396e-13
3.736207976e-13
2.005169314e-12
6.710764537e-13
9.583728835e-13
1.152890273e-11
1.251644405e-11
2.85656667e-10
5.973356586e-10
2.201700993e-09
1.383412866e-10
4.237753418e-10
2.931316369e-10
1.16280795e-09
6.082251378e-11
1.977044433e-10
1.298778776e-10
5.467264706e-10
2.380330385e-11
8.289406127e-11
5.117962806e-11
7.942177166e-12
3.040406311e-11
1.71934048e-11
8.004911047e-11
2.006280687e-12
9.102686641e-12
4.363446469e-12
1.773779221e-13
1.743468527e-12
3.947538692e-13
6.757594658e-13
8.004950188e-13
1.47397168e-12
8.03759275e-12
2.14526506e-12
2.509322789e-12
3.927426163e-12
1.755895905e-11
2.655159737e-11
)
;

boundaryField
{
    walls
    {
        type            zeroGradient;
    }
    wallFilmFace_top
    {
        type            zeroGradient;
    }
    region0_to_wallFilmRegion_wallFilmFace
    {
        type            zeroGradient;
    }
    mirrorFace_top
    {
        type            zeroGradient;
    }
    region0_to_wallFilmRegion_mirrorFace
    {
        type            zeroGradient;
    }
    procBoundary3to2
    {
        type            processor;
        value           nonuniform List<scalar> 
64
(
3.013640073e-05
2.413158727e-06
7.942142569e-07
4.382971867e-07
2.588345803e-07
8.867742531e-21
3.827823317e-21
9.312672725e-22
2.898400455e-09
1.019769619e-05
4.30897439e-06
5.408005563e-06
5.408005563e-06
2.021002459e-06
6.122572922e-05
0.0001616177201
0.0003804621945
0.000957464623
0.002602869418
0.001280658745
0.0001752583751
4.987527498e-05
1.774920239e-05
1.774920239e-05
9.273861875e-05
3.851578191e-05
3.851578191e-05
7.439741447e-05
0.0001328552272
0.0001328552272
3.499134027e-13
3.222407552e-20
3.222407552e-20
1.993940033e-20
1.469647498e-20
0.0001409142396
7.843685287e-10
8.421855184e-05
0.0007569109502
2.844087584e-11
6.847531793e-08
5.954401302e-22
1.775001846e-22
4.700319434e-08
3.916989057e-09
3.964658481e-10
8.421855184e-05
2.844087584e-11
0.001205407728
3.898632994e-06
1.051370673e-06
5.933254539e-07
4.382971867e-07
1.653595691e-07
6.867095413e-21
4.581319186e-08
2.023233128e-08
2.014271382e-21
9.256630463e-09
4.274016468e-09
2.816868544e-08
5.418344148e-08
6.99272309e-11
8.204721545e-10
)
;
    }
}


// ************************************************************************* //
