/*--------------------------------*- C++ -*----------------------------------*\
  =========                 |
  \\      /  F ield         | OpenFOAM: The Open Source CFD Toolbox
   \\    /   O peration     | Website:  https://openfoam.org
    \\  /    A nd           | Version:  8
     \\/     M anipulation  |
\*---------------------------------------------------------------------------*/
FoamFile
{
    version     2.0;
    format      ascii;
    class       volScalarField;
    location    "1/wallFilmRegion";
    object      kappa;
}
// * * * * * * * * * * * * * * * * * * * * * * * * * * * * * * * * * * * * * //

dimensions      [1 1 -3 -1 0 0 0];

internalField   nonuniform List<scalar> 
1342
(
0.608809978
0.6088099815
0.6088099912
0.6088099921
0.6088099934
0.6088099932
0.6088099881
0.6088099938
0.608809993
0.6088099912
0.6088099877
0.6088099808
0.6088099674
0.6088099419
0.6088098936
0.6088098234
0.6088098873
0.6088099576
0.6088098795
0.6088098398
0.6088097542
0.6088097884
0.6088098787
0.6088098914
0.6088098519
0.6088099841
0.6088099736
0.6088099548
0.6088099195
0.6088098496
0.6088097076
0.6088094423
0.6088090169
0.6088088757
0.6088092907
0.6088096216
0.6088096295
0.6088097525
0.608809747
0.6088094829
0.6088094308
0.6088097012
0.6088095286
0.6088098915
0.6088098082
0.6088096498
0.6088093525
0.6088088987
0.6088084374
0.6088084485
0.6088088229
0.6088086819
0.608808779
0.6088097377
0.6088099817
0.6088099711
0.6088086666
0.6088084945
0.6088087485
0.6088094124
0.6088093842
0.6088093998
0.6088093423
0.6088088131
0.6088089104
0.6088090744
0.6088098802
0.6088099818
0.6088090969
0.6088084384
0.60880845
0.6088085471
0.608808805
0.6088089956
0.6088088531
0.6088087034
0.6088093625
0.6088094838
0.6088099444
0.6088098677
0.608808552
0.608808481
0.6088084782
0.6088084926
0.6088086182
0.6088083733
0.6088086045
0.6088086685
0.6088086201
0.6088089393
0.6088087053
0.608808546
0.6088084831
0.6088084961
0.6088086084
0.6088086679
0.6088086078
0.6088085538
0.6088099198
0.6088099771
0.6088099208
0.608809921
0.6088099225
0.6088099222
0.6088099802
0.6088099918
0.6088098722
0.6088099036
0.6088099925
0.6088099291
0.6088099424
0.6088099973
0.6088099954
0.6088099955
0.6088099976
0.6088099957
0.6088099959
0.6088099978
0.6088099961
0.6088099963
0.608809998
0.6088099965
0.6088099966
0.608809998
0.6088099968
0.6088099968
0.6088099977
0.6088099968
0.6088099967
0.6088099971
0.6088099967
0.6088099966
0.6088099867
0.6088099889
0.6088099851
0.6088099887
0.6088099827
0.6088099819
0.6088099801
0.6088099815
0.6088099814
0.608809996
0.6088099905
0.6088099924
0.608809996
0.608809997
0.6088099974
0.6088099955
0.608809997
0.6088099975
0.6088099953
0.6088100037
0.608810006
0.6088099951
0.6088100053
0.6088100047
0.6088099951
0.6088100009
0.6088099987
0.6088099951
0.6088099974
0.6088099966
0.6088099913
0.6088099936
0.6088099883
0.6088099851
0.6088099875
0.6088099862
0.608809982
0.6088099837
0.6088099822
0.6088099813
0.6088099815
0.6088099812
0.6088099849
0.6088099812
0.6088099813
0.6088099905
0.6088099879
0.6088099914
0.6088099899
0.6088099891
0.6088099893
0.6088099961
0.6088099905
0.6088099941
0.6088099991
0.6088099979
0.6088100004
0.6088100267
0.6088100067
0.6088100205
0.6088102335
0.608810018
0.6088101025
0.6088100855
0.6088103447
0.6088103558
0.6088100126
0.6088103607
0.6088099921
0.6088099883
0.6088099887
0.6088099892
0.6088099883
0.6088099909
0.6088099914
0.6088099826
0.6088099866
0.6088099834
0.6088099811
0.6088099818
0.608809981
0.6088099812
0.6088099807
0.6088099809
0.6088099918
0.6088099809
0.608809991
0.608809989
0.6088099897
0.6088099897
0.6088099923
0.6088099896
0.6088099891
0.6088100012
0.6088099906
0.6088099959
0.6088100192
0.6088100045
0.6088100171
0.6088100105
0.6088100246
0.6088100149
0.608810355
0.6088100028
0.6088100104
0.6088099919
0.608810255
0.6088099923
0.6088099903
0.6088099905
0.6088099913
0.608809996
0.6088099954
0.6088100031
0.608809985
0.6088099976
0.608809989
0.6088099813
0.6088099843
0.6088099822
0.6088099806
0.608809981
0.6088099808
0.6088099852
0.6088099813
0.6088099822
0.6088099947
0.6088099936
0.6088099951
0.6088099906
0.6088099919
0.6088099909
0.6088099883
0.6088099883
0.6088099879
0.6088099888
0.6088099885
0.6088099891
0.6088099964
0.6088099906
0.6088099953
0.6088100164
0.6088100075
0.6088100168
0.6088099966
0.6088100065
0.608809997
0.608809993
0.6088099922
0.6088099976
0.6088099923
0.6088099924
0.6088099935
0.6088100149
0.6088100022
0.6088100318
0.6088100026
0.6088100744
0.6088100525
0.6088099863
0.6088100143
0.6088100007
0.6088099814
0.6088099968
0.6088099957
0.6088099827
0.6088099943
0.6088099926
0.6088099941
0.6088099913
0.6088099911
0.6088099903
0.6088099925
0.6088099893
0.6088099875
0.6088099869
0.6088099868
0.6088099894
0.6088099921
0.6088099897
0.6088099953
0.6088099913
0.6088099956
0.6088100169
0.6088100059
0.6088100175
0.6088099973
0.6088100095
0.6088099973
0.6088099955
0.6088099906
0.60880999
0.6088099955
0.6088099987
0.6088100013
0.6088100426
0.6088100407
0.6088100841
0.6088100344
0.6088100674
0.6088100254
0.6088099984
0.6088100044
0.6088099978
0.6088099954
0.608809996
0.6088099954
0.6088099944
0.6088099953
0.6088099953
0.6088099931
0.6088099961
0.608809992
0.6088099967
0.6088099943
0.6088099903
0.60880999
0.60880999
0.6088099898
0.60880999
0.6088099901
0.6088099967
0.6088099933
0.608810001
0.6088100193
0.6088100162
0.6088100057
0.6088099949
0.608809995
0.6088099927
0.6088099939
0.6088099922
0.6088099974
0.6088100087
0.6088100062
0.6088100175
0.6088100952
0.608810057
0.6088100835
0.6088100779
0.608810083
0.6088100481
0.6088100484
0.6088100165
0.6088100017
0.6088099954
0.6088099953
0.6088099953
0.6088099956
0.6088099955
0.6088099957
0.6088099977
0.6088099978
0.6088099971
0.6088099977
0.6088099975
0.6088099901
0.6088099968
0.6088099915
0.608809991
0.6088099917
0.6088099938
0.6088100059
0.6088099994
0.6088099988
0.6088099962
0.608809996
0.6088099942
0.608809993
0.6088099936
0.6088099945
0.6088100005
0.6088099967
0.6088100015
0.6088100209
0.6088100084
0.6088100144
0.6088100265
0.6088100181
0.6088100176
0.6088100056
0.6088100145
0.6088100089
0.608809995
0.6088099946
0.6088099948
0.6088088065
0.6088087016
0.6088088013
0.6088086914
0.6088087097
0.6088089369
0.6088087546
0.6088088353
0.6088099744
0.6088095202
0.6088099763
0.6088099787
0.6088099803
0.608809979
0.6088099732
0.6088099764
0.6088099728
0.6088099604
0.6088099664
0.6088099472
0.608809856
0.6088098729
0.6088096904
0.6088097968
0.608809601
0.6088096982
0.6088098046
0.6088098219
0.6088098309
0.6088098374
0.6088098678
0.6088098103
0.6088086614
0.6088086794
0.6088087997
0.6088099781
0.6088099793
0.6088099716
0.6088099109
0.6088094154
0.6088086718
0.6088086743
0.6088099795
0.6088099812
0.6088099793
0.6088099757
0.6088091809
0.6088095333
0.6088091723
0.6088092768
0.6088097067
0.608809472
0.6088097531
0.6088096055
0.6088096585
0.6088086491
0.6088087238
0.608808893
0.6088088938
0.6088090392
0.6088099811
0.6088098033
0.6088099791
0.6088095303
0.6088099642
0.6088091322
0.6088084564
0.6088085743
0.6088084504
0.608808594
0.6088090727
0.6088093499
0.608808984
0.6088094759
0.608809179
0.6088092736
0.6088091566
0.6088088337
0.6088094899
0.6088099821
0.608809922
0.6088085946
0.6088084849
0.6088084267
0.6088084498
0.6088084446
0.6088084881
0.6088084565
0.6088086498
0.6088086117
0.6088086947
0.6088095759
0.608809778
0.6088086222
0.6088085363
0.6088086484
0.6088099981
0.6088091055
0.6088099979
0.6088092585
0.6088099966
0.6088096409
0.6088099861
0.6088099782
0.6088099766
0.6088099751
0.6088099693
0.6088099689
0.6088099631
0.6088099615
0.6088099601
0.6088099521
0.6088099765
0.6088099587
0.6088099723
0.6088099971
0.6088099975
0.6088099977
0.6088099979
0.6088099981
0.6088099979
0.6088099974
0.6088099923
0.6088099851
0.6088099745
0.6088099801
0.6088099809
0.6088099858
0.6088099767
0.608809996
0.608809996
0.6088099958
0.6088099954
0.6088099952
0.6088099951
0.6088099951
0.6088099951
0.6088099871
0.6088099831
0.6088099815
0.6088099812
0.6088099904
0.6088099813
0.6088099775
0.6088099909
0.6088099896
0.6088099921
0.6088099978
0.608810006
0.6088102703
0.6088101389
0.6088100526
0.6088099892
0.608809989
0.6088099847
0.6088099816
0.608809981
0.6088099813
0.6088099928
0.608809989
0.60880999
0.6088099967
0.6088100077
0.6088100226
0.6088100294
0.6088103255
0.6088099896
0.608809993
0.60880999
0.6088099825
0.6088099806
0.6088099805
0.6088099935
0.6088099911
0.6088099892
0.6088099885
0.6088099902
0.6088100117
0.6088100045
0.6088100107
0.6088099914
0.6088099984
0.6088100184
0.6088099914
0.6088099834
0.6088099793
0.608809993
0.608809992
0.6088099876
0.608809988
0.608809991
0.608810006
0.6088100082
0.608809992
0.6088099946
0.6088100082
0.6088100687
0.6088100072
0.6088099959
0.6088099951
0.6088099922
0.608809994
0.6088099906
0.6088099904
0.6088099919
0.6088100079
0.6088100077
0.6088099906
0.6088100023
0.6088100547
0.6088101028
0.6088100501
0.6088099957
0.6088099955
0.6088099948
0.6088099967
0.6088099976
0.6088099899
0.6088099903
0.6088099969
0.6088100014
0.6088099934
0.6088099943
0.6088100093
0.6088100343
0.6088100137
0.6088099982
0.6088099951
0.6088099955
0.6088099977
0.6088099973
0.6088099957
0.6088099952
0.6088099943
0.6088099944
0.6088099933
0.6088099944
0.6088100038
0.6088099941
0.6088099943
0.6088099802
0.6088099948
0.6088088984
0.6088087831
0.6088088523
0.608809508
0.6088099798
0.6088099762
0.608809969
0.6088099331
0.6088097709
0.6088098396
0.6088098678
0.6088097714
0.6088098852
0.6088098853
0.6088098795
0.6088098278
0.608809818
0.6088097666
0.6088086599
0.6088087203
0.6088087365
0.6088095749
0.6088096441
0.6088099808
0.6088099763
0.6088099591
0.6088099455
0.6088097241
0.6088095408
0.6088094172
0.6088097327
0.6088097378
0.6088097157
0.608809223
0.6088092578
0.608809339
0.6088095215
0.6088090734
0.6088089086
0.6088091898
0.6088097255
0.6088096595
0.6088095425
0.6088092342
0.6088091091
0.6088087669
0.608808271
0.6088081901
0.6088080699
0.6088081841
0.6088081779
0.6088084079
0.6088086586
0.6088089643
0.6088087031
0.6088087642
0.6088087645
0.6088086503
0.6088091857
0.6088089186
0.6088082761
0.6088081556
0.6088080685
0.6088083044
0.6088085089
0.6088084768
0.6088097893
0.6088098019
0.6088099443
0.6088098578
0.6088098337
0.6088086912
0.6088086858
0.6088086551
0.6088086455
0.6088086014
0.608808881
0.6088087501
0.6088087934
0.6088098435
0.6088088079
0.6088088627
0.6088088788
0.6088088028
0.608808683
0.6088091129
0.6088089287
0.6088089852
0.60880877
0.6088088565
0.6088090313
0.6088090768
0.6088089311
0.6088087635
0.6088086968
0.6088086561
0.6088086446
0.6088086682
0.6088087654
0.608808965
0.608809017
0.6088088544
0.6088086955
0.6088099983
0.608809083
0.6088099984
0.6088089367
0.608809998
0.6088091719
0.6088099984
0.6088099985
0.6088089022
0.6088089247
0.6088099976
0.6088093418
0.6088099985
0.6088099985
0.6088089839
0.6088090713
0.608809993
0.60880997
0.6088099985
0.6088099984
0.6088095335
0.6088099725
0.6088099809
0.6088099776
0.6088099978
0.608809997
0.6088099792
0.6088099783
0.6088099728
0.6088099721
0.6088099955
0.6088099923
0.6088099759
0.608809973
0.6088099661
0.6088099655
0.608809989
0.6088099857
0.6088099697
0.6088099646
0.6088099617
0.6088099566
0.6088099815
0.6088099857
0.6088099524
0.6088099203
0.6088099588
0.6088099561
0.6088099834
0.6088099687
0.6088098704
0.6088098682
0.6088099619
0.6088099622
0.608809902
0.6088099682
0.6088099834
0.6088099867
0.6088099905
0.6088099898
0.6088099898
0.6088099206
0.6088099919
0.6088099179
0.6088099115
0.6088099935
0.6088099934
0.6088099805
0.6088099942
0.6088098929
0.6088098716
0.6088099899
0.608809994
0.6088099932
0.608809993
0.6088099923
0.608809946
0.6088099486
0.608809948
0.608809994
0.6088099956
0.6088099386
0.6088099953
0.608809995
0.6088099866
0.6088099952
0.6088099911
0.6088099956
0.6088099954
0.6088099352
0.6088099209
0.6088099043
0.6088099978
0.6088099963
0.6088099941
0.6088099916
0.6088099976
0.6088099958
0.6088099951
0.6088099934
0.6088099897
0.6088099871
0.6088099967
0.6088099942
0.6088099934
0.6088099923
0.6088099835
0.6088099787
0.6088099934
0.6088099923
0.6088099917
0.6088099898
0.6088099721
0.6088099631
0.6088099947
0.6088099914
0.6088099914
0.6088099848
0.6088099507
0.6088099333
0.6088099941
0.6088099916
0.6088099918
0.6088099752
0.6088099086
0.6088098734
0.6088099949
0.6088099921
0.6088099923
0.6088099567
0.6088098229
0.608809751
0.6088099934
0.6088099925
0.6088099927
0.6088099209
0.6088096524
0.6088095129
0.6088100023
0.6088099928
0.608809993
0.6088098255
0.6088093445
0.6088089681
0.6088100091
0.6088099931
0.6088099933
0.6088098463
0.6088091625
0.6088093361
0.6088099942
0.6088099935
0.6088099938
0.6088099272
0.6088095049
0.6088096408
0.6088099753
0.6088099946
0.608809994
0.6088098163
0.6088097388
0.608809886
0.6088098499
0.6088098835
0.6088098318
0.6088098834
0.6088098337
0.6088097517
0.6088098078
0.6088097753
0.6088097028
0.608809729
0.6088097493
0.6088096321
0.6088096043
0.6088098465
0.6088096375
0.608809735
0.6088098914
0.6088099008
0.6088098027
0.6088098223
0.6088098423
0.608809894
0.6088098437
0.6088098711
0.6088097822
0.6088098162
0.6088098187
0.6088099874
0.6088099796
0.6088099656
0.6088099449
0.60880994
0.6088099275
0.6088099037
0.6088098906
0.6088098707
0.6088098246
0.6088097911
0.6088097597
0.608809668
0.6088095914
0.6088095403
0.6088093686
0.6088092424
0.6088091671
0.6088089186
0.6088086851
0.6088086792
0.6088084554
0.6088090771
0.6088086154
0.6088088082
0.6088094843
0.6088090418
0.6088092995
0.6088097076
0.6088095068
0.6088095682
0.6088097213
0.6088096568
0.6088086959
0.6088088207
0.6088099689
0.608809855
0.6088097397
0.6088095632
0.6088096337
0.6088096396
0.6088096531
0.6088095398
0.6088096233
0.608809727
0.6088096373
0.6088095729
0.6088095092
0.6088093238
0.6088094247
0.608809249
0.6088090377
0.6088095472
0.6088093172
0.6088092402
0.6088089858
0.608809727
0.6088095508
0.6088095486
0.6088096043
0.6088095737
0.6088094156
0.6088094434
0.6088096544
0.6088096042
0.6088095502
0.6088095191
0.6088098858
0.6088099173
0.6088098564
0.6088098509
0.608809804
0.6088097404
0.6088096543
0.6088097418
0.608809538
0.6088093834
0.6088095231
0.6088091338
0.6088091848
0.6088089448
0.608808702
0.6088084563
0.6088086379
0.6088082476
0.6088083198
0.6088083043
0.6088083574
0.6088086086
0.6088084912
0.6088091291
0.6088086651
0.6088087621
0.6088093611
0.6088089662
0.6088091362
0.6088092963
0.6088087248
0.6088087725
0.6088088263
0.6088099817
0.6088099818
0.6088099784
0.6088084866
0.608808559
0.6088086713
0.6088088411
0.6088089843
0.6088092785
0.6088099584
0.6088085452
0.6088090929
0.6088088169
0.6088089642
0.6088093721
0.6088094921
0.6088092814
0.6088091029
0.6088086629
0.6088088113
0.6088087926
0.6088086708
0.6088088254
0.6088086862
0.6088090082
0.6088092461
0.6088089342
0.6088090016
0.6088087803
0.6088091967
0.6088090966
0.6088094667
0.6088095667
0.6088093403
0.6088094475
0.6088092963
0.6088087935
0.6088085729
0.6088086393
0.6088083622
0.6088080742
0.6088080756
0.6088080456
0.6088080563
0.6088080981
0.6088081899
0.6088082507
0.6088083669
0.6088083215
0.6088091238
0.608809032
0.6088087796
0.6088085738
0.6088092206
0.6088089991
0.6088088351
0.6088097858
0.6088097313
0.6088096463
0.6088094073
0.6088090189
0.6088088865
0.608808498
0.6088083918
0.608808109
0.6088080976
0.6088082835
0.6088082641
0.6088085684
0.6088084885
0.6088090186
0.6088091044
0.6088091781
0.6088092646
0.6088099813
0.6088099802
0.6088091336
0.608808476
0.6088085034
0.6088085556
0.6088085954
0.6088093024
0.6088095265
0.6088094153
0.6088095463
0.6088096813
0.6088096306
0.6088099785
0.6088099509
0.6088099764
0.6088086051
0.6088087773
0.6088085076
0.6088084753
0.6088085862
0.6088085766
0.608808484
0.6088085701
0.6088085642
0.6088084983
0.6088085552
0.6088086286
0.6088084938
0.6088086603
0.608808416
0.6088085771
0.6088092385
0.6088084984
0.608808704
0.6088085099
0.6088088413
0.6088086472
0.6088086033
0.6088085122
0.6088085666
0.6088085988
0.6088086216
0.6088086017
0.6088086131
0.6088086374
0.6088086082
0.608808704
0.6088086668
0.6088086656
0.6088085986
0.6088091253
0.6088092374
0.6088089877
0.6088090879
0.6088088418
0.6088086981
0.6088085686
0.6088085037
0.6088085589
0.6088084635
0.6088083872
0.6088083382
0.6088081952
0.6088083124
0.6088085352
0.6088083068
0.6088083279
0.608808669
0.6088082047
0.6088083812
0.6088082632
0.608808438
0.6088084566
0.6088084568
0.6088083686
0.6088084623
0.6088084742
0.6088085755
0.6088085702
0.6088086331
0.6088085636
0.6088086544
0.6088086017
0.6088095681
0.6088093641
0.6088090018
0.6088087376
0.6088083998
0.6088081882
0.6088081653
0.6088081261
0.6088083342
0.6088084071
0.6088084154
0.6088098118
0.6088098849
0.6088097862
0.6088098508
0.6088098399
0.6088098593
0.6088098337
0.6088098352
0.6088098739
0.6088098423
0.6088098496
0.6088087137
0.6088098506
0.6088087848
0.6088086616
0.6088087652
0.6088087535
0.6088086594
0.6088087636
0.6088087799
0.6088086256
0.6088087619
0.6088087357
0.6088085643
0.6088087062
0.6088086619
0.6088085911
0.6088092832
0.6088092572
0.6088086889
0.6088090698
0.6088086769
0.608808769
0.608808742
0.6088087631
0.6088088046
0.6088087702
0.6088095255
0.6088088053
0.6088096046
0.6088088036
0.6088088237
0.608808832
0.608808879
0.6088088994
0.6088089487
0.6088090063
0.6088088429
0.6088089807
0.6088089301
0.608808755
0.6088088721
0.6088088092
0.6088085841
0.6088087341
0.6088086462
0.608808643
0.6088092298
0.6088087033
0.6088090155
0.6088086954
0.6088086903
0.6088089198
0.6088086884
0.6088086901
0.6088091512
0.6088086961
0.6088087095
0.6088088034
0.6088087361
0.6088087829
0.6088089325
0.6088088548
0.6088089524
0.6088091081
0.6088090737
0.6088091646
0.6088090101
0.6088091276
0.6088090457
0.6088088487
0.6088089475
0.6088088493
0.6088086816
0.6088087555
0.6088086862
0.6088086658
0.6088087313
0.6088087301
0.6088087448
0.6088090625
0.6088086723
0.6088086816
0.6088086324
0.608808817
0.6088086471
0.6088085971
0.6088085742
0.6088086133
0.6088086502
0.6088085614
0.608808558
0.6088087047
0.6088085657
0.6088085884
0.6088084809
0.6088088516
0.6088086314
0.6088086981
0.6088090472
0.6088087957
0.608808865
0.6088089431
0.6088088479
0.6088087929
0.6088086399
0.6088087634
0.608808729
0.608808675
0.6088087014
0.6088085707
)
;

boundaryField
{
    walls
    {
        type            zeroGradient;
    }
    wallFilmFace_top
    {
        type            zeroGradient;
    }
    region0_to_wallFilmRegion_wallFilmFace
    {
        type            zeroGradient;
    }
    mirrorFace_top
    {
        type            zeroGradient;
    }
    region0_to_wallFilmRegion_mirrorFace
    {
        type            zeroGradient;
    }
    procBoundary3to2
    {
        type            processor;
        value           nonuniform List<scalar> 
64
(
0.6088099942
0.6088099899
0.6088099747
0.6088099578
0.6088099365
0.6088082374
0.6088081303
0.6088085853
0.6088091784
0.6088099968
0.6088099953
0.6088099953
0.6088099953
0.6088099961
0.6088099908
0.60880999
0.6088099895
0.6088099892
0.6088099897
0.6088099916
0.6088099919
0.6088099917
0.6088099919
0.6088099919
0.6088099911
0.6088099925
0.6088099925
0.6088099915
0.6088099978
0.6088099978
0.6088089302
0.6088086765
0.6088086765
0.6088085207
0.6088084089
0.6088099985
0.6088091604
0.6088099983
0.6088099977
0.6088090642
0.608809832
0.6088086206
0.6088085832
0.6088099004
0.6088093977
0.6088087718
0.6088099983
0.6088090642
0.6088099968
0.6088099929
0.6088099802
0.6088099674
0.6088099578
0.6088099118
0.60880819
0.608809787
0.608809649
0.6088085029
0.6088094692
0.6088092483
0.608809897
0.6088098924
0.6088087121
0.6088088198
)
;
    }
}


// ************************************************************************* //
