/*--------------------------------*- C++ -*----------------------------------*\
  =========                 |
  \\      /  F ield         | OpenFOAM: The Open Source CFD Toolbox
   \\    /   O peration     | Website:  https://openfoam.org
    \\  /    A nd           | Version:  8
     \\/     M anipulation  |
\*---------------------------------------------------------------------------*/
FoamFile
{
    version     2.0;
    format      ascii;
    class       volScalarField;
    location    "1/wallFilmRegion";
    object      T;
}
// * * * * * * * * * * * * * * * * * * * * * * * * * * * * * * * * * * * * * //

dimensions      [0 0 0 1 0 0 0];

internalField   nonuniform List<scalar> 
1342
(
299.999984
299.9999866
299.9999936
299.9999943
299.9999952
299.9999951
299.9999914
299.9999955
299.9999949
299.9999936
299.9999911
299.999986
299.9999763
299.9999578
299.9999227
299.9998717
299.9999181
299.9999692
299.9999125
299.9998836
299.9998215
299.9998463
299.9999119
299.9999211
299.9998924
299.9999884
299.9999808
299.9999672
299.9999415
299.9998907
299.9997876
299.9995948
299.9992858
299.9991832
299.9994847
299.9997251
299.9997309
299.9998202
299.9998162
299.9996243
299.9995865
299.9997829
299.9996575
299.9999212
299.9998607
299.9997455
299.9995296
299.9991999
299.9988648
299.9988728
299.9991448
299.9990424
299.9991129
299.9998094
299.9999867
299.999979
299.9990313
299.9989062
299.9990908
299.9995731
299.9995526
299.9995639
299.9995222
299.9991377
299.9992084
299.9993275
299.999913
299.9999868
299.9993439
299.9988655
299.9988739
299.9989444
299.9991318
299.9992703
299.9991668
299.999058
299.9995368
299.999625
299.9999596
299.9999039
299.998948
299.9988965
299.9988944
299.9989048
299.9989961
299.9988182
299.9989862
299.9990326
299.9989975
299.9992294
299.9990594
299.9989437
299.998898
299.9989074
299.998989
299.9990322
299.9989886
299.9989493
299.9999417
299.9999834
299.9999424
299.9999426
299.9999437
299.9999435
299.9999856
299.9999941
299.9999071
299.99993
299.9999946
299.9999485
299.9999582
299.999998
299.9999967
299.9999967
299.9999982
299.9999969
299.999997
299.9999984
299.9999972
299.9999973
299.9999985
299.9999975
299.9999976
299.9999985
299.9999977
299.9999977
299.9999983
299.9999976
299.9999976
299.9999979
299.9999976
299.9999975
299.9999904
299.999992
299.9999892
299.9999918
299.9999874
299.9999869
299.9999856
299.9999866
299.9999865
299.9999971
299.9999931
299.9999945
299.9999971
299.9999978
299.9999981
299.9999967
299.9999978
299.9999982
299.9999966
300.0000027
300.0000044
299.9999965
300.0000038
300.0000034
299.9999964
300.0000006
299.9999991
299.9999964
299.9999981
299.9999975
299.9999936
299.9999954
299.9999915
299.9999892
299.9999909
299.99999
299.9999869
299.9999881
299.9999871
299.9999864
299.9999866
299.9999864
299.999989
299.9999863
299.9999864
299.9999931
299.9999912
299.9999937
299.9999926
299.9999921
299.9999922
299.9999972
299.9999931
299.9999957
299.9999993
299.9999985
300.0000003
300.0000194
300.0000049
300.0000149
300.0001696
300.0000131
300.0000745
300.0000621
300.0002504
300.0002585
300.0000092
300.0002621
299.9999943
299.9999915
299.9999918
299.9999922
299.9999915
299.9999934
299.9999937
299.9999874
299.9999903
299.9999879
299.9999863
299.9999868
299.9999862
299.9999863
299.999986
299.9999861
299.999994
299.9999861
299.9999934
299.999992
299.9999925
299.9999925
299.9999944
299.9999925
299.9999921
300.0000008
299.9999931
299.999997
300.0000139
300.0000033
300.0000124
300.0000076
300.0000179
300.0000108
300.0002579
300.000002
300.0000076
299.9999941
300.0001852
299.9999944
299.9999929
299.9999931
299.9999937
299.9999971
299.9999967
300.0000023
299.9999891
299.9999983
299.999992
299.9999864
299.9999886
299.999987
299.9999859
299.9999862
299.9999861
299.9999893
299.9999864
299.9999871
299.9999962
299.9999954
299.9999964
299.9999932
299.9999941
299.9999934
299.9999915
299.9999915
299.9999912
299.9999918
299.9999916
299.9999921
299.9999974
299.9999932
299.9999966
300.0000119
300.0000054
300.0000122
299.9999976
300.0000047
299.9999978
299.9999949
299.9999944
299.9999982
299.9999944
299.9999945
299.9999953
300.0000108
300.0000016
300.0000231
300.0000019
300.000054
300.0000381
299.9999901
300.0000104
300.0000005
299.9999865
299.9999976
299.9999969
299.9999874
299.9999959
299.9999946
299.9999957
299.9999937
299.9999935
299.999993
299.9999945
299.9999922
299.9999909
299.9999905
299.9999904
299.9999923
299.9999943
299.9999925
299.9999966
299.9999937
299.9999968
300.0000123
300.0000043
300.0000127
299.9999981
300.0000069
299.9999981
299.9999968
299.9999932
299.9999928
299.9999967
299.9999991
300.0000009
300.000031
300.0000296
300.0000611
300.000025
300.000049
300.0000185
299.9999988
300.0000032
299.9999984
299.9999967
299.9999971
299.9999966
299.9999959
299.9999966
299.9999966
299.999995
299.9999971
299.9999942
299.9999976
299.9999959
299.999993
299.9999928
299.9999927
299.9999926
299.9999927
299.9999928
299.9999976
299.9999951
300.0000008
300.000014
300.0000117
300.0000042
299.9999963
299.9999964
299.9999947
299.9999956
299.9999943
299.9999981
300.0000063
300.0000045
300.0000127
300.0000692
300.0000414
300.0000606
300.0000566
300.0000603
300.000035
300.0000352
300.000012
300.0000012
299.9999967
299.9999966
299.9999966
299.9999968
299.9999967
299.9999969
299.9999983
299.9999984
299.9999979
299.9999984
299.9999982
299.9999928
299.9999977
299.9999938
299.9999934
299.999994
299.9999955
300.0000043
299.9999996
299.9999991
299.9999973
299.9999971
299.9999958
299.9999949
299.9999954
299.999996
300.0000004
299.9999976
300.0000011
300.0000152
300.0000061
300.0000104
300.0000192
300.0000132
300.0000128
300.0000041
300.0000106
300.0000065
299.9999964
299.999996
299.9999962
299.9991329
299.9990567
299.9991291
299.9990493
299.9990626
299.9992277
299.9990952
299.9991538
299.9999814
299.9996514
299.9999828
299.9999845
299.9999857
299.9999848
299.9999805
299.9999828
299.9999802
299.9999713
299.9999756
299.9999616
299.9998954
299.9999076
299.9997751
299.9998523
299.9997102
299.9997807
299.999858
299.9998706
299.9998771
299.9998819
299.999904
299.9998622
299.9990275
299.9990405
299.999128
299.9999841
299.9999849
299.9999794
299.9999353
299.9995752
299.999035
299.9990369
299.9999851
299.9999863
299.999985
299.9999824
299.9994049
299.9996609
299.9993987
299.9994746
299.999787
299.9996164
299.9998206
299.9997134
299.9997519
299.9990186
299.9990728
299.9991958
299.9991964
299.999302
299.9999862
299.9998571
299.9999848
299.9996587
299.999974
299.9993695
299.9988785
299.9989642
299.9988742
299.9989785
299.9993263
299.9995277
299.9992618
299.9996192
299.9994036
299.9994723
299.9993872
299.9991527
299.9996294
299.999987
299.9999434
299.9989789
299.9988993
299.998857
299.9988738
299.99887
299.9989016
299.9988786
299.9990191
299.9989914
299.9990517
299.9996919
299.9998387
299.998999
299.9989366
299.9990181
299.9999986
299.9993502
299.9999985
299.9994613
299.9999975
299.9997391
299.9999899
299.9999842
299.999983
299.9999819
299.9999777
299.9999774
299.9999732
299.999972
299.999971
299.9999652
299.999983
299.99997
299.9999799
299.9999979
299.9999982
299.9999983
299.9999985
299.9999986
299.9999985
299.9999981
299.9999944
299.9999892
299.9999815
299.9999855
299.9999861
299.9999897
299.9999831
299.9999971
299.9999971
299.999997
299.9999967
299.9999965
299.9999964
299.9999964
299.9999964
299.9999906
299.9999877
299.9999866
299.9999864
299.999993
299.9999864
299.9999837
299.9999934
299.9999925
299.9999943
299.9999984
300.0000044
300.0001964
300.0001009
300.0000382
299.9999921
299.999992
299.9999889
299.9999866
299.9999862
299.9999864
299.9999948
299.999992
299.9999928
299.9999976
300.0000056
300.0000164
300.0000214
300.0002365
299.9999925
299.9999949
299.9999928
299.9999873
299.9999859
299.9999858
299.9999953
299.9999935
299.9999922
299.9999916
299.9999929
300.0000085
300.0000033
300.0000078
299.9999938
299.9999988
300.0000134
299.9999937
299.999988
299.999985
299.9999949
299.9999942
299.999991
299.9999913
299.9999935
300.0000043
300.000006
299.9999942
299.9999961
300.000006
300.0000499
300.0000052
299.999997
299.9999964
299.9999943
299.9999956
299.9999932
299.999993
299.9999941
300.0000057
300.0000056
299.9999932
300.0000016
300.0000397
300.0000747
300.0000364
299.9999969
299.9999967
299.9999962
299.9999976
299.9999983
299.9999927
299.9999929
299.9999977
300.000001
299.9999952
299.9999959
300.0000068
300.0000249
300.0000099
299.9999987
299.9999965
299.9999967
299.9999983
299.999998
299.9999969
299.9999965
299.9999958
299.999996
299.9999951
299.9999959
300.0000028
299.9999957
299.9999959
299.9999856
299.9999962
299.9991997
299.9991159
299.9991662
299.9996425
299.9999853
299.9999827
299.9999775
299.9999514
299.9998336
299.9998835
299.999904
299.9998339
299.9999166
299.9999167
299.9999124
299.9998749
299.9998678
299.9998305
299.9990264
299.9990703
299.9990821
299.9996911
299.9997414
299.9999861
299.9999828
299.9999703
299.9999604
299.9997995
299.9996664
299.9995766
299.9998058
299.9998095
299.9997935
299.9994355
299.9994608
299.9995198
299.9996524
299.9993268
299.9992071
299.9994114
299.9998006
299.9997526
299.9996676
299.9994436
299.9993528
299.9991041
299.9987439
299.9986851
299.9985978
299.9986807
299.9986762
299.9988433
299.9990255
299.9992476
299.9990578
299.9991022
299.9991024
299.9990194
299.9994084
299.9992143
299.9987476
299.99866
299.9985967
299.9987681
299.9989167
299.9988934
299.9998469
299.9998561
299.9999596
299.9998967
299.9998792
299.9990491
299.9990452
299.9990229
299.999016
299.9989839
299.999187
299.9990919
299.9991234
299.9998863
299.999134
299.9991737
299.9991854
299.9991302
299.9990432
299.9993555
299.9992217
299.9992628
299.9991064
299.9991693
299.9992963
299.9993293
299.9992234
299.9991017
299.9990532
299.9990237
299.9990153
299.9990324
299.999103
299.9992481
299.9992859
299.9991677
299.9990523
299.9999987
299.9993338
299.9999988
299.9992275
299.9999985
299.9993984
299.9999989
299.9999989
299.9992024
299.9992188
299.9999982
299.9995218
299.9999989
299.9999989
299.9992618
299.9993253
299.9999949
299.9999782
299.9999989
299.9999988
299.9996611
299.99998
299.9999862
299.9999837
299.9999984
299.9999978
299.9999849
299.9999843
299.9999802
299.9999797
299.9999968
299.9999944
299.9999825
299.9999804
299.9999754
299.9999749
299.999992
299.9999896
299.999978
299.9999743
299.9999722
299.9999684
299.9999866
299.9999896
299.9999654
299.9999421
299.99997
299.9999681
299.999988
299.9999773
299.9999059
299.9999042
299.9999723
299.9999726
299.9999288
299.9999769
299.999988
299.9999903
299.9999931
299.9999926
299.9999926
299.9999423
299.9999941
299.9999404
299.9999357
299.9999953
299.9999952
299.9999858
299.9999958
299.9999222
299.9999067
299.9999927
299.9999956
299.999995
299.9999949
299.9999944
299.9999607
299.9999627
299.9999622
299.9999957
299.9999968
299.9999554
299.9999966
299.9999964
299.9999903
299.9999965
299.9999935
299.9999968
299.9999967
299.9999529
299.9999425
299.9999305
299.9999984
299.9999973
299.9999957
299.9999939
299.9999982
299.999997
299.9999965
299.9999952
299.9999925
299.9999906
299.9999976
299.9999958
299.9999952
299.9999944
299.999988
299.9999845
299.9999952
299.9999944
299.9999939
299.9999926
299.9999797
299.9999732
299.9999961
299.9999938
299.9999938
299.999989
299.9999642
299.9999515
299.9999957
299.9999939
299.9999941
299.999982
299.9999336
299.999908
299.9999963
299.9999942
299.9999944
299.9999685
299.9998713
299.9998191
299.9999952
299.9999945
299.9999947
299.9999425
299.9997475
299.9996461
300.0000017
299.9999948
299.9999949
299.9998732
299.9995237
299.9992503
300.0000066
299.999995
299.9999951
299.9998884
299.9993915
299.9995176
299.9999958
299.9999953
299.9999955
299.9999471
299.9996403
299.999739
299.999982
299.999996
299.9999957
299.9998666
299.9998102
299.9999172
299.9998909
299.9999154
299.9998778
299.9999153
299.9998792
299.9998196
299.9998603
299.9998368
299.9997841
299.9998031
299.9998178
299.9997327
299.9997125
299.9998885
299.9997366
299.9998075
299.9999211
299.9999279
299.9998567
299.9998709
299.9998854
299.999923
299.9998864
299.9999064
299.9998418
299.9998665
299.9998683
299.9999909
299.9999852
299.999975
299.99996
299.9999564
299.9999473
299.99993
299.9999205
299.9999061
299.9998726
299.9998482
299.9998254
299.9997588
299.9997031
299.999666
299.9995413
299.9994496
299.9993949
299.9992143
299.9990447
299.9990404
299.9988778
299.9993295
299.9989941
299.9991342
299.9996254
299.9993038
299.9994911
299.9997876
299.9996417
299.9996863
299.9997976
299.9997506
299.9990526
299.9991432
299.9999774
299.9998947
299.9998109
299.9996826
299.9997339
299.9997382
299.999748
299.9996657
299.9997263
299.9998016
299.9997365
299.9996897
299.9996434
299.9995087
299.9995821
299.9994544
299.9993009
299.999671
299.999504
299.999448
299.9992632
299.9998017
299.9996736
299.999672
299.9997126
299.9996903
299.9995754
299.9995956
299.9997489
299.9997124
299.9996732
299.9996506
299.999917
299.9999399
299.9998957
299.9998917
299.9998576
299.9998114
299.9997488
299.9998124
299.9996644
299.999552
299.9996535
299.9993707
299.9994078
299.9992334
299.999057
299.9988785
299.9990104
299.9987269
299.9987793
299.9987681
299.9988066
299.9989892
299.9989039
299.9993673
299.9990302
299.9991007
299.9995358
299.9992489
299.9993725
299.9994888
299.9990735
299.9991082
299.9991473
299.9999867
299.9999868
299.9999843
299.9989005
299.9989531
299.9990347
299.999158
299.9992621
299.9994758
299.9999698
299.9989431
299.999341
299.9991405
299.9992475
299.9995438
299.999631
299.9994779
299.9993483
299.9990286
299.9991364
299.9991228
299.9990343
299.9991466
299.9990455
299.9992794
299.9994523
299.9992257
299.9992746
299.9991139
299.9994164
299.9993437
299.9996126
299.9996852
299.9995208
299.9995986
299.9994887
299.9991235
299.9989632
299.9990114
299.9988102
299.9986009
299.9986019
299.9985801
299.9985879
299.9986183
299.998685
299.9987291
299.9988135
299.9987805
299.9993634
299.9992967
299.9991134
299.9989639
299.9994338
299.9992728
299.9991537
299.9998444
299.9998048
299.999743
299.9995694
299.9992872
299.999191
299.9989088
299.9988317
299.9986262
299.9986179
299.998753
299.9987388
299.99896
299.9989019
299.999287
299.9993494
299.9994029
299.9994657
299.9999864
299.9999856
299.9993705
299.9988928
299.9989127
299.9989507
299.9989796
299.9994932
299.999656
299.9995752
299.9996704
299.9997685
299.9997317
299.9999844
299.9999644
299.9999829
299.9989866
299.9991117
299.9989158
299.9988923
299.9989729
299.9989659
299.9988986
299.9989612
299.9989569
299.998909
299.9989503
299.9990037
299.9989058
299.9990267
299.9988492
299.9989663
299.9994468
299.9989091
299.9990585
299.9989174
299.9991582
299.9990172
299.9989853
299.9989191
299.9989586
299.998982
299.9989986
299.9989842
299.9989924
299.99901
299.9989889
299.9990584
299.9990314
299.9990306
299.9989818
299.9993645
299.9994459
299.9992646
299.9993373
299.9991585
299.9990542
299.9989601
299.998913
299.998953
299.9988837
299.9988283
299.9987927
299.9986888
299.9987739
299.9989358
299.9987699
299.9987852
299.999033
299.9986957
299.998824
299.9987382
299.9988652
299.9988787
299.9988789
299.9988148
299.9988828
299.9988915
299.9989651
299.9989613
299.999007
299.9989564
299.9990224
299.9989841
299.9996862
299.999538
299.9992748
299.9990829
299.9988375
299.9986838
299.9986671
299.9986386
299.9987898
299.9988428
299.9988488
299.9998633
299.9999164
299.9998447
299.9998916
299.9998837
299.9998978
299.9998792
299.9998802
299.9999084
299.9998854
299.9998908
299.9990655
299.9998914
299.9991171
299.9990276
299.9991029
299.9990944
299.999026
299.9991017
299.9991136
299.9990015
299.9991005
299.9990815
299.9989569
299.99906
299.9990279
299.9989764
299.9994792
299.9994603
299.9990475
299.9993242
299.9990387
299.9991057
299.9990861
299.9991014
299.9991315
299.9991065
299.9996553
299.999132
299.9997127
299.9991308
299.9991454
299.9991515
299.9991856
299.9992004
299.9992362
299.9992781
299.9991593
299.9992595
299.9992227
299.9990955
299.9991806
299.9991349
299.9989713
299.9990803
299.9990165
299.9990142
299.9994404
299.999058
299.9992848
299.9990522
299.9990485
299.9992152
299.9990471
299.9990484
299.9993833
299.9990527
299.9990624
299.9991307
299.9990818
299.9991158
299.9992245
299.999168
299.9992389
299.999352
299.999327
299.9993931
299.9992808
299.9993662
299.9993067
299.9991636
299.9992354
299.999164
299.9990422
299.9990959
299.9990455
299.9990307
299.9990783
299.9990774
299.9990881
299.9993189
299.9990354
299.9990422
299.9990064
299.9991405
299.9990171
299.9989808
299.9989641
299.9989925
299.9990194
299.9989549
299.9989524
299.999059
299.9989579
299.9989745
299.9988964
299.9991657
299.9990057
299.9990542
299.9993078
299.9991251
299.9991754
299.9992322
299.999163
299.999123
299.9990119
299.9991016
299.9990766
299.9990374
299.9990565
299.9989616
)
;

boundaryField
{
    walls
    {
        type            zeroGradient;
    }
    wallFilmFace_top
    {
        type            zeroGradient;
    }
    region0_to_wallFilmRegion_wallFilmFace
    {
        type            zeroGradient;
    }
    mirrorFace_top
    {
        type            zeroGradient;
    }
    region0_to_wallFilmRegion_mirrorFace
    {
        type            zeroGradient;
    }
    procBoundary3to2
    {
        type            processor;
        value           nonuniform List<scalar> 
64
(
299.9999958
299.9999927
299.9999816
299.9999693
299.9999539
299.9987195
299.9986417
299.9989722
299.9994031
299.9999977
299.9999966
299.9999966
299.9999966
299.9999972
299.9999933
299.9999928
299.9999924
299.9999922
299.9999925
299.9999939
299.9999941
299.999994
299.9999941
299.9999941
299.9999935
299.9999945
299.9999945
299.9999938
299.9999984
299.9999984
299.9992228
299.9990384
299.9990384
299.9989253
299.9988441
299.9999989
299.99939
299.9999988
299.9999983
299.9993201
299.9998779
299.9989978
299.9989707
299.9999276
299.9995624
299.9991077
299.9999988
299.9993201
299.9999977
299.9999949
299.9999856
299.9999763
299.9999693
299.999936
299.998685
299.9998452
299.999745
299.9989123
299.9996144
299.9994539
299.9999252
299.9999218
299.9990644
299.9991426
)
;
    }
}


// ************************************************************************* //
