/*--------------------------------*- C++ -*----------------------------------*\
  =========                 |
  \\      /  F ield         | OpenFOAM: The Open Source CFD Toolbox
   \\    /   O peration     | Website:  https://openfoam.org
    \\  /    A nd           | Version:  8
     \\/     M anipulation  |
\*---------------------------------------------------------------------------*/
FoamFile
{
    version     2.0;
    format      ascii;
    class       scalarField;
    location    "1.4/lagrangian/reactingCloud1";
    object      age;
}
// * * * * * * * * * * * * * * * * * * * * * * * * * * * * * * * * * * * * * //


160
(
0.2574465996
0.25183015
0.2495008709
0.249062531
0.2455444307
0.2446686834
0.2440684456
0.2435952912
0.2427589012
0.2421787801
0.2408796336
0.2369191812
0.2357556108
0.2341927771
0.2302930422
0.2137881278
0.2031706064
0.2240596614
0.2121497043
0.2341927771
0.1981456954
0.1962315864
0.1853381061
0.1902410718
0.182157804
0.1634735292
0.1525798311
0.2581241167
0.1451749849
0.1637385544
0.2135009809
0.1387944782
0.1367816807
0.1360967418
0.2534995708
0.1355516327
0.1327088809
0.1308842119
0.1302759889
0.1283161593
0.1276400263
0.1481912853
0.1461642181
0.1380954923
0.1109243429
0.166123781
0.1341956482
0.09477248316
0.1763272502
0.2450022296
0.09215858489
0.1426916215
0.1434400389
0.1362334719
0.13541568
0.08715141431
0.1440758368
0.1020808272
0.08042269244
0.1282485789
0.1245509963
0.07193407199
0.07074233946
0.06992337018
0.09014117123
0.06856339996
0.06773823528
0.06680951403
0.136575813
0.06624559087
0.1768573005
0.06553674343
0.06377385827
0.1453948145
0.06084083937
0.08012372332
0.1911571899
0.2469456573
0.06815558227
0.07411334889
0.2479950272
0.04630845555
0.0455769255
0.04487819698
0.2358335097
0.1862656942
0.04149792712
0.09410033789
0.1886509208
0.04030193323
0.1597198901
0.1899760466
0.06615398724
0.05614242662
0.03876651259
0.03870190174
0.03870190174
0.2534093523
0.05420885008
0.09298009577
0.0372833323
0.1836154425
0.09634082213
0.03645549453
0.03632902283
0.03626584192
0.03545041787
0.03545041787
0.03353696295
0.03261966322
0.1841454928
0.08924424415
0.03139911652
0.1803026278
0.08797359746
0.09985074627
0.08289014414
0.02749867718
0.07862887774
0.02699998347
0.02656621804
0.02625802725
0.1260792621
0.08632923115
0.02521770612
0.02418412311
0.09843194075
0.02333342532
0.04608427045
0.09238263331
0.0221157071
0.07472167833
0.02107556656
0.01886028314
0.01799574527
0.01731549373
0.01564578541
0.2044916923
0.08603025546
0.01471816967
0.08274052294
0.01397607709
0.01360503079
0.05464535976
0.01230636876
0.01212084561
0.01145216477
0.01043841468
0.01028905892
0.009947514752
0.1390054448
0.0081638161
0.007167136607
0.005732540042
0.0221157071
0.004735068229
0.004485854112
0.1521872703
0.2330973233
0.04276679925
)


// ************************************************************************* //
