/*--------------------------------*- C++ -*----------------------------------*\
  =========                 |
  \\      /  F ield         | OpenFOAM: The Open Source CFD Toolbox
   \\    /   O peration     | Website:  https://openfoam.org
    \\  /    A nd           | Version:  8
     \\/     M anipulation  |
\*---------------------------------------------------------------------------*/
FoamFile
{
    version     2.0;
    format      ascii;
    class       Cloud<basicReactingMultiphaseParcel>;
    location    "1.4/lagrangian/reactingCloud1";
    object      positions;
}
// * * * * * * * * * * * * * * * * * * * * * * * * * * * * * * * * * * * * * //

160
(
(0.2236659435 0.3156802479 0.1584553332 0.3021984754) 1126 3312 2
(0.07304601755 0.3332474844 0.4261904776 0.1675160204) 94 281 2
(0.04528818583 0.006074418536 0.1486722949 0.7999651008) 1079 3172 2
(0.06768584857 0.5768630954 0.1315658859 0.2238851701) 2099 3280 1
(0.1787571374 0.1801230487 0.2650749436 0.3760448704) 1083 3184 1
(0.1031682743 0.03015202616 0.2166836214 0.6499960781) 2070 6080 1
(0.06519137199 0.01411577047 0.512881661 0.4078111966) 3053 8963 2
(0.01579980889 0.2207395251 0.03052177783 0.7329388881) 4035 11839 2
(0.3055627219 0.00760368748 0.6534426076 0.03339098296) 3055 8969 2
(0.2480412915 0.1963546026 0.28592357 0.269680536) 4037 11845 2
(0.4408855708 0.06732812464 0.2117573895 0.2800289151) 4039 8979 2
(0.7848142991 0.08494157194 0.02208980612 0.1081543229) 4040 11853 2
(0.09668884947 0.4300671768 0.4061173521 0.06712662165) 5009 14692 1
(0.5185926389 0.1216220033 0.1860524051 0.1737329527) 5009 11840 1
(0.164433555 0.4883649006 0.1375603003 0.2096412441) 5011 14700 1
(0.1940143331 0.5798865512 0.09244908417 0.1336500314) 8090 20916 1
(0.06808482753 0.003782802775 0.8761259482 0.05200642149) 9846 26063 1
(0.3992566923 0.434006997 0.01994616122 0.1467901495) 496 1473 1
(0.2944892593 0.1924672734 0.008682831163 0.5043606361) 4660 13692 1
(0.6895579667 0.02632753535 0.1220167015 0.1620977964) 4202 12329 1
(0.08953305054 0.02293691575 0.05464849064 0.8328815431) 9514 27922 2
(0.09751498988 0.500767265 0.08886898545 0.3128487597) 5361 15732 1
(0.03391322191 0.2627170187 0.4376527 0.2657170593) 12677 37136 1
(0.1036687885 0.09672175591 0.2764413865 0.5231680691) 9347 27421 1
(0.2907693826 0.1717109466 0.1160713494 0.4214483214) 11283 33097 1
(0.1078948476 0.4485171365 0.190890437 0.2526975789) 15476 45336 1
(0.5887823524 0.1025568071 0.2862214299 0.02243941063) 17227 50463 1
(0.05302121087 0.3740806022 0.08875865571 0.4841395312) 1101 353 1
(0.2211695711 0.4986521818 0.04997095233 0.2302072948) 18255 53481 1
(0.16979461 0.4301459543 0.2947047835 0.1053546522) 16228 47536 2
(0.07083203287 0.1130002706 0.3380902168 0.4780774797) 7967 23278 2
(0.6608402449 0.1049743351 0.1655860991 0.06859932092) 18995 52967 2
(0.1926934309 0.4567015875 0.1314616238 0.2191433577) 19045 55796 1
(0.4481493723 0.3709977892 0.1455156921 0.03533714644) 19036 55684 1
(0.4019595211 0.1069537641 0.04175817013 0.4493285447) 2053 6032 1
(0.4523556777 0.2151681826 0.1338606413 0.1986154984) 19035 55681 2
(0.3010527985 0.4530636407 0.1650952481 0.0807883127) 19033 55762 1
(0.187355086 0.6626913718 0.01587765593 0.1340758863) 19948 58440 1
(0.3729962348 0.07558572434 0.06116328703 0.4902547538) 19948 55762 1
(0.3338448984 0.3801337598 0.1958520531 0.09016928872) 19947 58437 2
(0.1717138517 0.327741485 0.1873871116 0.3131575518) 19946 58437 2
(0.6015499175 0.1404469931 0.08626048882 0.1717426006) 17501 51182 2
(0.4207361311 0.05401246124 0.08446803083 0.4407833768) 20018 58653 2
(0.09001473983 0.2472005887 0.3873917135 0.275392958) 20248 59334 2
(0.2242560847 0.04750342107 0.5767288875 0.1515116067) 55500 168679 1
(0.3553753789 0.1967269448 0.2674803614 0.180417315) 15445 45243 2
(0.1131746584 0.1909905289 0.285237646 0.4105971668) 19884 58255 2
(0.1725201293 0.1632752095 0.1123304804 0.5518741807) 56388 170890 1
(0.243272293 0.3856181772 0.1578416421 0.2132678877) 15388 44992 2
(0.05035583994 0.5453815207 0.2833983765 0.1208642628) 2048 5922 2
(0.2658873889 0.4044569892 0.1835724564 0.1460831655) 57265 173071 1
(0.1157479978 0.6523640858 0.1883957989 0.04349211753) 18109 53053 1
(0.1271780745 0.07324471036 0.526272218 0.2733049971) 18080 52966 1
(0.2192481747 0.3605713238 0.2468690479 0.1733114536) 19024 55731 2
(0.1154524778 0.2086067596 0.1873131818 0.4886275808) 19023 55731 2
(0.00229035886 0.03754487116 0.7660005057 0.1941642642) 57275 173097 2
(0.5481467387 0.03398849806 0.2822994432 0.1355653201) 18080 52966 1
(0.4163873944 0.2473458214 0.0507267731 0.285540011) 54899 86203 2
(0.3994511022 0.5559252032 0.04132212692 0.003301567614) 58154 73624 1
(0.3674799685 0.1505239262 0.3305529307 0.1514431745) 19942 58341 1
(0.3680429722 0.4523822899 0.04607637365 0.1334983643) 20859 58428 1
(0.04002286274 0.04728320528 0.9080815034 0.004612428605) 58212 175430 2
(0.2686053661 0.2347894194 0.2328048954 0.2638003192) 58130 175221 1
(0.2125397562 0.03553453077 0.5224288416 0.2294968714) 58215 175431 1
(0.05146815895 0.6107489606 0.1213638886 0.2164189919) 63156 187488 1
(0.4105579557 0.4250062949 0.007748739117 0.1566870103) 58221 175448 1
(0.0431049213 0.7357003789 0.1930626936 0.0281320062) 58222 175452 1
(0.2000188581 0.6936648402 0.07837183236 0.0279444694) 58222 175452 2
(0.1159492407 0.4855095546 0.05120983654 0.3473313682) 19913 55659 2
(0.08715682209 0.06888935718 0.09783436215 0.7461194586) 58222 175457 1
(0.2575753435 0.3510929017 0.3826715936 0.008660161171) 13632 39934 1
(0.0683002079 0.02430306629 0.1410984626 0.7662982632) 59098 175454 2
(0.2393386933 0.1934514286 0.1655804697 0.4016294083) 25466 76762 2
(0.2743413924 0.1207455134 0.2152224079 0.3896906863) 18051 52880 1
(0.3232085401 0.3251864318 0.3298276387 0.02177738933) 59098 76886 1
(0.462386626 0.09038761558 0.407828028 0.03939773042) 63784 189029 1
(0.09132625809 0.3392582738 0.2494829539 0.3199325142) 12108 32740 2
(0.6028124814 0.04916326486 0.119483174 0.2285410797) 2976 208077 1
(0.1783762098 0.3601726996 0.004488155398 0.4569629352) 37583 114687 2
(0.2727211926 0.087671955 0.4646095654 0.1749972869) 66550 195875 2
(0.2091827365 0.07245781623 0.5258109537 0.1925484935) 2188 3545 2
(0.02241713815 0.5766001838 0.01196149383 0.3890211842) 59219 177843 1
(0.009363860972 0.8485875077 0.05115538195 0.09089324938) 59219 177653 2
(0.2265103109 0.2760920289 0.4534602612 0.04393739907) 59847 177622 2
(0.23876027 0.30711185 0.3050561282 0.1490717519) 4929 11603 2
(0.005636815031 0.1932778738 0.1947591195 0.6063261917) 12075 35387 1
(0.6958856917 0.1252674697 0.08979419437 0.08905264419) 26391 79932 2
(0.1646373693 0.6611053783 0.08323246045 0.09102479197) 56235 170503 2
(0.5940551221 0.186779849 0.001802002727 0.2173630262) 12075 35385 2
(0.8929990988 0.005919151602 0.05195616609 0.0491255835) 54770 166799 2
(0.06121140623 0.03082188575 0.4914707567 0.4164959513) 16230 47540 2
(0.3316557903 0.05967269085 0.571976194 0.03669532482) 12075 35291 2
(0.3724033965 0.1053992531 0.3914655925 0.1307317579) 35598 111275 3
(0.1477841362 0.1453241676 0.3858407201 0.3210509761) 38440 119909 2
(0.6084117545 0.08179941173 0.1435042134 0.1662846204) 26391 79935 2
(0.05788605657 0.002732873945 0.4838760795 0.4555049899) 26393 79944 2
(0.08633589415 0.3812123889 0.03606895018 0.4963827668) 54798 166873 1
(0.1007511041 0.1231531314 0.7181716191 0.05792414546) 2120 6227 2
(0.6357927236 0.1243363569 0.1405359556 0.09933496381) 39356 119908 2
(0.3614677911 0.4355513668 0.002215236249 0.2007656058) 57112 170503 1
(0.01871336369 0.4259870097 0.2152147895 0.3400848371) 54777 166819 1
(0.4819891291 0.3716917637 0.09910091846 0.04721818872) 12992 38071 2
(0.8678838719 0.05172456679 0.02508553061 0.05530603074) 56235 170501 1
(0.3872820933 0.07281560373 0.3754134984 0.1644888045) 54784 166823 1
(0.1339477293 0.3949475176 0.3466223762 0.1244823769) 54770 166798 1
(0.232384401 0.2743216981 0.01052185225 0.4827720486) 26391 79933 2
(0.2790666979 0.3179052278 0.1388964937 0.2641315806) 57865 71417 1
(0.5558962107 0.1217925137 0.3080373991 0.01427387659) 54720 166670 1
(0.08365318038 0.1517891748 0.278105149 0.4864524958) 59814 179306 1
(0.1050628959 0.3469138253 0.06691218043 0.4811110984) 54792 166855 1
(0.1472985865 0.108033563 0.1318489219 0.6128189286) 6311 18518 2
(0.6998701776 0.02137931299 0.2757829828 0.002967526643) 57106 172668 2
(0.03894565257 0.3508460394 0.478320473 0.131887835) 54778 166822 1
(0.06414747657 0.05025048409 0.7478786708 0.1377233685) 12960 37979 2
(0.1337810835 0.1155300464 0.2749965858 0.4756922844) 57106 172667 1
(0.04762286591 0.06956150179 0.03920406309 0.8436115692) 56234 170490 1
(0.3307441722 0.6515480527 0.00468259555 0.01302517953) 57103 172654 2
(0.09229257789 0.131358848 0.3393948787 0.4369536954) 54774 166807 1
(0.2080782717 0.1744472747 0.180380725 0.4370937285) 57980 174842 2
(0.3184267047 0.1749753717 0.2037228477 0.3028750759) 54816 166910 2
(0.3228075561 0.09752714312 0.4357106658 0.143954635) 54782 166828 2
(0.2021782008 0.0536179164 0.04674583049 0.6974580523) 54754 166758 2
(0.1604740391 0.277070522 0.1200582651 0.4423971738) 25821 78183 2
(0.03346854357 0.1367018143 0.4875059114 0.3423237307) 57110 172672 2
(0.4396383396 0.1492414212 0.04048681297 0.3706334262) 54782 166833 1
(0.5580827333 0.07291842501 0.2993159518 0.06968288994) 54782 166833 2
(0.04079869085 0.2457162138 0.6752990997 0.03818599572) 56228 170483 1
(0.5120020769 0.2832402088 0.001512411596 0.2032453027) 54782 166830 2
(0.04815445085 0.597555751 0.3164054244 0.03788437374) 40145 124904 2
(0.2356515562 0.5982511253 0.0392260978 0.1268712207) 57105 70226 1
(0.2968766811 0.1886759969 0.3261521401 0.1882951819) 54781 166830 2
(0.1012347476 0.5009999828 0.1230495128 0.2747157568) 57978 174837 2
(0.01495229851 0.3962956338 0.4031609734 0.1855910943) 59816 179313 1
(0.1250461542 0.1971902074 0.1773851808 0.5003784576) 54775 166811 2
(0.359819065 0.1612915221 0.1682842321 0.3106051808) 54774 166812 2
(0.08713329554 0.05540243428 0.3018472936 0.5556169766) 54725 166687 2
(0.5851549124 0.06472234813 0.02895574875 0.3211669907) 54774 166812 2
(0.8736294468 0.01998750386 0.006621467456 0.09976158192) 9748 28579 1
(0.2886724952 0.3738748079 0.1889447157 0.1485079812) 57093 70217 1
(0.5248704968 0.1121044162 0.2825893652 0.08043572177) 54774 203014 1
(0.4155381607 0.06271422417 0.3579555144 0.1637921007) 57107 172655 2
(0.4760421171 0.1398455686 0.1952756369 0.1888366775) 54774 203014 1
(0.5207333027 0.08727474017 0.01957618101 0.3724157761) 54810 203045 1
(0.3948072076 0.2264141889 0.3507034089 0.02807519463) 59273 77084 1
(0.1752391737 0.231629774 0.3808277593 0.2123032931) 54814 166915 1
(0.2454081041 0.2860280544 0.1148159704 0.3537478711) 54816 166904 1
(0.4467869724 0.03468737199 0.3885780668 0.1299475888) 54774 203014 2
(0.08671394725 0.160524217 0.1860188822 0.5667429536) 54816 166918 1
(0.3536673887 0.147234261 0.4153485115 0.08374983885) 54774 203014 2
(0.07142607576 0.486434437 0.270547365 0.1715921222) 54541 166162 1
(0.2076849767 0.4152086568 0.3264625385 0.05064382797) 18969 206299 2
(0.229191267 0.4930548286 0.253686295 0.02406760943) 54541 166162 1
(0.2932827359 0.2990791011 0.09871074305 0.30892742) 59858 166192 1
(0.3862232876 0.4752601939 0.03570258146 0.102813937) 54774 203014 2
(0.2991477723 0.1630027657 0.02189007578 0.5159593862) 44679 138168 1
(0.3061951026 0.4172942922 0.004987831758 0.2715227735) 54543 166162 1
(0.3133806594 0.386415815 0.2107394591 0.08946406652) 54815 203049 2
(0.03812499987 0.06662420789 0.3996153433 0.495635449) 17126 206226 2
(0.06501431087 0.06378103795 0.2765638465 0.5946408047) 4923 205835 1
(0.08249397918 0.5408882458 0.1637731938 0.2128445812) 54813 205262 2
)


// ************************************************************************* //
