/*--------------------------------*- C++ -*----------------------------------*\
  =========                 |
  \\      /  F ield         | OpenFOAM: The Open Source CFD Toolbox
   \\    /   O peration     | Website:  https://openfoam.org
    \\  /    A nd           | Version:  8
     \\/     M anipulation  |
\*---------------------------------------------------------------------------*/
FoamFile
{
    version     2.0;
    format      ascii;
    class       scalarField;
    location    "1.4/lagrangian/reactingCloud1";
    object      T;
}
// * * * * * * * * * * * * * * * * * * * * * * * * * * * * * * * * * * * * * //


160
(
299.9999865
299.9999955
299.9999975
299.9999977
299.9999976
299.9999974
299.9999973
299.9999971
299.9999968
299.9999966
299.9999961
299.9999942
299.9999936
299.999993
299.9999919
299.9999912
299.9999995
300
300
299.999998
300
300
299.9999933
300
300
299.9999944
299.9999967
299.9999908
299.999992
299.9999942
299.9999795
299.9999939
299.9999989
299.9999988
299.9999904
299.9999988
299.9999986
299.9999985
299.9999985
299.9999985
299.9999985
300
300
300
299.999997
299.9999954
299.999996
299.9999962
299.9999816
299.9999894
299.999996
299.9999844
299.9999844
299.9999853
299.9999854
299.9999958
299.9999844
300
299.9999956
299.9999879
299.9999887
299.9999997
299.9999988
299.9999997
300
299.9999997
299.9999997
299.9999997
299.9999862
299.9999997
299.9999912
299.9999996
299.9999988
299.9999847
299.9999996
300
299.9999955
299.9999938
300
300
299.9999982
299.9999976
299.9999978
299.9999967
299.9999923
299.9999952
299.9999982
299.9999887
299.9999954
299.9999969
299.9999822
299.9999954
300
300
299.999998
299.9999956
299.9999988
299.9999976
300
299.9999888
299.9999978
299.9999951
299.9999886
299.9999983
299.9999976
299.9999978
299.9999999
299.9999962
299.9999977
299.9999985
300
299.999989
299.9999982
299.9999949
299.999989
299.9999885
299.9999906
299.9999989
299.9999915
299.9999992
299.999999
299.9999978
300
299.9999891
299.9999988
299.9999988
299.999991
299.9999988
300
299.9999915
299.9999989
299.9999914
299.9999973
299.9999991
299.999999
299.9999971
299.999999
299.9999916
299.9999903
299.999999
299.9999923
299.999999
299.9999994
299.999997
299.9999977
299.9999995
299.999999
299.9999995
299.999999
299.9999983
299.9999864
299.9999983
299.999999
299.9999993
300
299.9999983
299.9999984
300
299.9999986
299.999998
)


// ************************************************************************* //
