/*--------------------------------*- C++ -*----------------------------------*\
  =========                 |
  \\      /  F ield         | OpenFOAM: The Open Source CFD Toolbox
   \\    /   O peration     | Website:  https://openfoam.org
    \\  /    A nd           | Version:  8
     \\/     M anipulation  |
\*---------------------------------------------------------------------------*/
FoamFile
{
    version     2.0;
    format      ascii;
    class       scalarField;
    location    "0.2/lagrangian/reactingCloud1";
    object      d;
}
// * * * * * * * * * * * * * * * * * * * * * * * * * * * * * * * * * * * * * //


45
(
0.0006106118024
0.001084047906
0.0006301695101
0.001074563936
0.0005636957306
0.0005437965447
0.00066744814
0.0005596438763
0.000524916601
0.0005239517469
0.0005210221087
0.0009157261777
0.0005280594098
0.0005321052409
0.0007318101651
0.0005597914869
0.0006967454425
0.0005858064043
0.0007689071747
0.0006725330374
0.0005716830791
0.0006711915277
0.0007532012092
0.0007408311217
0.0006082761535
0.0007490412879
0.0007785663525
0.0007704691484
0.0006564594948
0.0005792954762
0.001133454205
0.0008603608747
0.0009482703241
0.00053499422
0.0005724247778
0.0006973834281
0.0005793205803
0.0008781144487
0.0008870330866
0.0005743023327
0.0007908147222
0.0005533372963
0.0008012197961
0.0005449817349
0.0005557103388
)


// ************************************************************************* //
