/*--------------------------------*- C++ -*----------------------------------*\
  =========                 |
  \\      /  F ield         | OpenFOAM: The Open Source CFD Toolbox
   \\    /   O peration     | Website:  https://openfoam.org
    \\  /    A nd           | Version:  8
     \\/     M anipulation  |
\*---------------------------------------------------------------------------*/
FoamFile
{
    version     2.0;
    format      ascii;
    class       scalarField;
    location    "0.2/lagrangian/reactingCloud1";
    object      nParticle;
}
// * * * * * * * * * * * * * * * * * * * * * * * * * * * * * * * * * * * * * //


45
(
4180.934501
747.1770472
3803.617066
767.1356472
5314.161033
5919.153682
3201.226222
5350.872332
101.5199343
7173.552896
100.6844951
1181.659461
104.7371143
102.3641266
2494.199881
457.233303
2937.699892
108.5971459
2124.967484
101.1760684
5091.953436
100.0123003
102.0622787
102.3981571
103.8803518
2264.913789
106.8567319
2131.823162
112.0954652
4898.650891
560.0065535
1346.74726
1089.372458
6214.408511
5025.903395
2920.295092
4844.927911
1389.566014
1408.463025
524.4024665
1947.572424
100.988067
1856.968984
100.6956121
5217.776942
)


// ************************************************************************* //
