/*--------------------------------*- C++ -*----------------------------------*\
  =========                 |
  \\      /  F ield         | OpenFOAM: The Open Source CFD Toolbox
   \\    /   O peration     | Website:  https://openfoam.org
    \\  /    A nd           | Version:  8
     \\/     M anipulation  |
\*---------------------------------------------------------------------------*/
FoamFile
{
    version     2.0;
    format      ascii;
    class       Cloud<basicReactingMultiphaseParcel>;
    location    "0.2/lagrangian/reactingCloud1";
    object      positions;
}
// * * * * * * * * * * * * * * * * * * * * * * * * * * * * * * * * * * * * * //

45
(
(0.0365287563 0.4983019436 0.096906553 0.3682627471) 12508 33873 2
(0.8856992368 0.01444216084 0.02660000894 0.07325859338) 15116 44141 2
(0.4558436247 0.4022299211 0.03176490418 0.11016155) 20774 60800 1
(0.663136575 0.187100823 0.05734972354 0.09241287846) 18871 55232 2
(0.0039268008 0.3541683766 0.1881013672 0.4538034554) 60359 179972 1
(0.03748031604 0.3740028173 0.1299430269 0.4585738398) 17830 52181 2
(0.6021120891 0.04590854781 0.2202934471 0.131685916) 16857 49333 1
(0.09158193225 0.2940234552 0.5483637946 0.06603081793) 39040 119374 1
(0.330213143 0.2402233557 0.1467989057 0.2827645956) 60837 179893 2
(0.1517826362 0.1364369176 0.1186257831 0.5931546631) 39139 119670 2
(0.9063639342 0.005747019042 0.05520698297 0.03268206383) 60231 72301 2
(0.5883662023 0.1963111721 0.1182835103 0.0970391153) 40169 122690 2
(0.3290780593 0.0100849754 0.3647748781 0.2960620872) 60231 72306 1
(0.07689950751 0.09076744365 0.5560558497 0.2762771991) 61218 182089 1
(0.5508392665 0.3385382518 0.09240177421 0.01822070747) 41166 125609 1
(0.03277919796 0.1696765995 0.7117451175 0.08579908506) 61070 181736 1
(0.1110798979 0.634872465 0.2276558168 0.02639182027) 41195 125695 1
(0.238768303 0.2946587161 0.1327373609 0.3338356199) 61151 181931 2
(0.6267358116 0.150256456 0.1546398174 0.06836791502) 42252 125694 1
(0.2988497477 0.3946053618 0.1836743448 0.1228705457) 58562 175505 2
(0.1372137607 0.07522399982 0.3118330596 0.4757291798) 42255 128811 1
(0.3681521981 0.1561030858 0.2495741043 0.2261706118) 60203 179601 1
(0.1841421744 0.1415929016 0.1125893451 0.5616755789) 61218 182089 2
(0.272076509 0.0603831647 0.3750214946 0.2925188317) 60207 179607 2
(0.315790427 0.3092283618 0.3374617881 0.03751942311) 60200 179593 2
(0.5264450333 0.3519654346 0.04429565472 0.07729387741) 23549 66758 1
(0.1272106573 0.2522066798 0.1746182284 0.4459644345) 61283 182134 2
(0.1235656536 0.0562136237 0.733228787 0.08699193569) 43384 132125 1
(0.6654851445 0.0002271691316 0.2335902963 0.1006973901) 60189 72270 1
(0.6576352745 0.01443286109 0.2143997966 0.1135320678) 44486 135355 1
(0.308335122 0.196506082 0.02089537751 0.4742634186) 29366 88261 2
(0.1496942143 0.2160027772 0.2250036925 0.409299316) 59433 177688 2
(0.183626763 0.02556558755 0.2759429386 0.5148647108) 46657 138594 1
(0.3539540583 0.05117591473 0.1068662357 0.4880037913) 46593 141529 1
(0.5878997821 0.009611617098 0.05153032243 0.3509582783) 47753 204394 2
(0.08760910074 0.03444776828 0.556343476 0.321599655) 47721 144843 1
(0.2091628566 0.007929166169 0.7494951118 0.03341286537) 47722 144843 1
(0.03173586844 0.2655138739 0.2701837651 0.4325664925) 48788 147969 1
(0.4227312099 0.2456959835 0.1530258982 0.1785469084) 48786 147967 1
(0.1263945134 0.4789143363 0.201864532 0.1928266183) 58551 204743 1
(0.2616593538 0.1745626772 0.116606784 0.4471711849) 48787 147971 2
(0.1746277902 0.7006333047 0.1099894514 0.01474945377) 58551 204743 2
(0.132106596 0.2151182263 0.4513273525 0.2014478252) 49854 151093 1
(0.245838037 0.2108044667 0.4833809 0.05997659633) 61278 182244 2
(0.003494640423 0.4825260855 0.00177571225 0.5122035618) 49885 151185 2
)


// ************************************************************************* //
