/*--------------------------------*- C++ -*----------------------------------*\
  =========                 |
  \\      /  F ield         | OpenFOAM: The Open Source CFD Toolbox
   \\    /   O peration     | Website:  https://openfoam.org
    \\  /    A nd           | Version:  8
     \\/     M anipulation  |
\*---------------------------------------------------------------------------*/
FoamFile
{
    version     2.0;
    format      ascii;
    class       scalarField;
    location    "0.2/lagrangian/reactingCloud1";
    object      T;
}
// * * * * * * * * * * * * * * * * * * * * * * * * * * * * * * * * * * * * * //


45
(
300
300
300
300
300
300
300
300
299.9999989
300
299.9999981
300
299.9999978
299.9999967
300
299.9999965
300
299.9999963
300
299.9999996
300
299.9999954
299.9999962
299.9999952
299.9999949
300
299.999996
300
299.9999953
300
300
300
300
300
300
300
300
300
300
299.9999958
300
299.9999959
300
299.9999947
300
)


// ************************************************************************* //
