/*--------------------------------*- C++ -*----------------------------------*\
  =========                 |
  \\      /  F ield         | OpenFOAM: The Open Source CFD Toolbox
   \\    /   O peration     | Website:  https://openfoam.org
    \\  /    A nd           | Version:  8
     \\/     M anipulation  |
\*---------------------------------------------------------------------------*/
FoamFile
{
    version     2.0;
    format      ascii;
    class       vectorField;
    location    "0.2/lagrangian/reactingCloud1";
    object      U;
}
// * * * * * * * * * * * * * * * * * * * * * * * * * * * * * * * * * * * * * //


45
(
(0.2612446268 -0.5529208987 -3.051572278)
(0.5398588571 -0.8648974452 -2.933206366)
(0.9668997042 -0.5018771696 -2.580419016)
(0.3251989107 -0.7685957634 -2.965489941)
(0.7625390169 -0.6720376344 -2.565313794)
(0.2056868353 -0.8786876068 -2.71350226)
(-0.01615855306 -0.9632012211 -2.762067235)
(0.2592370876 -1.104278688 -2.021337998)
(-0.07644475842 -1.086664137 -0.5987863248)
(0.6685677895 -0.7410961084 -2.105334556)
(1.419805742 0.005005992878 -0.8198099928)
(0.7710127216 -0.8048401578 -2.099761284)
(1.484274431 0.004236756696 -0.8039519856)
(0.3706083784 0.001851228926 -0.5417014865)
(0.5756098389 -1.081874672 -1.955389659)
(-0.1107161198 -0.6848423755 -0.552783923)
(0.008976506425 -0.9832503946 -2.105626448)
(-0.07162641578 -0.5020975595 -0.5399761353)
(-0.3085899297 -1.042956975 -2.013182495)
(0.1921465454 0.03084116113 -0.388552576)
(0.4045561746 -1.073709417 -1.930152686)
(1.061135033 0.006430436612 -0.8341243296)
(0.4786419696 0.01761711435 -0.5207192728)
(1.057394709 0.005112188008 -0.8220212447)
(0.9612611223 0.002406126028 -0.8025193943)
(1.119229572 -0.2339087772 -2.534567603)
(-0.004107088096 -0.3030761887 -0.5222655857)
(-0.2529391748 -0.6663257765 -2.126740266)
(0.8668103878 0.004406853814 -0.8351442895)
(0.1096336872 -0.5019242228 -2.149146315)
(-0.08974664809 -1.202923324 -2.379692716)
(0.2627623048 -0.583678681 -2.877034338)
(1.174624112 -0.2829558928 -1.771228311)
(0.07896128718 -1.077412614 -1.819235387)
(1.07687352 0.4892114681 -1.722206442)
(0.7140986595 -0.06273426444 -1.974817038)
(0.980473263 -0.1080942259 -1.824277219)
(1.125423038 -0.3396865234 -1.690693306)
(-0.9061850651 -0.3430838896 -1.799970996)
(0.381099847 0.1768179714 -0.112938986)
(0.5486084223 -0.7384617898 -1.811655276)
(0.3289456487 0.1989583677 -0.09533001803)
(-0.2843121686 -1.320761277 -1.490677504)
(0.9353824122 0.06744806807 -0.551314278)
(-0.06553402333 0.1407654371 -1.995883614)
)


// ************************************************************************* //
