/*--------------------------------*- C++ -*----------------------------------*\
  =========                 |
  \\      /  F ield         | OpenFOAM: The Open Source CFD Toolbox
   \\    /   O peration     | Website:  https://openfoam.org
    \\  /    A nd           | Version:  8
     \\/     M anipulation  |
\*---------------------------------------------------------------------------*/
FoamFile
{
    version     2.0;
    format      ascii;
    class       scalarField;
    location    "0.7/lagrangian/reactingCloud1";
    object      age;
}
// * * * * * * * * * * * * * * * * * * * * * * * * * * * * * * * * * * * * * //


169
(
0.3381087281
0.3380596189
0.2618334574
0.2565421244
0.2510460963
0.2498337514
0.2435147753
0.2371986967
0.232832227
0.2321793983
0.2224253236
0.2220510484
0.2215832044
0.2209906019
0.2183711987
0.2116717062
0.2022800823
0.2041530071
0.2081431512
0.1961506962
0.1921375921
0.1821457821
0.200162863
0.1641368227
0.133783154
0.1299796759
0.1401378255
0.1441675751
0.1318266847
0.1342959913
0.1268423162
0.1480916272
0.1620890315
0.1100631874
0.09280806384
0.2183313479
0.2282242983
0.225450715
0.2345993155
0.08645805121
0.08454024287
0.08380691865
0.08296263862
0.2182490487
0.08190103774
0.08168789228
0.08126048395
0.09606223708
0.07714534695
0.07680298595
0.08464448485
0.1845208845
0.07566263551
0.075434736
0.07384409329
0.1040605844
0.1080623197
0.08516289236
0.1258963314
0.1562733042
0.1585668305
0.1854217854
0.05719595062
0.05606189537
0.1777231777
0.1531606615
0.0532275864
0.05192272086
0.04988941673
0.07214645845
0.1516862518
0.2032572605
0.2039901441
0.04137463647
0.1180919576
0.03831651116
0.1490473192
0.0370572831
0.2311523962
0.03549823883
0.06417886726
0.03424760598
0.03339565469
0.05614787987
0.03699731986
0.03015385175
0.02969473753
0.02930471601
0.02835984496
0.1361599136
0.02826655606
0.05409915761
0.02461977367
0.02436196314
0.02330416925
0.02318639987
0.02285651207
0.02245559252
0.0223848291
0.02214895103
0.02186577066
0.02170047866
0.02160602609
0.02134628151
0.02127544208
0.0210156975
0.02056704778
0.02033091635
0.01985865348
0.01957529577
0.01955168262
0.01870160946
0.05006930645
0.01714256701
0.0169294688
0.01690579122
0.01652877601
0.01645863986
0.01611125964
0.01567431247
0.0156050931
0.1967239967
0.05815991616
0.01492640018
0.01426682884
0.01398668214
0.01326449394
0.01318106871
0.0401154084
0.0121300851
0.01115821265
0.01063557897
0.01050304581
0.01036967109
0.009863354625
0.009623848952
0.009174505308
0.009104868839
0.008860134004
0.008719634265
0.008649314634
0.008224487938
0.007939339296
0.006870056924
0.006282239717
0.006244845433
0.005941985212
0.005037461395
0.003799070112
0.003748415844
0.002633979475
0.002633979475
0.002413439444
0.002362089669
0.001995874018
0.001653484812
0.001384016938
0.03209363126
0.04611173253
0.001103651564
0.001103651564
0.0009843378817
0.0005583429161
0.2317748217
0.0004466743329
0.2268224292
0.0003647840385
0.000208448022
0.0001563360165
)


// ************************************************************************* //
