/*--------------------------------*- C++ -*----------------------------------*\
  =========                 |
  \\      /  F ield         | OpenFOAM: The Open Source CFD Toolbox
   \\    /   O peration     | Website:  https://openfoam.org
    \\  /    A nd           | Version:  8
     \\/     M anipulation  |
\*---------------------------------------------------------------------------*/
FoamFile
{
    version     2.0;
    format      ascii;
    class       scalarField;
    location    "0.7/lagrangian/reactingCloud1";
    object      d;
}
// * * * * * * * * * * * * * * * * * * * * * * * * * * * * * * * * * * * * * //


169
(
0.0005061437155
0.0005072279506
0.0005957965509
0.0005574192115
0.0007330105995
0.000638210608
0.0007605094543
0.000673683133
0.0009671414814
0.001147476315
0.0009520558414
0.0008846708226
0.0007540455271
0.0008152078065
0.000810561103
0.0009101089505
0.0007387436286
0.0007485137379
0.0006620990789
0.0005329984212
0.000506941758
0.0007260445281
0.0005292681958
0.0008669341393
0.0006491367611
0.0005218808504
0.0007731636725
0.0007104037737
0.0006395278414
0.0008411370242
0.0007766928132
0.000512611143
0.0005497702645
0.0006554687239
0.000508070795
0.0007578392939
0.000735061944
0.0006106118024
0.00066599821
0.0006594644764
0.0005212770924
0.0005682849047
0.0007977222998
0.0006952204923
0.0005076926026
0.0008091844544
0.0007190161981
0.0006289133668
0.001103781694
0.00059870943
0.0005322388684
0.001174780521
0.0009051639926
0.0005242042618
0.0009014753975
0.0008655292124
0.001048705356
0.0007090263869
0.0008927133086
0.0007035501316
0.0006333563611
0.0006725330374
0.0006225293688
0.0009917001797
0.0006488833965
0.0008132639271
0.0007107868896
0.001158983206
0.0006286463945
0.0007431155275
0.0005597914869
0.000753376066
0.0007590051002
0.0007316455987
0.0008769356766
0.0009078294201
0.0006879239902
0.0005272422973
0.0007983696265
0.001004650289
0.00055385879
0.0007753865217
0.0005024124484
0.001015416986
0.0007373265984
0.0008283353735
0.0009460447805
0.0005895893902
0.000618010942
0.0005853452905
0.0005441147299
0.0008613956593
0.0007520018771
0.0007862448327
0.0008329314519
0.0006248934187
0.0006328282245
0.0008415116892
0.0005232357339
0.0006189195734
0.001035868636
0.0005911114442
0.0005210367794
0.0005481650781
0.0005923430939
0.0005059930105
0.0006664293631
0.000721850824
0.0005466720825
0.0007555906739
0.000634194334
0.0005776957509
0.0006908808263
0.001190989006
0.0005247982488
0.0006544988701
0.001198197942
0.0005148438807
0.0009987472802
0.0005181090645
0.0009208682284
0.0005743023327
0.0005529096138
0.0009494196694
0.0006119931943
0.0007838866682
0.0007113468745
0.0009068670067
0.0007330105995
0.0009692959135
0.0007099934585
0.0007959481728
0.001175833062
0.0006877534905
0.001080711796
0.0006935796377
0.0006516593492
0.0008454303415
0.0005549332298
0.0005657371147
0.0007596520716
0.0006390650976
0.000658261236
0.0005305295019
0.0005735753434
0.0008133518931
0.001026681883
0.0007035182967
0.0006554420689
0.0005398100285
0.0007302050388
0.00074295505
0.0007687975909
0.0005509889141
0.0006251452602
0.0007849637921
0.0007533332477
0.0005678182512
0.0006423601368
0.0009475471297
0.000798412272
0.000719952717
0.0006072478891
0.0008769572859
0.00114821645
0.0007704691484
0.0005152252702
0.0006381193364
0.0005945304816
)


// ************************************************************************* //
