/*--------------------------------*- C++ -*----------------------------------*\
  =========                 |
  \\      /  F ield         | OpenFOAM: The Open Source CFD Toolbox
   \\    /   O peration     | Website:  https://openfoam.org
    \\  /    A nd           | Version:  8
     \\/     M anipulation  |
\*---------------------------------------------------------------------------*/
FoamFile
{
    version     2.0;
    format      ascii;
    class       scalarField;
    location    "0.7/lagrangian/reactingCloud1";
    object      nParticle;
}
// * * * * * * * * * * * * * * * * * * * * * * * * * * * * * * * * * * * * * //


169
(
102.692385
128.828383
100.0990818
585.9624198
100.6722888
100.2028201
118.3220708
100.150623
100.6670891
102.9355285
100.0262987
126.0485899
100.7119068
100.0852859
100.0712118
100.5637602
101.2536204
2225.080867
3274.737326
6198.108812
7203.818536
2452.150911
6293.869493
1440.588658
102.4759019
103.6901701
2088.17761
2595.787844
100.3074656
100.2849834
100.5080806
7294.228394
5884.144582
3392.37481
122.8442438
100.1376053
100.0256059
100.0858369
100.1540241
100.0885575
101.316626
100.7625156
124.8076629
100.1520496
102.5889333
101.1590682
100.9160861
3834.270665
100.0630927
128.2748427
101.8325781
100.6532467
103.615723
124.873524
101.2404501
1473.379288
828.3221843
101.5880551
519.4509056
105.9782859
102.8366071
100.3926049
137.6447378
100.3992008
183.1481901
100.9045771
100.1641027
225.1277385
101.1492791
2370.351051
102.1559042
100.2035204
100.0445617
103.6323208
1423.250094
100.1348933
102.2304038
103.0210782
108.1196824
145.8324143
5476.95988
100.241272
101.627508
887.3025154
100.4626692
100.5916078
100.0268793
101.4979599
101.9053139
4639.070513
100.7110233
1476.470316
147.2492447
100.2179904
100.2509296
100.2684036
101.3573793
100.0197351
102.3224215
101.7166002
100.0140677
104.1903322
100.7511663
101.7195067
100.8640764
106.8329889
101.2426411
103.1481481
491.5041579
102.9325258
100.5844379
100.6021907
2942.780716
100.0703838
101.70879
100.7100596
100.2442478
100.0912267
100.0674241
100.389587
100.0053742
100.4515655
5633.716954
100.6009644
101.4143923
102.50625
102.7886718
100.1328
2398.886291
100.9894882
102.4722935
100.1930707
100.3060535
101.3764751
100.0847523
101.1383856
102.605673
100.2420619
223.5405687
102.3044085
101.5965888
100.8474085
103.987874
100.5766698
100.1619036
100.6638964
100.4733286
103.287296
310.6334472
441.3963539
328.3772679
260.1260932
128.8923702
107.1893088
100.5890082
100.3155093
100.0132122
5177.885283
3564.549751
100.0775854
101.9676374
100.6425161
101.5106123
104.3418639
100.3657321
100.0306919
102.4009542
103.3777554
100.2674636
)


// ************************************************************************* //
