/*--------------------------------*- C++ -*----------------------------------*\
  =========                 |
  \\      /  F ield         | OpenFOAM: The Open Source CFD Toolbox
   \\    /   O peration     | Website:  https://openfoam.org
    \\  /    A nd           | Version:  8
     \\/     M anipulation  |
\*---------------------------------------------------------------------------*/
FoamFile
{
    version     2.0;
    format      ascii;
    class       labelField;
    location    "0.7/lagrangian/reactingCloud1";
    object      origId;
}
// * * * * * * * * * * * * * * * * * * * * * * * * * * * * * * * * * * * * * //


169
(
220
221
351
356
359
360
362
364
365
366
382
385
387
389
393
406
410
254
252
258
260
265
256
274
423
425
286
284
142
137
146
282
275
301
428
89
84
85
82
430
433
434
435
97
436
437
438
308
439
440
432
110
441
442
443
304
302
431
147
121
119
96
452
453
113
122
454
455
456
320
123
105
91
458
297
459
127
460
373
462
324
463
464
328
461
465
466
467
468
288
469
329
470
471
472
473
474
475
476
477
478
479
480
481
482
483
484
485
486
487
488
489
331
490
491
492
493
494
495
496
497
92
327
498
499
500
501
502
336
503
504
505
506
507
509
510
511
512
513
514
515
516
517
518
519
520
521
522
523
524
525
526
527
528
529
530
531
340
333
532
533
534
535
369
536
95
537
538
539
)


// ************************************************************************* //
