/*--------------------------------*- C++ -*----------------------------------*\
  =========                 |
  \\      /  F ield         | OpenFOAM: The Open Source CFD Toolbox
   \\    /   O peration     | Website:  https://openfoam.org
    \\  /    A nd           | Version:  8
     \\/     M anipulation  |
\*---------------------------------------------------------------------------*/
FoamFile
{
    version     2.0;
    format      ascii;
    class       scalarField;
    location    "0.7/lagrangian/reactingCloud1";
    object      T;
}
// * * * * * * * * * * * * * * * * * * * * * * * * * * * * * * * * * * * * * //


169
(
299.9999978
299.9999985
299.9999993
299.9999993
299.9999988
299.9999994
299.9999982
299.9999988
299.9999821
299.999886
299.9999996
299.9999406
299.9999982
299.9999987
299.9999636
299.9999667
299.9999686
300
300
300
300
300
300
300
299.9999891
299.9999865
300
300
299.999986
299.9999854
299.9999841
300
300
300
299.9999941
299.9999981
299.9999982
299.999998
299.9999981
299.9999985
299.9999894
299.9999947
299.9999897
299.9999937
299.9999915
299.9999913
299.9999873
300
299.9999912
299.9999908
299.9999897
299.9999888
299.9999898
299.9999896
299.9999886
300
300
299.9999878
299.9999788
299.9999877
299.9999901
299.999997
299.9999936
299.9999916
299.9999901
299.9999875
299.9999926
299.999994
299.9999931
300
299.9999952
299.999993
299.9999979
299.9999939
300
299.9999973
299.9999897
299.9999937
299.9998398
299.9999937
300
299.9999937
299.9999937
300
299.9999973
299.9999937
299.9999937
299.9999937
299.9999937
300
299.9999937
300
299.9999988
299.9999942
299.9999937
299.999999
299.9999945
299.9999964
299.999999
299.9999941
299.9999937
299.9999941
299.999999
299.9999968
299.9999941
299.999994
299.9999937
299.999994
299.999999
299.9999939
299.9999971
299.9999991
300
299.9999943
299.9999991
299.9999967
299.9999938
299.9999986
299.9999966
299.999995
299.999999
299.9999974
300
299.9999938
299.999999
299.9999938
299.9999938
299.9999994
300
299.9999943
299.9999943
299.9999985
299.9999954
299.9999942
299.9999938
299.9999942
299.9999938
299.9999993
299.9999945
299.9999938
299.9999942
299.9999982
299.9999938
299.9999906
299.9999979
299.9999938
299.9999942
299.9999942
299.9999953
299.9999935
299.9999934
299.9999936
299.999993
299.9999933
299.9999932
299.9999932
299.9999962
300
300
299.9999932
299.9999931
299.9999928
299.9999928
299.9998622
299.9999921
299.9999926
299.9999932
299.9999921
299.9999928
)


// ************************************************************************* //
