/*--------------------------------*- C++ -*----------------------------------*\
  =========                 |
  \\      /  F ield         | OpenFOAM: The Open Source CFD Toolbox
   \\    /   O peration     | Website:  https://openfoam.org
    \\  /    A nd           | Version:  8
     \\/     M anipulation  |
\*---------------------------------------------------------------------------*/
FoamFile
{
    version     2.0;
    format      ascii;
    class       volScalarField;
    location    "1.2";
    object      epsilon;
}
// * * * * * * * * * * * * * * * * * * * * * * * * * * * * * * * * * * * * * //

dimensions      [0 2 -3 0 0 0 0];

internalField   nonuniform List<scalar> 
67451
(
0.275492729
0.4274059023
0.6324092585
0.8029349143
0.5835093621
0.3494754445
0.2433941947
0.273175804
0.33046731
0.3955520013
0.4552532314
0.1652221189
0.1669238218
0.1697329407
0.1907136387
0.2593661489
0.3868606788
0.551722007
0.6465543809
0.4513831444
0.3253209621
0.2934515765
0.3561606224
0.4372797047
0.5111999477
0.5608534543
0.6158359335
0.6705324899
1.048938864
0.7162968107
0.5938897349
0.5537666519
0.7073275509
0.9695780338
1.190237838
1.260853804
1.182702139
0.1998278155
0.1880139745
0.1931992781
0.196913248
0.1947948847
0.1953998763
0.2216189512
0.2891522443
0.3995322978
0.476204092
0.3523562775
0.310478368
0.3497812543
0.4354029677
0.5512013737
0.6547039269
0.6712223198
0.7244367635
0.7421929942
0.7629714012
0.7964960955
0.700648807
0.5823816251
0.4697770743
0.5671515717
0.7512795999
0.8286390447
0.8672151707
0.2346068863
0.2328823806
0.2422327007
0.2390678991
0.2288657585
0.2189534463
0.2187847052
0.2276026327
0.2671832083
0.3104493592
0.3066014905
0.3362806662
0.4068240217
0.5047377404
0.609033116
0.6882019305
0.7500827929
0.8166797921
0.8485920716
0.9561409216
1.081727457
0.8852022495
0.664714895
0.4863068812
0.4447533356
0.6821941853
1.004311645
1.397946858
0.3188392821
0.3222737248
0.303093713
0.2767552597
0.2574818473
0.2539303594
0.2389186774
0.2502466179
0.2902524775
0.3410502312
0.3843420893
0.4715333162
0.5907611169
0.7015311684
0.7437758998
0.7925442501
0.8633443811
0.9096659534
1.060096658
1.23195217
0.9638329163
0.6950634509
0.5156634298
0.5933858844
1.271896879
2.132960968
2.321757874
0.4485886934
0.4416483473
0.3993179941
0.3470199988
0.3114118436
0.3046808437
0.2821938691
0.2842649986
0.3304560026
0.3975305474
0.446194717
0.5627024076
0.7292505667
0.8573383546
0.8379942764
0.8040629031
0.8475801241
0.8915845232
0.9169500486
0.9015873704
0.7701532597
0.6260823528
0.5695135015
1.178014672
2.778570424
4.306213067
3.56507956
0.6309858127
0.6068405959
0.5355266262
0.4493685337
0.3894805921
0.368263338
0.3390759082
0.3343285569
0.3748847898
0.4519714507
0.5205472439
0.6944560978
0.9505339887
1.12251638
1.045016831
0.8670127715
0.7833647491
0.788992348
0.7892028612
0.737679865
0.6622798111
0.5760707254
1.139100816
2.682410461
4.632433606
5.912477422
5.058574713
0.8666540687
0.8216741882
0.7154102731
0.588294831
0.5020917339
0.4550413395
0.416066385
0.4056228387
0.4234590329
0.4919507791
0.5982117917
0.863738252
1.231497836
1.470385583
1.391649465
1.144440386
0.8993472048
0.7805550439
1.030616043
0.9204941727
0.6922151646
0.5229958409
0.4668666299
1.103194851
2.704915734
4.311205628
3.804048589
1.157609971
1.074305535
0.9322084721
0.7614704183
0.6584405249
0.5947634162
0.5404938118
0.5176836824
0.4999898091
0.5255480527
0.663202059
1.03266998
1.491200701
1.78779144
1.761634101
1.577574069
1.33086281
1.236284641
2.109149089
2.000464878
1.309526996
0.7589612111
0.5876307539
0.5162917152
1.206304836
2.397575322
2.669983097
1.465609049
1.324181533
1.146035494
0.9622809956
0.8671798105
0.8151613041
0.745316326
0.697839322
0.6288609375
0.5895728937
0.6973969658
1.065629268
1.602042245
1.969625082
2.018912076
1.990967273
2.136108792
2.795358184
4.295444294
4.367799631
3.111416305
1.893158188
1.59875058
1.331696419
0.6554677622
1.181099066
1.853250653
1.756360219
1.559420611
1.348752988
1.177986445
1.155287018
1.129666419
1.045325892
0.9710274949
0.83228211
0.7097070639
0.7186129708
0.8569861837
1.424913056
1.891973517
1.969836275
2.037788729
3.034904305
5.525307195
7.848438357
8.046381803
6.827955019
5.543138238
4.607267456
3.513496747
1.798345103
0.7434459722
1.088450312
2.010043685
1.785170457
1.555219058
1.426715968
1.619303907
1.581283193
1.455160028
1.283664207
1.066408824
0.8637446884
0.8046627425
0.7450537482
1.05130749
1.568373545
1.731164892
1.780143801
2.148759812
4.318729971
6.907842245
6.98599568
5.581367808
4.744898166
6.281019039
7.202684927
5.757496523
3.005309468
1.227078081
2.207961486
1.969252128
1.727785641
1.725349217
2.7858292
2.27049697
1.926492848
1.601782214
1.292735795
1.124683512
1.328310588
1.083066205
0.9986823867
1.352954402
1.458804849
1.467836456
1.518728199
2.441531636
4.518872669
4.643696212
3.45483065
3.047863928
5.526221571
6.168895188
4.839476145
2.812306242
1.176701846
2.323262227
2.061763902
1.822271795
2.313858448
6.934040225
4.00599556
2.600334845
2.04144961
1.74832404
1.896645598
2.632390207
2.301961986
1.476011804
1.425399313
1.264318749
1.216998046
1.13986855
1.341964764
2.491313439
2.601978193
1.902287302
1.641219725
3.566543967
4.027157831
3.001255216
1.738947918
0.7384139307
2.300015145
1.972098015
1.652206195
2.74143137
10.70036556
4.813979716
2.598743693
1.996955779
1.65795663
2.589438336
5.181465459
4.734293595
3.131630264
1.839497088
1.208523178
1.003979854
0.8921895461
0.8653494488
1.298235651
1.319852728
0.992954637
0.8603082966
1.957020188
2.234203448
1.594152298
0.8335440972
0.3784715281
2.242711348
1.875078115
1.476792938
1.482315058
4.180370755
2.546621074
2.084079497
1.825503761
1.541027742
2.001425534
4.170249694
3.89246382
2.665961744
1.568059632
1.000617353
0.80553124
0.7143626648
0.6595652795
0.7726229669
0.7392290845
0.594110787
0.5244639424
0.9807690623
1.073350214
0.7232872554
0.3791456612
0.229150384
2.166693769
1.763431337
1.356390587
1.179410884
1.86738288
1.806881808
1.760161827
1.599428413
1.364648786
1.452517513
2.674996755
2.54010363
1.775844059
1.12065697
0.7932846609
0.6621504738
0.5917330443
0.5520517213
0.5936600508
0.5654161959
0.4652219026
0.4087056974
0.5331679785
0.5344215564
0.3877866043
0.2561909807
0.1901577759
2.093621383
1.649820983
1.248444268
1.004467168
1.208865822
1.388452462
1.431391761
1.33355151
1.173809039
1.129973194
1.623891809
1.528696122
1.145010081
0.8402049068
0.670235713
0.5783032684
0.5153453728
0.4781035058
0.4917331858
0.467171736
0.4008180503
0.3597617506
0.4017612104
0.3633682417
0.3177373396
0.2502575015
0.1865597821
1.982891166
1.528089688
1.144267751
0.8701419325
0.904659643
1.044828587
1.109141794
1.078154572
1.006936214
0.9641073262
1.094937814
1.024525367
0.8604200383
0.7192815361
0.61612196
0.5367871515
0.4713155746
0.4253226217
0.412748129
0.3877485611
0.3494288473
0.3246210488
0.3497411284
0.3299388767
0.2820382096
0.225855489
0.1785366461
1.825931888
1.40084971
1.039137822
0.7597970074
0.7099707648
0.7935881852
0.8573969454
0.8847059985
0.8911792848
0.8857614517
0.8991217276
0.8482899581
0.7640530283
0.6762413546
0.5926954126
0.5145221601
0.4442403962
0.3885750615
0.3565769195
0.3297724961
0.3058823157
0.2910195129
0.3055922455
0.3009630901
0.2544472997
0.2044981086
0.1693346724
1.650964663
1.265268102
0.9303728675
0.6653530946
0.5791158181
0.6291333536
0.7052085325
0.776555941
0.833684714
0.8569367003
0.8467317663
0.7999000087
0.731140857
0.6538175644
0.5736915106
0.4948284279
0.4216912488
0.3599454105
0.3163287068
0.2863004712
0.2674326996
0.2567740065
0.2613566571
0.2579020648
0.2230205372
0.1826997612
0.1566918844
1.467546943
1.119090215
0.8151227368
0.5819402276
0.4991255567
0.5462078196
0.6441985733
0.7546102524
0.846752204
0.8838291524
0.8629401319
0.8010095728
0.7218208008
0.6376098491
0.5533156553
0.4722518418
0.3974450684
0.3326173613
0.2829479863
0.2497547248
0.2315152404
0.2222589053
0.2206020421
0.2146842055
0.1910678534
0.1604063309
0.1412049216
1.271156723
0.9574460631
0.6936581005
0.5139640057
0.4739939698
0.552882221
0.6928457065
0.8656420124
1.000911857
1.049615553
1.011023787
0.9100481843
0.7848038521
0.665194621
0.555858468
0.4589912502
0.3750040457
0.3045721311
0.250528458
0.2151716004
0.1968243435
0.1883968734
0.1845819672
0.1781150876
0.1622460499
0.1391095577
0.1247374939
1.052241257
0.7829538276
0.5787903512
0.482209954
0.5268635641
0.6767484563
0.8874962299
1.128880122
1.296995455
1.354040302
1.29751101
1.150834716
0.9577370547
0.7709906225
0.6103085243
0.4756115289
0.3656199194
0.2794957925
0.2180909737
0.1811445482
0.1635642724
0.1563865301
0.1529181935
0.147977929
0.1375503808
0.119999772
0.1086895206
0.823250007
0.6155212353
0.4971990932
0.5089910789
0.657389397
0.8851563179
1.143050745
1.401061418
1.576591491
1.631658321
1.560090118
1.381576445
1.140988392
0.8951701933
0.6855224685
0.5090403243
0.3651169338
0.2568595717
0.1865083653
0.1491865944
0.1334251315
0.1277748661
0.1255788571
0.123034577
0.1170017628
0.1038040558
0.09414755538
0.6128084777
0.486348692
0.4666286157
0.5789987676
0.8069040643
1.065008945
1.299794187
1.532003754
1.692973962
1.735975883
1.651148191
1.457777565
1.201547664
0.9382854407
0.7082417365
0.5098334572
0.3463803099
0.2278451984
0.1571060312
0.123039752
0.1092886641
0.104316218
0.1029104876
0.1024469996
0.1000889189
0.09054605782
0.08195756094
0.4558195124
0.4118647446
0.4655515068
0.6283019789
0.8846673307
1.113236498
1.292441096
1.470074147
1.597751422
1.621980689
1.529424781
1.340590886
1.100537675
0.8584390779
0.6404550179
0.4489600574
0.2960887857
0.1927440152
0.1349901907
0.107052772
0.09390258822
0.0875115929
0.08518561694
0.08546885437
0.08573626629
0.07944561332
0.07240621095
0.3658574749
0.3738771841
0.4481371843
0.6016020936
0.8242080138
1.006823718
1.125342259
1.235668852
1.318904236
1.325719816
1.240360986
1.081359638
0.8870840675
0.6902780275
0.5060342521
0.3500634174
0.2357585371
0.1640519717
0.1237059167
0.1010325958
0.08673672308
0.07713005983
0.07201825936
0.07128709537
0.07276419984
0.06939065013
0.06490777404
0.3187424522
0.3390688799
0.3926694903
0.4981039059
0.6557995001
0.7810623304
0.851011558
0.9061857277
0.9500233403
0.9504764991
0.8907232014
0.7787316961
0.6371645728
0.4902462153
0.3590292866
0.2580846334
0.1898880398
0.1468942185
0.1192004128
0.09933268571
0.0832783673
0.07025285289
0.06175775442
0.05899511856
0.06049557989
0.05959843254
0.05823341184
0.2682333078
0.2801266489
0.3032306662
0.3517255562
0.438795847
0.5206610747
0.5622397248
0.5832881033
0.5996867839
0.5956287868
0.5563764934
0.4844578498
0.3959750487
0.3104845852
0.2416722065
0.1926690504
0.1588965728
0.1341579322
0.1139138894
0.09545798981
0.0776299364
0.06140636625
0.05008606149
0.04602676829
0.04761364853
0.04874023628
0.05006045297
0.1794271978
0.181173921
0.1863600177
0.2001029762
0.2328479269
0.2770766899
0.3016683792
0.3081159664
0.3113594481
0.3077084871
0.2897422879
0.2590208238
0.2243806942
0.1942352581
0.1716180735
0.1548641896
0.1408794304
0.1272540906
0.1124651426
0.09527656351
0.07474320343
0.05239257527
0.03545284619
0.0318262908
0.03544152473
0.03755701813
0.04015258393
0.2010609042
0.2958832274
0.4382578259
0.5524100004
0.4790246061
0.2966238331
0.2184831889
0.2232876559
0.2490096691
0.2810288728
0.3390462826
0.1489407246
0.1481199174
0.1479690082
0.1590236492
0.1972501371
0.2725114158
0.3733795338
0.437051937
0.3722284795
0.2796685896
0.2458669215
0.2656595761
0.3077911757
0.3390344914
0.3656980689
0.4372074359
0.652230222
0.6427139705
0.551652585
0.4928706427
0.4633756343
0.4645868153
0.4852112003
0.6550747008
0.8707949214
1.135241712
0.1730442058
0.1677988751
0.1693173193
0.1679822726
0.1649280062
0.1669637134
0.1859838819
0.2322960546
0.3001438222
0.3421888636
0.3086648764
0.2725529973
0.2742929451
0.3109837705
0.3731880309
0.3774885071
0.4195165385
0.4297906017
0.47489351
0.5258729738
0.5229386779
0.5087507689
0.4717973152
0.4223564382
0.4359028692
0.5683935354
0.7104948577
0.6877694265
0.2073133183
0.2003039828
0.2002341728
0.1944296705
0.1869922666
0.183466418
0.187715449
0.2047361655
0.2407658629
0.2725572934
0.2735471079
0.2796688061
0.3056051236
0.344170038
0.3888975485
0.4366972844
0.4418828488
0.466659042
0.5055588469
0.550014759
0.5492159364
0.5335691699
0.4873449497
0.438443757
0.4479359478
0.7085922107
0.9391334254
0.8209562136
0.2537030017
0.2470598233
0.2329967223
0.2174389276
0.2092297779
0.2076238214
0.2096543185
0.2269455845
0.2542872863
0.2793480743
0.3070857549
0.3500816597
0.3956526045
0.4336065778
0.461323943
0.4809732938
0.5002419664
0.5368062203
0.5790220121
0.5829120365
0.5459298661
0.4999030931
0.4670822798
0.5858901691
1.176019348
1.708447208
1.897805774
0.3301314311
0.3137506085
0.2890007929
0.2634921211
0.2461498977
0.2399398721
0.2364365915
0.2470388411
0.2741949582
0.309637655
0.3520173435
0.4149070827
0.4729938875
0.5113241459
0.5259421846
0.5304649968
0.5325125771
0.5383488071
0.5666300952
0.5549175455
0.5158068363
0.520243877
0.5253840269
0.9204295518
2.136749325
2.989944224
4.404586417
0.4294465058
0.3996800357
0.3625765159
0.3279111795
0.3007319176
0.2863046363
0.277355476
0.2824834791
0.3068669233
0.348856991
0.410283032
0.5003247273
0.5807625297
0.6254818061
0.6263256701
0.6063170965
0.5872282934
0.5685081666
0.5677406071
0.5395707942
0.4989308606
0.4864963768
0.622079575
1.136240477
2.478966925
3.474944551
6.077141937
0.5494162919
0.5067448586
0.4570574377
0.4115475073
0.3775407899
0.3536004013
0.3358548
0.3314710054
0.3474773607
0.3930774736
0.4759406294
0.5950307341
0.7055408057
0.7667673152
0.7681170033
0.7324106625
0.708037901
0.6911051487
0.6970317712
0.6163477897
0.5201301261
0.4485081704
0.4305304404
0.6952132742
1.6153461
2.706502459
4.306156246
0.6910526519
0.6336610929
0.5738797848
0.5200913605
0.4831944562
0.4519077866
0.4218413476
0.4005179374
0.4008774716
0.4411573717
0.5345366403
0.6789967027
0.8159606154
0.8985847438
0.9248663938
0.9290583684
1.002787873
1.154814704
1.21706042
1.034465633
0.7693514778
0.5925885046
0.5103320407
0.4644959826
0.726733758
1.264471018
2.037364583
0.8368079303
0.7683905771
0.7058129033
0.6565152996
0.6240089763
0.5897180546
0.5447618437
0.4959564792
0.47129332
0.4933293754
0.5719221099
0.7200354986
0.8700179583
0.9705600608
1.040576051
1.161886773
1.524208448
2.026743096
2.335295356
2.22181725
1.6653802
1.397408014
1.328305009
1.028838745
0.6097154524
0.66147724
0.8951189893
0.9719659868
0.9041177994
0.8502086624
0.821500573
0.8139710379
0.76887299
0.7022746089
0.6213781331
0.5607508871
0.5515404467
0.6000026314
0.7200205529
0.8601162164
0.9696373553
1.080141712
1.307042259
1.901166994
2.592593892
3.193710784
3.348602862
2.956064736
2.893014181
3.000076177
2.596770432
1.497773532
0.6659744422
0.6003342894
1.085544549
1.02919804
0.9997887403
1.031803498
1.144785097
1.022332266
0.8956803527
0.774023104
0.6833982698
0.6564966731
0.7022778124
0.7502839495
0.8181173709
0.9341622527
1.002556202
1.156514929
1.662386015
2.421765698
3.077750025
3.245441671
2.975124368
3.191178075
3.583338
3.749116969
2.974895763
1.237625643
0.6647140156
1.174962879
1.14288742
1.173057476
1.450717101
2.23539545
1.612016495
1.179910458
0.9705618287
0.8821686314
0.9410611264
1.089357049
1.083909501
1.017501383
1.422324753
1.068954659
0.9733568523
1.184549865
1.683456039
2.162638795
2.243518351
2.094622623
2.557658779
3.082194053
3.330129877
2.622050554
1.170261813
0.6061156588
1.231524965
1.223733844
1.420257607
2.723404121
5.278455557
3.365677588
1.765105685
1.203849972
1.124517407
1.347058293
1.602955578
1.586262482
1.255510806
2.511153974
1.11472693
0.7950866859
0.8141715068
1.017628988
1.236644741
1.240374831
1.193282911
1.504568154
1.927032317
2.045586102
1.49898431
0.7356422115
0.4338159224
1.241557863
1.210126153
1.403395121
3.112675379
5.834858252
3.501068791
1.708548324
1.192691974
1.204977066
1.477779773
1.93977707
1.815597766
1.337104544
1.166901102
0.7687088599
0.6278011354
0.6034708389
0.6530691602
0.7340597316
0.714289863
0.6711036296
0.7807468628
0.995088298
1.00956654
0.6969972378
0.4139569796
0.3125070335
1.224270189
1.144287145
1.145347986
1.524604839
2.858772217
1.817306822
1.225077045
1.046278003
1.063999873
1.275381756
1.662109339
1.609138196
1.202026608
0.8517380592
0.6277521203
0.5306697533
0.4936887675
0.4857701819
0.5018877153
0.4706888121
0.4320783451
0.4544882683
0.5566721381
0.5497448148
0.4206758302
0.3219751508
0.2908571608
1.190056933
1.067795569
0.9911666342
1.016900115
1.327059693
1.107962497
0.9843752615
0.9130139237
0.8979879581
0.984470109
1.177472029
1.150666772
0.9064207816
0.6759782676
0.5379585507
0.4666683889
0.4284867977
0.4031072929
0.391986604
0.3685534544
0.3361078656
0.3299985473
0.3632641288
0.3481440881
0.300355046
0.2593213116
0.2802989075
1.142497119
0.9882397804
0.8704214681
0.8070801509
0.853507122
0.8384657286
0.821207837
0.7884583525
0.762754994
0.7722711088
0.8328230533
0.8038353468
0.6808718973
0.5613134779
0.477941253
0.4244155732
0.3859311705
0.3548162751
0.3340330603
0.3148191653
0.2914430339
0.2806078362
0.286182639
0.2713129812
0.2642883662
0.2405988418
0.2906523168
1.081306358
0.9126448761
0.7725211996
0.6729991768
0.6625454493
0.6743655657
0.6861303868
0.6806219055
0.6666548972
0.6560573155
0.6628773397
0.6325810536
0.5684356946
0.5010956567
0.4449566219
0.3990262839
0.3586395683
0.3240468582
0.2996914173
0.2806809531
0.2642663217
0.2547594506
0.2514180787
0.2472276754
0.2367762774
0.2107472131
0.2757954074
1.011583945
0.8437761653
0.6911526271
0.5758248274
0.546765104
0.5633859615
0.5876198882
0.6032996097
0.6083351031
0.603483671
0.5955843305
0.5673858606
0.5235570916
0.4750120992
0.4280928362
0.3833205976
0.3404452781
0.3026573979
0.2751619953
0.2553261229
0.2420058706
0.2331521897
0.2270264378
0.230198607
0.2135352713
0.187218939
0.2496689128
0.9342141781
0.7719152481
0.6196525977
0.5048394107
0.4718516655
0.4939921576
0.5323436992
0.5671368846
0.5903439785
0.5964603956
0.5861769714
0.5566925986
0.5143384643
0.4669275424
0.4187916299
0.3711671703
0.3251867856
0.2843353809
0.2536349415
0.2326021715
0.2200640998
0.2110886472
0.2040732675
0.2050776207
0.1898051471
0.1688114561
0.225300949
0.8490122147
0.6954035933
0.5537260716
0.4543684163
0.4323113688
0.4677952447
0.5245565507
0.5796515883
0.6202448412
0.6361231848
0.6240209183
0.5860646285
0.5325584197
0.4735466781
0.415168579
0.3597872955
0.3086723585
0.2644418813
0.2310920468
0.209148445
0.1967726746
0.1882124384
0.1816030218
0.1779300702
0.1663654058
0.1509029441
0.2007728139
0.7556108828
0.6137676114
0.4934679478
0.4246019455
0.4292815222
0.4878428393
0.5673685909
0.6446452196
0.7027938993
0.7274026696
0.712243212
0.6599158344
0.5841373953
0.5016856269
0.4223673294
0.3511817752
0.2901449195
0.2408745666
0.205416734
0.1834631829
0.1718192835
0.1645267197
0.159135445
0.1536812611
0.1449103492
0.1329330995
0.1758489544
0.6523976967
0.5306901801
0.4450957242
0.4203794366
0.462252269
0.5470853852
0.6486846028
0.746956594
0.8195388173
0.8511947115
0.8332038741
0.7661860728
0.6642022617
0.5510876102
0.4437400534
0.3494100488
0.2725049431
0.2151151785
0.177358481
0.1563174018
0.1462783722
0.1408176772
0.1370506784
0.1325617349
0.1261523588
0.1165335111
0.1526497168
0.5458672659
0.4559483534
0.4167661715
0.4403742369
0.5154619851
0.6202881981
0.7383701733
0.8476732206
0.9273131055
0.9614704107
0.9396670403
0.8607166475
0.7382845664
0.5958105737
0.4631163515
0.3472066107
0.25465638
0.1892282829
0.149948833
0.1305784951
0.1224336872
0.1187218176
0.1166315799
0.1142659251
0.1104005129
0.1029186844
0.1335095389
0.4491132375
0.4006979083
0.4083400008
0.4690817568
0.563962577
0.6790059929
0.796931367
0.9035569149
0.9797493687
1.008691221
0.9789771931
0.8895490689
0.7548528986
0.5964844396
0.4504523502
0.3260144054
0.2293244744
0.1639714113
0.1272363776
0.1101611026
0.1030068613
0.09997573655
0.09899798166
0.09869624263
0.09743246508
0.09215770425
0.1192416803
0.3772984953
0.3676663677
0.4066741782
0.484556965
0.5855592683
0.6939643722
0.7963079293
0.8858282439
0.946687907
0.9617468459
0.9199094049
0.8221598118
0.6825993754
0.5284155954
0.3927465794
0.281008624
0.1976606547
0.1435664192
0.1134635775
0.09817661763
0.09011994979
0.0859117048
0.08471886616
0.08556634498
0.08639217916
0.08323431238
0.1082624652
0.3350173653
0.3476759072
0.3949934706
0.4708941974
0.5610282202
0.6507894305
0.7270489246
0.7881591353
0.8240232088
0.8197667355
0.7660225898
0.6652109796
0.5396120708
0.4179300321
0.3129583391
0.2301150986
0.1706360137
0.131974818
0.1083214099
0.09331282948
0.08288755339
0.0760318982
0.07321133611
0.07394634949
0.07591468298
0.07449211863
0.09703309101
0.3127674506
0.329298165
0.3658778205
0.4236510065
0.4924821003
0.553706665
0.5996499985
0.6296314864
0.6382443067
0.6169581742
0.562428318
0.4819780947
0.3927539577
0.3105609192
0.243194155
0.1920630037
0.1548624387
0.1279595072
0.1078463715
0.09182699199
0.07864392642
0.06874829164
0.06356699368
0.06329537689
0.0655061879
0.06534377642
0.08298402052
0.2932265835
0.3041667884
0.3218768933
0.3505061769
0.3889208598
0.4230529874
0.4421715783
0.4460047938
0.4362174856
0.4106390917
0.3693773411
0.3187764445
0.2685209425
0.2258128112
0.1925921417
0.1667061405
0.1449355435
0.1251683157
0.1065629156
0.08881318814
0.07227046936
0.05893188048
0.05184067367
0.05125561527
0.05393602956
0.0547749428
0.0648941351
0.3551227388
0.3640711342
0.3686985439
0.3727997386
0.3825216816
0.3943069677
0.3940908266
0.3774832667
0.3531092211
0.3250391918
0.295002751
0.2666319053
0.243525146
0.2261777619
0.2118274893
0.196721665
0.1785026357
0.1569794985
0.1329888874
0.1070202635
0.07946164879
0.05376680447
0.03890239748
0.04145153434
0.04842235029
0.04962961928
0.0458917824
0.1560392919
0.2101253899
0.3192501967
0.4677829707
0.5596407905
0.5144010322
0.3391245928
0.2329294275
0.2185404277
0.2198149679
0.2345441253
0.3820895286
1.343883547
2.561612569
2.244415554
0.1420475803
0.1425900431
0.1459321765
0.1624650867
0.207733273
0.2920168228
0.3917161136
0.4468247194
0.4107742335
0.3141242843
0.2645261391
0.3000813896
0.2799914634
0.2727331991
0.2956640564
0.4286066718
0.7246015413
0.6955820455
0.5383628316
0.4491344356
0.4067276821
0.398819507
0.4810754022
0.7047514469
0.9517173566
1.286273463
0.1764518065
0.1605232292
0.1609256301
0.1599434415
0.1597300139
0.1684275809
0.1977340293
0.2567409488
0.3305743134
0.3730696554
0.353963377
0.3031954321
0.2827940793
0.3135859199
0.3133141875
0.3351067948
0.3239269249
0.3518225318
0.4082719781
0.4372578997
0.4630999995
0.4686480022
0.4356891112
0.4148298505
0.512029311
0.7735723842
0.8991056272
0.8733789522
0.2292605949
0.1907330071
0.1870791201
0.1826413271
0.1785999427
0.1801788051
0.1934371142
0.2252348083
0.2727937028
0.3072951445
0.3058676267
0.2918988013
0.2905783146
0.3131838475
0.3466635279
0.3449296713
0.3579724302
0.3819309481
0.4221299647
0.4550090877
0.4928365445
0.5137693379
0.4786580309
0.4784567348
0.6600229526
1.084204815
1.20176383
1.020803319
0.2335908144
0.2257064503
0.2159094666
0.2076575499
0.2019644225
0.2046437262
0.217672484
0.2440339969
0.2709943867
0.2859204064
0.2990645486
0.3185436719
0.3395854687
0.3594521349
0.3768054799
0.3936859895
0.4140174893
0.4501459824
0.4838990732
0.5162831173
0.5342017011
0.5768969097
0.6312899017
1.079577831
1.841237926
2.067151131
2.140558339
0.2953130462
0.2828898732
0.2678625358
0.2568813826
0.2356703188
0.2308050556
0.2343358372
0.2495262253
0.2729226374
0.2983748175
0.3300805644
0.3676628537
0.397261392
0.4148597034
0.4282075308
0.4385821331
0.4485139174
0.4667003158
0.5012299299
0.5205666147
0.5462365457
1.180356233
1.005646754
1.662786699
2.59983583
3.167742434
4.800623431
0.3809068795
0.3583145375
0.3297955096
0.3051880879
0.2812401268
0.2707160626
0.2681257089
0.2764321735
0.2978009562
0.3320238648
0.3817890309
0.439481127
0.4821101383
0.5011934926
0.5072983956
0.508021692
0.510267512
0.5120766498
0.5131441767
0.5013710304
0.4918325638
0.5959273596
0.8277324359
1.74698363
2.735790609
3.441949144
6.052960952
0.4875365225
0.4515223754
0.4130983025
0.3778639079
0.3504671381
0.3313804196
0.319559759
0.319026353
0.3361611401
0.377518209
0.4456773274
0.5264224332
0.5863757636
0.6138321248
0.6223278964
0.6275357413
0.6535125021
0.6837877717
0.6806566433
0.6068354208
0.5303401247
0.5147945011
0.6032408978
1.14061985
2.19333887
2.947501101
4.407109389
0.6018555222
0.5529609508
0.5111798456
0.4764584129
0.4470585077
0.4192182121
0.3944120313
0.3793369291
0.3859396327
0.4271723862
0.5071093963
0.6061558274
0.6821493058
0.7241656012
0.7591999497
0.8313913564
1.00166972
1.212214878
1.302549367
1.155526682
0.9225062136
0.8191674895
0.7610928529
0.7463231822
1.079785389
1.540164783
1.883555447
0.7049181924
0.6537275821
0.6196712293
0.5978028166
0.5763211727
0.5410376119
0.4985976485
0.4596148415
0.4453929362
0.4739320086
0.5495062066
0.6521336991
0.7363947483
0.795164514
0.8741879933
1.060014291
1.458937401
1.920841679
2.191178826
2.143929042
1.909727678
1.887412599
1.886565017
1.45539917
0.9116715224
0.7720966235
0.838779547
0.7904145214
0.7538561892
0.7413452027
0.7509796814
0.7612624221
0.7043290911
0.6313925531
0.5594462114
0.5174166575
0.5283094801
0.592875682
0.6820301827
0.7623037696
0.8414206735
0.9315262521
1.186097866
1.724419743
2.271349395
2.605583195
2.679441763
2.589888094
2.73850239
2.996742539
2.845646657
1.873312807
0.8707002309
0.6613326934
0.8591397968
0.8506183583
0.8823447516
0.9941758412
1.160393579
0.973286074
0.7966299738
0.6822016875
0.6296859046
0.656028257
0.7378175182
0.7979394268
0.8558959666
1.171886044
1.008606378
1.113040904
1.59927225
2.220199707
2.633097639
2.7534728
2.748662037
2.942461066
3.204683294
3.229785486
2.467770397
1.177622544
0.6847549304
0.9198892944
0.9547463206
1.108531532
1.678868163
2.67779669
1.842239639
1.135107441
0.8667912109
0.8368495604
0.9822679778
1.194096265
1.40799107
1.634298726
3.970563135
2.01305864
1.155251365
1.226387267
1.691646253
2.084548761
2.187735346
2.23939671
2.535027509
2.827957042
2.820555256
2.149381981
1.034378874
0.629991879
0.971675273
1.049160539
1.481671049
3.200816833
4.050644217
3.346435684
1.789987928
1.096236916
1.032658054
1.287543445
1.617246362
2.367124309
1.942010913
8.845507325
3.284178152
1.06947808
0.8705584126
1.090461265
1.314007438
1.345678431
1.372240726
1.67584919
1.951821451
1.89530102
1.421812191
0.6932084795
0.5046867777
1.001170913
1.060764429
1.427620763
2.996602882
4.072570546
3.069489534
1.529765757
1.038694778
1.076508236
1.361907355
1.60831131
1.663497199
1.383358072
2.477790427
1.119269226
0.6728479811
0.6108862241
0.6860394354
0.7649850851
0.7492281285
0.7389963849
0.9037828935
1.065267082
1.017405533
0.7252285209
0.4116076388
0.4257263099
1.006402056
1.019567467
1.130009332
1.586977292
2.430217228
1.685778697
1.097960985
0.9143354878
0.9618546639
1.193514085
1.403479121
1.401703097
1.141358264
0.9988003864
0.6583172279
0.512324078
0.4700985633
0.4784993371
0.4918541436
0.466579481
0.442747841
0.4946026091
0.5561775404
0.5273332545
0.3993886351
0.3107094459
0.3908441444
0.9899689059
0.9648285176
1.005455388
1.080136345
1.250870068
1.050464013
0.8877626748
0.8106730317
0.8163658333
0.9304611298
1.068267964
1.059915512
0.8722338095
0.6704738165
0.5118134806
0.4315571411
0.3946585892
0.3804632719
0.3715939856
0.3477066712
0.3224521784
0.3300194357
0.3534387756
0.3429970333
0.3026615963
0.2730758955
0.3605683722
0.9508720275
0.88741439
0.8741217785
0.8779985484
0.8865770542
0.8265813078
0.7683413938
0.7224414085
0.7012192825
0.7265573676
0.7776104762
0.7560797773
0.6463960805
0.525980135
0.4386078721
0.3852363589
0.3512777889
0.3294641061
0.3131448052
0.2912553966
0.2697479423
0.2682326733
0.2776895798
0.2711601721
0.2610550435
0.2752231368
0.3710740391
0.8923583282
0.8015871492
0.7508287604
0.7268411388
0.7189307193
0.6996191285
0.675242932
0.6486023697
0.6257538357
0.6163596761
0.6176609303
0.5892736715
0.5267538668
0.4595201613
0.4041079581
0.3601942243
0.3246855788
0.2976128362
0.2773990977
0.2576040902
0.241683153
0.2401008173
0.24614959
0.2410381644
0.2332114537
0.2452605204
0.3504423469
0.8220061854
0.7187224462
0.6483636571
0.6112352144
0.6049466702
0.6066640131
0.6048263584
0.5975051544
0.58643689
0.5740338362
0.5596708403
0.5301599306
0.4857038747
0.4368540286
0.3896193686
0.3455119356
0.3062641662
0.2747056766
0.2516688329
0.2337406806
0.2217941116
0.2190651326
0.2228883157
0.2186617848
0.2076788464
0.2057604361
0.3142469924
0.7482897767
0.6449090546
0.5696222532
0.5309261588
0.5303557103
0.5476178648
0.5663447156
0.5788872131
0.5838158393
0.5793996672
0.5633002442
0.5313528268
0.4863426129
0.4350726088
0.3828426052
0.333206676
0.2894062372
0.2545511708
0.2299439881
0.213425842
0.2033684871
0.1985116498
0.198120757
0.1935076663
0.1831661853
0.1778974669
0.2785619233
0.6755327768
0.5794328422
0.511031121
0.4815799358
0.492751945
0.5268017952
0.5656406578
0.5983018205
0.6202690737
0.6264338471
0.6115181621
0.5726966961
0.5148359457
0.4475026538
0.380344474
0.320010604
0.2701672472
0.2326781183
0.2076387379
0.1924445001
0.1836434361
0.1779323643
0.1746167647
0.1696146081
0.1619743499
0.1575418846
0.2447795204
0.6049509139
0.5212996979
0.4693638539
0.4588027545
0.4882854747
0.5413175563
0.6001214382
0.6524882089
0.6914914739
0.7088379562
0.6958767331
0.6477087178
0.5696702167
0.476243294
0.3846052992
0.3069358108
0.2479940354
0.2075397333
0.1828510336
0.1693915462
0.1621921057
0.1572666377
0.15357537
0.1492273114
0.14372699
0.1399037535
0.2131810704
0.5352764289
0.4709281547
0.4434616113
0.4582580146
0.509024738
0.5801786662
0.6565411021
0.7265753166
0.7804799112
0.8075898211
0.7963530489
0.7387154681
0.6385271436
0.5150774409
0.3941009019
0.2950089689
0.2246923497
0.180760166
0.1568549375
0.1455353048
0.1402675442
0.1369423066
0.1344044799
0.1315715919
0.1278075574
0.1244429234
0.1857780082
0.4694985977
0.4305230426
0.4316837829
0.4721396204
0.5411940601
0.6258825141
0.7150954682
0.7973119124
0.8605057642
0.8921149518
0.8784832192
0.8094090702
0.6877773098
0.5380034829
0.3938081968
0.2792646026
0.2015040073
0.1559116922
0.1332979248
0.1238502102
0.1200380914
0.1180929161
0.1170359363
0.1160672725
0.1141830401
0.1116611943
0.1643263301
0.4131305898
0.4014595002