/*--------------------------------*- C++ -*----------------------------------*\
  =========                 |
  \\      /  F ield         | OpenFOAM: The Open Source CFD Toolbox
   \\    /   O peration     | Website:  https://openfoam.org
    \\  /    A nd           | Version:  8
     \\/     M anipulation  |
\*---------------------------------------------------------------------------*/
FoamFile
{
    version     2.0;
    format      ascii;
    class       volScalarField;
    location    "1.2";
    object      htcConv;
}
// * * * * * * * * * * * * * * * * * * * * * * * * * * * * * * * * * * * * * //

dimensions      [1 0 -1 1 0 0 0];

internalField   uniform 0;

boundaryField
{
    walls
    {
        type            calculated;
        value           uniform 0;
    }
    region0_to_wallFilmRegion_wallFilmFace
    {
        type            convectiveHeatTransfer;
        L               1;
        value           nonuniform List<scalar> 
822
(
2.771168416
2.971852856
2.634718183
2.765747956
2.812257349
2.811929047
2.813247584
2.837461528
2.822996947
2.767435279
2.669255395
2.513467206
2.365877016
2.311917735
2.454418593
2.795556554
3.082829433
3.329061064
3.522298247
3.631096465
3.665394854
3.645504481
3.578294774
3.463405263
3.292630108
3.061759248
2.776084238
2.445083763
2.077968747
1.595076052
1.125222918
2.431113606
2.536265216
2.643961738
2.720951984
2.772598567
2.811087755
2.832477753
2.814170371
2.763772566
2.676755242
2.513803235
2.301437354
2.127123749
2.042061148
2.68378129
3.065574577
3.320675736
3.48646022
3.567299937
3.579376874
3.53758602
3.446655642
3.304958232
3.110153723
2.870957521
2.608648035
2.329464474
2.015799032
1.560069875
1.060200407
2.377472829
2.478116922
2.580147474
2.669968805
2.73850132
2.799437748
2.841124757
2.841225177
2.805930624
2.726640406
2.565576657
2.324436697
2.138566955
2.007336941
2.878109983
3.128841878
3.295265984
3.408823678
3.457155861
3.444643563
3.380323645
3.267623402
3.106374921
2.902911586
2.684092584
2.479852934
2.27353334
2.019116747
1.601988725
1.124574792
2.371255288
2.462117872
2.560856936
2.655405888
2.712431993
2.768416367
2.83297966
2.865703073
2.846251162
2.757415996
2.534893134
2.077465635
1.47423447
3.609668225
2.700149734
2.849418686
3.111306635
3.250452654
3.287222164
3.255738083
3.173614414
3.047573951
2.882587357
2.69910192
2.538705295
2.414388897
2.276748051
2.068586749
1.68502837
1.258007959
2.3487308
2.428805175
2.518884689
2.602718757
2.67328928
2.733853432
2.804213084
2.864662205
2.886339147
2.867711658
2.828835686
2.710503978
3.896540126
8.480064378
4.534700462
3.787115936
3.393323825
3.254542161
3.182308883
3.102574501
2.991902599
2.843177506
2.67232784
2.529522933
2.454565725
2.414263343
2.343119188
2.184352449
1.829584514
1.425834796
2.209841278
2.284000733
2.363143507
2.473715885
2.553420301
2.608005153
2.650205763
2.717750928
2.809121466
2.849230249
2.822081727
2.749061615
2.712348627
2.989993455
4.427487244
3.70592365
3.322217422
3.211473259
3.17314085
3.110127824
3.006530982
2.865063909
2.681557795
2.504523273
2.420542292
2.427212791
2.453497005
2.437791666
2.334775185
2.026670993
1.655159793
2.12616956
2.148132757
2.184419068
2.345267638
2.473866742
2.55342805
2.609129462
2.663839298
2.729008977
2.752764949
2.704146594
2.600820638
2.534024595
2.674395163
3.270598337
3.125301116
3.125943132
3.150122037
3.136039631
3.068493037
2.952353464
2.802676947
2.618755497
2.46601217
2.426107108
2.470820853
2.531719073
2.54876344
2.478280346
2.207805215
1.889649253
1.946429829
1.974497545
1.953439239
2.182602691
2.407318387
2.513959393
2.571129542
2.599733013
2.616066539
2.590993337
2.489667651
2.371371721
2.313359846
2.459589425
2.641309101
2.833949484
2.994197246
3.077594623
3.082119738
3.02373663
2.920737076
2.787937188
2.636002301
2.530569094
2.521339334
2.578993565
2.646523535
2.67063343
2.606429144
2.351249344
2.078252099
1.611043178
1.810166587
1.774288459
2.033596126
2.291771657
2.403890888
2.462547376
2.495884388
2.505802943
2.470192096
2.358183016
2.27778213
2.210049295
2.30333668
2.250414356
2.727535716
3.013609835
3.117702068
3.108251834
3.039161447
2.94138189
2.823527397
2.699295966
2.629238675
2.642353968
2.705932264
2.771511901
2.792103151
2.725658385
2.478113401
2.233899333
1.086512535
1.823587394
1.91373715
2.217917859
2.316437886
2.35992279
2.369706324
2.368364406
2.358097187
2.298458885
2.137951983
2.073868654
1.930595936
2.090023513
2.068748993
2.436745832
2.845496359
3.034736937
3.071135044
3.03965768
2.977658309
2.890672781
2.794539512
2.747632299
2.769536718
2.829796245
2.887157247
2.899398586
2.82674546
2.58631142
2.364438894
1.777037992
2.103573528
2.192791166
2.326543094
2.369321731
2.374371322
2.358019865
2.332730672
2.290909673
2.213413189
1.98542631
2.102196517
2.074937246
2.326658397
3.429716913
3.386909705
3.404460003
3.380370756
3.289051106
3.180916103
3.088057464
3.001536002
2.917561162
2.878182136
2.89649078
2.94502069
2.98718296
2.984892029
2.897723728
2.664158802
2.464994623
2.077619162
2.24034405
2.295422731
2.374355565
2.396914396
2.382235449
2.337429226
2.26220355
2.144265308
2.003359415
1.766762694
1.922483072
2.001015214
2.37329315
3.497886953
3.578742234
3.630607202
3.560708231
3.418354747
3.283094812
3.185389158
3.110236173
3.040551017
3.003579733
3.012374854
3.044070212
3.064940995
3.041308479
2.929616375
2.703129421
2.525962843
2.15201185
2.346706444
2.366389837
2.381929939
2.386580918
2.349767147
2.279055316
2.174194967
2.029609478
1.88343888
1.464009927
1.410418183
1.65795954
1.856743653
3.300084275
3.589578659
3.655142131
3.575210577
3.441221066
3.327634771
3.250200588
3.194021813
3.140710671
3.106581657
3.104217416
3.116597305
3.112095636
3.057030073
2.917461481
2.70064531
2.543972613
2.01573526
2.387017883
2.396639874
2.334163824
2.299668507
2.251707007
2.203004754
2.134140679
2.023544623
1.933329405
1.641195752
1.546973017
1.903404136
2.423158932
3.277928843
3.562319652
3.597996804
3.518788054
3.419444491
3.340214373
3.285567981
3.244777622
3.202294731
3.169036684
3.15855829
3.151970005
3.116534984
3.018868556
2.861441042
2.66004872
2.527227738
2.172280065
2.521623113
2.313842043
2.285505522
2.048090237
2.054316829
2.056097797
2.0566818
1.99849247
1.986305212
1.652702017
1.862836812
2.319827867
2.824850334
3.253000089
3.467784586
3.494385355
3.446318538
3.385247042
3.334270962
3.295036405
3.261400321
3.22137566
3.181329668
3.15461879
3.124608098
3.056478038
2.929956571
2.767856075
2.591696651
2.492941948
2.055417402
2.319389535
2.072934611
1.998182014
1.873975859
1.80107274
1.795085712
1.891237856
1.933503196
2.020448963
1.433536591
1.983929167
2.496212933
2.905797892
3.215500994
3.37162953
3.402904879
3.382956321
3.348150538
3.313235274
3.280192418
3.245878604
3.200934719
3.147669864
3.097730273
3.038920842
2.942522394
2.799840785
2.649228709
2.511304527
2.457704385
2.250159748
1.986201665
1.955930592
1.760260989
1.577367136
1.522071447
1.833505544
1.97902977
2.035414077
1.293085721
2.092745495
2.687993362
3.029869978
3.231450042
3.310555969
3.327452995
3.323894019
3.306412809
3.278834087
3.244425146
3.203122743
3.147855386
3.0770648
2.999285158
2.908739315
2.789402945
2.645035566
2.523418849
2.430995472
2.427212923
2.05756236
1.816887755
1.89511758
1.520315658
1.291324425
1.06432654
1.473474426
1.790013049
2.110028879
2.495859329
2.375100537
2.67397913
2.977319637
3.12770348
3.176413415
3.215917775
3.24942349
3.253526894
3.229802529
3.189224857
3.137159763
3.068972145
2.979761689
2.874019691
2.753393825
2.619433227
2.487021704
2.402316892
2.350356085
2.393963496
1.323189534
1.443436449
1.77520398
1.711558754
1.365443905
1.313549827
1.878878414
2.341263978
2.769871235
3.378774726
3.312279871
3.337686049
3.372142796
3.311489531
3.211964277
3.199273571
3.2406092
3.24547227
3.204467551
3.139612016
3.064496357
2.977035821
2.86901726
2.739863502
2.596117477
2.455133074
2.338014829
2.282712663
2.257140697
2.340596114
1.879051051
2.117222954
2.524729263
2.733730349
1.62560461
1.56666732
2.030211284
2.540852484
3.008698773
3.523666138
3.478429645
3.571399734
3.608453771
3.455911626
3.263288061
3.231273703
3.264387845
3.242680783
3.171556109
3.080262318
2.983631019
2.879084259
2.75651646
2.611830759
2.452736484
2.305660408
2.194877545
2.15238738
2.134721528
2.242429887
2.326067955
2.332148559
2.494804653
2.418842102
1.789110123
1.702255009
2.057711008
2.458024189
2.959017351
3.526124622
3.407915986
3.55221058
3.648729499
3.521431039
3.298336612
3.212408509
3.206678864
3.174991597
3.104925759
3.011407596
2.90684327
2.791294898
2.657482858
2.501196918
2.329677225
2.171741354
2.052952768
2.005142025
1.973595207
2.068324563
2.258357235
2.321605708
2.384965394
2.212922339
1.833292942
1.709424644
1.884328798
2.28418293
2.686693453
3.37148403
3.002378166
3.084374759
3.305912133
3.25775772
3.114134609
3.04990266
3.02575821
3.009946382
2.982598384
2.92600609
2.836556773
2.720216612
2.579345901
2.414449509
2.233000191
2.060451183
1.920172877
1.850190306
1.781227783
1.782666194
2.29841609
2.341498096
2.366098742
2.13804363
1.84271129
1.849164289
1.922530324
2.240625686
2.48477614
3.18975941
3.217526736
3.641989728
3.552749954
3.445578074
3.220592277
3.000786121
2.993043024
3.060380799
3.05173251
2.966828576
2.842662029
2.699690448
2.540849119
2.365027937
2.175997382
1.989968241
1.821651511
1.713752695
1.588671684
1.38857155
2.643558622
2.235855993
2.507328171
2.279779286
1.97754082
2.455966256
1.998577662
2.30750475
2.394530191
3.028020916
3.515936032
3.643764138
3.680022254
3.604951973
3.322064392
3.076702687
3.007762343
3.071257305
3.113120885
3.049894914
2.905405607
2.727368999
2.541964979
2.35427951
2.162463394
1.970936355
1.780701592
1.628851922
1.424612256
1.106896546
2.847562065
2.46551151
2.600415702
2.498563786
2.365504794
2.814969641
2.404374304
2.081740297
2.480559095
2.619678545
3.521592245
3.638498298
3.867868665
3.595944746
3.252611636
2.976431267
3.059862453
3.229766387
3.237643812
3.114521968
2.93344648
2.741304874
2.555474996
2.374893045
2.195007827
2.015510264
1.828445784
1.654759824
1.393333189
1.216046953
2.8197756
2.478090502
2.694323369
2.90419329
2.945393524
3.237877927
3.066676076
2.932173311
2.692042714
2.183824404
3.003176917
3.45319185
3.553942131
3.285807727
3.122982955
3.046554861
3.074522882
3.257741394
3.274449596
3.137008888
2.948794946
2.762372468
2.585936554
2.414535298
2.246468041
2.085256059
1.923023884
1.768180868
1.510532658
1.332333617
2.681912531
2.400222489
3.275322563
3.597057445
3.46715212
3.431242382
3.518704057
3.763140515
3.817918192
3.422783782
2.953766264
3.279247107
3.447364833
3.318454461
3.227175779
3.060631028
3.045568041
3.258987633
3.258703224
3.13533435
2.963695329
2.790895991
2.623178354
2.455893074
2.292299416
2.144631135
2.011564604
1.888647893
1.643728248
1.383111062
)
;
    }
    region0_to_wallFilmRegion_mirrorFace
    {
        type            convectiveHeatTransfer;
        L               1;
        value           nonuniform List<scalar> 
558
(
3.420352241
3.294023035
3.316783506
3.6041757
4.157954594
4.292787989
3.840135663
3.844351235
3.857921336
4.058453212
3.60485453
3.642783769
3.755530257
4.022744575
4.379654698
4.423828339
4.608568789
4.381327806
4.288912901
4.303688105
3.7706422
3.966487031
4.144261033
4.304690511
4.857019623
4.680299212
4.505339702
3.514142091
4.180129307
4.145803656
4.268514152
3.857070539
3.968276145
3.245845582
3.284310634
3.444075522
3.50942504
3.459175653
3.473818308
3.564375359
3.351441076
3.285418924
3.432647389
3.451077905
3.421256533
3.518555361
3.64472002
3.127785964
2.812376744
3.169524036
2.800527649
3.071299051
2.885036414
2.059843266
2.032701928
1.98359847
2.790768961
2.037276671
2.201071849
2.737304515
2.626046081
2.521421579
2.36205541
2.317789757
2.226766421
1.97959594
2.141841164
1.545124577
2.102933765
1.988049007
1.991776749
1.870366203
1.803837183
1.748388797
1.650730969
1.830183878
1.59250725
1.692608689
2.127230075
1.585415562
1.756578794
2.080548938
2.001093313
2.107414065
1.639823582
2.10804501
2.167646248
2.028031817
2.102822474
1.974801627
1.741483696
1.824279265
1.649578703
1.427876949
1.452500406
1.256727241
1.420599297
1.150105569
1.241722205
1.775744353
1.429296032
1.65043379
2.057776161
1.83539563
1.934392298
2.145586393
2.008099116
2.022647693
1.529336841
1.951226547
1.636357639
2.196277178
2.278687137
2.197239842
1.952070221
2.091828652
1.966558786
1.622945269
1.825295734
1.67461492
1.260516656
1.530562973
1.427289089
1.283110638
1.405728646
1.472541713
1.642296741
1.58681911
1.707400977
1.833298399
1.814647088
1.816212314
1.645013098
1.533251382
1.424153469
1.969371943
2.769300348
1.830352872
2.202917664
2.267302403
2.208418696
2.005686507
2.135681985
2.05131774
1.775273257
1.962805654
1.882509826
1.629774423
1.824666403
1.801998749
1.686909473
1.817232574
1.855516261
1.853100229
1.906607888
1.947745658
1.869778848
1.988479174
1.919110034
1.268341438
1.866118409
1.589395167
2.212915446
2.262876799
2.211536935
2.087616014
2.156513058
2.100515425
1.970474833
2.051556695
2.018159871
1.932343752
2.003916581
2.009242647
1.9716838
2.0272336
2.025803812
2.013200832
2.022248951
2.017228422
1.984626476
2.024155846
1.995738916
1.768699405
1.968859638
2.051969334
2.226825522
2.22156006
2.155117181
2.114568833
2.075843841
1.988002387
2.047891523
1.93093728
1.937551243
2.062816192
1.970312764
1.998860137
2.035037168
2.030688312
1.983957483
1.913056411
1.854015836
1.925721132
3.477521427
3.481243848
3.520177486
2.862411661
3.021103372
2.45908645
2.989943023
2.093591913
2.269603481
2.940773229
2.539044016
2.195467771
3.44727465
2.513747532
2.087702163
1.886619665
1.730235489
1.968912043
2.010904095
2.112074813
1.763702181
2.143226989
1.893821841
1.577841514
1.346404732
1.573429982
1.972316941
2.096647773
1.946014835
2.284818319
2.084664429
1.79801815
1.433192638
1.188928631
1.458533636
1.799687583
1.816922322
2.464280456
2.272561095
2.112719305
1.88932671
1.681206225
1.634337841
1.767058509
1.947037308
1.704180236
2.043668646
2.264295079
2.152982276
2.023483644
1.938015188
1.951316398
1.998433666
2.02893746
1.93985622
1.879306843
2.2791473
2.169817672
2.072676463
2.041706051
2.084203029
1.969634409
1.951474498
2.149521144
2.320982438
2.232862632
2.136808701
2.016367967
2.292762051
1.714910722
4.013479519
2.846362019
3.554665428
4.344988746
4.315382501
4.281509588
4.384315278
4.304356147
4.409666135
3.740608271
3.629988791
4.07774245
4.723528719
4.637612052
4.456068903
4.509100286
3.530758459
3.753186148
3.758342061
3.613240404
4.344126542
3.999415683
4.082315031
3.88419209
2.579287898
2.735544441
2.989889818
3.150842464
2.49771679
2.681705931
2.952993293
3.153281926
2.87482163
2.938505498
3.090160261
3.251936165
2.200227636
2.698666244
2.505565206
2.272706428
2.728334529
1.285401062
3.537220605
3.397955737
2.493907317
2.063669994
3.324728326
1.975334057
3.51655465
3.467358501
1.96651876
1.936240795
3.862972129
3.778258119
2.927595431
3.816827256
4.017643357
3.92390412
4.129470246
3.392245235
4.22221064
1.973187162
2.0308631
4.064237289
1.894014698
4.292832884
3.194022845
3.472937518
4.246660225
4.335044223
4.347761537
2.273964396
2.2493452
2.170522862
2.169514717
2.147572551
2.176504298
3.692312681
4.02619057
2.04147171
2.078369498
1.873628751
3.91547798
4.163734093
4.137148733
2.189989349
1.746086462
1.484390872
3.819471221
4.059577215
4.033407211
2.009834052
1.934653034
2.39923395
3.947206052
4.062565695
4.128247786
3.787297455
1.674968252
3.0048036
3.93106646
4.187450906
4.182004149
4.153065261
3.628314827
3.622203847
3.450109717
3.699891036
3.679940241
3.752162219
3.821314302
3.875811574
3.910470771
4.014958772
4.162432858
4.149789946
4.139237505
4.227193792
4.23430101
4.31318907
4.303473147
4.424166336
4.322432239
4.424498733
4.400965916
4.509850032
4.82741925
4.729545434
4.305468526
4.599000261
4.494209125
4.299359505
4.442500114
4.397389809
4.17640044
4.190704997
4.339737229
4.433959147
4.395965148
3.437591385
3.459003244
3.695047147
3.587764361
3.621957171
3.59234323
3.869771903
3.850761333
3.773789862
4.040090909
3.866230126
3.946064719
3.846751963
4.118800326
4.04521011
4.200776003
4.144932672
4.294008355
4.111504306
4.256155846
4.454101892
4.395933208
4.373491634
4.349770808
4.669488893
4.791202672
4.707098698
4.601740965
4.573879795
4.527536778
4.297600638
4.470887794
4.48849837
4.421080188
4.422592547
4.390802607
4.412681282
3.612160281
3.603542383
3.666514984
3.571379133
3.582379219
3.694697626
3.760182358
3.635794883
3.829202604
3.69621203
3.977730586
4.013816176
3.897761599
3.894169465
3.882284721
3.996745475
3.999821147
4.532836425
4.501990665
4.262578269
4.218705688
4.346950689
4.17423758
4.205098843
4.250730493
4.114419541
4.299595475
4.28894513
4.040378238
4.209214888
4.694577898
4.570331447
4.4031496
4.442358068
4.290605244
3.491895313
3.407297456
3.311154348
3.344946452
3.447936149
3.488569147
3.378973218
3.422411943
3.541307832
3.488334711
3.498278026
3.64124692
3.643550597
3.525791805
3.479059951
4.081791937
3.802850214
4.040444065
3.765869002
3.735267585
3.715291315
3.935828087
3.700541503
3.699082656
3.711582346
3.78518054
3.947977956
3.585842174
3.731675744
3.789528285
4.306557793
3.964964805
4.128027351
3.917035204
2.642160795
2.480777512
2.564917254
2.858964096
2.67612776
2.816408158
3.08814627
2.962232899
3.077605688
3.169869391
3.154382029
3.192291644
3.26698439
2.578437867
2.626550291
2.685967286
2.813426076
2.762011356
2.866148957
3.067830118
2.984668479
3.08695147
3.207092364
3.176728146
3.231488672
3.32597929
3.30054714
2.899356673
3.189029154
3.182713675
3.004326512
3.189985981
3.219014955
3.457242415
3.181273563
3.265744825
3.313383498
3.349287798
3.53189839
)
;
    }
    procBoundary1to0
    {
        type            processor;
        value           uniform 0;
    }
    procBoundary1to2
    {
        type            processor;
        value           uniform 0;
    }
    procBoundary1to3
    {
        type            processor;
        value           uniform 0;
    }
}


// ************************************************************************* //
