/*--------------------------------*- C++ -*----------------------------------*\
  =========                 |
  \\      /  F ield         | OpenFOAM: The Open Source CFD Toolbox
   \\    /   O peration     | Website:  https://openfoam.org
    \\  /    A nd           | Version:  8
     \\/     M anipulation  |
\*---------------------------------------------------------------------------*/
FoamFile
{
    version     2.0;
    format      ascii;
    class       volScalarField;
    location    "1.2";
    object      N2;
}
// * * * * * * * * * * * * * * * * * * * * * * * * * * * * * * * * * * * * * //

dimensions      [0 0 0 0 0 0 0];

internalField   nonuniform List<scalar> 
67451
(
0.7899983703
0.7899983565
0.789998356
0.7899983835
0.7899984749
0.7899986406
0.7899989814
0.7899993458
0.7899995963
0.7899997114
0.7899997652
0.7899975341
0.7899982355
0.7899986482
0.789998792
0.7899987419
0.789998651
0.7899986372
0.7899986932
0.7899988586
0.7899990623
0.7899994642
0.7899997487
0.7899999999
0.7900000319
0.7900001192
0.7900000887
0.7900000417
0.7899998031
0.7899998823
0.7899998983
0.7899996472
0.7899992254
0.7899988594
0.789998558
0.7899982544
0.7899980946
0.7899960029
0.7899970497
0.7899979002
0.789998456
0.7899988492
0.7899990889
0.7899990801
0.7899989051
0.7899988006
0.7899988461
0.7899990758
0.7899994166
0.7899997633
0.7899999874
0.7900002149
0.7900002172
0.7900002782
0.7900002676
0.7900002506
0.7900001165
0.7900000927
0.7900000081
0.7899999081
0.7899992605
0.7899982523
0.7899983906
0.789998286
0.7899981606
0.7899964867
0.7899975091
0.7899982147
0.7899986552
0.7899989964
0.7899992744
0.7899993815
0.7899992291
0.7899990672
0.7899991017
0.7899993439
0.7899996273
0.7899999256
0.79000017
0.7900003862
0.7900000625
0.7900004168
0.7900004973
0.7900005056
0.7900003609
0.7900003466
0.7900001438
0.7900000107
0.789999576
0.7899979045
0.7899977245
0.7899977759
0.7899980423
0.7899979505
0.7899985003
0.7899988412
0.7899991151
0.7899993905
0.7899995786
0.7899995562
0.7899994179
0.7899993972
0.7899995401
0.789999715
0.7899999894
0.7900002717
0.79000047
0.7900004533
0.7900006269
0.7900006925
0.7900006914
0.7900005541
0.7900006597
0.7900002867
0.7900000496
0.7899996493
0.7899980192
0.7899976658
0.7899977667
0.7899987164
0.7899983135
0.7899987212
0.7899989911
0.7899992078
0.7899994707
0.7899996885
0.7899997647
0.7899997167
0.7899996524
0.7899997038
0.7899997709
0.7900000255
0.7900003529
0.7900005985
0.7900006637
0.7900007265
0.7900007974
0.7900008106
0.7900007046
0.7900005468
0.7900003309
0.7899999644
0.7899993179
0.7899982152
0.7899983259
0.7899984784
0.7899997318
0.7899986394
0.7899989059
0.7899991171
0.7899993165
0.7899995437
0.7899997728
0.7899998884
0.7899999326
0.789999874
0.7899998633
0.789999847
0.7900000863
0.7900004497
0.7900007404
0.7900008163
0.7900007791
0.7900007922
0.7900008087
0.7900007444
0.7900006233
0.7900004371
0.7900001234
0.7899992989
0.7899992646
0.7899994146
0.7899994587
0.7900013891
0.7899989159
0.7899990821
0.7899992335
0.7899993993
0.7899996029
0.7899998335
0.7899999743
0.7900000773
0.7900000551
0.7900000076
0.7899999484
0.7900001895
0.7900005586
0.7900008691
0.7900009804
0.7900009029
0.7900007955
0.7900006894
0.7900007102
0.7900005305
0.7900003367
0.7900000953
0.7899995877
0.789998782
0.7899989715
0.789999312
0.7900009633
0.7899992232
0.7899993103
0.7899993851
0.7899994898
0.7899996669
0.789999885
0.790000046
0.7900001847
0.7900001934
0.7900001343
0.7900000526
0.7900002993
0.7900006467
0.7900009424
0.7900010983
0.7900010646
0.7900009956
0.7900007784
0.7900009762
0.7900008498
0.7900004907
0.7900001974
0.7899999521
0.7899993415
0.7899985252
0.7899986413
0.7900000143
0.7899995864
0.7899995797
0.7899995689
0.7899996115
0.7899997579
0.7899999813
0.790000144
0.7900002868
0.7900003048
0.790000249
0.7900001296
0.7900003025
0.7900006335
0.7900009084
0.7900010662
0.7900010843
0.790001054
0.7900009919
0.7900013458
0.7900014154
0.7900010054
0.7900004899
0.7900002596
0.7900000503
0.7899990168
0.7899981707
0.7899987929
0.7899999599
0.7899998409
0.7899997427
0.789999747
0.7899998623
0.7900001021
0.7900002614
0.7900003953
0.7900004033
0.7900003329
0.7900002376
0.7900001453
0.7900004955
0.7900007928
0.7900010353
0.790001054
0.7900012634
0.7900013497
0.7900021284
0.7900025435
0.7900023382
0.7900018112
0.7900012687
0.7900009177
0.7900000078
0.7899984316
0.789997601
0.790000306
0.7900000971
0.7899999032
0.7899998923
0.7899999288
0.790000202
0.7900003691
0.7900004884
0.7900004548
0.790000336
0.7900002061
0.7899999324
0.7900000391
0.7900002656
0.7900006123
0.7900006979
0.790000777
0.7900009809
0.7900020392
0.7900022182
0.7900017761
0.7900011279
0.7900015334
0.790002157
0.7900021791
0.7900010066
0.7899984787
0.7900005786
0.7900002976
0.7899999756
0.7899999898
0.7899998648
0.7900001223
0.7900003766
0.7900004821
0.7900004739
0.7900002878
0.7900003048
0.789999893
0.7899999254
0.7900000281
0.7900001148
0.7900002198
0.7900003361
0.7900004046
0.7900013055
0.7900013244
0.7900008847
0.7900005085
0.7900015341
0.7900020322
0.79000177
0.7900005834
0.789998538
0.7900007859
0.7900004914
0.7900002204
0.7900003643
0.790001361
0.7900004676
0.7900004855
0.7900005519
0.7900004679
0.7900002912
0.7900002281
0.7899994556
0.7899994132
0.7899983007
0.7899989979
0.7899995735
0.7899998965
0.7900000094
0.7900005884
0.7900004927
0.7900001845
0.7900000645
0.7900010207
0.7900012607
0.7900008058
0.7899996693
0.7899983014
0.7900006826
0.7900002502
0.7899991778
0.7899989555
0.7899937813
0.7899963181
0.7899990505
0.7899999703
0.7900004111
0.7900003822
0.7900014808
0.7900010673
0.7900003514
0.7899993714
0.7899992775
0.7899994978
0.7899996996
0.7899997967
0.7900000756
0.789999995
0.789999902
0.7899999632
0.790000543
0.790000469
0.7899998392
0.7899991788
0.7899983948
0.7900006235
0.7900001696
0.7899992365
0.7899993186
0.7899955224
0.7899984277
0.7899996858
0.7900001609
0.7900003162
0.790000258
0.7900014055
0.7900008861
0.7900000947
0.7899994191
0.7899993136
0.7899994538
0.7899995977
0.789999745
0.7899999293
0.7899999452
0.789999944
0.7900000203
0.7900001943
0.7899999637
0.7899995751
0.7899993776
0.7899984961
0.7900005354
0.7900000867
0.7899994748
0.7899994372
0.7899980985
0.789999492
0.7899999874
0.790000222
0.7900002749
0.7900001775
0.7900008018
0.7900003377
0.7899997993
0.7899994693
0.7899994178
0.7899994656
0.7899995309
0.789999673
0.7899998849
0.7899999777
0.7899999839
0.7900000303
0.790000079
0.7899998955
0.7899996388
0.7899992695
0.7899987398
0.7900004397
0.7900000179
0.7899995749
0.7899993968
0.7899990999
0.7899997882
0.7900000734
0.7900002013
0.7900002231
0.7900001561
0.7900003347
0.7900000043
0.789999734
0.7899995868
0.7899995181
0.789999472
0.789999458
0.789999539
0.7899997322
0.7899998349
0.7899998825
0.7899999467
0.7900001054
0.7899998926
0.7899998859
0.7899995933
0.7899991331
0.790000321
0.7899999445
0.7899995818
0.7899993674
0.7899994008
0.7899998145
0.7900000205
0.7900001195
0.7900001541
0.7900001383
0.7900001261
0.7899999279
0.7899997812
0.7899996625
0.7899995472
0.7899994363
0.7899993638
0.7899993795
0.7899995081
0.7899996118
0.7899997154
0.7899998296
0.7899999439
0.7899998764
0.7899996672
0.789999326
0.7899989421
0.7900002067
0.7899998707
0.7899995536
0.7899993448
0.7899994379
0.7899997263
0.7899999061
0.7900000171
0.7900000807
0.7900000959
0.7900000436
0.7899999123
0.7899997816
0.7899996398
0.7899994886
0.7899993447
0.7899992391
0.7899992104
0.7899992839
0.7899993945
0.7899995365
0.7899996781
0.7899997437
0.7899997397
0.7899994679
0.7899991452
0.7899987827
0.790000113
0.7899998032
0.7899995135
0.7899993169
0.7899993875
0.7899996091
0.7899997915
0.7899999268
0.7900000065
0.7900000217
0.7899999579
0.7899998363
0.7899996888
0.789999525
0.7899993569
0.7899992015
0.789999082
0.7899990285
0.7899990682
0.7899991835
0.7899993465
0.7899994957
0.7899995552
0.7899995303
0.7899993195
0.789999054
0.789998713
0.7900000184
0.7899997268
0.7899994619
0.7899992866
0.7899993334
0.7899995216
0.7899997075
0.78999985
0.7899999244
0.7899999181
0.7899998327
0.7899996937
0.789999529
0.7899993526
0.7899991792
0.7899990227
0.7899988987
0.7899988311
0.7899988505
0.7899989653
0.7899991394
0.7899992924
0.7899993567
0.7899993166
0.7899991651
0.7899989431
0.7899986337
0.7899998977
0.7899996296
0.7899993973
0.7899992619
0.7899993157
0.7899994896
0.7899996658
0.7899997986
0.7899998541
0.7899998164
0.7899996971
0.7899995275
0.7899993401
0.7899991512
0.7899989732
0.789998815
0.7899986857
0.7899986058
0.789998612
0.7899987273
0.7899989102
0.7899990669
0.7899991341
0.7899990999
0.7899989836
0.7899987921
0.789998519
0.7899997418
0.7899995065
0.7899993272
0.7899992699
0.7899993762
0.7899995532
0.7899997154
0.7899998193
0.7899998342
0.789999752
0.7899995855
0.7899993694
0.7899991469
0.7899989393
0.789998748
0.7899985733
0.7899984215
0.7899983198
0.7899983194
0.7899984479
0.7899986474
0.7899988119
0.7899988858
0.7899988678
0.789998778
0.7899986162
0.7899983825
0.7899995478
0.789999361
0.7899992733
0.7899993392
0.7899995156
0.7899996831
0.789999803
0.7899998507
0.7899998124
0.7899996837
0.789999472
0.7899992092
0.7899989454
0.7899987136
0.7899984914
0.7899982699
0.7899980638
0.7899979277
0.7899979358
0.7899981026
0.7899983367
0.7899985235
0.7899986184
0.789998627
0.7899985664
0.7899984378
0.7899982447
0.7899993144
0.7899992085
0.7899992457
0.7899994282
0.7899996331
0.7899997517
0.7899997981
0.7899997825
0.7899996943
0.7899995275
0.7899992829
0.789998989
0.7899986958
0.7899984347
0.7899981618
0.7899978642
0.7899975871
0.7899974288
0.7899974732
0.7899976972
0.7899979783
0.7899982055
0.7899983413
0.7899983898
0.7899983675
0.7899982784
0.7899981258
0.7899990573
0.7899990621
0.7899991942
0.789999424
0.789999613
0.789999671
0.7899996468
0.7899995716
0.7899994425
0.7899992501
0.7899989904
0.7899986884
0.7899983849
0.789998082
0.7899977318
0.7899973584
0.7899970533
0.7899969297
0.789997031
0.7899972937
0.7899976037
0.7899978718
0.7899980587
0.7899981588
0.7899981875
0.7899981465
0.7899980391
0.7899988033
0.7899988904
0.78999903
0.7899992342
0.7899994064
0.7899994282
0.7899993572
0.789999235
0.7899990786
0.7899988776
0.7899986224
0.7899983266
0.7899979982
0.7899976203
0.7899972071
0.7899968332
0.7899966022
0.7899965704
0.7899967165
0.7899969738
0.789997271
0.78999755
0.7899977732
0.7899979255
0.7899980151
0.7899980313
0.7899979825
0.7899985246
0.7899986197
0.7899987035
0.7899988331
0.7899989903
0.7899990234
0.7899989399
0.7899987874
0.7899986159
0.7899984135
0.7899981553
0.7899978356
0.7899974589
0.7899970512
0.7899966794
0.7899964265
0.789996334
0.7899963852
0.7899965399
0.789996761
0.7899970142
0.7899972658
0.7899974923
0.7899976828
0.7899978345
0.7899979145
0.7899979379
0.7899981239
0.7899981811
0.789998199
0.7899982343
0.7899983395
0.7899983981
0.7899983268
0.7899981586
0.7899979695
0.789997755
0.7899974873
0.7899971646
0.7899968181
0.7899965076
0.7899962934
0.7899961987
0.7899962054
0.7899962837
0.7899964152
0.7899965887
0.7899967886
0.7899969962
0.7899972073
0.7899974256
0.7899976358
0.7899977782
0.789997871
0.7899975827
0.7899975988
0.789997567
0.7899975321
0.7899975425
0.7899975774
0.7899975115
0.7899973502
0.7899971668
0.7899969707
0.7899967536
0.7899965308
0.7899963376
0.7899962053
0.7899961409
0.7899961298
0.7899961539
0.7899962042
0.7899962806
0.7899963841
0.7899965132
0.7899966727
0.7899968873
0.7899972151
0.7899974841
0.7899976349
0.7899977502
0.7899982153
0.7899982202
0.7899982447
0.7899983352
0.7899984917
0.789998678
0.789998891
0.7899990677
0.7899992569
0.7899993042
0.7899993088
0.7899976325
0.7899980984
0.7899984176
0.7899985846
0.7899986111
0.7899985715
0.7899985551
0.7899986258
0.7899987949
0.7899990149
0.7899992585
0.7899992824
0.7899996593
0.7899997179
0.7899997309
0.7899996481
0.789999593
0.7899994775
0.7899995315
0.7899995527
0.7899993569
0.7899989051
0.7899980896
0.7899976065
0.7899973738
0.7899973163
0.7899965144
0.7899972638
0.7899978335
0.7899982674
0.7899986231
0.7899988714
0.7899989462
0.7899988931
0.7899988457
0.7899989007
0.7899990908
0.7899993317
0.7899995905
0.7899994952
0.7900000113
0.7900001289
0.7900000527
0.7900000047
0.7899999057
0.789999798
0.7899997005
0.7899996925
0.7899995531
0.7899991325
0.789998215
0.7899976568
0.789997413
0.7899972893
0.7899968907
0.789997538
0.7899980312
0.7899984272
0.7899987734
0.7899990694
0.7899992199
0.7899992083
0.7899991479
0.7899991944
0.7899993748
0.7899995991
0.7899998364
0.7900000005
0.7900002513
0.7900007438
0.7900003744
0.7900003627
0.7900002622
0.7900001503
0.789999947
0.7899998847
0.7899996658
0.78999928
0.7899982337
0.7899977346
0.7899975382
0.7899972189
0.7899978398
0.7899982462
0.7899985971
0.7899988733
0.7899992114
0.7899994115
0.7899994902
0.789999461
0.7899994902
0.7899996212
0.7899997988
0.7900000164
0.7900002346
0.7900004477
0.7900006373
0.790000618
0.7900006141
0.7900005372
0.7900004475
0.7900001846
0.7900000736
0.78999974
0.7899993132
0.7899984246
0.7899979925
0.78999782
0.7899973351
0.7899981121
0.7899984572
0.7899987651
0.7899988041
0.7899993151
0.7899995408
0.7899996942
0.7899997314
0.7899997525
0.7899998367
0.7899999669
0.7900001649
0.7900003936
0.7900005927
0.7900007311
0.7900007818
0.7900007865
0.7900007262
0.7900006038
0.7900003589
0.7900000816
0.7899994149
0.7899988075
0.7899984161
0.7899984949
0.7899984405
0.7899980263
0.7899984071
0.7899987082
0.7899989872
0.7899992109
0.7899994816
0.789999678
0.7899998502
0.7899999409
0.7899999736
0.7900000267
0.7900001232
0.7900003064
0.7900005262
0.7900007162
0.7900008423
0.7900008891
0.7900008831
0.7900008291
0.7900007176
0.7900005363
0.7900003188
0.7899999841
0.789999499
0.7899990699
0.7899988911
0.7899986474
0.789998607
0.7899987697
0.7899990104
0.7899992341
0.7899994371
0.7899996436
0.789999824
0.7899999895
0.7900001046
0.7900001562
0.7900001958
0.7900002716
0.7900004413
0.7900006369
0.7900008102
0.7900009311
0.7900009636
0.7900009316
0.7900008583
0.7900007404
0.7900005616
0.790000328
0.7899999919
0.7899995652
0.7899991001
0.7899990025
0.7899988531
0.7899986207
0.7899992232
0.7899993839
0.7899995284
0.7899996695
0.7899998231
0.7899999836
0.7900001303
0.7900002454
0.7900003115
0.7900003465
0.7900003996
0.7900005368
0.7900007003
0.7900008466
0.7900009642
0.7900010072
0.7900009985
0.7900009397
0.7900007864
0.790000627
0.7900004245
0.7900001976
0.789999866
0.7899993801
0.7899988977
0.7899987151
0.7899982191
0.7899997231
0.7899997959
0.7899998555
0.7899999333
0.7900000402
0.7900001624
0.7900002834
0.7900003792
0.7900004481
0.7900004766
0.7900004869
0.7900005667
0.7900006924
0.7900008037
0.7900009107
0.7900009906
0.7900010614
0.7900010836
0.7900009526
0.7900008298
0.7900006286
0.7900004628
0.7900001636
0.7899997266
0.7899990595
0.7899986258
0.789998099
0.7900001992
0.7900001882
0.7900001799
0.7900002187
0.7900003142
0.7900003894
0.7900004683
0.7900005167
0.790000556
0.7900005563
0.7900005049
0.7900005016
0.7900006069
0.7900006771
0.7900007794
0.7900008676
0.7900009873
0.7900009858
0.7900008586
0.7900008417
0.7900007612
0.7900007476
0.7900006022
0.7900002804
0.789999651
0.7899988198
0.7899980599
0.7900006017
0.7900005189
0.7900004717
0.7900005135
0.7900006842
0.7900006473
0.7900006607
0.790000649
0.790000627
0.7900005765
0.7900004824
0.7900002807
0.7900003629
0.7900002496
0.7900003839
0.79000059
0.7900007809
0.7900009193
0.7900009266
0.7900009389
0.7900008371
0.7900007883
0.7900005376
0.7900002927
0.7899996906
0.7899988919
0.789998154
0.7900008969
0.7900007593
0.7900006983
0.7900007967
0.7900013006
0.7900008954
0.7900008255
0.7900007812
0.7900007072
0.7900006049
0.7900005232
0.7900002732
0.7900002749
0.7900002193
0.7900001976
0.7900002324
0.7900003943
0.7900005893
0.7900006642
0.7900006581
0.790000559
0.7900006401
0.7900004795
0.7900003932
0.7899998747
0.7899992423
0.7899983652
0.7900010575
0.7900008903
0.7900009213
0.7900011478
0.7900028352
0.7900014975
0.7900010548
0.790000865
0.7900007205
0.7900005104
0.790000353
0.7899988065
0.789999635
0.7899979273
0.7899978556
0.789999214
0.7899998818
0.7900002307
0.7900003909
0.7900004183
0.7900003626
0.7900004123
0.7900003566
0.7900001898
0.7899998037
0.7899993881
0.7899985567
0.790001039
0.7900008696
0.7900010745
0.7900018747
0.7900080645
0.7900019242
0.7900013262
0.7900008839
0.79000072
0.7900005468
0.7900002789
0.7899997548
0.7899999477
0.7899991993
0.7899993034
0.7899996029
0.7899998805
0.7900000871
0.7900002392
0.790000292
0.7900002772
0.7900003049
0.7900003132
0.7900001632
0.7899999148
0.7899995011
0.7899988705
0.7900009076
0.7900006196
0.7900004528
0.7900006169
0.7900023534
0.7900008169
0.7900007606
0.7900007162
0.7900006619
0.7900006107
0.7900004597
0.7900002366
0.7900001475
0.7899997328
0.7899996798
0.7899997477
0.7899998823
0.7900000147
0.7900001652
0.7900002162
0.790000244
0.7900002545
0.7900002476
0.7900000908
0.7899998322
0.7899993893
0.7899991236
0.7900007518
0.7900003836
0.7900001045
0.7900001872
0.7900008204
0.7900004992
0.790000554
0.7900005923
0.7900005797
0.7900005563
0.7900004824
0.7900003583
0.7900001882
0.7899999198
0.7899997994
0.7899997733
0.7899998302
0.7899999253
0.7900000617
0.790000123
0.7900001858
0.7900001882
0.7900001789
0.7900000663
0.7899998052
0.7899995296
0.7899990731
0.7900006018
0.7900001855
0.789999858
0.7899998039
0.7900000336
0.7900001956
0.7900003617
0.7900004647
0.7900004935
0.7900004829
0.7900004446
0.7900003357
0.7900001606
0.7899999489
0.7899997986
0.789999713
0.7899997102
0.7899997776
0.7899999036
0.7899999987
0.7900000707
0.7900000797
0.7900000556
0.7899999903
0.7899997009
0.7899994896
0.7899989359
0.790000464
0.7900000412
0.7899997228
0.7899996187
0.7899997477
0.7899999846
0.7900001986
0.7900003374
0.7900003974
0.7900003991
0.7900003585
0.7900002444
0.7900000739
0.7899998761
0.7899997035
0.7899995783
0.7899995305
0.7899995684
0.789999682
0.7899997967
0.7899998859
0.7899999262
0.7899999566
0.7899998534
0.7899996708
0.7899994277
0.7899990084
0.7900003381
0.7899999349
0.7899996484
0.7899995384
0.7899996369
0.7899998548
0.7900000668
0.79000022
0.7900002957
0.7900003004
0.7900002403
0.7900001079
0.7899999242
0.7899997187
0.7899995259
0.7899993762
0.7899993018
0.7899993168
0.789999415
0.7899995416
0.7899996575
0.7899997318
0.7899997907
0.7899996927
0.7899995386
0.7899992696
0.789998922
0.7900002054
0.7899998503
0.7899996023
0.789999503
0.7899995865
0.7899997763
0.7899999716
0.790000123
0.7900001982
0.7900001894
0.7900000991
0.7899999344
0.7899997225
0.7899994942
0.7899992825
0.7899991204
0.7899990364
0.7899990421
0.7899991324
0.7899992696
0.7899994093
0.789999508
0.7899995668
0.7899994975
0.7899993485
0.7899990959
0.7899987801
0.7900000618
0.789999768
0.789999567
0.7899994905
0.7899995686
0.7899997393
0.7899999188
0.7900000559
0.790000111
0.7900000716
0.7899999402
0.7899997335
0.7899994831
0.7899992281
0.7899990021
0.7899988361
0.7899987522
0.789998757
0.7899988458
0.7899989922
0.7899991487
0.7899992622
0.7899993157
0.7899992671
0.7899991344
0.789998917
0.7899986312
0.7899999212
0.7899996857
0.7899995355
0.7899994944
0.7899995801
0.7899997402
0.7899999025
0.7900000122
0.79000003
0.7899999471
0.7899997663
0.7899995092
0.7899992176
0.7899989383
0.7899987049
0.7899985409
0.7899984586
0.7899984613
0.7899985492
0.7899987036
0.7899988728
0.7899989966
0.7899990505
0.789999018
0.7899989105
0.7899987315
0.7899984819
0.7899997687
0.7899995967
0.789999506
0.7899995156
0.7899996211
0.7899997729
0.7899999123
0.7899999782
0.7899999484
0.7899998146
0.7899995796
0.7899992677
0.7899989282
0.789998618
0.7899983779
0.7899982168
0.7899981321
0.7899981287
0.7899982188
0.7899983873
0.7899985733
0.7899987112
0.789998776
0.7899987639
0.7899986854
0.7899985431
0.7899983331
0.7899996007
0.7899994969
0.7899994792
0.7899995474
0.7899996702
0.7899998066
0.7899999044
0.7899999208
0.7899998393
0.7899996533
0.7899993652
0.7899989996
0.7899986091
0.7899982534
0.7899979932
0.7899978234
0.7899977274
0.789997721
0.7899978297
0.7899980302
0.7899982461
0.7899984096
0.7899984986
0.7899985148
0.789998468
0.789998362
0.7899981915
0.7899994114
0.7899993852
0.7899994419
0.7899995533
0.7899996722
0.7899997728
0.7899998189
0.7899997811
0.7899996473
0.7899994124
0.7899990783
0.7899986681
0.7899982335
0.7899978343
0.7899975449
0.7899973543
0.7899972466
0.7899972549
0.789997403
0.7899976475
0.7899979021
0.7899981016
0.7899982258
0.7899982776
0.7899982674
0.7899982006
0.7899980677
0.7899992016
0.7899992503
0.7899993537
0.7899994739
0.789999566
0.7899996142
0.7899995998
0.789999505
0.7899993208
0.7899990439
0.7899986763
0.7899982402
0.7899977846
0.7899973777
0.7899970834
0.7899968835
0.7899967872
0.7899968315
0.7899970176
0.7899972894
0.7899975693
0.7899978004
0.7899979609
0.7899980523
0.7899980856
0.789998064
0.789997972
0.7899989652
0.7899990552
0.7899991579
0.7899992532
0.7899993032
0.7899992929
0.7899992192
0.7899990705
0.7899988427
0.7899985358
0.7899981548
0.7899977249
0.7899973017
0.7899969486
0.7899966811
0.7899965077
0.7899964536
0.7899965345
0.7899967321
0.789996998
0.7899972744
0.7899975156
0.7899977009
0.7899978306
0.7899979142
0.7899979454
0.7899979063
0.7899986657
0.7899987512
0.7899988138
0.7899988594
0.7899988667
0.78999881
0.7899986908
0.7899985035
0.7899982502
0.7899979389
0.7899975838
0.7899972141
0.7899968702
0.7899965832
0.7899963746
0.7899962626
0.7899962561
0.7899963514
0.789996532
0.7899967674
0.7899970168
0.7899972446
0.7899974386
0.7899976031
0.7899977417
0.7899978327
0.7899978618
0.7899982543
0.7899983087
0.7899983153
0.7899982972
0.7899982619
0.7899981839
0.7899980477
0.7899978487
0.789997603
0.7899973256
0.789997031
0.789996742
0.7899964867
0.7899962901
0.7899961663
0.7899961165
0.7899961349
0.789996217
0.7899963576
0.7899965435
0.7899967506
0.7899969566
0.7899971586
0.7899973649
0.7899975638
0.7899977131
0.7899978103
0.7899976817
0.789997701
0.7899976566
0.7899975844
0.7899975027
0.7899974155
0.7899972915
0.7899971204
0.7899969282
0.7899967311
0.78999654
0.7899963696
0.7899962353
0.789996144
0.7899960931
0.7899960759
0.7899960883
0.7899961309
0.7899962049
0.7899963086
0.7899964403
0.7899966093
0.7899968416
0.7899971916
0.7899974418
0.789997596
0.7899977116
0.7899980067
0.7899980877
0.7899981543
0.789998224
0.7899983334
0.7899985124
0.7899986799
0.7899988194
0.7899989673
0.7899989963
0.7899989664
0.7899989005
0.7899988021
0.7899987504
0.7899987103
0.7899975405
0.7899979267
0.7899982161
0.7899983998
0.7899984963
0.7899985461
0.7899985965
0.789998698
0.7899988648
0.7899990415
0.7899990868
0.7899994384
0.7899993736
0.7899994373
0.7899994084
0.7899992875
0.789999176
0.7899991307
0.7899991754
0.7899992378
0.7899991302
0.7899987963
0.7899982705
0.7899979568
0.7899976983
0.7899975729
0.7899966145
0.7899972097
0.7899976861
0.7899980918
0.7899984426
0.7899986993
0.7899988359
0.7899988919
0.7899989312
0.7899990326
0.7899991981
0.789999387
0.7899995956
0.7899996894
0.7899998522
0.7899998276
0.7899998689
0.7899997933
0.7899996817
0.7899995862
0.7899994998
0.7899994712
0.7899992957
0.7899989625
0.7899983994
0.789998073
0.7899978252
0.7899976078
0.7899968569
0.7899973855
0.7899978377
0.7899982479
0.7899986265
0.7899989234
0.789999111
0.7899991964
0.7899992272
0.7899993314
0.7899994874
0.7899996674
0.7899998626
0.7899999561
0.7900001528
0.7900002407
0.7900002651
0.7900002385
0.7900001476
0.7900000329
0.789999854
0.7899997384
0.7899994178
0.7899990391
0.7899985061
0.7899982319
0.7899980033
0.7899976305
0.7899976116
0.7899980323
0.7899984334
0.7899988236
0.7899991112
0.7899993281
0.7899994641
0.7899995237
0.7899996153
0.7899997519
0.7899999185
0.7900001045
0.7900002614
0.7900004362
0.7900005523
0.7900006016
0.7900005947
0.7900005174
0.7900003996
0.7900001606
0.7899999775
0.7899995542
0.7899991242
0.7899987279
0.7899985605
0.7899983537
0.7899978981
0.7899978916
0.7899982793
0.7899986422
0.7899990582
0.7899992743
0.7899995066
0.7899996818
0.7899997834
0.7899998737
0.7899999912
0.7900001387
0.790000312
0.7900004849
0.790000649
0.7900007739
0.7900008398
0.7900008458
0.7900007769
0.7900006547
0.7900002702
0.7899999604
0.7899989321
0.7899974894
0.7899982237
0.7899986179
0.7899987196
0.7899985104
0.789998261
0.7899986064
0.7899989248
0.7899991816
0.7899994559
0.7899996842
0.7899998722
0.7900000024
0.7900001003
0.7900002064
0.7900003381
0.7900004978
0.7900006625
0.7900008153
0.7900009342
0.7900009981
0.7900010052
0.7900009476
0.7900008271
0.7900005987
0.7900003448
0.7899998744
0.7899995005
0.7899993252
0.7899991377
0.7899989061
0.7899987515
0.7899987421
0.7899990296
0.7899992827
0.7899994991
0.7899997037
0.7899998908
0.7900000604
0.7900001953
0.7900002992
0.7900003988
0.7900005178
0.7900006584
0.7900008064
0.7900009423
0.7900010499
0.7900011047
0.7900011069
0.7900010479
0.7900009184
0.7900006969
0.7900004241
0.7899999888
0.7899995617
0.7899993195
0.7899992148
0.7899990294
0.7899987439
0.789999325
0.7899995344
0.7899997004
0.7899998423
0.7899999797
0.7900001204
0.7900002569
0.7900003776
0.7900004795
0.7900005709
0.7900006703
0.7900007824
0.7900009044
0.7900010139
0.7900011086
0.7900011724
0.7900012056
0.790001177
0.7900010653
0.790000881
0.790000621
0.7900003137
0.7899999579
0.7899995783
0.7899992593
0.7899989897
0.7899985444
0.7899999372
0.7900000559
0.7900001356
0.7900002051
0.7900002834
0.7900003739
0.7900004698
0.7900005605
0.7900006445
0.7900007163
0.7900007872
0.790000855
0.7900009495
0.790001022
0.7900011032
0.7900011977
0.7900012762
0.7900012841
0.7900012008
0.7900010794
0.7900008899
0.7900006558
0.7900003743
0.7899999688
0.7899994449
0.7899990483
0.7899985549
0.7900004917
0.7900005276
0.79000054
0.7900005556
0.790000588
0.79000064
0.7900006949
0.7900007393
0.7900007837
0.7900008149
0.7900008494
0.7900008399
0.7900009509
0.7900010053
0.7900010469
0.7900011196
0.7900012115
0.7900012007
0.7900011233
0.7900010919
0.7900010236
0.7900008626
0.7900006552
0.7900003933
0.7899999037
0.7899992622
0.7899986364
0.7900009371
0.7900009045
0.7900008764
0.7900008722
0.7900009349
0.7900009156
0.7900009173
0.7900009114
0.7900009016
0.7900008651
0.7900008414
0.7900004985
0.790000675
0.7900005746
0.7900004757
0.7900008127
0.7900010502
0.7900011403
0.7900011479
0.7900011642
0.7900011195
0.7900009528
0.7900007027
0.7900004635
0.7900000858
0.7899994233
0.7899986907
0.7900012436
0.7900011487
0.7900010815
0.7900010966
0.7900012259
0.7900011016
0.79000104
0.7900010334
0.7900010125
0.7900009574
0.790000994
0.7900007016
0.790000676
0.7900010779
0.7900006603
0.7900005708
0.7900007193
0.790000898
0.7900009859
0.7900010067
0.7900009593
0.7900008465
0.7900006553
0.7900005002
0.7900001456
0.789999521
0.7899987978
0.7900013852
0.7900012477
0.7900012353
0.790001469
0.7900018552
0.7900017175
0.7900012679
0.7900011052
0.7900009983
0.7900005814
0.7900006797
0.7899970891
0.7899991335
0.7900013508
0.7899937896
0.7899979434
0.7899998548
0.7900005044
0.7900007362
0.7900007779
0.7900007204
0.7900006755
0.7900005427
0.790000383
0.7899999756
0.7899995154
0.789998863
0.790001367
0.7900011741
0.7900010338
0.790001238
0.7900009416
0.7900013339
0.7900010841
0.7900010564
0.7900010136
0.7900008239
0.7900007151
0.7899994489
0.7900000732
0.7899992838
0.7899985754
0.7899995327
0.7900000984
0.7900004218
0.7900005791
0.790000613
0.7900005712
0.7900005348
0.7900004338
0.7900002691
0.7899999294
0.7899995601
0.7899990091
0.7900012552
0.7900010103
0.790000826
0.7900008257
0.790001135
0.7900009653
0.7900009595
0.7900009934
0.7900009885
0.7900009207
0.7900007909
0.7900003117
0.7900004245
0.7899998979
0.7899997819
0.7899999978
0.7900002034
0.790000366
0.790000464
0.7900005053
0.7900004875
0.7900004418
0.7900003402
0.790000166
0.7899998556
0.7899994911
0.789998994
0.7900010938
0.7900007962
0.7900005714
0.7900005205
0.7900006754
0.7900007421
0.7900008434
0.7900009043
0.7900009139
0.7900008854
0.7900008043
0.7900005945
0.7900004848
0.7900001816
0.7900000719
0.7900000905
0.7900001623
0.7900002583
0.7900003381
0.7900003953
0.7900003931
0.7900003471
0.7900002427
0.7900000955
0.7899998346
0.7899995284
0.789999134
0.7900009218
0.7900005812
0.7900003152
0.790000177
0.7900003549
0.7900005364
0.7900006935
0.7900007879
0.7900008189
0.7900008027
0.7900007424
0.7900005986
0.7900004322
0.7900002106
0.7900000704
0.7900000016
0.7900000026
0.7900000663
0.7900001478
0.790000219
0.7900002347
0.7900002106
0.790000127
0.7900000264
0.7899997602
0.7899993747
0.7899990253
0.7900007758
0.7900004268
0.7900001598
0.7900000577
0.7900001966
0.7900003882
0.7900005586
0.790000671
0.7900007175
0.790000704
0.7900006359
0.7900004942
0.7900003084
0.7900000977
0.7899999195
0.7899997962
0.7899997516
0.7899997901
0.7899998742
0.7899999608
0.790000008
0.7900000204
0.7899999717
0.7899998899
0.7899996646
0.7899993287
0.7899989773
0.7900006451
0.7900003073
0.790000059
0.7899999823
0.790000093
0.7900002775
0.790000449
0.7900005661
0.7900006161
0.7900005951
0.7900005034
0.790000337
0.7900001219
0.7899998842
0.7899996666
0.7899995067
0.7899994354
0.7899994592
0.789999548
0.7899996555
0.7899997397
0.7899997879
0.7899997722
0.7899996973
0.7899995019
0.7899992157
0.7899988653
0.7900005151
0.7900002016
0.7899999969
0.7899999432
0.7900000381
0.7900002043
0.7900003696
0.790000481
0.7900005203
0.7900004777
0.790000349
0.7900001382
0.7899998768
0.7899995953
0.7899993407
0.789999158
0.7899990776
0.7899991019
0.7899992025
0.7899993336
0.7899994499
0.7899995246
0.7899995338
0.7899994682
0.7899992995
0.7899990537
0.7899987267
0.7900003799
0.7900001141
0.789999957
0.7899999283
0.7900000188
0.7900001706
0.7900003211
0.7900004157
0.7900004309
0.7900003533
0.7900001766
0.7899999106
0.7899995905
0.7899992604
0.7899989742
0.7899987793
0.7899987019
0.7899987369
0.7899988534
0.7899990062
0.7899991467
0.78999924
0.7899992665
0.7899992152
0.7899990782
0.7899988723
0.7899985837
0.790000232
0.7900000298
0.7899999255
0.7899999282
0.7900000236
0.790000164
0.790000294
0.7900003599
0.7900003399
0.7900002179
0.7899999867
0.7899996593
0.7899992796
0.7899989036
0.7899985935
0.7899983949
0.7899983247
0.7899983704
0.7899985008
0.7899986716
0.7899988312
0.7899989406
0.7899989828
0.7899989517
0.7899988485
0.7899986812
0.789998435
0.7900000754
0.7899999403
0.7899998933
0.7899999326
0.7900000367
0.7900001642
0.7900002642
0.7900002943
0.7900002323
0.7900000614
0.7899997743
0.7899993864
0.7899989479
0.7899985284
0.7899981991
0.789998
0.7899979348
0.7899979874
0.7899981311