/*--------------------------------*- C++ -*----------------------------------*\
  =========                 |
  \\      /  F ield         | OpenFOAM: The Open Source CFD Toolbox
   \\    /   O peration     | Website:  https://openfoam.org
    \\  /    A nd           | Version:  8
     \\/     M anipulation  |
\*---------------------------------------------------------------------------*/
FoamFile
{
    version     2.0;
    format      ascii;
    class       volScalarField;
    location    "1.2";
    object      O2;
}
// * * * * * * * * * * * * * * * * * * * * * * * * * * * * * * * * * * * * * //

dimensions      [0 0 0 0 0 0 0];

internalField   nonuniform List<scalar> 
67451
(
0.2100016297
0.2100016435
0.210001644
0.2100016165
0.2100015251
0.2100013594
0.2100010186
0.2100006542
0.2100004037
0.2100002886
0.2100002348
0.2100024659
0.2100017645
0.2100013518
0.210001208
0.2100012581
0.210001349
0.2100013628
0.2100013068
0.2100011414
0.2100009377
0.2100005358
0.2100002513
0.2100000001
0.2099999681
0.2099998808
0.2099999113
0.2099999583
0.2100001969
0.2100001177
0.2100001017
0.2100003528
0.2100007746
0.2100011406
0.210001442
0.2100017456
0.2100019054
0.2100039971
0.2100029503
0.2100020998
0.210001544
0.2100011508
0.2100009111
0.2100009199
0.2100010949
0.2100011994
0.2100011539
0.2100009242
0.2100005834
0.2100002367
0.2100000126
0.2099997851
0.2099997828
0.2099997218
0.2099997324
0.2099997494
0.2099998835
0.2099999073
0.2099999919
0.2100000919
0.2100007395
0.2100017477
0.2100016094
0.210001714
0.2100018394
0.2100035133
0.2100024909
0.2100017853
0.2100013448
0.2100010036
0.2100007256
0.2100006185
0.2100007709
0.2100009328
0.2100008983
0.2100006561
0.2100003727
0.2100000744
0.20999983
0.2099996138
0.2099999375
0.2099995832
0.2099995027
0.2099994944
0.2099996391
0.2099996534
0.2099998562
0.2099999893
0.210000424
0.2100020955
0.2100022755
0.2100022241
0.2100019577
0.2100020495
0.2100014997
0.2100011588
0.2100008849
0.2100006095
0.2100004214
0.2100004438
0.2100005821
0.2100006028
0.2100004599
0.210000285
0.2100000106
0.2099997283
0.20999953
0.2099995467
0.2099993731
0.2099993075
0.2099993086
0.2099994459
0.2099993403
0.2099997133
0.2099999504
0.2100003507
0.2100019808
0.2100023342
0.2100022333
0.2100012836
0.2100016865
0.2100012788
0.2100010089
0.2100007922
0.2100005293
0.2100003115
0.2100002353
0.2100002833
0.2100003476
0.2100002962
0.2100002291
0.2099999745
0.2099996471
0.2099994015
0.2099993363
0.2099992735
0.2099992026
0.2099991894
0.2099992954
0.2099994532
0.2099996691
0.2100000356
0.2100006821
0.2100017848
0.2100016741
0.2100015216
0.2100002682
0.2100013606
0.2100010941
0.2100008829
0.2100006835
0.2100004563
0.2100002272
0.2100001116
0.2100000674
0.210000126
0.2100001367
0.210000153
0.2099999137
0.2099995503
0.2099992596
0.2099991837
0.2099992209
0.2099992078
0.2099991913
0.2099992556
0.2099993767
0.2099995629
0.2099998766
0.2100007011
0.2100007354
0.2100005854
0.2100005413
0.2099986109
0.2100010841
0.2100009179
0.2100007665
0.2100006007
0.2100003971
0.2100001665
0.2100000257
0.2099999227
0.2099999449
0.2099999924
0.2100000516
0.2099998105
0.2099994414
0.2099991309
0.2099990196
0.2099990971
0.2099992045
0.2099993106
0.2099992898
0.2099994695
0.2099996633
0.2099999047
0.2100004123
0.210001218
0.2100010285
0.210000688
0.2099990367
0.2100007768
0.2100006897
0.2100006149
0.2100005102
0.2100003331
0.210000115
0.209999954
0.2099998153
0.2099998066
0.2099998657
0.2099999474
0.2099997007
0.2099993533
0.2099990576
0.2099989017
0.2099989354
0.2099990044
0.2099992216
0.2099990238
0.2099991502
0.2099995093
0.2099998026
0.2100000479
0.2100006585
0.2100014748
0.2100013587
0.2099999857
0.2100004136
0.2100004203
0.2100004311
0.2100003885
0.2100002421
0.2100000187
0.209999856
0.2099997132
0.2099996952
0.209999751
0.2099998704
0.2099996975
0.2099993665
0.2099990916
0.2099989338
0.2099989157
0.209998946
0.2099990081
0.2099986542
0.2099985846
0.2099989946
0.2099995101
0.2099997404
0.2099999497
0.2100009832
0.2100018293
0.2100012071
0.2100000401
0.2100001591
0.2100002573
0.210000253
0.2100001377
0.2099998979
0.2099997386
0.2099996047
0.2099995967
0.2099996671
0.2099997624
0.2099998547
0.2099995045
0.2099992072
0.2099989647
0.209998946
0.2099987366
0.2099986503
0.2099978716
0.2099974565
0.2099976618
0.2099981888
0.2099987313
0.2099990823
0.2099999922
0.2100015684
0.210002399
0.209999694
0.2099999029
0.2100000968
0.2100001077
0.2100000712
0.209999798
0.2099996309
0.2099995116
0.2099995452
0.209999664
0.2099997939
0.2100000676
0.2099999609
0.2099997344
0.2099993877
0.2099993021
0.209999223
0.2099990191
0.2099979608
0.2099977818
0.2099982239
0.2099988721
0.2099984666
0.209997843
0.2099978209
0.2099989934
0.2100015213
0.2099994214
0.2099997024
0.2100000244
0.2100000102
0.2100001352
0.2099998777
0.2099996234
0.2099995179
0.2099995261
0.2099997122
0.2099996952
0.210000107
0.2100000746
0.2099999719
0.2099998852
0.2099997802
0.2099996639
0.2099995954
0.2099986945
0.2099986756
0.2099991153
0.2099994915
0.2099984659
0.2099979678
0.20999823
0.2099994166
0.210001462
0.2099992141
0.2099995086
0.2099997796
0.2099996357
0.209998639
0.2099995324
0.2099995145
0.2099994481
0.2099995321
0.2099997088
0.2099997719
0.2100005444
0.2100005868
0.2100016993
0.2100010021
0.2100004265
0.2100001035
0.2099999906
0.2099994116
0.2099995073
0.2099998155
0.2099999355
0.2099989793
0.2099987393
0.2099991942
0.2100003307
0.2100016986
0.2099993174
0.2099997498
0.2100008222
0.2100010445
0.2100062187
0.2100036819
0.2100009495
0.2100000297
0.2099995889
0.2099996178
0.2099985192
0.2099989327
0.2099996486
0.2100006286
0.2100007225
0.2100005022
0.2100003004
0.2100002033
0.2099999244
0.210000005
0.210000098
0.2100000368
0.209999457
0.209999531
0.2100001608
0.2100008212
0.2100016052
0.2099993765
0.2099998304
0.2100007635
0.2100006814
0.2100044776
0.2100015723
0.2100003142
0.2099998391
0.2099996838
0.209999742
0.2099985945
0.2099991139
0.2099999053
0.2100005809
0.2100006864
0.2100005462
0.2100004023
0.210000255
0.2100000707
0.2100000548
0.210000056
0.2099999797
0.2099998057
0.2100000363
0.2100004249
0.2100006224
0.2100015039
0.2099994646
0.2099999133
0.2100005252
0.2100005628
0.2100019015
0.210000508
0.2100000126
0.209999778
0.2099997251
0.2099998225
0.2099991982
0.2099996623
0.2100002007
0.2100005307
0.2100005822
0.2100005344
0.2100004691
0.210000327
0.2100001151
0.2100000223
0.2100000161
0.2099999697
0.209999921
0.2100001045
0.2100003612
0.2100007305
0.2100012602
0.2099995603
0.2099999821
0.2100004251
0.2100006032
0.2100009001
0.2100002118
0.2099999266
0.2099997987
0.2099997769
0.2099998439
0.2099996653
0.2099999957
0.210000266
0.2100004132
0.2100004819
0.210000528
0.210000542
0.210000461
0.2100002678
0.2100001651
0.2100001175
0.2100000533
0.2099998946
0.2100001074
0.2100001141
0.2100004067
0.2100008669
0.209999679
0.2100000555
0.2100004182
0.2100006326
0.2100005992
0.2100001855
0.2099999795
0.2099998805
0.2099998459
0.2099998617
0.2099998739
0.2100000721
0.2100002188
0.2100003375
0.2100004528
0.2100005637
0.2100006362
0.2100006205
0.2100004919
0.2100003882
0.2100002846
0.2100001704
0.2100000561
0.2100001236
0.2100003328
0.210000674
0.2100010579
0.2099997933
0.2100001293
0.2100004464
0.2100006552
0.2100005621
0.2100002737
0.2100000939
0.2099999829
0.2099999193
0.2099999041
0.2099999564
0.2100000877
0.2100002184
0.2100003602
0.2100005114
0.2100006553
0.2100007609
0.2100007896
0.2100007161
0.2100006055
0.2100004635
0.2100003219
0.2100002563
0.2100002603
0.2100005321
0.2100008548
0.2100012173
0.209999887
0.2100001968
0.2100004865
0.2100006831
0.2100006125
0.2100003909
0.2100002085
0.2100000732
0.2099999935
0.2099999783
0.2100000421
0.2100001637
0.2100003112
0.210000475
0.2100006431
0.2100007985
0.210000918
0.2100009715
0.2100009318
0.2100008165
0.2100006535
0.2100005043
0.2100004448
0.2100004697
0.2100006805
0.210000946
0.210001287
0.2099999816
0.2100002732
0.2100005381
0.2100007134
0.2100006666
0.2100004784
0.2100002925
0.21000015
0.2100000756
0.2100000819
0.2100001673
0.2100003063
0.210000471
0.2100006474
0.2100008208
0.2100009773
0.2100011013
0.2100011689
0.2100011495
0.2100010347
0.2100008606
0.2100007076
0.2100006433
0.2100006834
0.2100008349
0.2100010569
0.2100013663
0.2100001023
0.2100003704
0.2100006027
0.2100007381
0.2100006843
0.2100005104
0.2100003342
0.2100002014
0.2100001459
0.2100001836
0.2100003029
0.2100004725
0.2100006599
0.2100008488
0.2100010268
0.210001185
0.2100013143
0.2100013942
0.210001388
0.2100012727
0.2100010898
0.2100009331
0.2100008659
0.2100009001
0.2100010164
0.2100012079
0.210001481
0.2100002582
0.2100004935
0.2100006728
0.2100007301
0.2100006238
0.2100004468
0.2100002846
0.2100001807
0.2100001658
0.210000248
0.2100004145
0.2100006306
0.2100008531
0.2100010607
0.210001252
0.2100014267
0.2100015785
0.2100016802
0.2100016806
0.2100015521
0.2100013526
0.2100011881
0.2100011142
0.2100011322
0.210001222
0.2100013838
0.2100016175
0.2100004522
0.210000639
0.2100007267
0.2100006608
0.2100004844
0.2100003169
0.210000197
0.2100001493
0.2100001876
0.2100003163
0.210000528
0.2100007908
0.2100010546
0.2100012864
0.2100015086
0.2100017301
0.2100019362
0.2100020723
0.2100020642
0.2100018974
0.2100016633
0.2100014765
0.2100013816
0.210001373
0.2100014336
0.2100015622
0.2100017553
0.2100006856
0.2100007915
0.2100007543
0.2100005718
0.2100003669
0.2100002483
0.2100002019
0.2100002175
0.2100003057
0.2100004725
0.2100007171
0.210001011
0.2100013042
0.2100015653
0.2100018382
0.2100021358
0.2100024129
0.2100025712
0.2100025268
0.2100023028
0.2100020217
0.2100017945
0.2100016587
0.2100016102
0.2100016325
0.2100017216
0.2100018742
0.2100009427
0.2100009379
0.2100008058
0.210000576
0.210000387
0.210000329
0.2100003532
0.2100004284
0.2100005575
0.2100007499
0.2100010096
0.2100013116
0.2100016151
0.210001918
0.2100022682
0.2100026416
0.2100029467
0.2100030703
0.210002969
0.2100027063
0.2100023963
0.2100021282
0.2100019413
0.2100018412
0.2100018125
0.2100018535
0.2100019609
0.2100011967
0.2100011096
0.21000097
0.2100007658
0.2100005936
0.2100005718
0.2100006428
0.210000765
0.2100009214
0.2100011224
0.2100013776
0.2100016734
0.2100020018
0.2100023797
0.2100027929
0.2100031668
0.2100033978
0.2100034296
0.2100032835
0.2100030262
0.210002729
0.21000245
0.2100022268
0.2100020745
0.2100019849
0.2100019687
0.2100020175
0.2100014754
0.2100013803
0.2100012965
0.2100011669
0.2100010097
0.2100009766
0.2100010601
0.2100012126
0.2100013841
0.2100015865
0.2100018447
0.2100021644
0.2100025411
0.2100029488
0.2100033206
0.2100035735
0.210003666
0.2100036148
0.2100034601
0.210003239
0.2100029858
0.2100027342
0.2100025077
0.2100023172
0.2100021655
0.2100020855
0.2100020621
0.2100018761
0.2100018189
0.210001801
0.2100017657
0.2100016605
0.2100016019
0.2100016732
0.2100018414
0.2100020305
0.210002245
0.2100025127
0.2100028354
0.2100031819
0.2100034924
0.2100037066
0.2100038013
0.2100037946
0.2100037163
0.2100035848
0.2100034113
0.2100032114
0.2100030038
0.2100027927
0.2100025744
0.2100023642
0.2100022218
0.210002129
0.2100024173
0.2100024012
0.210002433
0.2100024679
0.2100024575
0.2100024226
0.2100024885
0.2100026498
0.2100028332
0.2100030293
0.2100032464
0.2100034692
0.2100036624
0.2100037947
0.2100038591
0.2100038702
0.2100038461
0.2100037958
0.2100037194
0.2100036159
0.2100034868
0.2100033273
0.2100031127
0.2100027849
0.2100025159
0.2100023651
0.2100022498
0.2100017847
0.2100017798
0.2100017553
0.2100016648
0.2100015083
0.210001322
0.210001109
0.2100009323
0.2100007431
0.2100006958
0.2100006912
0.2100023675
0.2100019016
0.2100015824
0.2100014154
0.2100013889
0.2100014285
0.2100014449
0.2100013742
0.2100012051
0.2100009851
0.2100007415
0.2100007176
0.2100003407
0.2100002821
0.2100002691
0.2100003519
0.210000407
0.2100005225
0.2100004685
0.2100004473
0.2100006431
0.2100010949
0.2100019104
0.2100023935
0.2100026262
0.2100026837
0.2100034856
0.2100027362
0.2100021665
0.2100017326
0.2100013769
0.2100011286
0.2100010538
0.2100011069
0.2100011543
0.2100010993
0.2100009092
0.2100006683
0.2100004095
0.2100005048
0.2099999887
0.2099998711
0.2099999473
0.2099999953
0.2100000943
0.210000202
0.2100002995
0.2100003075
0.2100004469
0.2100008675
0.210001785
0.2100023432
0.210002587
0.2100027107
0.2100031093
0.210002462
0.2100019688
0.2100015728
0.2100012266
0.2100009306
0.2100007801
0.2100007917
0.2100008521
0.2100008056
0.2100006252
0.2100004009
0.2100001636
0.2099999995
0.2099997487
0.2099992562
0.2099996256
0.2099996373
0.2099997378
0.2099998497
0.210000053
0.2100001153
0.2100003342
0.21000072
0.2100017663
0.2100022654
0.2100024618
0.2100027811
0.2100021602
0.2100017538
0.2100014029
0.2100011267
0.2100007886
0.2100005885
0.2100005098
0.210000539
0.2100005098
0.2100003788
0.2100002012
0.2099999836
0.2099997654
0.2099995523
0.2099993627
0.209999382
0.2099993859
0.2099994628
0.2099995525
0.2099998154
0.2099999264
0.21000026
0.2100006868
0.2100015754
0.2100020075
0.21000218
0.2100026649
0.2100018879
0.2100015428
0.2100012349
0.2100011959
0.2100006849
0.2100004592
0.2100003058
0.2100002686
0.2100002475
0.2100001633
0.2100000331
0.2099998351
0.2099996064
0.2099994073
0.2099992689
0.2099992182
0.2099992135
0.2099992738
0.2099993962
0.2099996411
0.2099999184
0.2100005851
0.2100011925
0.2100015839
0.2100015051
0.2100015595
0.2100019737
0.2100015929
0.2100012918
0.2100010128
0.2100007891
0.2100005184
0.210000322
0.2100001498
0.2100000591
0.2100000264
0.2099999733
0.2099998768
0.2099996936
0.2099994738
0.2099992838
0.2099991577
0.2099991109
0.2099991169
0.2099991709
0.2099992824
0.2099994637
0.2099996812
0.2100000159
0.210000501
0.2100009301
0.2100011089
0.2100013526
0.210001393
0.2100012303
0.2100009896
0.2100007659
0.2100005629
0.2100003564
0.210000176
0.2100000105
0.2099998954
0.2099998438
0.2099998042
0.2099997284
0.2099995587
0.2099993631
0.2099991898
0.2099990689
0.2099990364
0.2099990684
0.2099991417
0.2099992596
0.2099994384
0.209999672
0.2100000081
0.2100004348
0.2100008999
0.2100009975
0.2100011469
0.2100013793
0.2100007768
0.2100006161
0.2100004716
0.2100003305
0.2100001769
0.2100000164
0.2099998697
0.2099997546
0.2099996885
0.2099996535
0.2099996004
0.2099994632
0.2099992997
0.2099991534
0.2099990358
0.2099989928
0.2099990015
0.2099990603
0.2099992136
0.209999373
0.2099995755
0.2099998024
0.210000134
0.2100006199
0.2100011023
0.2100012849
0.2100017809
0.2100002769
0.2100002041
0.2100001445
0.2100000667
0.2099999598
0.2099998376
0.2099997166
0.2099996208
0.2099995519
0.2099995234
0.2099995131
0.2099994333
0.2099993076
0.2099991963
0.2099990893
0.2099990094
0.2099989386
0.2099989164
0.2099990474
0.2099991702
0.2099993714
0.2099995372
0.2099998364
0.2100002734
0.2100009405
0.2100013742
0.210001901
0.2099998008
0.2099998118
0.2099998201
0.2099997813
0.2099996858
0.2099996106
0.2099995317
0.2099994833
0.209999444
0.2099994437
0.2099994951
0.2099994984
0.2099993931
0.2099993229
0.2099992206
0.2099991324
0.2099990127
0.2099990142
0.2099991414
0.2099991583
0.2099992388
0.2099992524
0.2099993978
0.2099997196
0.210000349
0.2100011802
0.2100019401
0.2099993983
0.2099994811
0.2099995283
0.2099994865
0.2099993158
0.2099993527
0.2099993393
0.209999351
0.209999373
0.2099994235
0.2099995176
0.2099997193
0.2099996371
0.2099997504
0.2099996161
0.20999941
0.2099992191
0.2099990807
0.2099990734
0.2099990611
0.2099991629
0.2099992117
0.2099994624
0.2099997073
0.2100003094
0.2100011081
0.210001846
0.2099991031
0.2099992407
0.2099993017
0.2099992033
0.2099986994
0.2099991046
0.2099991745
0.2099992188
0.2099992928
0.2099993951
0.2099994768
0.2099997268
0.2099997251
0.2099997807
0.2099998024
0.2099997676
0.2099996057
0.2099994107
0.2099993358
0.2099993419
0.209999441
0.2099993599
0.2099995205
0.2099996068
0.2100001253
0.2100007577
0.2100016348
0.2099989425
0.2099991097
0.2099990787
0.2099988522
0.2099971648
0.2099985025
0.2099989452
0.209999135
0.2099992795
0.2099994896
0.209999647
0.2100011935
0.210000365
0.2100020727
0.2100021444
0.210000786
0.2100001182
0.2099997693
0.2099996091
0.2099995817
0.2099996374
0.2099995877
0.2099996434
0.2099998102
0.2100001963
0.2100006119
0.2100014433
0.209998961
0.2099991304
0.2099989255
0.2099981253
0.2099919355
0.2099980758
0.2099986738
0.2099991161
0.20999928
0.2099994532
0.2099997211
0.2100002452
0.2100000523
0.2100008007
0.2100006966
0.2100003971
0.2100001195
0.2099999129
0.2099997608
0.209999708
0.2099997228
0.2099996951
0.2099996868
0.2099998368
0.2100000852
0.2100004989
0.2100011295
0.2099990924
0.2099993804
0.2099995472
0.2099993831
0.2099976466
0.2099991831
0.2099992394
0.2099992838
0.2099993381
0.2099993893
0.2099995403
0.2099997634
0.2099998525
0.2100002672
0.2100003202
0.2100002523
0.2100001177
0.2099999853
0.2099998348
0.2099997838
0.209999756
0.2099997455
0.2099997524
0.2099999092
0.2100001678
0.2100006107
0.2100008764
0.2099992482
0.2099996164
0.2099998955
0.2099998128
0.2099991796
0.2099995008
0.209999446
0.2099994077
0.2099994203
0.2099994437
0.2099995176
0.2099996417
0.2099998118
0.2100000802
0.2100002006
0.2100002267
0.2100001698
0.2100000747
0.2099999383
0.209999877
0.2099998142
0.2099998118
0.2099998211
0.2099999337
0.2100001948
0.2100004704
0.2100009269
0.2099993982
0.2099998145
0.210000142
0.2100001961
0.2099999664
0.2099998044
0.2099996383
0.2099995353
0.2099995065
0.2099995171
0.2099995554
0.2099996643
0.2099998394
0.2100000511
0.2100002014
0.210000287
0.2100002898
0.2100002224
0.2100000964
0.2100000013
0.2099999293
0.2099999203
0.2099999444
0.2100000097
0.2100002991
0.2100005104
0.2100010641
0.209999536
0.2099999588
0.2100002772
0.2100003813
0.2100002523
0.2100000154
0.2099998014
0.2099996626
0.2099996026
0.2099996009
0.2099996415
0.2099997556
0.2099999261
0.2100001239
0.2100002965
0.2100004217
0.2100004695
0.2100004316
0.210000318
0.2100002033
0.2100001141
0.2100000738
0.2100000434
0.2100001466
0.2100003292
0.2100005723
0.2100009916
0.2099996619
0.2100000651
0.2100003516
0.2100004616
0.2100003631
0.2100001452
0.2099999332
0.20999978
0.2099997043
0.2099996996
0.2099997597
0.2099998921
0.2100000758
0.2100002813
0.2100004741
0.2100006238
0.2100006982
0.2100006832
0.210000585
0.2100004584
0.2100003425
0.2100002682
0.2100002093
0.2100003073
0.2100004614
0.2100007304
0.210001078
0.2099997946
0.2100001497
0.2100003977
0.210000497
0.2100004135
0.2100002237
0.2100000284
0.209999877
0.2099998018
0.2099998106
0.2099999009
0.2100000656
0.2100002775
0.2100005058
0.2100007175
0.2100008796
0.2100009636
0.2100009579
0.2100008676
0.2100007304
0.2100005907
0.210000492
0.2100004332
0.2100005025
0.2100006515
0.2100009041
0.2100012199
0.2099999382
0.210000232
0.210000433
0.2100005095
0.2100004314
0.2100002607
0.2100000812
0.2099999441
0.209999889
0.2099999284
0.2100000598
0.2100002665
0.2100005169
0.2100007719
0.2100009979
0.2100011639
0.2100012478
0.210001243
0.2100011542
0.2100010078
0.2100008513
0.2100007378
0.2100006843
0.2100007329
0.2100008656
0.210001083
0.2100013688
0.2100000788
0.2100003143
0.2100004645
0.2100005056
0.2100004199
0.2100002598
0.2100000975
0.2099999878
0.20999997
0.2100000529
0.2100002337
0.2100004908
0.2100007824
0.2100010617
0.2100012951
0.2100014591
0.2100015414
0.2100015387
0.2100014508
0.2100012964
0.2100011272
0.2100010034
0.2100009495
0.210000982
0.2100010895
0.2100012685
0.2100015181
0.2100002313
0.2100004033
0.210000494
0.2100004844
0.2100003789
0.2100002271
0.2100000877
0.2100000218
0.2100000516
0.2100001854
0.2100004204
0.2100007323
0.2100010718
0.210001382
0.2100016221
0.2100017832
0.2100018679
0.2100018713
0.2100017812
0.2100016127
0.2100014267
0.2100012888
0.210001224
0.2100012361
0.2100013146
0.2100014569
0.2100016669
0.2100003993
0.2100005031
0.2100005208
0.2100004526
0.2100003298
0.2100001934
0.2100000956
0.2100000792
0.2100001607
0.2100003467
0.2100006348
0.2100010004
0.2100013909
0.2100017466
0.2100020068
0.2100021766
0.2100022726
0.210002279
0.2100021703
0.2100019698
0.2100017539
0.2100015904
0.2100015014
0.2100014852
0.210001532
0.210001638
0.2100018085
0.2100005886
0.2100006148
0.2100005581
0.2100004467
0.2100003278
0.2100002272
0.2100001811
0.2100002189
0.2100003527
0.2100005876
0.2100009217
0.2100013319
0.2100017665
0.2100021657
0.2100024551
0.2100026457
0.2100027534
0.2100027451
0.210002597
0.2100023525
0.2100020979
0.2100018984
0.2100017742
0.2100017224
0.2100017326
0.2100017994
0.2100019323
0.2100007984
0.2100007497
0.2100006463
0.2100005261
0.210000434
0.2100003858
0.2100004002
0.210000495
0.2100006792
0.2100009561
0.2100013237
0.2100017598
0.2100022154
0.2100026223
0.2100029166
0.2100031165
0.2100032128
0.2100031685
0.2100029824
0.2100027106
0.2100024307
0.2100021996
0.2100020391
0.2100019477
0.2100019144
0.210001936
0.210002028
0.2100010348
0.2100009448
0.2100008421
0.2100007468
0.2100006968
0.2100007071
0.2100007808
0.2100009295
0.2100011573
0.2100014642
0.2100018452
0.2100022751
0.2100026983
0.2100030514
0.2100033189
0.2100034923
0.2100035464
0.2100034655
0.2100032679
0.210003002
0.2100027256
0.2100024844
0.2100022991
0.2100021694
0.2100020858
0.2100020546
0.2100020937
0.2100013343
0.2100012488
0.2100011862
0.2100011406
0.2100011333
0.21000119
0.2100013092
0.2100014965
0.2100017498
0.2100020611
0.2100024162
0.2100027859
0.2100031298
0.2100034168
0.2100036254
0.2100037374
0.2100037439
0.2100036486
0.210003468
0.2100032326
0.2100029832
0.2100027554
0.2100025614
0.2100023969
0.2100022583
0.2100021673
0.2100021382
0.2100017457
0.2100016913
0.2100016847
0.2100017028
0.2100017381
0.2100018161
0.2100019523
0.2100021513
0.210002397
0.2100026744
0.210002969
0.210003258
0.2100035133
0.2100037099
0.2100038337
0.2100038835
0.2100038651
0.210003783
0.2100036424
0.2100034565
0.2100032494
0.2100030434
0.2100028414
0.2100026351
0.2100024362
0.2100022869
0.2100021897
0.2100023183
0.210002299
0.2100023434
0.2100024156
0.2100024973
0.2100025845
0.2100027085
0.2100028796
0.2100030718
0.2100032689
0.21000346
0.2100036304
0.2100037647
0.210003856
0.2100039069
0.2100039241
0.2100039117
0.2100038691
0.2100037951
0.2100036914
0.2100035597
0.2100033907
0.2100031584
0.2100028084
0.2100025582
0.210002404
0.2100022884
0.2100019933
0.2100019123
0.2100018457
0.210001776
0.2100016666
0.2100014876
0.2100013201
0.2100011806
0.2100010327
0.2100010037
0.2100010336
0.2100010995
0.2100011979
0.2100012496
0.2100012897
0.2100024595
0.2100020733
0.2100017839
0.2100016002
0.2100015037
0.2100014539
0.2100014035
0.210001302
0.2100011352
0.2100009585
0.2100009132
0.2100005616
0.2100006264
0.2100005627
0.2100005916
0.2100007125
0.210000824
0.2100008693
0.2100008246
0.2100007622
0.2100008698
0.2100012037
0.2100017295
0.2100020432
0.2100023017
0.2100024271
0.2100033855
0.2100027903
0.2100023139
0.2100019082
0.2100015574
0.2100013007
0.2100011641
0.2100011081
0.2100010688
0.2100009674
0.2100008019
0.210000613
0.2100004044
0.2100003106
0.2100001478
0.2100001724
0.2100001311
0.2100002067
0.2100003183
0.2100004138
0.2100005002
0.2100005288
0.2100007043
0.2100010375
0.2100016006
0.210001927
0.2100021748
0.2100023922
0.2100031431
0.2100026145
0.2100021623
0.2100017521
0.2100013735
0.2100010766
0.210000889
0.2100008036
0.2100007728
0.2100006686
0.2100005126
0.2100003326
0.2100001374
0.2100000439
0.2099998472
0.2099997593
0.2099997349
0.2099997615
0.2099998524
0.2099999671
0.210000146
0.2100002616
0.2100005822
0.2100009609
0.2100014939
0.2100017681
0.2100019967
0.2100023695
0.2100023884
0.2100019677
0.2100015666
0.2100011764
0.2100008888
0.2100006719
0.2100005359
0.2100004763
0.2100003847
0.2100002481
0.2100000815
0.2099998955
0.2099997386
0.2099995638
0.2099994477
0.2099993984
0.2099994053
0.2099994826
0.2099996004
0.2099998394
0.2100000225
0.2100004458
0.2100008758
0.2100012721
0.2100014395
0.2100016463
0.2100021019
0.2100021084
0.2100017207
0.2100013578
0.2100009418
0.2100007257
0.2100004934
0.2100003182
0.2100002166
0.2100001263
0.2100000088
0.2099998613
0.209999688
0.2099995151
0.209999351
0.2099992261
0.2099991602
0.2099991542
0.2099992231
0.2099993453
0.2099997298
0.2100000396
0.2100010679
0.2100025106
0.2100017763
0.2100013821
0.2100012804
0.2100014896
0.210001739
0.2100013936
0.2100010752
0.2100008184
0.2100005441
0.2100003158
0.2100001278
0.2099999976
0.2099998997
0.2099997936
0.2099996619
0.2099995022
0.2099993375
0.2099991847
0.2099990658
0.2099990019
0.2099989948
0.2099990524
0.2099991729
0.2099994013
0.2099996552
0.2100001256
0.2100004995
0.2100006748
0.2100008623
0.2100010939
0.2100012485
0.2100012579
0.2100009704
0.2100007173
0.2100005009
0.2100002963
0.2100001092
0.2099999396
0.2099998047
0.2099997008
0.2099996012
0.2099994822
0.2099993416
0.2099991936
0.2099990577
0.2099989501
0.2099988953
0.2099988931
0.2099989521
0.2099990816
0.2099993031
0.2099995759
0.2100000112
0.2100004383
0.2100006805
0.2100007852
0.2100009706
0.2100012561
0.210000675
0.2100004656
0.2100002996
0.2100001577
0.2100000203
0.2099998796
0.2099997431
0.2099996224
0.2099995205
0.2099994291
0.2099993297
0.2099992176
0.2099990956
0.2099989861
0.2099988914
0.2099988276
0.2099987944
0.209998823
0.2099989347
0.209999119
0.209999379
0.2099996863
0.2100000421
0.2100004217
0.2100007407
0.2100010103
0.2100014556
0.2100000628
0.2099999441
0.2099998644
0.2099997949
0.2099997166
0.2099996261
0.2099995302
0.2099994395
0.2099993555
0.2099992837
0.2099992128
0.209999145
0.2099990505
0.209998978
0.2099988968
0.2099988023
0.2099987238
0.2099987159
0.2099987992
0.2099989206
0.2099991101
0.2099993442
0.2099996257
0.2100000312
0.2100005551
0.2100009517
0.2100014451
0.2099995083
0.2099994724
0.20999946
0.2099994444
0.209999412
0.20999936
0.2099993051
0.2099992607
0.2099992163
0.2099991851
0.2099991506
0.2099991601
0.2099990491
0.2099989947
0.2099989531
0.2099988804
0.2099987885
0.2099987993
0.2099988767
0.2099989081
0.2099989764
0.2099991374
0.2099993448
0.2099996067
0.2100000963
0.2100007378
0.2100013636
0.2099990629
0.2099990955
0.2099991236
0.2099991278
0.2099990651
0.2099990844
0.2099990827
0.2099990886
0.2099990984
0.2099991349
0.2099991586
0.2099995015
0.209999325
0.2099994254
0.2099995243
0.2099991873
0.2099989498
0.2099988597
0.2099988521
0.2099988358
0.2099988805
0.2099990472
0.2099992973
0.2099995365
0.2099999142
0.2100005767
0.2100013093
0.2099987564
0.2099988513
0.2099989185
0.2099989034
0.2099987741
0.2099988984
0.20999896
0.2099989666
0.2099989875
0.2099990426
0.209999006
0.2099992984
0.209999324
0.2099989221
0.2099993397
0.2099994292
0.2099992807
0.209999102
0.2099990141
0.2099989933
0.2099990407
0.2099991535
0.2099993447
0.2099994998
0.2099998544
0.210000479
0.2100012022
0.2099986148
0.2099987523
0.2099987647
0.209998531
0.2099981448
0.2099982825
0.2099987321
0.2099988948
0.2099990017
0.2099994186
0.2099993203
0.2100029109
0.2100008665
0.2099986492
0.2100062104
0.2100020566
0.2100001452
0.2099994956
0.2099992638
0.2099992221
0.2099992796
0.2099993245
0.2099994573
0.209999617
0.2100000244
0.2100004846
0.210001137
0.209998633
0.2099988259
0.2099989662
0.209998762
0.2099990584
0.2099986661
0.2099989159
0.2099989436
0.2099989864
0.2099991761
0.2099992849
0.2100005511
0.2099999268
0.2100007162
0.2100014246
0.2100004673
0.2099999016
0.2099995782
0.2099994209
0.209999387
0.2099994288
0.2099994652
0.2099995662
0.2099997309
0.2100000706
0.2100004399
0.2100009909
0.2099987448
0.2099989897
0.209999174
0.2099991743
0.209998865
0.2099990347
0.2099990405
0.2099990066
0.2099990115
0.2099990793
0.2099992091
0.2099996883
0.2099995755
0.2100001021
0.2100002181
0.2100000022
0.2099997966
0.209999634
0.209999536
0.2099994947
0.2099995125
0.2099995582
0.2099996598
0.209999834
0.2100001444
0.2100005089
0.210001006
0.2099989062
0.2099992038
0.2099994286
0.2099994795
0.2099993246
0.2099992579
0.2099991566
0.2099990957
0.2099990861
0.2099991146
0.2099991957
0.2099994055
0.2099995152
0.2099998184
0.2099999281
0.2099999095
0.2099998377
0.2099997417
0.2099996619
0.2099996047
0.2099996069
0.2099996529
0.2099997573
0.2099999045
0.2100001654
0.2100004716
0.210000866
0.2099990782
0.2099994188
0.2099996848
0.209999823
0.2099996451
0.2099994636
0.2099993065
0.2099992121
0.2099991811
0.2099991973
0.2099992576
0.2099994014
0.2099995678
0.2099997894
0.2099999296
0.2099999984
0.2099999974
0.2099999337
0.2099998522
0.209999781
0.2099997653
0.2099997894
0.209999873
0.2099999736
0.2100002398
0.2100006253
0.2100009747
0.2099992242
0.2099995732
0.2099998402
0.2099999423
0.2099998034
0.2099996118
0.2099994414
0.209999329
0.2099992825
0.209999296
0.2099993641
0.2099995058
0.2099996916
0.2099999023
0.2100000805
0.2100002038
0.2100002484
0.2100002099
0.2100001258
0.2100000392
0.209999992
0.2099999796
0.2100000283
0.2100001101
0.2100003354
0.2100006713
0.2100010227
0.2099993549
0.2099996927
0.209999941
0.2100000177
0.209999907
0.2099997225
0.209999551
0.2099994339
0.2099993839
0.2099994049
0.2099994966
0.209999663
0.2099998781
0.2100001158
0.2100003334
0.2100004933
0.2100005646
0.2100005408
0.210000452
0.2100003445
0.2100002603
0.2100002121
0.2100002278
0.2100003027
0.2100004981
0.2100007843
0.2100011347
0.2099994849
0.2099997984
0.2100000031
0.2100000568
0.2099999619
0.2099997957
0.2099996304
0.209999519
0.2099994797
0.2099995223
0.209999651
0.2099998618
0.2100001232
0.2100004047
0.2100006593
0.210000842
0.2100009224
0.2100008981
0.2100007975
0.2100006664
0.2100005501
0.2100004754
0.2100004662
0.2100005318
0.2100007005
0.2100009463
0.2100012733
0.2099996201
0.2099998859
0.210000043
0.2100000717
0.2099999812
0.2099998294
0.2099996789
0.2099995843
0.2099995691
0.2099996467
0.2099998234
0.2100000894
0.2100004095
0.2100007396
0.2100010258
0.2100012207
0.2100012981
0.2100012631
0.2100011466
0.2100009938
0.2100008533
0.21000076
0.2100007335
0.2100007848
0.2100009218
0.2100011277
0.2100014163
0.209999768
0.2099999702
0.2100000745
0.2100000718
0.2099999764
0.209999836
0.209999706
0.2099996401
0.2099996601
0.2099997821
0.2100000133
0.2100003407
0.2100007204
0.2100010964
0.2100014065
0.2100016051
0.2100016753
0.2100016296
0.2100014992
0.2100013284
0.2100011688
0.2100010594
0.2100010172
0.2100010483
0.2100011515
0.2100013188
0.210001565
0.2099999246
0.2100000597
0.2100001067
0.2100000674
0.2099999633
0.2099998358
0.2099997358
0.2099997057
0.2099997677
0.2099999386
0.2100002257
0.2100006136
0.2100010521
0.2100014716
0.2100018009
0.210002
0.2100020652
0.2100020126
0.2100018689