/*--------------------------------*- C++ -*----------------------------------*\
  =========                 |
  \\      /  F ield         | OpenFOAM: The Open Source CFD Toolbox
   \\    /   O peration     | Website:  https://openfoam.org
    \\  /    A nd           | Version:  8
     \\/     M anipulation  |
\*---------------------------------------------------------------------------*/
FoamFile
{
    version     2.0;
    format      ascii;
    class       surfaceScalarField;
    location    "1.2";
    object      phi;
}
// * * * * * * * * * * * * * * * * * * * * * * * * * * * * * * * * * * * * * //

dimensions      [1 0 -1 0 0 0 0];

internalField   nonuniform List<scalar> 
197859
(
-1.594991621e-05
-3.38672924e-05
8.195100474e-06
-1.713934658e-05
-2.883345569e-05
2.257197666e-06
-1.26189144e-05
-2.284755019e-05
-4.12847872e-06
-1.436670834e-06
-1.624330686e-05
-8.545649945e-06
5.790620894e-06
-1.153948293e-05
-1.939748136e-06
1.634158227e-06
-2.539930745e-05
1.096138261e-05
-7.150813921e-06
-2.958703364e-05
1.726678755e-05
-1.260963695e-05
-3.260790326e-05
1.301335102e-05
-1.483803317e-05
-3.093986976e-05
1.05545648e-05
-1.557503137e-05
-3.496789001e-05
8.954138099e-06
-3.027655426e-05
8.823920605e-06
1.611829052e-05
-3.836204539e-05
1.365894452e-05
7.727082726e-06
-3.969468311e-05
1.155645662e-05
-1.830101163e-07
-4.062687073e-05
1.104624646e-05
-7.770938266e-06
-3.988637553e-05
1.088518238e-05
-1.331340363e-05
-3.714089429e-05
8.815990043e-06
-1.511239859e-05
-3.106932697e-05
4.034759124e-06
-1.23858804e-05
-2.445315554e-05
-1.121060941e-06
-5.413333014e-06
-2.043830871e-05
-2.77775027e-06
1.291724244e-07
-2.361669955e-05
6.534533507e-06
-5.90009914e-06
-3.047345617e-05
1.110329791e-05
-1.486420622e-05
-3.248694714e-05
1.186393371e-05
-1.784974709e-05
-3.466556788e-05
5.043155206e-06
-1.834422423e-05
-3.479337591e-05
4.347802895e-06
-1.641767727e-05
-3.737552737e-05
4.808262616e-07
-1.68139789e-05
-3.343862701e-05
3.558186045e-06
-1.662236085e-05
-3.002036256e-05
5.298348602e-06
-6.983496836e-06
-2.298037441e-05
7.664796077e-06
1.412366246e-05
-1.346946292e-06
4.666112551e-06
2.764606573e-05
-1.392056863e-05
1.085282572e-05
2.05778847e-05
-2.138865606e-05
1.929288224e-05
-3.816943956e-06
-2.562392038e-05
2.517408542e-05
-2.696495442e-05
-3.06235572e-05
1.872224673e-05
-4.114340301e-05
-2.562154131e-05
4.260452039e-06
-4.339888773e-05
-2.078364399e-05
-1.046014146e-05
-3.172604036e-05
-2.145119929e-05
-2.204309024e-05
-2.473122596e-05
-3.485453507e-05
3.793614897e-05
-3.789561802e-05
1.825624689e-05
2.666184861e-05
-4.064629823e-05
1.653508876e-05
1.78419713e-05
-4.243570607e-05
1.28935046e-05
1.104448315e-05
-4.308375612e-05
1.018653353e-05
4.694609648e-06
-4.371777656e-05
9.440752754e-06
-1.985680918e-06
-4.304011276e-05
9.833995372e-06
-7.646512611e-06
-4.114615957e-05
9.666046151e-06
-1.0867194e-05
-3.537256856e-05
7.523843202e-06
-1.014071889e-05
-2.870614452e-05
3.526396641e-06
-7.712208861e-06
-2.43506757e-05
1.483704416e-06
-8.817774535e-06
-2.922765465e-05
6.716379303e-06
-1.507764574e-05
-3.344410343e-05
9.230396009e-06
-2.122664199e-05
-3.407814957e-05
7.74009351e-06
-2.323211099e-05
-3.38873035e-05
1.22705388e-06
-1.873106424e-05
-3.226234018e-05
-7.032279426e-06
-4.859926319e-06
-2.486815957e-05
-2.637857613e-05
-5.409367861e-06
-2.873431661e-05
-4.155035763e-06
-6.005888722e-06
-2.630957741e-05
-3.114350838e-06
-2.538861094e-06
-2.41614118e-05
-2.286062325e-06
1.295867646e-05
-1.665330158e-05
-1.911773178e-07
2.663707968e-05
-2.348426942e-05
-4.114659997e-06
2.852697373e-05
-2.669370989e-05
3.4152559e-06
1.661501375e-05
-2.794125235e-05
1.422946216e-05
-1.049925511e-05
-2.935724999e-05
2.584818219e-05
-3.68162117e-05
-1.988186067e-05
2.057753235e-05
-4.489037511e-05
-1.693359841e-05
4.224373157e-06
-3.53851192e-05
-2.552171532e-05
-5.434497662e-06
-4.943958636e-05
-1.067651262e-05
4.184734877e-05
2.026839171e-05
2.868314002e-05
-4.428856784e-05
1.680644405e-05
1.9987669e-05
-4.584579605e-05
1.210554847e-05
1.395125172e-05
-4.625651174e-05
9.209174085e-06
8.893071642e-06
-4.682457481e-05
8.164983184e-06
3.367865469e-06
-4.592041172e-05
8.405505577e-06
-2.079021792e-06
-4.459395657e-05
8.894670796e-06
-7.046462422e-06
-4.051720088e-05
1.011203605e-05
-9.31727737e-06
-3.591337788e-05
9.477981783e-06
-9.887505018e-06
-3.171759244e-05
7.937054009e-06
-1.267326687e-05
-3.486544165e-05
8.423450535e-06
-1.786415239e-05
-3.622962155e-05
7.976295134e-06
-2.170012062e-05
-3.607119423e-05
5.82888987e-06
-2.242964175e-05
-3.498637449e-05
1.82842234e-06
-2.013634666e-05
-3.2534023e-05
-2.021629462e-06
-8.312805537e-06
-2.255927323e-05
-1.413294375e-05
-8.096676017e-06
-2.45563541e-05
-4.394173046e-06
-4.759443003e-06
-2.284052852e-05
-6.806366674e-06
-1.441579626e-06
-2.039283634e-05
-7.086476399e-06
1.209801025e-05
-1.718815701e-05
-1.300470559e-05
2.946905374e-05
-1.509550802e-05
-2.575968867e-05
3.318082503e-05
-1.938014535e-05
-1.102516528e-05
2.335000779e-05
-2.351791996e-05
5.407756534e-06
-3.065745621e-06
-2.467983716e-05
2.173867081e-05
-3.213481964e-05
-2.076840915e-05
2.995599198e-05
-4.138484483e-05
-2.694719085e-05
1.92639952e-05
-2.949440318e-05
-4.23120899e-05
4.900286872e-06
-7.495145133e-05
-3.982178041e-06
2.912076798e-05
-4.671634432e-05
1.547420497e-05
2.138803826e-05
-4.869481967e-05
1.058178024e-05
1.624879882e-05
-4.913053263e-05
8.013306552e-06
1.249409123e-05
-4.964069492e-05
6.570881749e-06
7.961385689e-06
-4.845754102e-05
7.06987998e-06
3.828461859e-06
-4.688025894e-05
6.419251704e-06
-1.369080825e-06
-4.435849284e-05
9.03884127e-06
-5.942544054e-06
-4.209392394e-05
1.075398995e-05
-8.547463006e-06
-3.826797981e-05
9.155263812e-06
-1.225626422e-05
-3.806834878e-05
6.91164234e-06
-1.69599965e-05
-3.797980468e-05
6.45383043e-06
-2.048147569e-05
-3.721238393e-05
4.662566547e-06
-2.102555401e-05
-3.550077805e-05
1.058364083e-06
-1.891265228e-05
-3.272884026e-05
-1.918146368e-06
-1.15413616e-05
-2.760568492e-05
-2.325004898e-06
-7.952492073e-06
-2.270606664e-05
-5.439194845e-06
-3.877305986e-06
-1.853831012e-05
-8.377449402e-06
-2.393140521e-06
-1.225959383e-05
-9.617408e-06
1.029279267e-05
-1.143937182e-05
-1.843464922e-05
3.141604168e-05
-1.352595567e-06
-3.486594029e-05
3.499574385e-05
-7.421865474e-06
-1.553773542e-05
2.626718918e-05
-1.629921474e-05
1.510249181e-06
2.58498701e-06
-1.827994013e-05
1.728275804e-05
-2.354193671e-05
-1.957316528e-05
2.493217451e-05
-3.052173651e-05
-3.01923494e-05
1.022541711e-05
-1.714009154e-05
-4.304756178e-05
-1.264578673e-05
-6.856608486e-05
-2.35250263e-05
2.816801284e-05
-4.891012313e-05
1.235628396e-05
2.248959319e-05
-5.063209709e-05
7.615772688e-06
1.842997042e-05
-5.076857349e-05
5.697760008e-06
1.617566771e-05
-5.00129942e-05
2.626689801e-06
1.198363052e-05
-4.995239318e-05
5.686983944e-06
8.965277027e-06
-4.802782173e-05
4.165983725e-06
4.340177651e-06
-4.648905109e-05
6.755704734e-06
-1.722295835e-06
-4.536192699e-05
9.330499962e-06
-5.732089439e-06
-4.185210754e-05
7.59391648e-06
-9.417229843e-06
-3.950754937e-05
5.124309085e-06
-1.388044331e-05
-3.867862009e-05
5.16197726e-06
-1.732995895e-05
-3.734152177e-05
3.578587295e-06
-1.722742992e-05
-3.511483205e-05
-4.885508461e-07
-1.371242205e-05
-3.284967115e-05
-3.394247787e-06
-8.657963465e-06
-2.931118964e-05
-3.349044472e-06
-4.47881165e-06
-2.27030964e-05
-4.182182156e-06
2.13642779e-07
-1.677174698e-05
-6.45906099e-06
4.795055901e-06
-8.493786785e-06
-8.347214336e-06
1.248104371e-05
-9.523687608e-06
-9.601593762e-06
2.174311184e-05
-5.398728628e-07
-1.007463172e-05
2.181633554e-05
-3.838101815e-06
-3.656795849e-06
1.573440552e-05
-7.578375459e-06
-2.638611799e-06
-4.476259322e-06
-8.786524754e-06
1.071740975e-05
-2.182228249e-05
-9.777347827e-06
7.550541038e-06
-2.17291927e-05
-1.28009369e-05
-1.748409392e-05
-7.412460187e-06
-1.521406585e-05
-4.214987066e-05
-2.469375305e-05
-5.128430815e-05
2.557898119e-05
-5.175560141e-05
7.383874812e-06
2.369178297e-05
-5.204065372e-05
3.295894997e-06
2.194150836e-05
-5.196176431e-05
2.943624171e-06
1.940150382e-05
-5.157843107e-05
4.105601818e-06
1.553602388e-05
-5.156548371e-05
5.478720519e-06
1.29814268e-05
-4.925156375e-05
3.778463006e-06
8.834758384e-06
-4.795754901e-05
5.615262137e-06
2.411399271e-06
-4.681707154e-05
7.878572263e-06
-2.43895822e-06
-4.359718979e-05
6.595476032e-06
-6.089024434e-06
-3.994748642e-05
4.090008971e-06
-1.026531563e-05
-3.856209428e-05
4.059753682e-06
-1.324975238e-05
-3.625872946e-05
1.901622496e-06
-1.209802678e-05
-3.324208925e-05
-3.024499047e-06
-7.379141928e-06
-3.127838546e-05
-6.290209006e-06
-2.759236041e-06
-2.914261274e-05
-4.788531709e-06
5.240639769e-07
-2.35919971e-05
-2.394445332e-06
3.358519035e-06
-1.834308672e-05
-1.26315493e-06
6.107684691e-06
-8.83139798e-06
-2.41156408e-06
1.199828887e-05
-1.50253868e-05
-3.888569845e-07
1.921055058e-05
-1.073093954e-05
2.97893272e-06
1.658982901e-05
-7.445231491e-06
6.228076602e-06
-1.852463603e-06
-2.194779531e-06
1.305908517e-05
-2.940068758e-05
4.538379219e-07
1.830837198e-05
-3.801848403e-05
3.053636204e-06
-4.212685021e-06
-2.948985216e-05
1.26500675e-05
-3.397921545e-05
-9.686500664e-06
2.258551372e-05
-5.760251175e-05
3.414374126e-05
-6.852333799e-05
2.404049673e-05
-5.295481859e-05
1.183749591e-06
2.543232104e-05
-5.170436966e-05
-1.727891465e-06
2.581788636e-05
-5.153701744e-05
-8.100798119e-07
2.379471654e-05
-5.200040402e-05
2.445379148e-06
1.995591994e-05
-5.267803985e-05
4.951575256e-06
1.664091525e-05
-5.099057563e-05
5.05420862e-06
1.214373735e-05
-4.94483891e-05
5.98817051e-06
5.98789926e-06
-4.732379296e-05
6.6626759e-06
5.375610408e-07
-4.416038536e-05
6.013613516e-06
-3.721751806e-06
-3.975815517e-05
4.070029063e-06
-7.704685409e-06
-3.786055397e-05
3.281427234e-06
-9.744326964e-06
-3.373082567e-05
-4.882317812e-07
-6.803363384e-06
-2.953383333e-05
-6.649190196e-06
-1.005061549e-07
-2.718156603e-05
-1.07996569e-05
5.69093402e-06
-2.618568016e-05
-8.748369723e-06
9.504271795e-06
-2.29255877e-05
-4.479762005e-06
1.091227325e-05
-2.049143433e-05
7.403182936e-07
1.278803865e-05
-1.275809648e-05
2.050901551e-06
1.9082691e-05
-2.443455702e-05
3.114521333e-06
2.603518842e-05
-2.447625743e-05
6.792851331e-06
2.416996536e-05
-1.648978023e-05
1.090983668e-05
1.300733049e-05
-5.396673735e-06
1.436461905e-05
-9.266260896e-06
-3.445285673e-07
2.307201024e-05
-2.615337763e-05
3.18657365e-06
1.675432845e-05
-2.60420768e-05
2.374002918e-05
-1.120102279e-05
-1.032515502e-05
4.603350537e-05
-3.916465137e-05
7.287902992e-05
-4.905998307e-05
2.430496242e-05
-5.117570254e-05
-4.514309354e-06
2.775501208e-05
-4.919518664e-05
-5.958919363e-06
2.953213256e-05
-4.933459808e-05
-3.979209119e-06
2.824066992e-05
-5.077934354e-05
7.073944201e-08
2.466830179e-05
-5.288618769e-05
3.780833776e-06
2.017734697e-05
-5.228919729e-05
5.789849589e-06
1.489612814e-05
-5.040726085e-05
6.240304671e-06
9.351376371e-06
-4.667128621e-05
4.892406175e-06
3.631755914e-06
-4.319323655e-05
4.752589417e-06
-1.897634601e-06
-3.841120805e-05
4.182531993e-06
-6.232861237e-06
-3.595894733e-05
2.433702411e-06
-7.494825494e-06
-2.9884785e-05
-2.583984861e-06
-2.6401854e-06
-2.420287518e-05
-1.018548017e-05
5.773994454e-06
-2.023387931e-05
-1.536174563e-05
1.28648524e-05
-1.935201141e-05
-1.392443607e-05
1.795942837e-05
-1.812097188e-05
-9.899152148e-06
1.929571947e-05
-1.858531234e-05
-3.24240799e-06
2.221327384e-05
-1.429534505e-05
-1.380335158e-06
2.966096618e-05
-2.450266908e-05
-7.379596744e-06
3.684671971e-05
-2.924921087e-05
-2.412797269e-06
3.557944194e-05
-2.548750649e-05
1.026501358e-05
2.719953791e-05
-1.715241116e-05
2.013566109e-05
1.367728808e-05
-1.465650963e-05
2.783428121e-05
-4.178142044e-06
-1.393875332e-05
3.498083571e-05
-1.566931491e-05
1.541931981e-05
1.98119828e-05
-8.131720205e-06
4.972745498e-05
-1.123144179e-05
9.097469585e-05
-2.622716446e-05
2.643960999e-05
-4.619310397e-05
-9.381454267e-06
3.04116297e-05
-4.443379808e-05
-8.732979827e-06
3.221338991e-05
-4.539100405e-05
-5.744894733e-06
3.075384794e-05
-4.777704749e-05
-1.542277888e-06
2.80707528e-05
-5.205227807e-05
1.849630435e-06
2.341676637e-05
-5.134435405e-05
3.70950606e-06
1.800299781e-05
-4.89459038e-05
3.952677795e-06
1.329161283e-05
-4.325964021e-05
1.299925024e-06
7.853227957e-06
-3.953484639e-05
1.78012778e-06
1.524706673e-06
-3.472207293e-05
2.639494162e-06
-3.358662427e-06
-3.173258513e-05
6.571221798e-07
-4.823692635e-06
-2.551264889e-05
-2.906951047e-06
9.239918753e-07
-1.852817155e-05
-1.142212965e-05
1.070210177e-05
-1.213323461e-05
-1.787844012e-05
1.855209304e-05
-9.408220028e-06
-1.779354849e-05
2.322152414e-05
-7.011999579e-06
-1.577827721e-05
2.554855208e-05
-6.945346536e-06
-1.396694497e-05
3.201535459e-05
-1.531126616e-06
-1.923101668e-05
4.195783212e-05
-2.939461023e-06
-3.150569932e-05
5.021083953e-05
-7.620615565e-06
-2.988161502e-05
5.028618848e-05
-9.818906838e-06
-1.574397284e-05
4.397123301e-05
-1.029163946e-05
-5.458628039e-07
3.334385306e-05
-1.4844026e-05
1.081486327e-05
1.780866077e-05
-2.20773624e-05
2.367380264e-05
-1.142932844e-06
-7.621094504e-06
4.199202575e-05
-4.717445738e-06
3.40609109e-05
1.924105181e-05
8.973179591e-05
-3.474473032e-06
2.985686256e-05
-3.767103522e-05
-1.315292193e-05
3.267457812e-05
-3.690279615e-05
-1.034816701e-05
3.303541214e-05
-3.937380382e-05
-6.37741726e-06
3.034659507e-05
-4.249235788e-05
-2.595200894e-06
3.006066898e-05
-5.120787204e-05
-5.578512353e-07
2.647835954e-05
-4.755221714e-05
-2.093878668e-07
2.169675739e-05
-4.386983873e-05
-2.941948886e-07
1.809393241e-05
-3.664483571e-05
-3.011824786e-06
1.33091911e-05
-3.263386647e-05
-2.116144758e-06
7.407576987e-06
-2.849941817e-05
-3.209692045e-07
3.467587692e-06
-2.756208492e-05
-2.303948914e-07
-4.359943869e-07
-2.163444807e-05
2.558193791e-08
2.296316658e-06
-1.349643891e-05
-7.763527167e-06
1.137869382e-05
-5.082054566e-06
-1.613273159e-05
1.369028489e-05
3.313904608e-06
-1.503318187e-05
9.050196048e-06
1.010779071e-05
-1.247941215e-05
3.20838179e-06
1.476687276e-05
-1.587021843e-05
1.903903223e-05
1.995497203e-05
-3.731665132e-05
4.48377691e-05
2.698604116e-05
-5.572420436e-05
6.244236009e-05
2.890417416e-05
-5.412930026e-05
7.016050348e-05
2.635417627e-05
-4.389121477e-05
7.206703862e-05
2.047687694e-05
-3.267506163e-05
6.919720333e-05
1.084697917e-05
-2.282118457e-05
5.381396755e-05
3.679950551e-06
-1.037410367e-05
2.503418273e-05
6.304464992e-06
1.485416517e-05
-7.498958315e-07
2.785640341e-05
3.198847303e-05
6.888094955e-05
2.010084738e-05
3.271625971e-05
-2.515799914e-05
-1.61072624e-05
3.314174091e-05
-2.540729105e-05
-1.19203413e-05
3.131129112e-05
-3.055696107e-05
-6.985624711e-06
2.623605333e-05
-3.352309615e-05
-3.893094306e-06
3.172493003e-05
-5.335534605e-05
-3.3405099e-06
3.071689813e-05
-4.180180497e-05
-4.741971759e-06
2.731059163e-05
-3.567215246e-05
-4.79125681e-06
2.498501126e-05
-2.813044319e-05
-6.188817219e-06
2.20414215e-05
-2.512964632e-05
-4.560679095e-06
1.699662829e-05
-2.170500543e-05
-1.749673222e-06
1.370797275e-05
-2.6676249e-05
2.4028323e-06
1.037966251e-05
-2.073108927e-05
2.425024288e-06
8.739755551e-06
-8.331104618e-06
-3.524761228e-06
1.817943091e-05
-8.54328366e-07
-1.366528396e-05
2.232253145e-05
1.212432654e-05
-1.295287183e-05
2.036274047e-05
2.230683111e-05
-1.023889894e-05
1.068666299e-05
3.343961842e-05
-8.99642552e-06
1.887169173e-05
3.869979534e-05
-2.692969694e-05
4.257036853e-05
5.077433842e-05
-4.748686034e-05
5.823156079e-05
5.846742919e-05
-4.522435683e-05
5.702094685e-05
5.918823089e-05
-3.162344036e-05
5.13542982e-05
5.139947732e-05
-2.525604088e-05
5.913981383e-05
4.102795851e-05
-3.796663779e-05
6.473271866e-05
3.945772046e-05
-4.137077679e-05
5.601186753e-05
4.109639988e-05
-2.607116168e-05
3.17840832e-05
4.70532071e-05
5.030943977e-06
6.314021864e-05
3.752473173e-05
3.502585367e-05
-8.631705664e-06
-1.808423248e-05
3.180589837e-05
-9.50674051e-06
-1.26799841e-05
2.625352747e-05
-1.864017353e-05
-6.36367583e-06
1.748554379e-05
-1.871472818e-05
-6.039305339e-06
3.456994736e-05
-5.851847506e-05
-1.192064131e-05
3.76520111e-05
-3.30393548e-05
-1.18449534e-05
3.498929238e-05
-2.38594233e-05
-9.150554417e-06
3.119350764e-05
-1.67589201e-05
-7.576202572e-06
2.636861139e-05
-1.587857755e-05
-4.426516433e-06
2.081951652e-05
-1.207407649e-05
-4.082118447e-06
1.95957315e-05
-2.071720122e-05
-4.735413473e-06
2.27798868e-05
-1.990254644e-05
-4.012944265e-06
2.222515834e-05
-2.785300729e-06
-4.991379619e-06
3.238420366e-05
7.421241247e-06
-1.843579967e-05
3.744072332e-05
2.113978044e-05
-1.407170149e-05
3.599318101e-05
3.303006096e-05
-9.275224054e-06
2.815182927e-05
4.514068594e-05
-3.859375044e-06
2.810723952e-05
5.039483128e-05
-1.165028416e-05
4.168994997e-05
6.58394686e-05
-2.8647787e-05
5.023926965e-05
7.622648337e-05
-2.630841847e-05
4.081649246e-05
7.918631414e-05
-1.057541135e-05
3.340632581e-05
7.030384503e-05
-1.149441785e-05
5.184503543e-05
6.764387701e-05
-4.505460794e-05
6.450933637e-05
6.67336114e-05
-3.99402184e-05
6.751025158e-05
6.106368826e-05
-2.296829944e-05
4.649403237e-05
6.351810122e-05
4.551167137e-06
7.079037025e-05
3.88436428e-05
3.662891603e-05
8.711119168e-06
-1.808149753e-05
3.082590977e-05
7.69163403e-06
-1.139498732e-05
1.801108796e-05
-8.368736229e-07
-4.987926775e-06
1.359278852e-05
2.705174317e-06
-1.700015389e-05
3.00363805e-05
-4.801709767e-06
-7.015380081e-05
4.63536022e-05
-9.084748878e-06
-4.027353466e-05
4.583454209e-05
-3.655714109e-06
-1.968650946e-05
4.069947997e-05
1.657477516e-06
-1.328246483e-05
3.433470064e-05
1.315792888e-06
-1.083038742e-05
3.003799417e-05
7.800247325e-06
-1.557832038e-05
2.583371472e-05
9.385724334e-06
-2.589915958e-05
2.998947546e-05
1.13766089e-05
-3.543645841e-05
2.426553575e-05
1.979527782e-05
-1.685729124e-05
4.537345404e-05
3.695522801e-05
-5.064217708e-05
4.961169624e-05
4.187718769e-05
-2.497680328e-05
4.734961984e-05
4.685573218e-05
-1.156373777e-05
4.094485585e-05
5.3755152e-05
-2.209537472e-06
3.615426982e-05
5.618716179e-05
-1.001649546e-06
4.088798516e-05
7.02586826e-05
-9.152930402e-06
4.483381189e-05
7.883608509e-05
-6.555554942e-06
3.528075436e-05
8.098564238e-05
7.753518039e-06
2.769023195e-05
7.25041377e-05
5.389910845e-06
4.02950397e-05
7.708765581e-05
-2.204885761e-05
5.064100127e-05
8.056682825e-05
-2.417945439e-05
6.011655987e-05
7.868939464e-05
-2.710138334e-05
4.201137842e-05
7.130959471e-05
1.03134014e-05
7.319104843e-05
3.96103388e-05
3.45997279e-05
2.7330374e-05
-1.482881099e-05
1.893003913e-05
2.914633024e-05
-5.785820918e-06
-3.045865101e-05
3.583915698e-05
1.271003946e-05
-4.024648356e-05
3.656581571e-05
-2.40792431e-05
0.0001063119222
0.0001301740762
-0.0002816157909
9.855214002e-05
5.729931708e-05
-5.864824876e-05
6.652453318e-05
3.753426849e-05
-9.169838344e-06
4.271285334e-05
3.14787265e-05
-6.01286222e-06
1.809344562e-05
2.927469122e-05
-3.341130428e-06
1.602836952e-05
3.123889755e-05
-2.137450016e-05
3.60498093e-05
4.122464528e-05
-5.186086562e-05
5.32323793e-05
4.713997534e-05
-5.294648094e-05
5.74049046e-05
4.824024219e-05
-3.261766397e-05
6.481050527e-05
5.357542095e-05
-2.402549004e-05
6.133083752e-05
5.499919227e-05
-9.642068864e-06
5.532224481e-05
5.711191866e-05
-4.247192371e-06
4.811549534e-05
5.994632404e-05
1.015879416e-06
4.057570547e-05
5.924093766e-05
4.486138939e-06
4.003805287e-05
6.753296619e-05
3.263339629e-06
4.126730161e-05
7.140761617e-05
6.199041187e-06
3.418171753e-05
7.252033283e-05
1.555061051e-05
2.620433857e-05
6.618820023e-05
1.429295424e-05
3.131032656e-05
7.472230673e-05
-2.740991116e-06
3.726264992e-05
7.924448093e-05
-4.630389729e-06
3.95509552e-05
7.617491436e-05
2.255786562e-07
2.46790726e-05
6.702314792e-05
1.915788831e-05
6.939370213e-05
2.84760069e-05
4.332879545e-05
4.143467118e-05
-1.321073561e-05
3.295447808e-05
4.439630732e-05
-4.876897478e-06
6.82379822e-06
5.347237804e-05
8.49365172e-06
-9.362888075e-06
5.084878915e-05
1.897343925e-06
5.600664606e-05
0.0001126643284
-4.788724846e-05
5.980907945e-05
6.742836732e-05
-1.394416679e-05
4.880194008e-05
5.480897725e-05
-6.273508044e-06
3.875868768e-05
4.813731459e-05
-6.618335169e-06
2.240294721e-05
4.875221282e-05
-3.123379692e-06
1.943518714e-05
4.80251711e-05
-1.381945259e-05
4.116945939e-05
6.088834474e-05
-4.139841066e-05
6.176541049e-05
6.71940481e-05
-4.065039698e-05
6.916988804e-05
6.58416683e-05
-2.500606018e-05
6.968251552e-05
6.433548949e-05
-1.127259913e-05
6.296906627e-05
6.310348331e-05
-1.390623299e-06
5.529690138e-05
6.329776929e-05
1.486641647e-06
4.761998912e-05
6.383838016e-05
3.785086578e-06
4.041534907e-05
6.240373921e-05
4.041898947e-06
3.906476645e-05
6.523734482e-05
3.646109272e-06
4.009766847e-05
6.611618891e-05
4.258295073e-06
3.461636115e-05
6.59075911e-05
1.209372231e-05
2.463973302e-05
6.150812201e-05
1.465631722e-05
2.261571949e-05
6.690356983e-05
9.842353637e-06
2.026237295e-05
7.073712259e-05
1.086026956e-05
8.762251294e-06
6.754268969e-05
2.013185911e-05
6.787471632e-06
6.735802485e-05
1.639527328e-06
6.908513082e-05
7.095505399e-06
5.036090931e-05
5.283997195e-05
-1.157019135e-05
4.307305499e-05
5.56120502e-05
-3.929004115e-06
2.982363707e-05
6.070658206e-05
6.012794883e-06
1.2526296e-05
5.981932928e-05
8.322940615e-06
3.670922674e-05
8.804540109e-05
4.275918043e-07
4.106744831e-05
6.696548047e-05
-3.901322347e-06
4.025194176e-05
6.127355371e-05
-5.652831953e-06
3.768683369e-05
5.676974561e-05
-6.069533307e-06
3.108349963e-05
5.786424308e-05
-2.510008478e-06
2.936341965e-05
5.633751116e-05
-6.593083974e-06
4.479114579e-05
6.975613408e-05
-2.429597701e-05
6.099157982e-05
7.432086396e-05
-2.332760138e-05
6.744189775e-05
7.137695284e-05
-1.198578561e-05
6.601066539e-05
6.746731308e-05
-1.700611451e-06
5.969028673e-05
6.525272816e-05
4.171219585e-06
5.25190027e-05
6.500966372e-05
5.459515099e-06
4.501583486e-05
6.530506541e-05
6.036538788e-06
3.89698478e-05
6.496067167e-05
3.488986411e-06
3.82911104e-05
6.614943786e-05
-2.335525784e-07
3.952434558e-05
6.636153456e-05
-1.478873705e-06
3.419239945e-05
6.462587761e-05
6.613289994e-06
2.284695478e-05
6.099311225e-05
1.186002868e-05
1.849252972e-05
6.155576021e-05
9.701781701e-06
1.713426059e-05
6.468912179e-05
7.405789837e-06
8.80169047e-06
6.188085357e-05
1.399389167e-05
7.789412561e-06
6.490530528e-05
3.464501561e-06
6.234780445e-05
1.452618348e-05
5.662359077e-05
6.272381373e-05
-9.800499481e-06
5.066258567e-05
6.40053247e-05
-2.433150486e-06
3.963021768e-05
6.580152633e-05
5.935923454e-06
2.471709919e-05
6.50460213e-05
9.684241399e-06
3.171166048e-05
7.426969264e-05
6.777629275e-06
3.351676835e-05
6.680678581e-05
-1.649398479e-06
3.530849742e-05
6.37511361e-05
-4.271515778e-06
3.625190918e-05
6.028447595e-05
-4.459626016e-06
3.556129034e-05
6.037897148e-05
-1.825092931e-06
3.594272125e-05
5.849053169e-05
-2.535119011e-06
4.628223836e-05
6.931257599e-05
-9.896391408e-06
5.746568942e-05
7.17362424e-05
-8.599158272e-06
6.239746939e-05
6.865912395e-05
-2.214163794e-06
6.13555807e-05
6.523765828e-05
3.271431787e-06
5.692658423e-05
6.372661378e-05
5.955055406e-06
5.104305944e-05
6.391929185e-05
6.973844775e-06
4.418633368e-05
6.468281794e-05
7.478866286e-06
3.865308579e-05
6.548009666e-05
5.013625156e-06
3.754190194e-05
6.705210816e-05
2.08216452e-07
3.747460079e-05
6.733752791e-05
-9.090540196e-07
3.083142275e-05
6.511018702e-05
6.158449971e-06
2.046505511e-05
6.121436902e-05
1.014463928e-05
1.608807493e-05
6.4069041e-05
1.86321956e-06
1.271337481e-05
6.509026661e-05
2.973034086e-06
7.146940417e-06
6.937564891e-05
-1.928841252e-06
5.789886965e-06
7.142226246e-05
-5.160375286e-06
7.036308702e-05
-2.225891212e-06
6.066177214e-05
7.097515864e-05
-7.587489524e-06
5.500238476e-05
7.012305687e-05
-4.590063056e-07
4.459802723e-05
6.918375015e-05
7.021178604e-06
3.197912882e-05
6.672156814e-05
1.094206621e-05
3.002540961e-05
6.821103003e-05
8.010651286e-06
2.984635342e-05
6.556783887e-05
1.416428479e-06
3.185184017e-05
6.323059265e-05
-1.486248687e-06
3.427446006e-05
6.007423255e-05
-2.2133627e-06
3.662907054e-05
5.917328767e-05
-1.149650135e-06
3.888476523e-05
5.734869842e-05
-1.114395751e-06
4.673401121e-05
6.391996443e-05
-2.457027435e-06
5.475873789e-05
6.501462334e-05
-1.303428886e-06
5.870166409e-05
6.315543759e-05
1.560495047e-06
5.861747006e-05
6.145390173e-05
3.867748258e-06
5.585464038e-05
6.102128489e-05
5.467982847e-06
5.125196493e-05
6.163563437e-05
6.886145079e-06
4.523708344e-05
6.266826794e-05
8.029197779e-06
3.969194258e-05
6.380466359e-05
7.220274326e-06
3.696821523e-05
6.554755726e-05
4.227910961e-06
3.465985431e-05
6.575510987e-05
3.890354664e-06
2.756048454e-05
6.386303135e-05
8.346055443e-06
1.808379731e-05
6.076320305e-05
9.927340512e-06
1.535026632e-05
6.533022243e-05
1.47182049e-06
1.32492165e-05
6.679741968e-05
3.933401972e-07
9.378309651e-06
7.307802776e-05
1.679780261e-07
4.853246964e-06
7.543674967e-05
5.100121037e-07
7.5421946e-05
-2.061772785e-07
6.119178819e-05
7.64271987e-05
-4.820647237e-06
5.586016895e-05
7.360046255e-05
1.853723853e-06
4.633021623e-05
7.045320357e-05
8.259859788e-06
3.501725067e-05
6.602641855e-05
1.200731945e-05
2.910742358e-05
6.417723497e-05
9.942669514e-06
2.752379019e-05
6.217458168e-05
4.975971017e-06
2.921186687e-05
5.991723469e-05
1.624461046e-06
3.240376872e-05
5.713998435e-05
-2.583394503e-07
3.646997225e-05
5.579622245e-05
-6.896888499e-07
4.036871125e-05
5.44207081e-05
-9.711923347e-07
4.719071271e-05
5.764428071e-05
-5.466831168e-07
5.348988234e-05
5.84010913e-05
3.140403046e-07
5.698746053e-05
5.800440189e-05
1.653166726e-06
5.764470028e-05
5.778670764e-05
3.009686038e-06
5.596597499e-05
5.814275041e-05
4.556992443e-06
5.230788563e-05
5.893521501e-05
6.358219177e-06
4.702099727e-05
5.988216308e-05
8.072663026e-06
4.130927969e-05
6.076145902e-05
8.754540897e-06
3.688911256e-05
6.20060422e-05
7.961249334e-06
3.258710547e-05
6.192087454e-05
8.135762549e-06
2.579231288e-05
6.064550691e-05
1.001179744e-05
1.762997799e-05
5.880883362e-05
1.011615201e-05
1.568059056e-05
6.298504663e-05
4.29398715e-06
1.566352671e-05
6.587509955e-05
9.387961549e-07
1.263280823e-05
7.024339055e-05
5.864751744e-06
6.442737883e-06
7.210301675e-05
9.523190725e-06
7.230621265e-05
9.557857612e-06
5.897540829e-05
7.899795202e-05
-2.330775258e-06
5.403781574e-05
7.468873883e-05
3.848932929e-06
4.531732805e-05
6.976955254e-05
9.403680273e-06
3.493981105e-05
6.372076221e-05
1.26826378e-05
2.78165977e-05
5.988525181e-05
1.141459467e-05
2.558411721e-05
5.700501243e-05
7.401446728e-06
2.715629085e-05
5.462520468e-05
3.719288294e-06
3.093184695e-05
5.241937516e-05
9.44544093e-07
3.61194414e-05
5.114767365e-05
-5.394907377e-07
4.140117103e-05
5.02843774e-05
-1.145789433e-06
4.788383004e-05
5.179830723e-05
-6.370401478e-07
5.345151333e-05
5.272062753e-05
1.124382316e-07
5.681959796e-05
5.340883753e-05
1.227153172e-06
5.785022079e-05
5.418630032e-05
2.569458015e-06
5.669957698e-05
5.506110669e-05
4.231946448e-06
5.35606167e-05
5.590041306e-05
6.173393386e-06
4.871790805e-05
5.659360293e-05
8.130862627e-06
4.28756051e-05
5.703584434e-05
9.567469181e-06
3.724611406e-05
5.756471298e-05
1.007032959e-05
3.161745125e-05
5.721897636e-05
1.033003071e-05
2.518883919e-05
5.640750765e-05
1.066604619e-05
1.832639191e-05
5.545584396e-05
1.021484376e-05
1.598662362e-05
5.824640736e-05
7.077793317e-06
1.597003776e-05
6.148814814e-05
4.402912341e-06
1.322221711e-05
6.362741151e-05
9.363162655e-06
7.340994789e-06
6.488989877e-05
1.309369791e-05
6.550360568e-05
1.414295676e-05
5.488598576e-05
7.928879421e-05
-1.326267213e-07
5.008551532e-05
7.371575358e-05
5.773146884e-06
4.198465119e-05
6.736667738e-05
1.050338685e-05
3.251420013e-05
6.022103187e-05
1.296978447e-05
2.555861563e-05
5.494378684e-05
1.189661468e-05
2.347338744e-05
5.074289557e-05
8.34689907e-06
2.533113329e-05
4.835429004e-05
4.412731199e-06
2.974576943e-05
4.690366175e-05
1.100662927e-06
3.581501206e-05
4.592980729e-05
-8.517632132e-07
4.226227444e-05
4.537129307e-05
-1.534543007e-06
4.893629714e-05
4.614932749e-05
-1.0253987e-06
5.44362377e-05
4.724660489e-05
-2.628110786e-08
5.78354798e-05
4.858449202e-05
1.42473873e-06
5.89374817e-05
5.004128218e-05
3.042636812e-06
5.785102592e-05
5.132814406e-05
4.819015207e-06
5.479471982e-05
5.223086719e-05
6.72541826e-06
5.003861588e-05
5.270802103e-05
8.641217289e-06
4.40108937e-05
5.281126239e-05
1.025179877e-05
3.756383939e-05
5.282924535e-05
1.11819799e-05
3.109004081e-05
5.236510883e-05
1.132708914e-05
2.48072301e-05
5.174689381e-05
1.09428164e-05
1.888304634e-05
5.112991799e-05
1.024947611e-05
1.58373734e-05
5.2500389e-05
8.791038946e-06
1.472012273e-05
5.489839876e-05
7.706336002e-06
1.188600377e-05
5.594490955e-05
1.051594701e-05
6.80098759e-06
5.720703657e-05
1.276719923e-05
5.830372254e-05
1.400018912e-05
4.898846432e-05
7.739578965e-05
2.625885113e-06
4.415041304e-05
7.072016828e-05
7.833372272e-06
3.663291559e-05
6.334689277e-05
1.153699067e-05
2.825446123e-05
5.581132091e-05
1.278784133e-05
2.227651361e-05
4.976598301e-05
1.115539802e-05
2.08220905e-05
4.467963157e-05
7.51731832e-06
2.326350069e-05
4.260704016e-05
3.305466606e-06
2.851160864e-05
4.21429595e-05
-4.87775197e-07
3.547107472e-05
4.169872989e-05
-2.728751439e-06
4.293569702e-05
4.134785378e-05
-3.441544635e-06
5.014865711e-05
4.169020907e-05
-2.75421071e-06
5.595824893e-05
4.261160557e-05
-1.174977404e-06
5.953412668e-05
4.403809338e-05
9.701169004e-07
6.055083734e-05
4.565752383e-05
3.36661918e-06
5.919652591e-05
4.701425598e-05
5.667742341e-06
5.581711419e-05
4.782202436e-05
7.787765975e-06
5.075634473e-05
4.807999868e-05
9.688270331e-06
4.433728772e-05
4.797977266e-05
1.124999173e-05
3.724624236e-05
4.77979271e-05
1.212177492e-05
3.022489523e-05
4.735009687e-05
1.203573777e-05
2.396690192e-05
4.673829918e-05
1.126593751e-05
1.866630051e-05
4.608141861e-05
1.034842661e-05
1.523023444e-05
4.647243949e-05
9.463323546e-06
1.317543594e-05
4.77900671e-05
9.162425711e-06
1.01972011e-05
4.868018207e-05
1.024224822e-05
5.820336274e-06
5.02337635e-05
1.134941829e-05
5.164076649e-05
1.248257059e-05
4.135932092e-05
7.327710816e-05
5.761860487e-06
3.639396019e-05
6.568655648e-05
9.998739349e-06
2.959017917e-05