/*--------------------------------*- C++ -*----------------------------------*\
  =========                 |
  \\      /  F ield         | OpenFOAM: The Open Source CFD Toolbox
   \\    /   O peration     | Website:  https://openfoam.org
    \\  /    A nd           | Version:  8
     \\/     M anipulation  |
\*---------------------------------------------------------------------------*/
FoamFile
{
    version     2.0;
    format      ascii;
    class       volScalarField;
    location    "0.4/wallFilmRegion";
    object      alpha;
}
// * * * * * * * * * * * * * * * * * * * * * * * * * * * * * * * * * * * * * //

dimensions      [0 0 0 0 0 0 0];

internalField   nonuniform List<scalar> 
1369
(
3.695096976
0.5621128573
0.8027872704
0.8359072498
0.808871448
0.7535751343
0.6957800243
0.6477579156
0.6258340394
0.664762278
0.8257525369
1.160034198
1.562394527
1.687184776
1.32602901
0.8115821072
0.5679508984
0.4965428403
0.4042118706
0.4532780078
1.302250182
0.6285600744
0.3956350385
0.5634203752
1.539101242
4.301095448
2.594166369
1.245050405
0.8881987457
0.7809969478
0.7945640628
1.047229401
1.000111698
1.409728953
0.7156622464
0.5590030075
0.7028785092
0.9101153313
1.038376906
1.061070942
1.042259387
1.246568062
1.753255071
1.698047965
1.454808241
1.571202571
1.51937732
1.446436765
1.365882789
1.264330673
1.148573154
1.037474751
0.9478719706
0.8864343037
0.8469731838
0.8123513469
0.7624081209
0.6886547192
0.5562954286
1.988237194
0.5823510055
0.1147355854
0.1331630779
0.1166811394
0.0935636932
0.07305689169
0.05756568699
0.04606632189
0.0382210367
0.03305553879
0.03003049102
0.02859052447
0.02922209374
0.03233844188
0.03120841835
0.01506140259
0.003121751589
0.002147026334
0.003154672241
0.01348986414
0.04398923255
0.07900753083
0.111224179
0.1408460553
0.1640310763
0.1713698756
0.1357926713
0.04512639248
0.0201154405
0.01083579385
0.0112280262
0.02140678439
0.02381978762
0.01153664359
0.009981098148
0.009971398175
0.01173604079
0.01542768163
0.0191159959
0.02045827624
0.02067247372
0.04650423702
0.1691166709
0.1443528427
0.07823349924
0.2279789176
0.1943315943
0.1299251759
0.07881377971
0.04793553928
0.03234996473
0.02491614138
0.02110699863
0.01924777305
0.01912988603
0.02097706678
0.02467080739
0.0291563671
0.02888524303
0.3894789626
0.6305512035
0.1215030148
0.152069355
0.1513074752
0.1393000885
0.120732711
0.1003451872
0.08191724935
0.0663867751
0.05367387373
0.04353667921
0.0353433152
0.02944796192
0.02729781541
0.02671382633
0.01616788324
0.002525238755
0.00215465633
0.008000474432
0.03623608645
0.07957149703
0.1073291389
0.1255632185
0.1345016109
0.1309334949
0.1200363113
0.1009362026
0.07663887186
0.0415298706
0.01025903787
0.01133900414
0.02590788387
0.02663721183
0.007634221076
0.006655019359
0.0071142867
0.009655686412
0.01435784446
0.01825262787
0.01956878018
0.0197129251
0.04135639549
0.1449292534
0.1591087518
0.1008487849
0.2371855246
0.2266416525
0.180477939
0.1289252544
0.08219590991
0.04948080692
0.03192139668
0.02405134566
0.0212152209
0.02183058892
0.02591784369
0.0331647211
0.04169198694
0.0413428176
0.5380900085
0.6427658705
0.1204176972
0.1600555888
0.1715871054
0.1707419059
0.1598672579
0.1406392665
0.1169213392
0.09232039
0.07007913297
0.05077795071
0.0358682364
0.02585939986
0.02251350552
0.02504376524
0.02035574961
0.00234792917
0.003374466241
0.01631445189
0.06015295227
0.1069750003
0.1272760466
0.1360757221
0.1341552927
0.1178617133
0.09237143203
0.06940908562
0.09512281012
0.09656727625
0.007238392676
0.00939813443
0.02464602426
0.02249736131
0.001756149868
0.002144894921
0.003242478498
0.006231750076
0.01092194025
0.01278551668
0.01310138273
0.01301580023
0.02720505824
0.1138342417
0.1503043356
0.1127587555
0.2455013745
0.2504121525
0.2174607321
0.1744629361
0.1222042911
0.07268678038
0.04016131889
0.02521400678
0.02035678635
0.02119465561
0.02699333827
0.03723598292
0.04978755529
0.05094018026
0.6172549064
0.6599359754
0.1139164174
0.1571954042
0.1743759001
0.1795347362
0.1756876129
0.1638526073
0.1443540299
0.1172988129
0.08630099014
0.05856294986
0.03868131048
0.0273634838
0.02616702194
0.03634885277
0.04910009147
0.01877594068
0.007163227413
0.02727738168
0.09974193699
0.1518253397
0.1452445904
0.1409450657
0.1324404593
0.1085984771
0.07615313005
0.04747806886
0.08872597859
0.1880559783
0.005630678729
0.009642796392
0.02723510858
0.02162956674
0.0002432180879
0.0005065479636
0.002674471546
0.007284627017
0.01306378144
0.01138582337
0.01073245679
0.01052581361
0.03224103672
0.1252664524
0.1384227912
0.1198789475
0.2395663361
0.2574402484
0.2375617679
0.2073486119
0.1603518076
0.1021504648
0.05536507127
0.03126696569
0.02315419914
0.02366348186
0.0305484418
0.04256831954
0.05765181626
0.06126258033
0.6950198755
0.6753341216
0.1041207487
0.1431393628
0.1566381976
0.159170726
0.1551370543
0.1462789214
0.1330032482
0.1133753304
0.08659923545
0.06064054336
0.04187223503
0.03241317209
0.03294679174
0.04387195557
0.07082330367
0.1214146933
0.02807404321
0.05041905132
0.1866838367
0.2039460457
0.1495859458
0.1356652283
0.1250979252
0.09883261028
0.06489496618
0.03469389122
0.05948996511
0.2117729227
0.01941275207
0.01642944225
0.0330952599
0.02895550072
9.13249331e-05
0.001860715776
0.00667247813
0.01453378949
0.02031322003
0.01231984775
0.01094017815
0.01058111953
0.0427804405
0.08548154453
0.09430689073
0.09281192622
0.1862703706
0.2067710069
0.2035286301
0.1845845235
0.1480156913
0.09985196174
0.05843142683
0.03556035211
0.02737511049
0.02778781931
0.03443938228
0.04571494413
0.06008706723
0.06575394756
0.7382593896
0.6935521713
0.09646680202
0.1266925893
0.1304450029
0.1241544964
0.1139763042
0.1035168121
0.09313334168
0.08147469492
0.06840138943
0.05535397873
0.04520972154
0.04056863852
0.04071882946
0.04132962538
0.03870671568
0.03878182508
0.1053999602
0.1813361083
0.3233883606
0.2349789445
0.1324011525
0.114975964
0.1076218256
0.08577278268
0.05561041966
0.02539613045
0.03225854295
0.1086254035
0.3534609194
0.06592955185
0.04876226954
0.04958674589
0.05225613799
0.01509954409
0.0173684406
0.03242618912
0.02628235439
0.01568290088
0.01195928891
0.007103985641
0.004129952375
0.004677898525
0.008948806782
0.01888641787
0.09525506131
0.09723837124
0.07871226538
0.06112630864
0.04914913763
0.04109616567
0.03547343312
0.0319610837
0.03064320212
0.03230213792
0.03751064785
0.04556514291
0.05587200682
0.06109492954
0.7315965904
0.7154480907
0.09456773751
0.1164751555
0.1106858349
0.09610938612
0.08125146222
0.06969743525
0.06151608708
0.05589660971
0.05211001984
0.04988523593
0.04917875702
0.04941771725
0.04812528053
0.04113760259
0.02732126174
0.0118607854
0.009019874449
0.06613554424
0.2505660876
0.213753593
0.08998684875
0.0777836056
0.07792034886
0.06750734576
0.04624557309
0.01585962539
0.01621247491
0.03001940733
0.2014128331
0.7004586378
0.2091187363
0.06304857185
0.05094328174
0.02991094919
0.05311943974
0.05453954981
0.02629398374
0.0163332876
0.01115548559
0.006215675103
0.002324710601
0.002210600613
0.005411557539
0.01159857879
0.1426244962
0.1474996788
0.08346934406
0.04882200716
0.03810551572
0.03457996912
0.0332385182
0.03316937096
0.03416260334
0.0362010199
0.03934146444
0.04323640845
0.04803695788
0.05011054232
0.6881308905
0.7337935524
0.0970558785
0.1127670685
0.1010986568
0.08368140447
0.06908937961
0.05844006598
0.05163582276
0.0483856052
0.04831744818
0.0507344156
0.0541667553
0.0558413324
0.05215570357
0.0409145394
0.02429471533
0.008893526767
0.005899170532
0.05046256877
0.2350682265
0.1615679101
0.0389892916
0.03558601285
0.04144471708
0.04400325683
0.03621856873
0.006206985732
0.007410085252
0.01119594167
0.0148949071
0.02384142195
0.03445052456
0.03615838256
0.04085783069
0.06302825889
0.1432891302
0.06298476266
0.02202802201
0.01422899552
0.00939490959
0.005013216795
0.001667160233
0.001321676313
0.004308048042
0.009080283722
0.1815861606
0.1083227769
0.04634294677
0.03080120427
0.02827567694
0.02873036888
0.03014780703
0.03239183771
0.03521878062
0.03795133819
0.03993879695
0.0407697492
0.04101040821
0.03913241005
0.6380090967
0.7369374165
0.0990619237
0.1097341375
0.09651964123
0.08138152223
0.06955981963
0.06075135457
0.05500683704
0.0523640601
0.052684818
0.05514956748
0.05778456311
0.05741895097
0.05098459325
0.03778291797
0.02128073494
0.007612742265
0.008849101843
0.04430655305
0.1765628353
0.2279089209
0.008148947078
0.006641955101
0.01110014909
0.01849859283
0.02506796125
0.007069228473
0.007962353121
0.01098181322
0.006960777172
0.003029248487
0.001591307801
0.003261938578
0.02656080306
0.07315833797
0.09212614341
0.03643530753
0.01644748669
0.01133136617
0.007414389181
0.003905455661
0.00125653555
0.001067808655
0.003662904473
0.007450688156
0.02139768606
0.02294991021
0.02149667417
0.02183896528
0.02329252042
0.02505951381
0.02725897039
0.03024796555
0.03392554219
0.03750441173
0.03979171925
0.03959526285
0.03729565193
0.03226414754
0.6052901767
0.7194206004
0.0954857209
0.1013041875
0.09069935719
0.08107534902
0.07407310712
0.06843720799
0.0638869165
0.06048897655
0.05865507014
0.05806448179
0.05726895349
0.05387890128
0.04581811832
0.03296935869
0.01830921011
0.006527477745
0.0123755617
0.03756382929
0.09303092424
0.4479626841
0.001496086116
0.0001218116071
0.001152820795
0.007417389712
0.01792699547
0.01958285218
0.02217968912
0.005508184869
0.002389836951
8.238129308e-06
0.002479748099
0.01498396358
0.03549684776
0.043993085
0.03979320288
0.0216305586
0.0119045654
0.008317501378
0.005469250422
0.002923995629
0.0009554863922
0.0008863117278
0.003048619544
0.00604356125
0.009435588531
0.01264435093
0.01545372703
0.01783909328
0.01987227964
0.02172562418
0.02385964602
0.02677562281
0.03063077687
0.03514340342
0.03905569496
0.03983883427
0.03690683611
0.02968531182
0.5960360354
0.69062588
0.08559488575
0.08785681758
0.08313182149
0.08082714478
0.08039661859
0.07927353006
0.07583759229
0.06970366703
0.06319224368
0.0576720166
0.05281151434
0.04710972909
0.03895419106
0.02796902553
0.01587389588
0.005751345598
0.01213741612
0.03113441873
0.05668845152
0.2984761585
0.01278646278
0.01259944765
0.005942361302
0.2914370992
0.0293813709
0.03477893
0.006586911784
0.001112257585
0.00173164987
8.611902679e-07
0.002695278175
0.02956696925
0.04814766637
0.0442530999
0.03668997838
0.01536837655
0.007626210154
0.005274084063
0.003532170807
0.001983205547
0.0007091428358
0.0006846785316
0.004065873529
0.004467153003
0.006893307223
0.009367343235
0.01178141038
0.01414337254
0.01640877549
0.01802745204
0.01976799154
0.0222192275
0.02581279283
0.03126232583
0.03753395771
0.0404942491
0.03842091091
0.0299483133
0.6037725293
0.09249865046
0.08102794619
0.06718665997
0.05561109978
0.04682309625
0.03974657822
0.03245852169
0.02381597762
0.01428269517
0.005726513093
0.01144708107
0.02598930361
0.0409830623
0.09543691201
0.2053966524
0.09011922891
0.03080742283
0.03654523203
0.042674351
0.04938028332
4.438136211e-05
0.001142431322
0.00106969811
7.099268948e-08
6.775097918e-05
0.01095981637
0.04325996235
0.03669435332
0.02861487313
0.008985266846
0.003838823412
0.002620120569
0.001808623403
0.001104297328
0.0004665026372
0.0004692729327
0.02579272148
0.003814006357
0.004352624023
0.006056754602
0.00829302355
0.01121035429
0.0157477209
0.01571184513
0.01614779289
0.01756888123
0.02031372249
0.02620405857
0.0342267686
0.03951920717
0.03985214813
0.03164407124
0.6188659357
0.04176621151
0.03350603137
0.02725029276
0.02077595237
0.01357683057
0.006905336412
0.01623611218
0.02417684069
0.0338313538
0.04590163335
0.1328853854
0.1269257878
0.0877126563
0.05078304433
0.05884200873
0.0646221239
9.000041758e-07
0.001169976748
0.0005652298555
9.612692792e-08
6.906133884e-08
0.001420869995
0.02635814141
0.04510238826
0.0316847805
0.003858081707
0.001343649938
0.0009057243597
0.0006623992617
0.0004756891663
0.0002868761964
0.0002697967262
0.1135552207
0.01008087071
0.002516463187
0.003327956351
0.006088619166
0.0115615022
0.03146818071
0.01986412181
0.01441782
0.01351669169
0.01454573132
0.01958131686
0.02799586502
0.03579452719
0.03999527232
0.03374717975
0.6324679438
0.02309332713
0.01849675054
0.01377443443
0.01108004409
0.03402352587
0.02372040139
0.02746530179
0.03318678828
0.04528648614
0.06254607863
0.07330466526
0.05469103022
0.08108094643
0.07893831282
7.0173551e-07
0.001173392295
0.0004892118847
1.301135663e-07
1.34731917e-08
0.0008902855284
0.02436968362
0.06852230258
0.05125749065
0.0008731695902
0.0002480772271
0.0001682504178
0.000142572672
0.0001706690137
0.0003813958477
0.0001203196677
0.2993421003
0.04576503539
0.00363598801
0.001707798058
0.007215935973
0.02208423525
0.09309613596
0.04314097981
0.01595259462
0.009775353717
0.008395664293
0.01224499785
0.02137441064
0.03186817753
0.03966361457
0.03574518131
0.6362838189
0.07405420285
0.02180900633
0.01962333547
0.02201880518
0.02837640222
0.04056853713
0.05405907077
0.03994510988
0.09930098131
0.09004949863
5.847225783e-07
0.001160274239
0.001883703721
1.368848306e-07
2.927256583e-13
5.478513808e-05
0.01092258757
0.07181312623
0.07146727419
3.416307688e-05
1.247034377e-08
1.098091575e-08
7.113778987e-09
0.0003152054439
0.003250828043
0.0004515502279
0.7240180782
0.1810724166
0.02899012111
0.006551027032
0.02213546087
0.06550085909
0.1786383241
0.09504083296
0.0269287976
0.007467842982
0.003717918198
0.007895975901
0.01814077465
0.03038608181
0.04007421722
0.03766290924
0.6237274102
0.01186843031
0.0121126882
0.0163383382
0.02609807158
0.03809883834
0.02946950145
0.08626605686
0.09713316438
3.429773706e-07
0.001039081066
0.008608423003
1.174696523e-07
3.593130691e-15
3.657102291e-08
0.001305167967
0.03686960381
0.07242015478
1.399183754e-06
5.164858603e-13
1.449105164e-15
1.411344727e-08
0.002842315366
0.03931839565
0.1868112994
1.988908883
0.6880413853
0.2814012564
0.1103112378
0.08623571785
0.1822621154
0.2226383751
0.1487336889
0.06350303573
0.01838824593
0.005456818039
0.007861134778
0.0183381764
0.03147139207
0.0418387458
0.04021349367
0.5937245424
0.02808570667
0.01742382592
0.02805647657
0.08474325987
9.945419971e-08
0.0007813674604
0.02587945468
1.134354755e-07
1.175184985e-15
1.39345632e-15
1.111902979e-05
0.007770423102
0.06393179492
1.038625176e-07
6.836060365e-17
1.117722357e-15
1.200844158e-08
1.708402636e-05
6.171273197e-05
0.02766584951
0.6183856725
0.3568677769
0.4103295208
0.3167262357
0.2646017144
0.2927777709
0.2241149449
0.1790452091
0.11299234
0.05429366637
0.02004762224
0.01273564787
0.02125352912
0.03477961494
0.0454892387
0.04447566244
0.5543051685
0.002849561001
0.03089019902
3.624238576e-09
0.0003492059041
0.04329999484
7.897343901e-08
7.216342996e-17
3.692882692e-23
1.71035986e-10
0.0003111170027
0.02365712369
3.575557034e-09
4.481030549e-25
1.966161654e-15
1.088574375e-08
1.696159204e-05
5.29512635e-05
0.001549744289
0.2524441123
0.0500416809
0.01229398341
0.02432515391
0.07124822626
0.182883366
0.2070808779
0.1974766596
0.1591311452
0.1078373033
0.05966544823
0.03104335085
0.02951015436
0.04101552597
0.05160739001
0.05129626982
0.5231292966
0.008437926676
0.0002564993528
3.285829649e-05
0.02411012379
6.758776371e-09
8.594236544e-12
1.121699446e-14
1.055049767e-20
1.166337832e-08
0.001197422219
2.515275513e-14
1.092223745e-24
3.886458703e-15
1.068075075e-08
1.817709389e-05
4.956890608e-05
0.0001092275224
0.05688264232
0.002317694013
0.006611488916
0.05722552609
0.09426342587
0.09151487213
0.2062782831
0.2256846112
0.2209789725
0.1781134297
0.1240884318
0.07585469107
0.05181956124
0.05345485098
0.06066989133
0.06069370083
0.5251034267
0.04721485217
0.02084791026
0.00392376623
0.003051530348
0.0004158769454
0.0001234468433
2.208939856e-05
1.374929479e-06
2.906210096e-09
4.664003794e-08
8.65628153e-24
3.24362003e-24
8.005328275e-15
1.121050176e-08
2.080121612e-05
4.922835738e-05
9.312058242e-05
0.001599871761
0.0003635522014
0.03122809005
0.1099457988
0.1154557327
0.09849493157
0.2232640356
0.2602826524
0.354726899
0.2865721634
0.1997819647
0.1349510549
0.09044616859
0.08127749978
0.07207166857
0.07029371404
0.5845171865
0.03973532242
0.03975766277
0.03038875191
0.02070668221
0.01378160589
0.008279371573
0.003735204946
0.0006616663875
9.195402884e-06
2.401666844e-10
2.665414661e-19
1.549144903e-14
1.213750449e-08
2.529926166e-05
5.133402152e-05
8.533363742e-05
0.0001404217127
0.0002334493982
0.0008313768429
0.004940213836
0.01182785314
0.01361764199
0.1114111292
0.1545929622
0.4482664859
0.2354198358
0.06308266362
0.02780831859
0.04402561909
0.1567222173
0.07553817364
0.07010343314
0.6896815934
0.01244072562
0.01935279682
0.02887302665
0.04055358349
0.05322876967
0.06418516508
0.06589553297
0.0407311845
0.008821694193
0.0003620485252
5.502975801e-08
1.435501495e-12
1.605802963e-08
3.259015532e-05
5.499113345e-05
7.911175498e-05
0.0001178219436
0.0001864619498
0.001083776885
0.009040140384
0.0257913958
0.02631371458
0.1046643163
0.1401280806
0.3740897488
0.2729755985
0.1555624907
0.08055702098
0.04789857818
0.04715446907
0.0522729578
0.05029416753
0.6902609085
0.00857619333
0.01003316234
0.0122102714
0.01599074072
0.02301880313
0.03571193515
0.05577822657
0.07889389133
0.08111438908
0.03230779391
0.002057917921
8.460088561e-06
3.02180138e-08
4.454741399e-05
5.884968861e-05
7.117911293e-05
9.487502659e-05
0.0001459018112
0.001591994786
0.01426032933
0.05529789707
0.05355244754
0.1309540141
0.1524764805
0.3202293796
0.2734354025
0.2030540976
0.1462680609
0.093400134
0.05021357718
0.03226918914
0.02518727983
0.4279088745
0.01223695407
0.007732949055
0.006460608688
0.008483937476
0.0140220876
0.0246198543
0.04203416341
0.05292809841
0.02712060287
0.006064846423
0.002557268835
6.912945353e-05
6.540068176e-05
5.970727558e-05
5.843517293e-05
6.932694351e-05
0.0001089093741
0.001887587143
0.01639747675
0.104912041
0.1531545038
0.3091741654
0.2142913468
0.3696275254
0.3386808249
0.2637831411
0.2097517722
0.1694169614
0.1253427694
0.07668578374
0.04251511805
0.5390255253
0.001174735557
0.0099863262
0.02507813966
0.03013826829
0.02695802309
0.02132297779
0.01551141944
0.01051275369
0.006170136141
0.002817728054
0.0003929589174
8.352229791e-05
4.677801061e-05
3.651890994e-05
4.0340414e-05
7.040437515e-05
0.001515722737
0.01516937999
0.1633603201
0.1500503123
0.07253156077
0.02592596853
0.2054026736
0.2009215347
0.1552621905
0.1066712403
0.08148127304
0.07725878586
0.07595405988
0.06272059235
1.080926257
0.03796077863
0.05851407267
0.04387241754
0.02573973338
0.01366550399
0.006960603401
0.00342462187
0.001574068646
0.0006330417306
0.000202507922
4.119074744e-05
5.011406382e-07
2.048054873e-06
5.490401234e-06
1.195402444e-05
3.251162959e-05
0.001101649413
0.01207059638
0.2166249394
0.1884932954
0.05643948111
0.02241126658
0.4496650096
0.3944435305
0.2632758702
0.2473832307
0.3495907068
0.4933853939
0.6157923603
0.5821623505
3.023090516
0.03556332284
0.0211332898
0.008816099703
0.003383182648
0.001392390521
0.0006289349231
0.0002934378595
0.000131172185
5.403172367e-05
2.966322468e-05
3.490134659e-06
1.429341012e-07
6.244623198e-07
1.659154269e-06
3.68814333e-06
1.168160502e-05
0.0009130118321
0.008477699961
0.1886169613
0.2064450821
0.08696717533
0.02730237476
0.3731505027
0.3339351648
0.2059329793
0.1190433405
0.07955994492
0.06513019095
0.05936874012
0.04387471157
0.4690386233
1.550615762e-07
1.50168177e-07
1.487666299e-07
1.6505396e-07
0.0003485096718
4.436142751e-08
1.81003798e-07
9.418469433e-07
3.671953472e-06
1.380303398e-05
4.884429076e-05
0.0008598885917
0.005451503427
0.09758198519
0.1920826194
0.1398922432
0.05055996087
0.1882592779
0.1917097741
0.1498762409
0.1065341537
0.06533373004
0.03156437679
0.01377898725
0.008011504447
0.1933318129
3.22260751e-13
4.692225274e-13
2.888550316e-07
0.0004891926
0.01492446499
1.623877088e-07
3.123893043e-07
1.800548325e-06
8.104701562e-06
3.378231022e-05
0.0001199626081
0.0008817549625
0.003578527994
0.03364208131
0.1974091948
0.2696025289
0.2034862502
0.3017783317
0.3168769472
0.2620503468
0.2086404343
0.1626149627
0.1140517986
0.06137375438
0.02260099554
0.2509483585
)
;

boundaryField
{
    walls
    {
        type            zeroGradient;
    }
    wallFilmFace_top
    {
        type            zeroGradient;
    }
    region0_to_wallFilmRegion_wallFilmFace
    {
        type            zeroGradient;
    }
    mirrorFace_top
    {
        type            zeroGradient;
    }
    region0_to_wallFilmRegion_mirrorFace
    {
        type            zeroGradient;
    }
    procBoundary0to1
    {
        type            processor;
        value           nonuniform List<scalar> 
52
(
0.6688581506
0.07252549025
0.0742990347
0.07595092212
0.08162330291
0.08927186868
0.09457352887
0.09457352887
0.1176235119
0.09875848601
0.0740336868
0.05488550497
0.05488550497
0.03908030701
0.0287097337
0.0287097337
0.01895989127
0.01626543643
0.01505164937
0.02201913325
0.02201913325
0.1321001314
0.01752001688
0.01752001688
0.008791165174
0.006955037953
0.009610717982
0.0182335803
0.0182335803
0.02873573457
0.01636642897
0.01636642897
0.03179991784
0.03179991784
0.04400096196
0.0293675832
0.0293675832
0.007905433209
0.007610615134
0.02141398325
0.02141398325
1.620216094e-06
1.620216094e-06
0.00478164773
0.02006553781
5.951630473e-08
8.595904585e-08
9.674300547e-08
1.097213506e-07
1.390186363e-07
1.390186363e-07
2.481254961e-13
)
;
    }
    procBoundary0to2
    {
        type            processor;
        value           nonuniform List<scalar> 
26
(
2.954906263e-07
1.276283505e-06
0.001748997389
0.01285716378
0.04694980602
1.513333098e-05
3.240326078e-06
4.039493431e-06
1.543418191e-05
6.554288925e-05
0.0002232221076
0.0009561294103
0.002745876037
0.007728273242
0.01847346491
0.03616757882
0.046173091
0.2242610628
0.2173028636
0.1633856663
0.1056401367
0.05049097999
0.01612007675
0.006489513659
0.004420494478
0.5182536604
)
;
    }
}


// ************************************************************************* //
