/*--------------------------------*- C++ -*----------------------------------*\
  =========                 |
  \\      /  F ield         | OpenFOAM: The Open Source CFD Toolbox
   \\    /   O peration     | Website:  https://openfoam.org
    \\  /    A nd           | Version:  8
     \\/     M anipulation  |
\*---------------------------------------------------------------------------*/
FoamFile
{
    version     2.0;
    format      ascii;
    class       volScalarField;
    location    "0.4/wallFilmRegion";
    object      delta;
}
// * * * * * * * * * * * * * * * * * * * * * * * * * * * * * * * * * * * * * //

dimensions      [0 1 0 0 0 0 0];

internalField   nonuniform List<scalar> 
1369
(
0.003695096976
0.0005621128573
0.0008027872704
0.0008359072498
0.000808871448
0.0007535751343
0.0006957800243
0.0006477579156
0.0006258340394
0.000664762278
0.0008257525369
0.001160034198
0.001562394527
0.001687184776
0.00132602901
0.0008115821072
0.0005679508984
0.0004965428403
0.0004042118706
0.0004532780078
0.001302250182
0.0006285600744
0.0003956350385
0.0005634203752
0.001539101242
0.004301095448
0.002594166369
0.001245050405
0.0008881987457
0.0007809969478
0.0007945640628
0.001047229401
0.001000111698
0.001409728953
0.0007156622464
0.0005590030075
0.0007028785092
0.0009101153313
0.001038376906
0.001061070942
0.001042259387
0.001246568062
0.001753255071
0.001698047965
0.001454808241
0.001571202571
0.00151937732
0.001446436765
0.001365882789
0.001264330673
0.001148573154
0.001037474751
0.0009478719706
0.0008864343037
0.0008469731838
0.0008123513469
0.0007624081209
0.0006886547192
0.0005562954286
0.001988237194
0.0005823510055
0.0001147355854
0.0001331630779
0.0001166811394
9.35636932e-05
7.305689169e-05
5.756568699e-05
4.606632189e-05
3.82210367e-05
3.305553879e-05
3.003049102e-05
2.859052447e-05
2.922209374e-05
3.233844188e-05
3.120841835e-05
1.506140259e-05
3.121751589e-06
2.147026334e-06
3.154672241e-06
1.348986414e-05
4.398923255e-05
7.900753083e-05
0.000111224179
0.0001408460553
0.0001640310763
0.0001713698756
0.0001357926713
4.512639248e-05
2.01154405e-05
1.083579385e-05
1.12280262e-05
2.140678439e-05
2.381978762e-05
1.153664359e-05
9.981098148e-06
9.971398175e-06
1.173604079e-05
1.542768163e-05
1.91159959e-05
2.045827624e-05
2.067247372e-05
4.650423702e-05
0.0001691166709
0.0001443528427
7.823349924e-05
0.0002279789176
0.0001943315943
0.0001299251759
7.881377971e-05
4.793553928e-05
3.234996473e-05
2.491614138e-05
2.110699863e-05
1.924777305e-05
1.912988603e-05
2.097706678e-05
2.467080739e-05
2.91563671e-05
2.888524303e-05
0.0003894789626
0.0006305512035
0.0001215030148
0.000152069355
0.0001513074752
0.0001393000885
0.000120732711
0.0001003451872
8.191724935e-05
6.63867751e-05
5.367387373e-05
4.353667921e-05
3.53433152e-05
2.944796192e-05
2.729781541e-05
2.671382633e-05
1.616788324e-05
2.525238755e-06
2.15465633e-06
8.000474432e-06
3.623608645e-05
7.957149703e-05
0.0001073291389
0.0001255632185
0.0001345016109
0.0001309334949
0.0001200363113
0.0001009362026
7.663887186e-05
4.15298706e-05
1.025903787e-05
1.133900414e-05
2.590788387e-05
2.663721183e-05
7.634221076e-06
6.655019359e-06
7.1142867e-06
9.655686412e-06
1.435784446e-05
1.825262787e-05
1.956878018e-05
1.97129251e-05
4.135639549e-05
0.0001449292534
0.0001591087518
0.0001008487849
0.0002371855246
0.0002266416525
0.000180477939
0.0001289252544
8.219590991e-05
4.948080692e-05
3.192139668e-05
2.405134566e-05
2.12152209e-05
2.183058892e-05
2.591784369e-05
3.31647211e-05
4.169198694e-05
4.13428176e-05
0.0005380900085
0.0006427658705
0.0001204176972
0.0001600555888
0.0001715871054
0.0001707419059
0.0001598672579
0.0001406392665
0.0001169213392
9.232039e-05
7.007913297e-05
5.077795071e-05
3.58682364e-05
2.585939986e-05
2.251350552e-05
2.504376524e-05
2.035574961e-05
2.34792917e-06
3.374466241e-06
1.631445189e-05
6.015295227e-05
0.0001069750003
0.0001272760466
0.0001360757221
0.0001341552927
0.0001178617133
9.237143203e-05
6.940908562e-05
9.512281012e-05
9.656727625e-05
7.238392676e-06
9.39813443e-06
2.464602426e-05
2.249736131e-05
1.756149868e-06
2.144894921e-06
3.242478498e-06
6.231750076e-06
1.092194025e-05
1.278551668e-05
1.310138273e-05
1.301580023e-05
2.720505824e-05
0.0001138342417
0.0001503043356
0.0001127587555
0.0002455013745
0.0002504121525
0.0002174607321
0.0001744629361
0.0001222042911
7.268678038e-05
4.016131889e-05
2.521400678e-05
2.035678635e-05
2.119465561e-05
2.699333827e-05
3.723598292e-05
4.978755529e-05
5.094018026e-05
0.0006172549064
0.0006599359754
0.0001139164174
0.0001571954042
0.0001743759001
0.0001795347362
0.0001756876129
0.0001638526073
0.0001443540299
0.0001172988129
8.630099014e-05
5.856294986e-05
3.868131048e-05
2.73634838e-05
2.616702194e-05
3.634885277e-05
4.910009147e-05
1.877594068e-05
7.163227413e-06
2.727738168e-05
9.974193699e-05
0.0001518253397
0.0001452445904
0.0001409450657
0.0001324404593
0.0001085984771
7.615313005e-05
4.747806886e-05
8.872597859e-05
0.0001880559783
5.630678729e-06
9.642796392e-06
2.723510858e-05
2.162956674e-05
2.432180879e-07
5.065479636e-07
2.674471546e-06
7.284627017e-06
1.306378144e-05
1.138582337e-05
1.073245679e-05
1.052581361e-05
3.224103672e-05
0.0001252664524
0.0001384227912
0.0001198789475
0.0002395663361
0.0002574402484
0.0002375617679
0.0002073486119
0.0001603518076
0.0001021504648
5.536507127e-05
3.126696569e-05
2.315419914e-05
2.366348186e-05
3.05484418e-05
4.256831954e-05
5.765181626e-05
6.126258033e-05
0.0006950198755
0.0006753341216
0.0001041207487
0.0001431393628
0.0001566381976
0.000159170726
0.0001551370543
0.0001462789214
0.0001330032482
0.0001133753304
8.659923545e-05
6.064054336e-05
4.187223503e-05
3.241317209e-05
3.294679174e-05
4.387195557e-05
7.082330367e-05
0.0001214146933
2.807404321e-05
5.041905132e-05
0.0001866838367
0.0002039460457
0.0001495859458
0.0001356652283
0.0001250979252
9.883261028e-05
6.489496618e-05
3.469389122e-05
5.948996511e-05
0.0002117729227
1.941275207e-05
1.642944225e-05
3.30952599e-05
2.895550072e-05
9.13249331e-08
1.860715776e-06
6.67247813e-06
1.453378949e-05
2.031322003e-05
1.231984775e-05
1.094017815e-05
1.058111953e-05
4.27804405e-05
8.548154453e-05
9.430689073e-05
9.281192622e-05
0.0001862703706
0.0002067710069
0.0002035286301
0.0001845845235
0.0001480156913
9.985196174e-05
5.843142683e-05
3.556035211e-05
2.737511049e-05
2.778781931e-05
3.443938228e-05
4.571494413e-05
6.008706723e-05
6.575394756e-05
0.0007382593896
0.0006935521713
9.646680202e-05
0.0001266925893
0.0001304450029
0.0001241544964
0.0001139763042
0.0001035168121
9.313334168e-05
8.147469492e-05
6.840138943e-05
5.535397873e-05
4.520972154e-05
4.056863852e-05
4.071882946e-05
4.132962538e-05
3.870671568e-05
3.878182508e-05
0.0001053999602
0.0001813361083
0.0003233883606
0.0002349789445
0.0001324011525
0.000114975964
0.0001076218256
8.577278268e-05
5.561041966e-05
2.539613045e-05
3.225854295e-05
0.0001086254035
0.0003534609194
6.592955185e-05
4.876226954e-05
4.958674589e-05
5.225613799e-05
1.509954409e-05
1.73684406e-05
3.242618912e-05
2.628235439e-05
1.568290088e-05
1.195928891e-05
7.103985641e-06
4.129952375e-06
4.677898525e-06
8.948806782e-06
1.888641787e-05
9.525506131e-05
9.723837124e-05
7.871226538e-05
6.112630864e-05
4.914913763e-05
4.109616567e-05
3.547343312e-05
3.19610837e-05
3.064320212e-05
3.230213792e-05
3.751064785e-05
4.556514291e-05
5.587200682e-05
6.109492954e-05
0.0007315965904
0.0007154480907
9.456773751e-05
0.0001164751555
0.0001106858349
9.610938612e-05
8.125146222e-05
6.969743525e-05
6.151608708e-05
5.589660971e-05
5.211001984e-05
4.988523593e-05
4.917875702e-05
4.941771725e-05
4.812528053e-05
4.113760259e-05
2.732126174e-05
1.18607854e-05
9.019874449e-06
6.613554424e-05
0.0002505660876
0.000213753593
8.998684875e-05
7.77836056e-05
7.792034886e-05
6.750734576e-05
4.624557309e-05
1.585962539e-05
1.621247491e-05
3.001940733e-05
0.0002014128331
0.0007004586378
0.0002091187363
6.304857185e-05
5.094328174e-05
2.991094919e-05
5.311943974e-05
5.453954981e-05
2.629398374e-05
1.63332876e-05
1.115548559e-05
6.215675103e-06
2.324710601e-06
2.210600613e-06
5.411557539e-06
1.159857879e-05
0.0001426244962
0.0001474996788
8.346934406e-05
4.882200716e-05
3.810551572e-05
3.457996912e-05
3.32385182e-05
3.316937096e-05
3.416260334e-05
3.62010199e-05
3.934146444e-05
4.323640845e-05
4.803695788e-05
5.011054232e-05
0.0006881308905
0.0007337935524
9.70558785e-05
0.0001127670685
0.0001010986568
8.368140447e-05
6.908937961e-05
5.844006598e-05
5.163582276e-05
4.83856052e-05
4.831744818e-05
5.07344156e-05
5.41667553e-05
5.58413324e-05
5.215570357e-05
4.09145394e-05
2.429471533e-05
8.893526767e-06
5.899170532e-06
5.046256877e-05
0.0002350682265
0.0001615679101
3.89892916e-05
3.558601285e-05
4.144471708e-05
4.400325683e-05
3.621856873e-05
6.206985732e-06
7.410085252e-06
1.119594167e-05
1.48949071e-05
2.384142195e-05
3.445052456e-05
3.615838256e-05
4.085783069e-05
6.302825889e-05
0.0001432891302
6.298476266e-05
2.202802201e-05
1.422899552e-05
9.39490959e-06
5.013216795e-06
1.667160233e-06
1.321676313e-06
4.308048042e-06
9.080283722e-06
0.0001815861606
0.0001083227769
4.634294677e-05
3.080120427e-05
2.827567694e-05
2.873036888e-05
3.014780703e-05
3.239183771e-05
3.521878062e-05
3.795133819e-05
3.993879695e-05
4.07697492e-05
4.101040821e-05
3.913241005e-05
0.0006380090967
0.0007369374165
9.90619237e-05
0.0001097341375
9.651964123e-05
8.138152223e-05
6.955981963e-05
6.075135457e-05
5.500683704e-05
5.23640601e-05
5.2684818e-05
5.514956748e-05
5.778456311e-05
5.741895097e-05
5.098459325e-05
3.778291797e-05
2.128073494e-05
7.612742265e-06
8.849101843e-06
4.430655305e-05
0.0001765628353
0.0002279089209
8.148947078e-06
6.641955101e-06
1.110014909e-05
1.849859283e-05
2.506796125e-05
7.069228473e-06
7.962353121e-06
1.098181322e-05
6.960777172e-06
3.029248487e-06
1.591307801e-06
3.261938578e-06
2.656080306e-05
7.315833797e-05
9.212614341e-05
3.643530753e-05
1.644748669e-05
1.133136617e-05
7.414389181e-06
3.905455661e-06
1.25653555e-06
1.067808655e-06
3.662904473e-06
7.450688156e-06
2.139768606e-05
2.294991021e-05
2.149667417e-05
2.183896528e-05
2.329252042e-05
2.505951381e-05
2.725897039e-05
3.024796555e-05
3.392554219e-05
3.750441173e-05
3.979171925e-05
3.959526285e-05
3.729565193e-05
3.226414754e-05
0.0006052901767
0.0007194206004
9.54857209e-05
0.0001013041875
9.069935719e-05
8.107534902e-05
7.407310712e-05
6.843720799e-05
6.38869165e-05
6.048897655e-05
5.865507014e-05
5.806448179e-05
5.726895349e-05
5.387890128e-05
4.581811832e-05
3.296935869e-05
1.830921011e-05
6.527477745e-06
1.23755617e-05
3.756382929e-05
9.303092424e-05
0.0004479626841
1.496086116e-06
1.218116071e-07
1.152820795e-06
7.417389712e-06
1.792699547e-05
1.958285218e-05
2.217968912e-05
5.508184869e-06
2.389836951e-06
8.238129308e-09
2.479748099e-06
1.498396358e-05
3.549684776e-05
4.3993085e-05
3.979320288e-05
2.16305586e-05
1.19045654e-05
8.317501378e-06
5.469250422e-06
2.923995629e-06
9.554863922e-07
8.863117278e-07
3.048619544e-06
6.04356125e-06
9.435588531e-06
1.264435093e-05
1.545372703e-05
1.783909328e-05
1.987227964e-05
2.172562418e-05
2.385964602e-05
2.677562281e-05
3.063077687e-05
3.514340342e-05
3.905569496e-05
3.983883427e-05
3.690683611e-05
2.968531182e-05
0.0005960360354
0.00069062588
8.559488575e-05
8.785681758e-05
8.313182149e-05
8.082714478e-05
8.039661859e-05
7.927353006e-05
7.583759229e-05
6.970366703e-05
6.319224368e-05
5.76720166e-05
5.281151434e-05
4.710972909e-05
3.895419106e-05
2.796902553e-05
1.587389588e-05
5.751345598e-06
1.213741612e-05
3.113441873e-05
5.668845152e-05
0.0002984761585
1.278646278e-05
1.259944765e-05
5.942361302e-06
0.0002914370992
2.93813709e-05
3.477893e-05
6.586911784e-06
1.112257585e-06
1.73164987e-06
8.611902679e-10
2.695278175e-06
2.956696925e-05
4.814766637e-05
4.42530999e-05
3.668997838e-05
1.536837655e-05
7.626210154e-06
5.274084063e-06
3.532170807e-06
1.983205547e-06
7.091428358e-07
6.846785316e-07
4.065873529e-06
4.467153003e-06
6.893307223e-06
9.367343235e-06
1.178141038e-05
1.414337254e-05
1.640877549e-05
1.802745204e-05
1.976799154e-05
2.22192275e-05
2.581279283e-05
3.126232583e-05
3.753395771e-05
4.04942491e-05
3.842091091e-05
2.99483133e-05
0.0006037725293
9.249865046e-05
8.102794619e-05
6.718665997e-05
5.561109978e-05
4.682309625e-05
3.974657822e-05
3.245852169e-05
2.381597762e-05
1.428269517e-05
5.726513093e-06
1.144708107e-05
2.598930361e-05
4.09830623e-05
9.543691201e-05
0.0002053966524
9.011922891e-05
3.080742283e-05
3.654523203e-05
4.2674351e-05
4.938028332e-05
4.438136211e-08
1.142431322e-06
1.06969811e-06
7.099268948e-11
6.775097918e-08
1.095981637e-05
4.325996235e-05
3.669435332e-05
2.861487313e-05
8.985266846e-06
3.838823412e-06
2.620120569e-06
1.808623403e-06
1.104297328e-06
4.665026372e-07
4.692729327e-07
2.579272148e-05
3.814006357e-06
4.352624023e-06
6.056754602e-06
8.29302355e-06
1.121035429e-05
1.57477209e-05
1.571184513e-05
1.614779289e-05
1.756888123e-05
2.031372249e-05
2.620405857e-05
3.42267686e-05
3.951920717e-05
3.985214813e-05
3.164407124e-05
0.0006188659357
4.176621151e-05
3.350603137e-05
2.725029276e-05
2.077595237e-05
1.357683057e-05
6.905336412e-06
1.623611218e-05
2.417684069e-05
3.38313538e-05
4.590163335e-05
0.0001328853854
0.0001269257878
8.77126563e-05
5.078304433e-05
5.884200873e-05
6.46221239e-05
9.000041758e-10
1.169976748e-06
5.652298555e-07
9.612692792e-11
6.906133884e-11
1.420869995e-06
2.635814141e-05
4.510238826e-05
3.16847805e-05
3.858081707e-06
1.343649938e-06
9.057243597e-07
6.623992617e-07
4.756891663e-07
2.868761964e-07
2.697967262e-07
0.0001135552207
1.008087071e-05
2.516463187e-06
3.327956351e-06
6.088619166e-06
1.15615022e-05
3.146818071e-05
1.986412181e-05
1.441782e-05
1.351669169e-05
1.454573132e-05
1.958131686e-05
2.799586502e-05
3.579452719e-05
3.999527232e-05
3.374717975e-05
0.0006324679438
2.309332713e-05
1.849675054e-05
1.377443443e-05
1.108004409e-05
3.402352587e-05
2.372040139e-05
2.746530179e-05
3.318678828e-05
4.528648614e-05
6.254607863e-05
7.330466526e-05
5.469103022e-05
8.108094643e-05
7.893831282e-05
7.0173551e-10
1.173392295e-06
4.892118847e-07
1.301135663e-10
1.34731917e-11
8.902855284e-07
2.436968362e-05
6.852230258e-05
5.125749065e-05
8.731695902e-07
2.480772271e-07
1.682504178e-07
1.42572672e-07
1.706690137e-07
3.813958477e-07
1.203196677e-07
0.0002993421003
4.576503539e-05
3.63598801e-06
1.707798058e-06
7.215935973e-06
2.208423525e-05
9.309613596e-05
4.314097981e-05
1.595259462e-05
9.775353717e-06
8.395664293e-06
1.224499785e-05
2.137441064e-05
3.186817753e-05
3.966361457e-05
3.574518131e-05
0.0006362838189
7.405420285e-05
2.180900633e-05
1.962333547e-05
2.201880518e-05
2.837640222e-05
4.056853713e-05
5.405907077e-05
3.994510988e-05
9.930098131e-05
9.004949863e-05
5.847225783e-10
1.160274239e-06
1.883703721e-06
1.368848306e-10
2.927256583e-16
5.478513808e-08
1.092258757e-05
7.181312623e-05
7.146727419e-05
3.416307688e-08
1.247034377e-11
1.098091575e-11
7.113778987e-12
3.152054439e-07
3.250828043e-06
4.515502279e-07
0.0007240180782
0.0001810724166
2.899012111e-05
6.551027032e-06
2.213546087e-05
6.550085909e-05
0.0001786383241
9.504083296e-05
2.69287976e-05
7.467842982e-06
3.717918198e-06
7.895975901e-06
1.814077465e-05
3.038608181e-05
4.007421722e-05
3.766290924e-05
0.0006237274102
1.186843031e-05
1.21126882e-05
1.63383382e-05
2.609807158e-05
3.809883834e-05
2.946950145e-05
8.626605686e-05
9.713316438e-05
3.429773706e-10
1.039081066e-06
8.608423003e-06
1.174696523e-10
3.593130691e-18
3.657102291e-11
1.305167967e-06
3.686960381e-05
7.242015478e-05
1.399183754e-09
5.164858603e-16
1.449105164e-18
1.411344727e-11
2.842315366e-06
3.931839565e-05
0.0001868112994
0.001988908883
0.0006880413853
0.0002814012564
0.0001103112378
8.623571785e-05
0.0001822621154
0.0002226383751
0.0001487336889
6.350303573e-05
1.838824593e-05
5.456818039e-06
7.861134778e-06
1.83381764e-05
3.147139207e-05
4.18387458e-05
4.021349367e-05
0.0005937245424
2.808570667e-05
1.742382592e-05
2.805647657e-05
8.474325987e-05
9.945419971e-11
7.813674604e-07
2.587945468e-05
1.134354755e-10
1.175184985e-18
1.39345632e-18
1.111902979e-08
7.770423102e-06
6.393179492e-05
1.038625176e-10
6.836060365e-20
1.117722357e-18
1.200844158e-11
1.708402636e-08
6.171273197e-08
2.766584951e-05
0.0006183856725
0.0003568677769
0.0004103295208
0.0003167262357
0.0002646017144
0.0002927777709
0.0002241149449
0.0001790452091
0.00011299234
5.429366637e-05
2.004762224e-05
1.273564787e-05
2.125352912e-05
3.477961494e-05
4.54892387e-05
4.447566244e-05
0.0005543051685
2.849561001e-06
3.089019902e-05
3.624238576e-12
3.492059041e-07
4.329999484e-05
7.897343901e-11
7.216342996e-20
3.692882692e-26
1.71035986e-13
3.111170027e-07
2.365712369e-05
3.575557034e-12
4.481030549e-28
1.966161654e-18
1.088574375e-11
1.696159204e-08
5.29512635e-08
1.549744289e-06
0.0002524441123
5.00416809e-05
1.229398341e-05
2.432515391e-05
7.124822626e-05
0.000182883366
0.0002070808779
0.0001974766596
0.0001591311452
0.0001078373033
5.966544823e-05
3.104335085e-05
2.951015436e-05
4.101552597e-05
5.160739001e-05
5.129626982e-05
0.0005231292966
8.437926676e-06
2.564993528e-07
3.285829649e-08
2.411012379e-05
6.758776371e-12
8.594236544e-15
1.121699446e-17
1.055049767e-23
1.166337832e-11
1.197422219e-06
2.515275513e-17
1.092223745e-27
3.886458703e-18
1.068075075e-11
1.817709389e-08
4.956890608e-08
1.092275224e-07
5.688264232e-05
2.317694013e-06
6.611488916e-06
5.722552609e-05
9.426342587e-05
9.151487213e-05
0.0002062782831
0.0002256846112
0.0002209789725
0.0001781134297
0.0001240884318
7.585469107e-05
5.181956124e-05
5.345485098e-05
6.066989133e-05
6.069370083e-05
0.0005251034267
4.721485217e-05
2.084791026e-05
3.92376623e-06
3.051530348e-06
4.158769454e-07
1.234468433e-07
2.208939856e-08
1.374929479e-09
2.906210096e-12
4.664003794e-11
8.65628153e-27
3.24362003e-27
8.005328275e-18
1.121050176e-11
2.080121612e-08
4.922835738e-08
9.312058242e-08
1.599871761e-06
3.635522014e-07
3.122809005e-05
0.0001099457988
0.0001154557327
9.849493157e-05
0.0002232640356
0.0002602826524
0.000354726899
0.0002865721634
0.0001997819647
0.0001349510549
9.044616859e-05
8.127749978e-05
7.207166857e-05
7.029371404e-05
0.0005845171865
3.973532242e-05
3.975766277e-05
3.038875191e-05
2.070668221e-05
1.378160589e-05
8.279371573e-06
3.735204946e-06
6.616663875e-07
9.195402884e-09
2.401666844e-13
2.665414661e-22
1.549144903e-17
1.213750449e-11
2.529926166e-08
5.133402152e-08
8.533363742e-08
1.404217127e-07
2.334493982e-07
8.313768429e-07
4.940213836e-06
1.182785314e-05
1.361764199e-05
0.0001114111292
0.0001545929622
0.0004482664859
0.0002354198358
6.308266362e-05
2.780831859e-05
4.402561909e-05
0.0001567222173
7.553817364e-05
7.010343314e-05
0.0006896815934
1.244072562e-05
1.935279682e-05
2.887302665e-05
4.055358349e-05
5.322876967e-05
6.418516508e-05
6.589553297e-05
4.07311845e-05
8.821694193e-06
3.620485252e-07
5.502975801e-11
1.435501495e-15
1.605802963e-11
3.259015532e-08
5.499113345e-08
7.911175498e-08
1.178219436e-07
1.864619498e-07
1.083776885e-06
9.040140384e-06
2.57913958e-05
2.631371458e-05
0.0001046643163
0.0001401280806
0.0003740897488
0.0002729755985
0.0001555624907
8.055702098e-05
4.789857818e-05
4.715446907e-05
5.22729578e-05
5.029416753e-05
0.0006902609085
8.57619333e-06
1.003316234e-05
1.22102714e-05
1.599074072e-05
2.301880313e-05
3.571193515e-05
5.577822657e-05
7.889389133e-05
8.111438908e-05
3.230779391e-05
2.057917921e-06
8.460088561e-09
3.02180138e-11
4.454741399e-08
5.884968861e-08
7.117911293e-08
9.487502659e-08
1.459018112e-07
1.591994786e-06
1.426032933e-05
5.529789707e-05
5.355244754e-05
0.0001309540141
0.0001524764805
0.0003202293796
0.0002734354025
0.0002030540976
0.0001462680609
9.3400134e-05
5.021357718e-05
3.226918914e-05
2.518727983e-05
0.0004279088745
1.223695407e-05
7.732949055e-06
6.460608688e-06
8.483937476e-06
1.40220876e-05
2.46198543e-05
4.203416341e-05
5.292809841e-05
2.712060287e-05
6.064846423e-06
2.557268835e-06
6.912945353e-08
6.540068176e-08
5.970727558e-08
5.843517293e-08
6.932694351e-08
1.089093741e-07
1.887587143e-06
1.639747675e-05
0.000104912041
0.0001531545038
0.0003091741654
0.0002142913468
0.0003696275254
0.0003386808249
0.0002637831411
0.0002097517722
0.0001694169614
0.0001253427694
7.668578374e-05
4.251511805e-05
0.0005390255253
1.174735557e-06
9.9863262e-06
2.507813966e-05
3.013826829e-05
2.695802309e-05
2.132297779e-05
1.551141944e-05
1.051275369e-05
6.170136141e-06
2.817728054e-06
3.929589174e-07
8.352229791e-08
4.677801061e-08
3.651890994e-08
4.0340414e-08
7.040437515e-08
1.515722737e-06
1.516937999e-05
0.0001633603201
0.0001500503123
7.253156077e-05
2.592596853e-05
0.0002054026736
0.0002009215347
0.0001552621905
0.0001066712403
8.148127304e-05
7.725878586e-05
7.595405988e-05
6.272059235e-05
0.001080926257
3.796077863e-05
5.851407267e-05
4.387241754e-05
2.573973338e-05
1.366550399e-05
6.960603401e-06
3.42462187e-06
1.574068646e-06
6.330417306e-07
2.02507922e-07
4.119074744e-08
5.011406382e-10
2.048054873e-09
5.490401234e-09
1.195402444e-08
3.251162959e-08
1.101649413e-06
1.207059638e-05
0.0002166249394
0.0001884932954
5.643948111e-05
2.241126658e-05
0.0004496650096
0.0003944435305
0.0002632758702
0.0002473832307
0.0003495907068
0.0004933853939
0.0006157923603
0.0005821623505
0.003023090516
3.556332284e-05
2.11332898e-05
8.816099703e-06
3.383182648e-06
1.392390521e-06
6.289349231e-07
2.934378595e-07
1.31172185e-07
5.403172367e-08
2.966322468e-08
3.490134659e-09
1.429341012e-10
6.244623198e-10
1.659154269e-09
3.68814333e-09
1.168160502e-08
9.130118321e-07
8.477699961e-06
0.0001886169613
0.0002064450821
8.696717533e-05
2.730237476e-05
0.0003731505027
0.0003339351648
0.0002059329793
0.0001190433405
7.955994492e-05
6.513019095e-05
5.936874012e-05
4.387471157e-05
0.0004690386233
1.550615762e-10
1.50168177e-10
1.487666299e-10
1.6505396e-10
3.485096718e-07
4.436142751e-11
1.81003798e-10
9.418469433e-10
3.671953472e-09
1.380303398e-08
4.884429076e-08
8.598885917e-07
5.451503427e-06
9.758198519e-05
0.0001920826194
0.0001398922432
5.055996087e-05
0.0001882592779
0.0001917097741
0.0001498762409
0.0001065341537
6.533373004e-05
3.156437679e-05
1.377898725e-05
8.011504447e-06
0.0001933318129
3.22260751e-16
4.692225274e-16
2.888550316e-10
4.891926e-07
1.492446499e-05
1.623877088e-10
3.123893043e-10
1.800548325e-09
8.104701562e-09
3.378231022e-08
1.199626081e-07
8.817549625e-07
3.578527994e-06
3.364208131e-05
0.0001974091948
0.0002696025289
0.0002034862502
0.0003017783317
0.0003168769472
0.0002620503468
0.0002086404343
0.0001626149627
0.0001140517986
6.137375438e-05
2.260099554e-05
0.0002509483585
)
;

boundaryField
{
    walls
    {
        type            zeroGradient;
    }
    wallFilmFace_top
    {
        type            zeroGradient;
    }
    region0_to_wallFilmRegion_wallFilmFace
    {
        type            zeroGradient;
    }
    mirrorFace_top
    {
        type            zeroGradient;
    }
    region0_to_wallFilmRegion_mirrorFace
    {
        type            zeroGradient;
    }
    procBoundary0to1
    {
        type            processor;
        value           nonuniform List<scalar> 
52
(
0.0006688581506
7.252549025e-05
7.42990347e-05
7.595092212e-05
8.162330291e-05
8.927186868e-05
9.457352887e-05
9.457352887e-05
0.0001176235119
9.875848601e-05
7.40336868e-05
5.488550497e-05
5.488550497e-05
3.908030701e-05
2.87097337e-05
2.87097337e-05
1.895989127e-05
1.626543643e-05
1.505164937e-05
2.201913325e-05
2.201913325e-05
0.0001321001314
1.752001688e-05
1.752001688e-05
8.791165174e-06
6.955037953e-06
9.610717982e-06
1.82335803e-05
1.82335803e-05
2.873573457e-05
1.636642897e-05
1.636642897e-05
3.179991784e-05
3.179991784e-05
4.400096196e-05
2.93675832e-05
2.93675832e-05
7.905433209e-06
7.610615134e-06
2.141398325e-05
2.141398325e-05
1.620216094e-09
1.620216094e-09
4.78164773e-06
2.006553781e-05
5.951630473e-11
8.595904585e-11
9.674300547e-11
1.097213506e-10
1.390186363e-10
1.390186363e-10
2.481254961e-16
)
;
    }
    procBoundary0to2
    {
        type            processor;
        value           nonuniform List<scalar> 
26
(
2.954906263e-10
1.276283505e-09
1.748997389e-06
1.285716378e-05
4.694980602e-05
1.513333098e-08
3.240326078e-09
4.039493431e-09
1.543418191e-08
6.554288925e-08
2.232221076e-07
9.561294103e-07
2.745876037e-06
7.728273242e-06
1.847346491e-05
3.616757882e-05
4.6173091e-05
0.0002242610628
0.0002173028636
0.0001633856663
0.0001056401367
5.049097999e-05
1.612007675e-05
6.489513659e-06
4.420494478e-06
0.0005182536604
)
;
    }
}


// ************************************************************************* //
