/*--------------------------------*- C++ -*----------------------------------*\
  =========                 |
  \\      /  F ield         | OpenFOAM: The Open Source CFD Toolbox
   \\    /   O peration     | Website:  https://openfoam.org
    \\  /    A nd           | Version:  8
     \\/     M anipulation  |
\*---------------------------------------------------------------------------*/
FoamFile
{
    version     2.0;
    format      ascii;
    class       surfaceScalarField;
    location    "0.4/wallFilmRegion";
    object      phi;
}
// * * * * * * * * * * * * * * * * * * * * * * * * * * * * * * * * * * * * * //

dimensions      [1 0 -1 0 0 0 0];

internalField   nonuniform List<scalar> 
2648
(
-0.005429574404
-0.005413286834
-0.006935040054
-0.001112563745
-0.007554607894
-0.001312698705
-0.007312636778
-0.001171557031
-0.006630384912
-0.0009519791943
-0.005834490062
-0.0007549810699
-0.005084388226
-0.0006090301161
-0.004512246254
-0.0004970741839
-0.004321045188
-0.0004219107111
-0.004836516196
-0.0003722410787
-0.006368053528
-0.0003434504926
-0.008540604225
-0.0003287098869
-0.009541980097
-0.0003345174849
-0.007792707412
-0.0003697988118
-0.004760296867
-0.0003548446484
-0.002955721259
-0.0001638476188
-0.002029885544
-3.401052033e-05
-0.001153190587
-2.441638156e-05
-0.0004201048882
-3.607290547e-05
8.547956485e-05
-0.0001633886575
-0.0001879911074
-0.0005747529396
-0.0003849580151
-0.001129199616
-0.0007550189974
-0.001534216697
-0.001798835917
-0.00200141909
-0.006602687108
-0.002322432062
-0.007704128327
-0.002315766271
-0.005161188314
-0.001899816186
-0.003734909439
-0.0004965878815
-0.002725729854
-0.0002314140829
-0.001933842957
-0.0001373028814
-0.001221331225
-0.0001479431907
-0.0001013804686
-0.0002752137427
0.0006024681426
-0.0002808751838
0.001716420412
-0.0001333115149
0.001489122976
-0.0001230437694
0.001709545323
-0.0001248318456
0.002602362221
-0.0001464089377
0.003718265772
-0.0001891719015
0.004587229893
-0.0002307762377
0.005098023557
-0.0002434312525
0.005538158618
-0.0002400345541
0.006647755966
-0.0005115241758
0.008627381302
-0.001771999258
0.008273928553
-0.001557995586
0.007556683494
-0.0008812405185
0.009028962799
-0.003888271361
0.009606611629
-0.00318876703
0.009839402483
-0.00196099466
0.009914755924
-0.001081770284
0.009779742607
-0.0006094246441
0.009445636852
-0.0003974663282
0.009012753806
-0.0003053102274
0.008588823899
-0.000260490479
0.008211898267
-0.0002396969802
0.007816327122
-0.0002402713485
0.007263111295
-0.0002646245077
0.006447241558
-0.0003093614454
0.005397067737
-0.0003571459472
0.004305091192
-0.0003392760608
-0.002996471152
-0.001269076292
-0.005578666893
-0.001359711739
-0.001157404264
-0.001244000587
-0.001426630139
-0.001013979622
-0.001371901751
-0.0007781754759
-0.001193036511
-0.0005878778797
-0.000980060017
-0.0004412062638
-0.000791422342
-0.0003376978444
-0.0006262912109
-0.0002636107895
-0.0005068323814
-0.0002112992544
-0.0004167313725
-0.0001721800667
-0.0003528346554
-0.000146046275
-0.0003017398749
-0.0001351038946
-0.0002644020422
-0.0001239072019
-0.0002526321075
-7.131359226e-05
-0.0002328142721
-1.863862412e-05
-0.0001130482873
-1.22224892e-05
-1.634748114e-05
-1.311906946e-05
-1.571420546e-05
-2.685242394e-05
-5.7067931e-05
-0.0001009909633
-0.0003360152532
-0.0003831597282
-0.0007965787501
-0.000615649691
-0.001253617843
-0.0007456082054
-0.001616401064
-0.0007882172449
-0.001865104083
-0.0007015992449
-0.001913258734
-0.0004658111252
-0.001776196677
-0.0001450144164
-0.001539886069
-7.331200916e-05
-0.0006629511687
-4.280340492e-05
-0.0003295350554
-3.273021821e-05
-9.956491377e-05
-2.046390452e-05
-0.0001108733907
-3.323906403e-06
-0.0002212783586
2.734142125e-05
-0.0002205176105
4.182956919e-05
-6.613124597e-05
5.488734528e-05
-6.497732573e-05
6.958563977e-05
-7.06249869e-05
9.134158132e-05
-9.358901162e-05
0.0001210056128
-0.0001339514517
0.0001431830098
-0.0001666778208
0.0001463694308
-0.0001762869573
0.0001469349984
-0.0001739152296
0.00025499294
-0.0003560877862
0.0004545015074
-0.001331414755
0.000165076376
-0.001582527137
0.0002258703235
-0.001011360169
0.001381236664
-0.004356923254
0.001504266208
-0.003860666082
0.00113094278
-0.002672930684
0.000702719552
-0.001595311527
0.0004261600546
-0.0008665880556
0.0003002032568
-0.0004771500202
0.0002527538193
-0.000303306509
0.0002354512529
-0.0002311390158
0.0002306395404
-0.0002051589566
0.0002360705942
-0.0002102484565
0.0002538016275
-0.000247603407
0.0002819712706
-0.0003157275758
0.0003109201635
-0.0003969898869
0.0003199685986
-0.0003922539868
-0.003589581642
-0.001364477439
-0.00570387963
-0.001552348533
-0.001179378056
-0.001586396094
-0.001545130181
-0.001478778088
-0.001608546705
-0.001276350624
-0.001524138452
-0.001027840522
-0.001350601559
-0.0007963015579
-0.001127256995
-0.0006047196363
-0.0008911151321
-0.0004493141935
-0.0006969954562
-0.0003283983745
-0.0005315471196
-0.000233185072
-0.0004011700761
-0.0001644105849
-0.0003017220784
-0.0001255726155
-0.0002343717828
-0.0001081267793
-0.0002093365849
-7.10811042e-05
-0.0001997549191
-1.458294125e-05
-0.0001058924484
-1.243598278e-05
-3.615324414e-06
-3.38474327e-05
-4.902843522e-06
-0.000149904767
-8.340906559e-05
-0.0004367061246
-0.0005299410498
-0.0006950705563
-0.001066648499
-0.0008174303389
-0.001426646101
-0.0008283134478
-0.001659583586
-0.0007162957263
-0.001736663606
-0.0005295314994
-0.001617021996
-0.0003133491094
-0.001360589105
-0.0001213005453
-0.001068446596
-4.168761466e-05
-0.000874827751
-2.704154663e-05
-0.000709284471
-3.396260379e-05
-6.667899548e-05
-3.334930302e-05
-8.458119068e-05
-3.013476227e-05
-0.000180938192
1.193064528e-05
-0.0001701674811
2.825075583e-05
-1.681000648e-05
3.852154093e-05
-2.099872497e-05
5.209964221e-05
-3.15865918e-05
7.62368817e-05
-5.979910342e-05
0.0001100449789
-0.0001004193962
0.0001317237766
-0.0001163474001
0.0001350779644
-0.0001180880134
0.0001358868715
-0.0001152548378
0.0002125204039
-0.0002355599307
0.0002276186264
-0.001111880173
-0.0001057113002
-0.001569376542
0.0001611278427
-0.001166795917
0.001526489684
-0.004002737548
0.001984862882
-0.003832589814
0.001837257059
-0.003004014717
0.001355846793
-0.002114343898
0.0008295510303
-0.001306419544
0.000481196497
-0.0007140009469
0.000322617482
-0.0003820487028
0.0002645277236
-0.0002403150588
0.0002485110538
-0.000194222553
0.0002575497813
-0.0002005062457
0.0002918025113
-0.0002541525833
0.0003476732267
-0.0003539645237
0.0004089744205
-0.0004808029674
0.0004464770527
-0.0004968223748
-0.00451681494
-0.001368004916
-0.005710945342
-0.001621140746
-0.001151954369
-0.001772639728
-0.001574056767
-0.001776283213
-0.001715355331
-0.001647395113
-0.001712316291
-0.001421104306
-0.001601917869
-0.001154891419
-0.001406430983
-0.0008732532867
-0.00116659665
-0.0006211771019
-0.0009071901269
-0.0004143136517
-0.0006644081857
-0.0002612334218
-0.0004587997332
-0.0001631812336
-0.0003156250258
-0.0001181600172
-0.0002372948901
-0.0001097630244
-0.0002317492246
-8.44617356e-05
-0.0002697290709
-1.263807972e-05
-0.0001962512392
-1.943525831e-05
7.017340956e-06
-8.292131952e-05
1.561481316e-05
-0.0003312725656
-8.173510594e-05
-0.0007018964952
-0.0007478706207
-0.0009404926642
-0.001389407999
-0.0009983821879
-0.001553344407
-0.0009189368238
-0.001611343836
-0.0007119519459
-0.0015771312
-0.000447842697
-0.001357904231
-0.0002057657576
-0.001020859648
-1.497600419e-05
-0.0006872608478
0.0001431002722
-0.0008656289008
-1.018250116e-05
-0.001345500062
-3.057103243e-05
-4.220870836e-05
-5.072337129e-05
-6.603577044e-05
-6.128316388e-05
-0.0001461096241
-5.620204365e-07
-0.0001410342142
7.319059408e-06
-2.184276326e-06
1.386335778e-05
-4.561239409e-06
2.52398359e-05
-2.428777786e-05
4.638135243e-05
-6.480897752e-05
7.138499483e-05
-0.0001063083061
7.875806646e-05
-9.35086983e-05
7.996069817e-05
-8.799190733e-05
7.883694995e-05
-8.564501788e-05
7.219492601e-05
-0.0002708930569
-0.0003885299743
-0.001247387538
-0.0005435871765
-0.001417192021
1.361601226e-05
-0.001225089127
0.001681306955
-0.003186175357
0.002424587187
-0.003250510768
0.002548200735
-0.00279980932
0.00216935245
-0.002258195839
0.001457362182
-0.001609074016
0.0007895765776
-0.0009699149049
0.0004140785822
-0.0005108839593
0.0002688017062
-0.0002863081467
0.0002246958075
-0.0002098314018
0.0002277674387
-0.0002125505827
0.0002709069964
-0.0002787745201
0.0003507795761
-0.0004036591129
0.0004492594229
-0.0005676504974
0.0005287296795
-0.000617546733
-0.005566769718
-0.001309018586
-0.005683865949
-0.001579250928
-0.00108203439
-0.00178465093
-0.001486020163
-0.001852208518
-0.001619099394
-0.001795923418
-0.001618813608
-0.001641959486
-0.001533407171
-0.001411024182
-0.00138839581
-0.001125801237
-0.001205660505
-0.0008014354003
-0.0009762393902
-0.0005051798872
-0.0007212389458
-0.000301602898
-0.0004977016816
-0.0001878318348
-0.0003503281182
-0.0001509042751
-0.0002884657691
-0.0001703027084
-0.0003152062775
-0.000195573458
-0.0003998989919
-8.214484634e-05
-0.0004230275026
-3.565853822e-05
2.093558825e-05
-0.0001304162281
4.151178469e-05
-0.0004666389103
-9.58395494e-05
-0.0009406466075
-0.001123077137
-0.001148400013
-0.001702441231
-0.00112057737
-0.001517346164
-0.0009732333633
-0.001441278141
-0.0007084818679
-0.001361082609
-0.0003972197143
-0.001116628572
-0.0001417675945
-0.0007676574018
3.256371357e-05
-0.0004520772143
0.0002691458262
-0.0006158871441
-4.439480659e-06
-0.001611935981
-3.534646361e-05
-4.914048841e-05
-8.551362821e-05
-3.686315141e-05
-9.057251903e-05
-0.0001162875735
-1.606608157e-07
-0.0001659513818
1.197442519e-06
-6.272447561e-08
3.567287092e-06
-1.602446378e-06
1.894974246e-05
-5.266651522e-05
3.547186529e-05
-0.0001075138064
4.56032488e-05
-0.0001387623814
4.481708218e-05
-8.885843319e-05
4.903321041e-05
-8.044179827e-05
3.195291983e-05
-7.88096993e-05
-0.0003607846953
-0.0003673253096
-0.00103583669
-0.0008333508683
-0.0008542505959
-0.0009178136267
-8.187419455e-05
-0.0008963700332
0.001708342265
-0.001867629766
0.002661421821
-0.00198510311
0.003035864022
-0.001875193914
0.002870868384
-0.00168411514
0.002156466577
-0.001345968922
0.001233205012
-0.000900168979
0.0005917340244
-0.0005257349809
0.0003168332036
-0.0003165290477
0.0002307669452
-0.0002371995308
0.0002256716907
-0.0002395766674
0.0002767982805
-0.0003101313775
0.0003756091085
-0.0004394941519
0.0005021865229
-0.0006101043418
0.0006133383421
-0.0006898168436
-0.006421492257
-0.001212855019
-0.005668820735
-0.001435308779
-0.001010939243
-0.001603011543
-0.001345978369
-0.001648666388
-0.001402378016
-0.001593026223
-0.001340094231
-0.00147133365
-0.001217957497
-0.001303535103
-0.001078902989
-0.001088638089
-0.0009379013216
-0.0008101477278
-0.000787800506
-0.0005319597336
-0.0006273813882
-0.0003328850117
-0.000490722113
-0.00022816635
-0.0004035650836
-0.0001973742482
-0.000388508225
-0.0002141741171
-0.0004399720042
-0.000268829462
-0.0004884239039
-0.000354633273
-0.0004259456604
-9.180083054e-05
-0.0002418145876
-0.0001469368227
0.0001334601524
-0.0004241208566
-0.0003873473274
-0.001066608184
-0.00168294878
-0.001227296451
-0.001759281813
-0.001129820503
-0.001273471697
-0.0009585848481
-0.001139468814
-0.0006758436496
-0.001074607001
-0.0003555043139
-0.0008658109376
-0.0001068886927
-0.0005694552778
3.1371498e-05
-0.0002909903952
0.0002332589476
-0.0003316095653
0.0002791468585
-0.0009117760943
-4.405147863e-05
-0.0002198302248
-0.0001316326449
2.94840321e-05
-0.0001171222815
-7.561868001e-05
-1.071206345e-07
-0.0002467213193
1.529022655e-07
7.892498751e-08
3.644859486e-06
9.0407983e-07
1.076507249e-05
-0.0001187281022
-1.585582526e-06
-0.0001728256067
-8.149548335e-06
-0.0001615120852
8.549015611e-06
-0.0001047931833
2.198981598e-05
-8.264568367e-05
-5.602328575e-05
-4.986663244e-05
-0.0006494013627
-3.192437824e-05
-0.0008697195735
-4.940706249e-05
-0.0006595823195
-9.897848664e-05
-1.092172638e-05
-0.0001999559803
0.001354433962
-1.855061343e-05
0.002185206403
-6.648045558e-05
0.002634917036
-0.000322625247
0.002581190705
-0.0004378921931
0.002016692827
-0.000422135635
0.001221031584
-0.0003676163743
0.0006199802905
-0.0003171410941
0.0003425767281
-0.0002775594332
0.0002513108866
-0.00025529763
0.0002461463327
-0.000269805581
0.000299102182
-0.0003344824582
0.0003974725718
-0.0004428699652
0.0005239541535
-0.0005828819716
0.0006425514607
-0.0006649319792
-0.006761709601
-0.001141518355
-0.005693434263
-0.001283070299
-0.000980135693
-0.00135312438
-0.001238956039
-0.001312179379
-0.001207591729
-0.001193644221
-0.001070022385
-0.001059598574
-0.0008992592318
-0.0009247840736
-0.0007564639318
-0.0007765390391
-0.0006471072813
-0.0006182845664
-0.0005647640953
-0.0004673442471
-0.0005057748932
-0.0003488016435
-0.0004711074642
-0.000279203488
-0.000469261993
-0.0002458179612
-0.0005057413472
-0.0002173307377
-0.0005542688115
-0.0001722031883
-0.0005384225808
-0.0001217641381
-0.0003952791494
-0.0001018478058
-0.0001678163336
0.0001281586355
-3.185982541e-05
0.0001018401654
-0.0004287511325
-0.0009958232219
-0.001469488398
-0.001082121904
-0.001360247922
-0.0009748754064
-0.0008255281706
-0.0008356728188
-0.0007184392473
-0.000588015474
-0.0007101075553
-0.0003025712137
-0.0005974708462
-7.86897529e-05
-0.0003997800184
2.447736109e-05
-0.0001596415088
0.000147287012
-0.0001501897335
0.0004266532876
-0.0002577734454
-3.349014844e-05
-0.0008855113596
-0.0001660718841
0.0001120779285
-0.00011001791
6.993405095e-05
-9.285980871e-05
-0.0002119277934
-5.10007846e-05
-0.0002625358135
-3.92495775e-05
-0.0001612391836
-4.668143098e-05
-0.0002717425691
-8.697743844e-05
-0.000229495648
-5.774039493e-05
-0.0001679867541
-3.213534104e-05
-0.000112310868
-8.16314603e-06
-7.896793095e-05
1.084669427e-05
-4.406665494e-05
1.58734532e-05
-1.560078414e-05
2.257167445e-05
-2.686669941e-05
4.847896049e-05
-6.750972709e-05
0.0001075374926
-0.0001354786372
0.0005262140724
0.000899501992
0.0005467336615
0.0006586195347
0.0004976387052
-2.944076383e-05
0.0004366849307
-0.0003092810909
0.0003891412397
-0.0003322364586
0.0003531618233
-0.0003152838361
0.0003220430718
-0.0002952734774
0.0002957531072
-0.0002796009966
0.0002801405418
-0.0002745639221
0.000288786866
-0.0002930880219
0.0003310280784
-0.0003433143284
0.0004031773399
-0.0004176578412
0.0004959616709
-0.0005071909547
0.0005923649913
-0.0005595646539
-0.006567855297
-0.001134023835
-0.005722934257
-0.001206729759
-0.0009872130636
-0.001183290974
-0.001180071225
-0.001052905293
-0.0010897301
-0.0008765806961
-0.0009112187025
-0.000723882344
-0.0007416818892
-0.0006091066495
-0.0006137208518
-0.0005232828261
-0.0005282242192
-0.0004571429026
-0.0004818270969
-0.0004056899231
-0.0004707431509
-0.0003663218071
-0.0004917518062
-0.0003337776929
-0.0005394314915
-0.0002935412627
-0.0005948789018
-0.0002266509012
-0.0006123928942
-0.0001349011267
-0.0005345147403
-5.014744209e-05
-0.0003524895735
8.803327162e-07
-0.0001445169883
3.283947488e-05
-5.610388483e-05
8.945673452e-05
-0.000502725057
-0.0008151910016
-0.001598444669
-0.0007140721892
-0.0007459875541
-0.0006503484596
-0.0003325713118
-0.0005770317181
-0.0003014532974
-0.0004298720285
-0.000336905765
-0.0002324329615
-0.0003336809714
-4.692697317e-05
-0.0002507088121
1.53704764e-05
-5.48694069e-05
7.988836009e-05
-5.589784922e-05
0.000192062146
-7.942811778e-05
0.0007499148123
-9.333753745e-05
-0.0001407569103
-7.384954024e-05
0.0002573153069
-7.449622815e-05
0.0003364972242
-0.0001812355368
0.0001796319912
-0.000238246373
-6.280831283e-05
-0.0002975580738
-0.0002260120443
-0.0004961007457
-0.0001425372297
-0.0002751175696
-9.402240633e-05
-0.0001522630946
-5.700071208e-05
-0.0001042271859
-2.558310936e-05
-7.072900682e-05
-4.195660279e-06
-3.804032725e-05
4.830135923e-06
-1.209749293e-05
1.054192657e-05
-1.6750578e-05
3.020335688e-05
-5.103469007e-05
6.740578268e-05
-0.0001001947232
0.0008064218353
0.001439398193
0.0008801212501
0.0007743325444
0.0005728294265
-0.0001044327419
0.0003812228884
-0.0002270916065
0.0003282800392
-0.0002507097674
0.0003199741565
-0.0002552841999
0.0003219602513
-0.0002571798362
0.0003263141254
-0.0002615387128
0.0003320561788
-0.000272204915
0.000342894373
-0.0002957045056
0.0003640483716
-0.0003353702625
0.0003959392006
-0.0003824861675
0.0004371076027
-0.0004278635102
0.0004905981488
-0.0004392587264
-0.006096777105
-0.001172536386
-0.005675444471
-0.001197552336
-0.0009912852089
-0.001111610557
-0.001129038113
-0.0009334218424
-0.001013550779
-0.0007500756483
-0.0008425152434
-0.0006113970479
-0.0007034191588
-0.0005155951877
-0.0005983025336
-0.0004564189334
-0.0005292905872
-0.0004260229073
-0.0004969765397
-0.0004142661895
-0.0005004872553
-0.0004070334429
-0.0005348322147
-0.0003849616064
-0.0005856768684
-0.0003294856015
-0.0006216921113
-0.0002363523119
-0.0005984122477
-0.0001268958559
-0.0004835142747
-4.01203299e-05
-0.0002979401945
-4.128698991e-07
-0.0001189369478
2.192797238e-05
-7.180023506e-05
9.769477865e-05
-0.000439792988
-0.0005034616949
-0.001404894123
-0.0002924148285
-0.0005037916645
-0.0002750595842
-6.080534035e-05
-0.0002680997703
-5.139115451e-05
-0.0002304079949
-7.9228162e-05
-0.0001445558677
-0.0001152563017
-1.564704302e-05
-0.0001191789084
6.327899521e-06
2.662906307e-07
3.549794878e-05
-7.232371119e-06
7.619351955e-05
-2.445876548e-05
0.0001300693993
-2.937779339e-05
0.0002513730785
-2.112367908e-05
0.000404784591
-1.20933101e-05
0.0004202296916
-2.187791534e-05
0.0003439285747
-9.271150028e-05
4.487744784e-05
-0.0003189957276
-0.0003248219858
-0.0004364812517
-0.0001422655939
-0.0002061614093
-9.482102087e-05
-0.0001189155259
-5.768131383e-05
-8.592366808e-05
-2.77816319e-05
-5.801260605e-05
-7.995686176e-06
-3.134265554e-05
2.942722638e-07
-1.026253683e-05
6.747461488e-06
-1.284841842e-05
2.490180581e-05
-3.979045961e-05
5.387082529e-05
-7.578569365e-05
0.001082726224
3.868465669e-06
0.0007192031196
-6.1836317e-05
0.0003553067218
-0.0001389935891
0.000264049817
-0.0001830212194
0.0002624923038
-0.0001998670897
0.000283375101
-0.0002090231531
0.0003099332496
-0.000218038802
0.0003388090244
-0.0002306776689
0.0003656846288
-0.0002497288632
0.0003843538992
-0.0002786438613
0.0003921018591
-0.0003177526098
0.0003903474906
-0.0003545826471
0.000384747062
-0.0003756625589
0.0003932552886
-0.000354830609
-0.00562836601
-0.001198391135
-0.00548865986
-0.001195253559
-0.0009491964453
-0.001078363916
-0.001045060574
-0.0009096922047
-0.0009222229607
-0.0007561057015
-0.0008002741365
-0.0006391960282
-0.0007050692767
-0.0005572216063
-0.0006293192429
-0.0005065235582
-0.0005747391965
-0.000480868761
-0.0005437675713
-0.000469181684
-0.0005390384464
-0.000454336001
-0.0005557734673
-0.000415448243
-0.0005789142278
-0.0003387667579
-0.000580034471
-0.00022975934
-0.0005274991567
-0.0001169070661
-0.0004066604729
-3.581560311e-05
-0.0002434933258
-2.202012578e-06
-9.637938323e-05
3.392663291e-05
-8.96595024e-05
0.000157581804
-0.0003659229695
-6.432686491e-05
-0.0009071429289
-4.720666793e-05
-0.0009738754317
-4.388339773e-05
-1.129009676e-06
-4.926190731e-05
-4.512078066e-07
-5.398798088e-05
-3.808214476e-06
-4.877393224e-05
-6.399384889e-06
-1.067124374e-05
2.534622746e-05
2.477185171e-06
6.524763136e-05
2.362837682e-05
3.115556816e-05
4.47228176e-05
8.293539961e-06
2.545689033e-05
1.672850983e-05
1.147629096e-05
-2.863474419e-08
7.758147434e-06
-9.244160841e-06
4.409982158e-06
-2.223626771e-05
-0.000225025696
1.223593075e-05
-0.0004188113537
-0.0001491245445
-0.0002309903209
-0.0002084585048
-0.0001195648362
-0.0001438693729
-7.876505577e-05
-8.639661144e-05
-4.734577879e-05
-6.300084347e-05
-2.256660275e-05
-4.276986433e-05
-6.40101993e-06
-2.359813291e-05
8.36529717e-08
-8.057931212e-06
5.581827094e-06
-9.569116895e-06
2.163556799e-05
-3.006200732e-05
4.85366726e-05
-5.624463406e-05
0.000151735572
-8.421721811e-05
0.0001764413693
-0.0001095829081
0.000179432326
-0.0001300389275
0.000196940946
-0.0001457831148
0.0002252142436
-0.0001576883891
0.0002572034898
-0.0001670636552
0.0002925783102
-0.0001770073097
0.0003325489648
-0.0001911537877
0.0003731176475
-0.0002129556952
0.0004038257885
-0.0002480342624
0.0004135887829
-0.0002981315139
0.0003969243463
-0.0003430309907
0.0003618620619
-0.0003582413036
0.000336391707
-0.0003151459169
-0.005285015526
-0.001150915247
-0.005183421881
-0.001119610541
-0.000836416234
-0.001013559204
-0.0008879651393
-0.0008983536202
-0.0008096912697
-0.0008005593871
-0.0007570328626
-0.0007215801173
-0.0007186071007
-0.0006574541094
-0.0006797359978
-0.0006044521912
-0.0006371491786
-0.0005610669401
-0.0005912298688
-0.0005223135807
-0.0005564056769
-0.0004777459614
-0.000535298027
-0.0004132713263
-0.0005203579785
-0.0003216668189
-0.0004923974358
-0.0002108633377
-0.0004304719062
-0.0001053246397
-0.0003261648137
-3.210009897e-05
-0.0001969855537
-1.962547527e-06
-7.925447048e-05
5.316894769e-05
-9.497334291e-05
0.0001744885433
-0.0002966482433
0.0002629530019
-0.0005819873815
-3.853354033e-06
-0.001697683458
-3.679885636e-07
8.554493545e-06
-6.839458511e-09
-7.234001615e-06
-4.380535032e-06
1.319959321e-08
-2.350180013e-05
4.788805901e-06
-2.756118108e-05
0.0001250803368
2.25369964e-06
0.0002119823797
1.923726602e-05
3.770537087e-05
5.795951702e-07
5.346208782e-07
8.152640552e-08
1.794167347e-05
-6.869124376e-08
8.161463748e-14
-1.598318403e-05
1.484549716e-07
-9.590229878e-05
3.255017582e-05
-0.0001856108474
4.284841561e-05
-0.00023383422
-9.486659617e-05
-0.0001569430941
-0.0001410917539
-9.145592011e-05
-0.000100444273
-5.989352148e-05
-5.437786676e-05
-3.601952497e-05
-3.924946606e-05
-1.734712172e-05
-2.711050355e-05
-5.011787355e-06
-1.565476233e-05
1.435072598e-08
-5.79229464e-06
4.690070464e-06
-6.5947849e-06
1.826401149e-05
-3.753916494e-05
4.008774182e-05
-3.802752345e-05
6.858528073e-05
-5.647096022e-05
0.0001000822058
-7.428551232e-05
0.0001324959997
-9.052539545e-05
0.0001648020665
-0.0001052583923
0.0001967375969
-0.0001185650781
0.0002287739332
-0.0001267096143
0.0002639258008
-0.0001350108172
0.0003053358521
-0.0001474670357
0.0003513854789
-0.0001686942673
0.0003948061641
-0.0002119727134
0.0004209815846
-0.0002849504481
0.0004107578557
-0.0003524868446
0.0003659453035
-0.0003729981724
0.0003207689604
-0.0003110356545
-0.005057185307
-0.001025111893
-0.0009763775028
-0.0009205829702
-0.0008804084495
-0.0008575402688
-0.0008332955584
-0.0007915609364
-0.0007211714626
-0.0007205139106
-0.0006359125271
-0.0006387126382
-0.0005505544913
-0.0005547649488
-0.0004687815334
-0.0004869194923
-0.0003834045297
-0.0004365718124
-0.0002883350818
-0.0003919943053
-0.0001870802032
-0.0003353475227
-9.487386226e-05
-0.0002563285005
-2.978907807e-05
-0.0001615681726
-2.114352017e-07
-7.161874741e-05
5.880119532e-05
-9.634788416e-05
0.0001579804385
-0.0002387544738
0.0002457017036
-0.0003946025365
-6.416611749e-06
-0.0008452984906
-2.33048537e-05
3.597261544e-05
5.173037485e-07
-0.0002493842505
-0.0001318365237
-3.935082161e-05
-7.035716133e-06
0.0005041309248
-2.898962385e-05
0.0002732078401
-4.001708817e-06
0.0004252616552
4.95064292e-07
8.963329914e-07
-1.214544351e-07
3.359828975e-08
-6.036139073e-11
1.381572016e-05
-2.648431064e-08
2.480195516e-16
-2.226019317e-05
3.788281549e-08
-0.0001101138821
3.076136421e-05
-0.0001798549131
7.105047348e-05
-0.0002116382024
-3.062803625e-05
-0.0001126810511
-7.511054676e-05
-6.092436778e-05
-5.663743833e-05
-3.94855799e-05
-2.666630417e-05
-2.399179276e-05
-1.907762334e-05
-1.197182885e-05
-1.36022117e-05
-3.731075749e-06
-8.533877469e-06
1.128773844e-08
-3.708359774e-06
3.630936287e-06
-4.015470834e-06
2.464682009e-05
-0.0004822345477
3.019195068e-05
-2.999343954e-05
5.124418478e-05
-3.242719972e-05
7.591581559e-05
-4.35588535e-05
0.0001031755627
-5.723189626e-05
0.0001326756239
-7.396495937e-05
0.0001643518005
-0.0001026219319
0.0001923028356
-9.908608745e-05
0.0002222786341
-0.0001000945402
0.000258521627
-0.0001075994774
0.0003017981019
-0.000125074881
0.0003541924637
-0.0001787198242
0.0004026810814
-0.0002813320942
0.0004137524884
-0.0003768582841
0.0003792829896
-0.0004108204911
0.0003323248074
-0.0003339249878
-0.00489395509
-0.0008629724378
-0.0007076075894
-0.0005602419877
-0.000440099139
-0.0003413957029
-0.0003556077464
-0.0002514489845
-0.00030181629
-0.0001648681905
-0.0002555806002
-8.734846026e-05
-0.0002007722046
-3.026648135e-05
-0.0001361045655
-7.44708781e-07
-7.496860152e-05
5.674538929e-05
-0.0001393328011
0.0001398695731
-0.0002101264571
0.0002356278388
-0.0003030563219
0.000308488044
-0.0004251764963
0.0003729772332
-0.0005603979623
0.0002274135143
-0.0007193716862
1.731681238e-05
-0.0003479382437
-4.588893213e-05
0.000189760729
-6.434138644e-05
0.0004552901704
-2.831252411e-08
0.0006673347381
-2.337512577e-10
6.497653611e-13
-7.28110067e-08
3.061462099e-08
-4.815728182e-12
8.155881554e-06
1.061452764e-16
1.770746005e-17
-1.820443623e-06
3.909998669e-13
-5.788167472e-05
1.839281768e-06
-0.0001233856154
6.708491846e-05
-0.0001488487242
5.23992445e-05
-6.531157042e-05
1.393573385e-06
-3.216877533e-05
-2.312909273e-05
-2.065346795e-05
-9.01790721e-06
-1.278332258e-05
-6.422718365e-06
-6.774413928e-06
-4.876025072e-06
-2.409428001e-06
-3.620213912e-06
3.297285575e-08
-2.263100606e-06
2.416001526e-06
-2.027652457e-06
0.0001549417396
-0.003939463615
2.63491247e-05
-0.0001016244908
3.324934908e-05
-1.669106713e-05
5.034381142e-05
-2.104505934e-05
7.334855772e-05
-3.567274482e-05
0.0001019100392
-6.234123288e-05
0.0001504585637
-0.0002239794123
0.0001631679283
-0.0001177163018
0.0001789755007
-8.04317388e-05
0.0002024724555
-7.670846661e-05
0.0002327690445
-8.64953097e-05
0.0002839237112
-0.0001488465856
0.000346541135
-0.0002720390608
0.0003852131275
-0.0003912276439
0.0003829541592
-0.0004498663848
0.0003572989072
-0.0003718643543
-0.004745675224
-0.0003005338563
-0.0002186555068
-0.0001470000765
-0.0001911802125
-8.344677498e-05
-0.0001562378631
-3.565156095e-05
-0.000118940104
-8.464354946e-06
-0.0001009226587
6.95101301e-05
-0.0003224076709
0.0001290012481
-0.000197536924
0.00020249127
-0.0002305121887
0.0002760530533
-0.0002812146144
0.0006960467225
-0.0003602358758
0.0005681501458
-0.0004450658265
0.0001816447162
-0.0004193225938
-4.259812813e-05
8.635753894e-05
-7.921774944e-05
0.0006630771454
1.745910976e-11
0.0009342902953
-2.55675904e-10
1.192204643e-15
-3.505534886e-08
2.867691581e-08
-5.940533936e-12
3.938856591e-06
7.957314405e-18
2.156900412e-17
-4.260478451e-09
3.517523954e-19
-1.996907892e-05
7.175567975e-09
-0.0001120698902
4.41099466e-05
-0.0001286683339
0.0001488136387
-2.624562153e-05
9.336307065e-05
-1.198405758e-05
-4.893674606e-06
-7.688344064e-06
-1.589385036e-06
-4.969951204e-06
-1.152423363e-06
-2.978770218e-06
-1.025715258e-06
-1.400884832e-06
-1.305999753e-06
7.126002003e-08
-3.169822813e-06
1.337886586e-06
-7.665967765e-07
0.0006907681385
-0.01146157562
7.26644102e-05
-0.0008038588226
1.983079359e-05
-2.089544416e-05
2.794522811e-05
-8.487202384e-06
5.053003896e-05
-2.959823923e-05
8.143102972e-05
-8.22045367e-05
0.0002182777486
-0.000953324016
0.0001729439935
-0.0003363703345
0.0001452591556
-8.766510027e-05
0.0001453199863
-5.408553321e-05
0.0001532621113
-5.211834772e-05
0.0001909483152
-0.0001162590097
0.000259492644
-0.000246024748
0.0003316542252
-0.0003840171702
0.000375960323
-0.0004706814529
0.0003873262978
-0.0004061905181
-0.004560787918
-0.0001321665105
-8.326140395e-05
-5.146528405e-05
-4.597244537e-05
8.92387611e-05
-0.0008346321285
0.0001146401864
-0.0001810867481
0.0001638612289
-0.0001569357924
0.0002207238012
-0.0001761053008
0.0003091610877
-0.0002195687325
0.0003931780645
-0.0002862331544
0.0002958367704
-0.000318113717
2.704570316e-05
-8.646094131e-05
-8.760896549e-05
0.0008922514893
4.428038845e-10
0.001174901117
-3.019194477e-10
3.273767027e-16
-2.696113093e-08
2.794929455e-08
-7.13711688e-12
3.040769989e-06
9.568577639e-18
2.261234442e-17
-9.207775845e-10
2.971660808e-20
-1.508765958e-05
1.422111403e-09
-0.0001421843632
2.838904817e-05
-0.0001707480905
0.0002409623687
-5.797585126e-06
0.000185929066
-2.426741698e-06
-9.20106046e-08
-1.614569681e-06
-3.886944058e-11
-1.190721862e-06
-3.685406859e-11
-1.100303104e-06
-2.528704059e-11
-1.524625123e-06
-3.390490383e-06
3.44921581e-07
-3.481418598e-05
5.713621523e-07
-2.612696084e-07
0.002329039208
-0.02076913102
0.0004160740539
-0.003524642264
2.921119967e-05
-0.0001668096662
1.305327563e-05
-4.105142685e-06
4.402621916e-05
-3.916362608e-05
0.0001008373217
-0.0001529401756
0.0004135673098
-0.002480859079
0.000250886703
-0.001142047694
0.0001225245787
-0.000202417377
8.746579166e-05
-4.738169013e-05
7.523063665e-05
-2.765051543e-05
0.0001056135102
-9.227197831e-05
0.0001872719574
-0.0002239387351
0.0002904209596
-0.0003692953854
0.0003732812967
-0.0004705146164
0.0004177795744
-0.000423059639
-0.004288417236
8.603947835e-05
8.723323053e-05
0.0001125850157
-9.133560893e-05
0.0001481903347
-9.176258046e-05
0.0002006032129
-0.0001173706931
0.000268450265
-0.0001671066154
0.0002646365766
-0.0002033656148
4.994283045e-05
-9.216309154e-05
-8.896976786e-05
0.0009638592683
7.636298394e-10
0.001319236322
-4.369479987e-10
8.728046978e-17
-9.11752906e-08
2.340890766e-08
-6.563615261e-12
1.027598615e-05
1.142469079e-17
1.366362769e-17
-4.622640458e-14
3.328070642e-25
-1.875578482e-06
1.379582789e-13
-8.8011536e-05
3.008270074e-06
-0.0001680082997
0.0001938287583
-4.366037198e-08
0.0002442015753
1.216401568e-11
9.171692818e-12
-2.533249569e-19
1.8034302e-19
-6.300357927e-19
4.215612312e-19
1.123290528e-11
1.285324385e-18
9.298145313e-07
-4.035381619e-05
1.21843547e-05
-0.0003431937462
2.187887744e-06
-1.542000978e-05
0.007358010094
-0.0265670333
0.002626886218
-0.007269645538
0.0002671137096
-0.001472878344
2.954007436e-05
2.517946738e-06
8.314762357e-05
-5.515923822e-05
0.0002340885296
-0.0003297319673
0.0008327720025
-0.003552878187
0.000480215478
-0.002294791319
0.0001408827781
-0.0007182205462
4.641129978e-05
-0.0001499946467
2.765040347e-05
-4.465671451e-05
6.512506846e-05
-9.593700393e-05
0.0001585053834
-0.0002152006168