/*--------------------------------*- C++ -*----------------------------------*\
  =========                 |
  \\      /  F ield         | OpenFOAM: The Open Source CFD Toolbox
   \\    /   O peration     | Website:  https://openfoam.org
    \\  /    A nd           | Version:  8
     \\/     M anipulation  |
\*---------------------------------------------------------------------------*/
FoamFile
{
    version     2.0;
    format      ascii;
    class       vectorField;
    location    "0.1/lagrangian/reactingCloud1";
    object      U;
}
// * * * * * * * * * * * * * * * * * * * * * * * * * * * * * * * * * * * * * //

9((-0.7259943833 0.6900572954 -2.372777703) (-0.4146857962 0.7919585298 -2.33958718) (0.08570244809 0.5255307386 -2.404032772) (-0.09944305717 1.038388004 -2.097030186) (-0.1268107782 0.4983761847 -2.325781965) (-1.144495756 0.2613472162 -1.89455862) (-1.127209788 0.1927000491 -2.151435865) (0.008350568252 1.082354903 -1.826626139) (-0.4467114858 1.125972912 -1.706337141))

// ************************************************************************* //
