/*--------------------------------*- C++ -*----------------------------------*\
  =========                 |
  \\      /  F ield         | OpenFOAM: The Open Source CFD Toolbox
   \\    /   O peration     | Website:  https://openfoam.org
    \\  /    A nd           | Version:  8
     \\/     M anipulation  |
\*---------------------------------------------------------------------------*/
FoamFile
{
    version     2.0;
    format      ascii;
    class       volScalarField;
    location    "0.2";
    object      htcConv;
}
// * * * * * * * * * * * * * * * * * * * * * * * * * * * * * * * * * * * * * //

dimensions      [1 0 -1 1 0 0 0];

internalField   uniform 0;

boundaryField
{
    walls
    {
        type            calculated;
        value           uniform 0;
    }
    region0_to_wallFilmRegion_wallFilmFace
    {
        type            convectiveHeatTransfer;
        L               1;
        value           nonuniform List<scalar> 
1019
(
0.2662981169
0.2707655091
0.2764207457
0.2826878179
0.08701687992
0.1362422439
0.1732155384
0.2024759031
0.2261129604
0.245290258
0.2607071211
0.2728124073
0.2819787469
0.288528852
0.292743651
0.2949017373
0.29525715
0.294040401
0.2914762895
0.2877794216
0.2831904319
0.2779912184
0.2725263482
0.2672374268
0.2626743667
0.2594556634
0.2581801722
0.2592513306
0.2627331486
0.2683342275
0.275509978
0.2835959515
0.2919428585
0.2999487518
0.1137529998
0.1467951114
0.1792668569
0.2069054339
0.2298684912
0.2487714716
0.2641090964
0.2762316715
0.2854214679
0.2919550709
0.2960882236
0.2980788076
0.2981427544
0.2964784848
0.2933119819
0.2888704145
0.2834182766
0.2772711239
0.270830379
0.2646175476
0.2592795642
0.2555464999
0.2541183295
0.2554774983
0.2597148113
0.2664895422
0.2751583214
0.2849593379
0.2951256035
0.3049213631
0.139419048
0.1619060467
0.1887355892
0.2137949987
0.2355078264
0.2537879212
0.2688299351
0.2808300205
0.289983882
0.2965037952
0.3005904853
0.3024059292
0.3021445018
0.3000495286
0.2963026339
0.2910971024
0.2847116062
0.2775035037
0.2699399838
0.2626358836
0.2563633312
0.2520140032
0.2504054491
0.2520746072
0.2571090426
0.2650759574
0.2751966857
0.28658315
0.2983525042
0.3096808724
0.3197540746
0.1618194995
0.1782755849
0.2001787864
0.2224265739
0.2426022076
0.2600441587
0.2746454512
0.2864373521
0.2955080399
0.3019939444
0.3060325644
0.3077580168
0.3073187097
0.3048450149
0.3004988556
0.2945082591
0.2871842028
0.2788736711
0.2700692957
0.2615231841
0.2541773948
0.2490970232
0.2472459009
0.2492147301
0.2550312853
0.2641466624
0.2756322612
0.2884544695
0.3016273401
0.3142303751
0.3253775131
0.1815485327
0.1944080167
0.2124858989
0.2321198151
0.2507047098
0.2672176514
0.2813007369
0.2928362905
0.3018088024
0.3082749614
0.3123132011
0.3140056652
0.3134452778
0.3107323854
0.3059918726
0.2993954481
0.2911530134
0.2816891209
0.2716303474
0.2617734766
0.2532572827
0.2473501163
0.2451680813
0.2473721671
0.2538726901
0.2639963789
0.2766875931
0.2907429269
0.3050717074
0.3186879604
0.3306226804
0.1991398549
0.2097251545
0.2249308771
0.2423148909
0.2593996971
0.2749833702
0.2885301455
0.2997976387
0.3086788221
0.3151568361
0.3192546399
0.3210044506
0.3204504162
0.3176469138
0.3126684276
0.305636319
0.2967633264
0.2864423917
0.2753089361
0.2642850556
0.2545919806
0.2477661106
0.2451615602
0.2474029022
0.2543645786
0.2652282383
0.2787861507
0.2937533244
0.3089517606
0.3232861912
0.3357141332
0.214943921
0.2240149704
0.2370678143
0.2525850542
0.2683287225
0.2830400071
0.2960704025
0.3070833383
0.3158962476
0.3224281929
0.3266540037
0.3285625952
0.3281564894
0.3254494135
0.3204746204
0.313312606
0.3041433733
0.2933346664
0.2815261476
0.2696893446
0.2591718542
0.2516229602
0.2484926396
0.2504864483
0.2574707408
0.2685735989
0.2825591804
0.2980319147
0.3136630033
0.3283370648
0.3409431259
0.2291789668
0.2371978611
0.2486199376
0.2626120977
0.2771925441
0.291116357
0.3036728015
0.3144582281
0.3232326201
0.3298627263
0.3342834775
0.3364504628
0.3363346636
0.3339204602
0.3292127894
0.3222642116
0.3132288699
0.3024506744
0.2905558312
0.2785134966
0.2676731704
0.2596910818
0.2560124436
0.2573989787
0.2638410501
0.2745593541
0.2883618693
0.3038232981
0.3195312935
0.3342183764
0.3466813296
0.2419759683
0.2492374196
0.2594056036
0.2721564502
0.2857437518
0.2989728827
0.3111061378
0.3216957851
0.3304616118
0.3372285952
0.341900749
0.3444107553
0.3447098386
0.3427663218
0.3385723184
0.332168934
0.3236975694
0.3134821207
0.3021144162
0.2905045259
0.2799029356
0.271837136
0.2676632585
0.268186342
0.2736026759
0.2833639623
0.2964240466
0.3113813302
0.3267388067
0.341128163
0.2534088845
0.2601080709
0.2692961457
0.2810333499
0.2937776887
0.3064008444
0.318161882
0.3285846938
0.3373639605
0.3442961016
0.3492596965
0.3521736496
0.3529800186
0.3516427762
0.3481544199
0.3425579004
0.3349916381
0.3257595558
0.3153982144
0.3047120989
0.2947876022
0.2869451203
0.2824115222
0.2820299977
0.2862075169
0.2946816875
0.3066164215
0.3206943084
0.3353866298
0.349228762
0.2635143969
0.2697843732
0.2781933153
0.2890964208
0.301124336
0.3132195361
0.3246522935
0.3349325225
0.3437374966
0.3508467568
0.3561201628
0.3594690934
0.3608343203
0.3601833725
0.3575167669
0.3528858468
0.3464285068
0.3384235767
0.3293364886
0.3198441802
0.3108474509
0.3034513427
0.2987569093
0.2976347158
0.3006547136
0.3078158573
0.3185013134
0.3315197685
0.3453646892
0.3585162703
0.2723052364
0.2782386969
0.2860177657
0.2962272572
0.3076423618
0.3192747898
0.3304143881
0.3405669309
0.3493989942
0.3566819343
0.3622618323
0.3660460056
0.367978364
0.3680340447
0.3662239128
0.3626080312
0.3573211832
0.3506116705
0.3428692536
0.334647299
0.3266818091
0.3198961032
0.3152821018
0.3137181683
0.3158678877
0.3219230399
0.3314561873
0.3434251146
0.3563906561
0.3688211124
0.2797793874
0.2854419662
0.2927034021
0.3023290443
0.313214797
0.3244371458
0.335310029
0.3453421196
0.3541930937
0.3616307223
0.367495046
0.3716886973
0.3741599381
0.374891975
0.3739049769
0.371264574
0.3670989929
0.3616247991
0.3551643183
0.3481696682
0.3412511588
0.3351965283
0.3309054767
0.3292406843
0.3309014617
0.3361892025
0.3448137875
0.355875142
0.3680424898
0.2859265461
0.2913653191
0.2981947386
0.3073226876
0.3177459134
0.328599949
0.3392246853
0.3491359225
0.3579915557
0.3655555905
0.3716672116
0.3762259495
0.3791821933
0.3805259351
0.3802840132
0.3785245415
0.3753676567
0.3710024739
0.3657001821
0.3598404025
0.3539467176
0.3487107861
0.3449532247
0.3434980211
0.3450421187
0.349919294
0.3579367925
0.3683046006
0.3798193393
0.2907326537
0.2959818027
0.3024457121
0.3111444218
0.3211589822
0.331677854
0.3420670867
0.3518522367
0.3606925798
0.3683503168
0.3746643517
0.3795324871
0.382906582
0.3847798965
0.3851839444
0.3841877681
0.3819047015
0.3785042311
0.3742245525
0.3693993465
0.3644961497
0.3601383144
0.3570760524
0.3560782799
0.3578047187
0.3625870885
0.3702716409
0.3801695833
0.3911891485
0.2941829969
0.2992677396
0.305419108
0.3137442173
0.3233945373
0.3336053749
0.3437681152
0.353419563
0.3622224172
0.3699386825
0.376408421
0.3815288023
0.385249029
0.3875669351
0.3885155807
0.3881651617
0.3866259146
0.3840562899
0.3806770441
0.3767963222
0.3728462733
0.3693991912
0.3671404874
0.3667744526
0.3688954876
0.3738119418
0.3813811113
0.3909923014
0.4016499916
0.296264185
0.3012036133
0.3070861323
0.3150845368
0.3244088811
0.3343354444
0.3442794943
0.3537898389
0.3625341186
0.370275768
0.3768545415
0.3821719207
0.3861746296
0.3888574066
0.3902595744
0.3904520004
0.3895451644
0.3876952238
0.3851165924
0.3821050248
0.379069169
0.3765392906
0.3751392529
0.3755039796
0.3781533805
0.3833450917
0.3909415765
0.4003874394
0.4107738761
0.2969651908
0.3017744108
0.307425866
0.3151391685
0.3241726416
0.3338378926
0.3435722172
0.3529366756
0.3616050009
0.3693433753
0.375992599
0.381454589
0.3856823194
0.3886675067
0.3904480548
0.3911009098
0.3907396743
0.3895235024
0.3876673983
0.3854621945
0.383298178
0.3816697688
0.3811398087
0.3822691344
0.3855021989
0.391038281
0.3987341424
0.4080786672
0.4182383507
0.2962775876
0.3009693963
0.3064244523
0.3138919642
0.3226692668
0.3320978109
0.3416347777
0.350853363
0.3594342956
0.3671477591
0.3738369331
0.3794051597
0.3838067881
0.387040642
0.3891442888
0.3901973788
0.3903190092
0.3896735042
0.3884805526
0.3870289852
0.3856931107
0.3849288192
0.3852439737
0.3871230999
0.390934348
0.396823238
0.4046359109
0.4138980076
0.4238487694
0.2941950389
0.2987813386
0.3040739509
0.3113354102
0.3198934176
0.3291138163
0.3384712736
0.3475507128
0.3560405685
0.3637162323
0.3704246405
0.3760721265
0.3806157774
0.384057574
0.3864409657
0.3878503241
0.3884108674
0.3882915462
0.3877155544
0.3869699435
0.3864118234
0.3864610414
0.3875664191
0.3901422809
0.3944862082
0.4006945485
0.4086023338
0.4177683538
0.4275006934
0.2907120973
0.2952051903
0.3003708616
0.3074690414
0.3158493193
0.3248963309
0.3340995512
0.3430549587
0.3514592312
0.3590941109
0.3658116764
0.3715227054
0.376188468
0.3798153871
0.3824520044
0.3841881076
0.3851550385
0.3855276577
0.3855303344
0.3854443553
0.3856080521
0.386404064
0.3882257145
0.3914214977
0.3962260969
0.4026932174
0.4106496127
0.4196850038
0.4291720709
0.2858223474
0.2902362395
0.2953143576
0.3022977893
0.3105492209
0.319466093
0.3285496658
0.3374060471
0.3457405365
0.353342289
0.3600698841
0.3658399175
0.3706191294
0.3744192886
0.3772944078
0.3793397451
0.3806917214
0.3815286657
0.3820742346
0.3826009451
0.3834255222
0.3848929655
0.3873444204
0.3910688003
0.3962460486
0.4028946539
0.4108372708
0.4196939155
0.4288980123
0.279515857
0.2838677689
0.2889043142
0.2958304458
0.3040122346
0.3128532464
0.3218630732
0.3306567832
0.3389485575
0.3465359644
0.3532853624
0.3591205309
0.3640147607
0.3679859507
0.3710937623
0.3734383966
0.3751599173
0.3764377716
0.377491886
0.3785827764
0.3800033848
0.3820614383
0.3850494499
0.38920349
0.3946569599
0.4014002429
0.4092556778
0.4178737658
0.426745162
0.271775865
0.2760882177
0.2811392844
0.2880785312
0.2962639672
0.3050975074
0.3140930974
0.3228734083
0.3311617085
0.3387650072
0.3455587416
0.3514751022
0.3564950005
0.3606430087
0.3639844155
0.3666236109
0.3687026363
0.3703996114
0.3719277957
0.3735327552
0.3754820877
0.3780472234
0.3814760062
0.385957954
0.3915876741
0.3983336261
0.4060206491
0.4143285474
0.4228014553
0.4308627619
0.2625745198
0.2668778232
0.2720146678
0.2790560699
0.2873376159
0.2962501798
0.305307497
0.3141384029
0.3224756546
0.3301368349
0.3370079004
0.3430307453
0.3481948571
0.3525319906
0.3561129144
0.3590453198
0.3614716326
0.3635663341
0.3655334048
0.3676012312
0.3700111438
0.3729995927
0.3767737904
0.381482663
0.3871881343
0.3938419003
0.4012729259
0.4091878477
0.4171789244
0.4247367165
0.2518673214
0.2562047428
0.2615215506
0.2687811622
0.2772776611
0.2863791992
0.2955942201
0.3045565928
0.3130093976
0.3207824671
0.327773962
0.3339369857
0.3392706562
0.3438144183
0.3476444004
0.3508707829
0.3536349585
0.3561058459
0.3584760529
0.3609552498
0.3637582789
0.3670883216
0.3711155795
0.3759536112
0.3816366618
0.3881027022
0.3951852157
0.4026141709
0.4100229323
0.4169599291
0.2395856968
0.2440207892
0.2496473118
0.2572811475
0.2661481887
0.275579238
0.2850722488
0.2942660061
0.3029159503
0.3108667223
0.3180310937
0.3243752665
0.3299092966
0.3346809929
0.3387718746
0.3422940293
0.3453866994
0.3482118351
0.3509492048
0.3537889818
0.3569198749
0.3605137465
0.364707253
0.3695825522
0.3751499705
0.3813354404
0.387975346
0.3948180774
0.4015302249
0.407707228
0.2256268342
0.2302574549
0.2363805098
0.2446049321
0.2540496814
0.263990177
0.2739101147
0.2834556212
0.2923988841
0.3006036524
0.3080008264
0.3145723166
0.3203408641
0.3253636209
0.3297278049
0.3335471624
0.3369581131
0.3401147993
0.3431834295
0.3463345907
0.3497318145
0.3535177721
0.3577986534
0.3626285655
0.3679961115
0.3738154089
0.3799229327
0.3860790777
0.3919740062
0.3972380658
0.2098398283
0.2148249475
0.2217265696
0.230850453
0.2411512537
0.2518294134
0.2623558036
0.2723921215
0.2817359974
0.2902773909
0.2979705465
0.3048166787
0.3108535466
0.3161490188
0.3207966724
0.3249120608
0.3286286277
0.3320924934
0.3354563729
0.3388719051
0.3424789935
0.3463934823
0.3506939684
0.3554091012
0.3605071658
0.3658895002
0.371388433
0.3767689042
0.3817337356
0.3859337085
0.1920086098
0.1976244931
0.2057518985
0.2162249278
0.2277518528
0.2394462787
0.2507824501
0.2614573531
0.2713098585
0.2802671718
0.2883141437
0.2954759129
0.30180811
0.3073910118
0.312325503
0.316729481
0.3207337759
0.3244769347
0.3280990229
0.3317341631
0.335500801
0.3394906918
0.3437577291
0.3483074109
0.3530885384
0.3579881155
0.3628296154
0.3673741701
0.3713252372
0.3743377643
0.1718414642
0.178608483
0.18869967
0.2011699903
0.2143862775
0.2274026635
0.2397467401
0.2511898235
0.2616370311
0.2710677422
0.2795060642
0.2870059938
0.293643818
0.2995137878
0.3047250656
0.3093986129
0.3136634197
0.3176515231
0.3214919415
0.3253035309
0.3291861537
0.3332107946
0.3374098651
0.3417682447
0.3462162315
0.3506251469
0.3548052607
0.3585060983
0.3614198855
0.3631887325
0.1490366963
0.1580380052
0.1713417854
0.186659424
0.2020288077
0.2166030961
0.2300702692
0.2423352659
0.2533992151
0.2633080339
0.2721317705
0.2799562083
0.286879484
0.2930102836
0.2984662583
0.3033719476
0.3078554112
0.3120436632
0.316056912
0.320001782
0.3239632154
0.3279954979
0.3321135273
0.3362848758
0.3404233564
0.3443846548
0.3479634577
0.3508924119
0.3528435483
0.3534322422
0.1239071347
0.1374032031
0.1557040013
0.1745386809
0.1922032747
0.2082896952
0.2227816705
0.2357657771
0.2473531807
0.2576582632
0.2667949631
0.27487791
0.2820242502
0.2883550288
0.2939952699
0.2990726782
0.3037150554
0.3080460814
0.3121798475
0.3162144109
0.3202242328
0.324251812
0.3282995094
0.3323221606
0.3362208611
0.3398382861
0.3429548889
0.3452863194
0.3464824378
0.3461274441
0.1009055322
0.121259415
0.1445044274
0.1659461751
0.1850057888
0.2018835842
0.2168451315
0.2301178489
0.2418884726
0.2523148956
0.2615375822
0.269688019
0.2768943666
0.2832847372
0.2889884208
0.2941352363
0.2988531882
0.3032644758
0.307480189
0.3115939954
0.3156747687
0.3197585499
0.3238406164
0.3278682889
0.331734874
0.3352746461
0.3382586283
0.3403912838
0.3413078263
0.340571559
)
;
    }
    region0_to_wallFilmRegion_mirrorFace
    {
        type            convectiveHeatTransfer;
        L               1;
        value           nonuniform List<scalar> 
133
(
1.148792489
1.410465545
2.567538947
1.527585052
1.409174313
3.267881648
3.259061982
2.292662733
3.350349579
3.26505975
3.03434636
2.432307719
3.204972352
3.168664545
2.98273425
2.930973673
1.199405292
0.9696486874
1.234464048
1.143691509
1.154257479
1.211785348
2.876665625
3.240993469
2.999268742
1.778187567
1.64875355
1.458549612
1.401562641
3.188772679
3.183333396
2.783790596
3.171713221
3.096848881
2.210346906
2.787358766
1.633852624
2.072017476
1.703598844
3.289586465
3.119606954
2.587996026
3.024441786
2.118495209
2.581417715
2.343222831
3.318371874
3.302866077
3.171972518
3.032156591
2.747805616
3.106995826
2.938203525
2.041100282
2.783327827
1.33530135
1.457701173
1.698624554
1.215045214
1.100172989
1.217179552
3.173029275
2.322711769
1.40440604
2.144676344
1.351459169
1.285430568
1.079560336
3.024911183
3.110156012
3.227416562
2.791831695
2.152981957
1.938738374
2.859325012
2.736579314
2.875834869
2.953369674
1.776548152
2.321767873
3.984385181
3.553143725
3.00762009
2.618264205
3.159097833
2.960807345
1.983044624
2.752983456
1.235955724
1.287335504
1.230279386
1.251132498
1.392601635
1.37243617
1.673017716
2.283156161
1.745593483
1.679814241
1.595156301
1.800182685
3.314014478
3.296651206
3.244618305
3.139773643
2.719038025
2.865829036
2.569730605
3.274325162
3.234825243
3.168362029
3.062660856
3.191285507
3.069905819
3.079953046
3.130010862
3.095787767
2.983350752
3.057048688
2.844107049
2.992522289
2.752424105
2.46334396
3.007185956
2.755230019
2.942833725
2.682674731
2.912465516
2.710752818
2.783257239
2.974728783
2.867418408
2.935724081
2.959797729
)
;
    }
    procBoundary3to0
    {
        type            processor;
        value           uniform 0;
    }
    procBoundary3to1
    {
        type            processor;
        value           uniform 0;
    }
    procBoundary3to2
    {
        type            processor;
        value           uniform 0;
    }
}


// ************************************************************************* //
