/*--------------------------------*- C++ -*----------------------------------*\
  =========                 |
  \\      /  F ield         | OpenFOAM: The Open Source CFD Toolbox
   \\    /   O peration     | Website:  https://openfoam.org
    \\  /    A nd           | Version:  8
     \\/     M anipulation  |
\*---------------------------------------------------------------------------*/
FoamFile
{
    version     2.0;
    format      ascii;
    class       volScalarField;
    location    "0.2";
    object      N2;
}
// * * * * * * * * * * * * * * * * * * * * * * * * * * * * * * * * * * * * * //

dimensions      [0 0 0 0 0 0 0];

internalField   nonuniform List<scalar> 
67193
(
0.7899932763
0.7899932747
0.7899932731
0.7899932716
0.7899932703
0.7899932692
0.7899932682
0.7899932674
0.7899932668
0.7899932664
0.7899932662
0.7899932661
0.7899932662
0.7899932665
0.7899932669
0.7899932674
0.7899932681
0.7899932688
0.7899932696
0.7899932705
0.7899932714
0.7899932723
0.7899932732
0.7899932741
0.7899932749
0.7899932757
0.7899932764
0.789993277
0.7899932776
0.7899932781
0.7899932785
0.7899932788
0.7899932789
0.7899932789
0.7899932817
0.78999328
0.7899932784
0.789993277
0.7899932756
0.7899932745
0.7899932735
0.7899932727
0.7899932721
0.7899932717
0.7899932715
0.7899932714
0.7899932715
0.7899932718
0.7899932723
0.7899932728
0.7899932735
0.7899932743
0.7899932751
0.789993276
0.7899932769
0.7899932778
0.7899932787
0.7899932796
0.7899932805
0.7899932813
0.789993282
0.7899932827
0.7899932832
0.7899932837
0.7899932841
0.7899932843
0.7899932826
0.7899932789
0.7899932845
0.7899932829
0.7899932812
0.7899932797
0.7899932784
0.7899932772
0.7899932762
0.7899932754
0.7899932748
0.7899932744
0.7899932742
0.7899932741
0.7899932743
0.7899932746
0.789993275
0.7899932756
0.7899932764
0.7899932772
0.789993278
0.789993279
0.7899932799
0.7899932809
0.7899932819
0.7899932828
0.7899932837
0.7899932845
0.7899932853
0.789993286
0.7899932866
0.7899932871
0.7899932875
0.7899932875
0.7899932836
0.7899932787
0.7899932836
0.7899932819
0.7899932802
0.7899932787
0.7899932773
0.7899932761
0.789993275
0.7899932742
0.7899932736
0.7899932731
0.7899932729
0.7899932729
0.7899932731
0.7899932734
0.789993274
0.7899932746
0.7899932754
0.7899932763
0.7899932773
0.7899932783
0.7899932793
0.7899932803
0.7899932814
0.7899932823
0.7899932833
0.7899932842
0.789993285
0.7899932857
0.7899932863
0.7899932869
0.7899932873
0.7899932873
0.7899932833
0.7899932783
0.7899932821
0.7899932804
0.7899932786
0.789993277
0.7899932756
0.7899932743
0.7899932732
0.7899932723
0.7899932717
0.7899932712
0.789993271
0.789993271
0.7899932712
0.7899932717
0.7899932723
0.789993273
0.7899932739
0.7899932749
0.7899932759
0.789993277
0.7899932782
0.7899932793
0.7899932804
0.7899932815
0.7899932825
0.7899932834
0.7899932843
0.7899932851
0.7899932857
0.7899932863
0.7899932868
0.7899932868
0.7899932828
0.7899932778
0.7899932804
0.7899932786
0.7899932767
0.789993275
0.7899932735
0.7899932721
0.789993271
0.78999327
0.7899932693
0.7899932689
0.7899932686
0.7899932687
0.789993269
0.7899932695
0.7899932701
0.789993271
0.789993272
0.7899932731
0.7899932743
0.7899932755
0.7899932768
0.789993278
0.7899932793
0.7899932804
0.7899932815
0.7899932825
0.7899932835
0.7899932843
0.789993285
0.7899932856
0.7899932861
0.7899932861
0.7899932822
0.7899932772
0.7899932785
0.7899932766
0.7899932746
0.7899932728
0.7899932711
0.7899932696
0.7899932684
0.7899932673
0.7899932666
0.7899932661
0.7899932659
0.7899932659
0.7899932663
0.7899932669
0.7899932677
0.7899932687
0.7899932698
0.7899932711
0.7899932724
0.7899932738
0.7899932752
0.7899932766
0.7899932779
0.7899932792
0.7899932804
0.7899932815
0.7899932825
0.7899932834
0.7899932842
0.7899932848
0.7899932853
0.7899932854
0.7899932814
0.7899932765
0.7899932766
0.7899932745
0.7899932724
0.7899932704
0.7899932685
0.7899932669
0.7899932655
0.7899932643
0.7899932635
0.7899932629
0.7899932627
0.7899932628
0.7899932632
0.7899932639
0.7899932649
0.789993266
0.7899932673
0.7899932687
0.7899932702
0.7899932718
0.7899932734
0.7899932749
0.7899932764
0.7899932778
0.7899932791
0.7899932803
0.7899932814
0.7899932823
0.7899932832
0.7899932839
0.7899932844
0.7899932845
0.7899932806
0.7899932756
0.7899932748
0.7899932725
0.7899932701
0.7899932679
0.7899932659
0.789993264
0.7899932624
0.7899932611
0.7899932601
0.7899932595
0.7899932593
0.7899932594
0.7899932599
0.7899932607
0.7899932618
0.7899932631
0.7899932646
0.7899932662
0.7899932679
0.7899932696
0.7899932714
0.7899932731
0.7899932747
0.7899932762
0.7899932776
0.789993279
0.7899932801
0.7899932812
0.7899932821
0.7899932828
0.7899932834
0.7899932835
0.7899932796
0.7899932747
0.789993273
0.7899932705
0.7899932679
0.7899932654
0.7899932631
0.789993261
0.7899932592
0.7899932577
0.7899932566
0.7899932559
0.7899932556
0.7899932557
0.7899932563
0.7899932572
0.7899932584
0.7899932599
0.7899932616
0.7899932634
0.7899932654
0.7899932673
0.7899932692
0.7899932711
0.7899932729
0.7899932745
0.7899932761
0.7899932775
0.7899932788
0.7899932799
0.7899932809
0.7899932817
0.7899932823
0.7899932825
0.7899932785
0.7899932736
0.7899932714
0.7899932686
0.7899932658
0.789993263
0.7899932604
0.789993258
0.789993256
0.7899932542
0.7899932529
0.7899932521
0.7899932518
0.7899932519
0.7899932525
0.7899932536
0.7899932549
0.7899932566
0.7899932585
0.7899932606
0.7899932627
0.7899932649
0.789993267
0.789993269
0.789993271
0.7899932728
0.7899932745
0.789993276
0.7899932774
0.7899932785
0.7899932796
0.7899932804
0.7899932811
0.7899932813
0.7899932774
0.7899932725
0.7899932701
0.789993267
0.7899932638
0.7899932607
0.7899932578
0.7899932551
0.7899932527
0.7899932508
0.7899932493
0.7899932483
0.7899932479
0.789993248
0.7899932487
0.7899932498
0.7899932514
0.7899932533
0.7899932554
0.7899932577
0.78999326
0.7899932624
0.7899932647
0.7899932669
0.789993269
0.789993271
0.7899932728
0.7899932744
0.7899932758
0.7899932771
0.7899932782
0.7899932791
0.7899932798
0.78999328
0.7899932761
0.7899932712
0.789993269
0.7899932655
0.7899932621
0.7899932586
0.7899932553
0.7899932523
0.7899932496
0.7899932473
0.7899932456
0.7899932445
0.789993244
0.7899932442
0.7899932449
0.7899932462
0.7899932479
0.7899932499
0.7899932523
0.7899932548
0.7899932574
0.7899932599
0.7899932624
0.7899932648
0.7899932671
0.7899932691
0.789993271
0.7899932727
0.7899932743
0.7899932756
0.7899932767
0.7899932777
0.7899932784
0.7899932786
0.7899932747
0.7899932698
0.7899932681
0.7899932644
0.7899932606
0.7899932567
0.7899932531
0.7899932497
0.7899932466
0.7899932441
0.7899932421
0.7899932409
0.7899932403
0.7899932405
0.7899932413
0.7899932426
0.7899932445
0.7899932467
0.7899932493
0.789993252
0.7899932548
0.7899932575
0.7899932602
0.7899932627
0.7899932651
0.7899932673
0.7899932693
0.789993271
0.7899932726
0.789993274
0.7899932752
0.7899932761
0.7899932769
0.7899932771
0.7899932733
0.7899932684
0.7899932676
0.7899932636
0.7899932594
0.7899932553
0.7899932512
0.7899932474
0.789993244
0.7899932411
0.7899932389
0.7899932375
0.7899932369
0.789993237
0.7899932379
0.7899932394
0.7899932414
0.7899932438
0.7899932465
0.7899932494
0.7899932523
0.7899932552
0.789993258
0.7899932607
0.7899932632
0.7899932654
0.7899932675
0.7899932693
0.7899932709
0.7899932723
0.7899932735
0.7899932745
0.7899932753
0.7899932755
0.7899932717
0.7899932668
0.7899932674
0.7899932631
0.7899932587
0.7899932542
0.7899932497
0.7899932456
0.7899932418
0.7899932386
0.7899932362
0.7899932346
0.7899932338
0.789993234
0.7899932349
0.7899932365
0.7899932387
0.7899932412
0.789993244
0.789993247
0.7899932501
0.7899932531
0.789993256
0.7899932587
0.7899932613
0.7899932636
0.7899932657
0.7899932675
0.7899932692
0.7899932706
0.7899932718
0.7899932728
0.7899932736
0.7899932738
0.78999327
0.7899932651
0.7899932676
0.7899932631
0.7899932584
0.7899932536
0.7899932489
0.7899932443
0.7899932403
0.7899932368
0.7899932341
0.7899932323
0.7899932314
0.7899932315
0.7899932325
0.7899932342
0.7899932364
0.7899932391
0.789993242
0.789993245
0.7899932481
0.7899932512
0.7899932541
0.7899932569
0.7899932594
0.7899932617
0.7899932638
0.7899932657
0.7899932673
0.7899932688
0.78999327
0.789993271
0.7899932717
0.789993272
0.7899932681
0.7899932632
0.7899932682
0.7899932635
0.7899932586
0.7899932536
0.7899932486
0.7899932438
0.7899932394
0.7899932357
0.7899932327
0.7899932308
0.7899932298
0.7899932299
0.7899932308
0.7899932325
0.7899932348
0.7899932375
0.7899932404
0.7899932433
0.7899932464
0.7899932495
0.7899932524
0.7899932551
0.7899932576
0.7899932599
0.789993262
0.7899932638
0.7899932654
0.7899932668
0.789993268
0.789993269
0.7899932697
0.78999327
0.7899932661
0.7899932612
0.7899932691
0.7899932643
0.7899932593
0.7899932541
0.789993249
0.789993244
0.7899932394
0.7899932355
0.7899932323
0.7899932302
0.7899932291
0.7899932291
0.7899932299
0.7899932316
0.7899932338
0.7899932364
0.7899932392
0.7899932421
0.789993245
0.789993248
0.7899932507
0.7899932534
0.7899932558
0.789993258
0.78999326
0.7899932618
0.7899932633
0.7899932647
0.7899932659
0.7899932668
0.7899932676
0.7899932678
0.7899932639
0.789993259
0.7899932703
0.7899932655
0.7899932605
0.7899932553
0.7899932501
0.7899932449
0.7899932403
0.7899932362
0.789993233
0.7899932307
0.7899932294
0.7899932292
0.7899932299
0.7899932314
0.7899932334
0.7899932358
0.7899932384
0.7899932411
0.7899932438
0.7899932466
0.7899932492
0.7899932517
0.789993254
0.789993256
0.7899932579
0.7899932596
0.7899932611
0.7899932624
0.7899932635
0.7899932644
0.7899932652
0.7899932654
0.7899932615
0.7899932566
0.7899932718
0.7899932671
0.7899932621
0.7899932569
0.7899932519
0.7899932464
0.7899932419
0.7899932378
0.7899932345
0.7899932321
0.7899932306
0.7899932302
0.7899932307
0.7899932318
0.7899932335
0.7899932356
0.7899932379
0.7899932403
0.7899932428
0.7899932453
0.7899932476
0.7899932499
0.789993252
0.7899932539
0.7899932557
0.7899932572
0.7899932586
0.7899932599
0.7899932609
0.7899932618
0.7899932625
0.7899932627
0.7899932588
0.7899932539
0.7899932734
0.7899932688
0.7899932639
0.7899932589
0.7899932539
0.7899932488
0.7899932442
0.7899932401
0.7899932367
0.7899932342
0.7899932326
0.7899932319
0.789993232
0.7899932327
0.789993234
0.7899932357
0.7899932376
0.7899932396
0.7899932418
0.7899932439
0.7899932459
0.7899932479
0.7899932498
0.7899932515
0.7899932531
0.7899932546
0.7899932559
0.789993257
0.789993258
0.7899932589
0.7899932595
0.7899932597
0.7899932558
0.7899932509
0.789993275
0.7899932705
0.7899932658
0.789993261
0.7899932561
0.7899932513
0.7899932468
0.7899932428
0.7899932394
0.7899932367
0.7899932349
0.7899932338
0.7899932335
0.7899932338
0.7899932346
0.7899932358
0.7899932372
0.7899932388
0.7899932405
0.7899932422
0.7899932439
0.7899932456
0.7899932472
0.7899932487
0.7899932501
0.7899932515
0.7899932527
0.7899932538
0.7899932547
0.7899932555
0.7899932562
0.7899932564
0.7899932524
0.7899932475
0.7899932764
0.7899932722
0.7899932677
0.789993263
0.7899932583
0.7899932539
0.7899932495
0.7899932455
0.7899932421
0.7899932393
0.7899932372
0.7899932357
0.789993235
0.7899932347
0.789993235
0.7899932356
0.7899932365
0.7899932376
0.7899932388
0.7899932401
0.7899932414
0.7899932428
0.7899932441
0.7899932454
0.7899932467
0.7899932479
0.789993249
0.78999325
0.789993251
0.7899932517
0.7899932524
0.7899932525
0.7899932486
0.7899932437
0.7899932815
0.7899932777
0.7899932736
0.7899932693
0.7899932649
0.7899932604
0.789993256
0.7899932518
0.7899932479
0.7899932444
0.7899932414
0.789993239
0.7899932372
0.7899932359
0.7899932352
0.7899932348
0.7899932348
0.7899932351
0.7899932357
0.7899932364
0.7899932373
0.7899932383
0.7899932393
0.7899932404
0.7899932415
0.7899932426
0.7899932437
0.7899932447
0.7899932457
0.7899932466
0.7899932474
0.7899932481
0.7899932483
0.7899932443
0.7899932394
0.7899932822
0.7899932786
0.7899932746
0.7899932705
0.7899932662
0.7899932619
0.7899932577
0.7899932535
0.7899932496
0.7899932461
0.7899932429
0.7899932402
0.7899932379
0.7899932361
0.7899932348
0.7899932338
0.7899932332
0.7899932329
0.7899932329
0.7899932331
0.7899932336
0.7899932342
0.7899932349
0.7899932358
0.7899932367
0.7899932377
0.7899932387
0.7899932398
0.7899932407
0.7899932417
0.7899932425
0.7899932432
0.7899932434
0.7899932395
0.7899932346
0.7899932823
0.7899932789
0.7899932751
0.7899932711
0.7899932669
0.7899932627
0.7899932586
0.7899932544
0.7899932505
0.7899932468
0.7899932434
0.7899932403
0.7899932376
0.7899932352
0.7899932332
0.7899932316
0.7899932303
0.7899932294
0.7899932289
0.7899932287
0.7899932287
0.789993229
0.7899932295
0.7899932301
0.789993231
0.7899932319
0.7899932329
0.7899932339
0.789993235
0.789993236
0.7899932369
0.7899932377
0.7899932379
0.7899932341
0.7899932292
0.789993282
0.7899932785
0.7899932748
0.7899932709
0.7899932668
0.7899932627
0.7899932586
0.7899932544
0.7899932504
0.7899932464
0.7899932427
0.7899932392
0.7899932359
0.7899932329
0.7899932302
0.7899932279
0.789993226
0.7899932245
0.7899932234
0.7899932227
0.7899932224
0.7899932224
0.7899932227
0.7899932232
0.789993224
0.7899932249
0.789993226
0.7899932271
0.7899932283
0.7899932295
0.7899932305
0.7899932314
0.7899932318
0.789993228
0.7899932232
0.7899932774
0.7899932738
0.7899932699
0.7899932658
0.7899932617
0.7899932575
0.7899932533
0.789993249
0.7899932448
0.7899932407
0.7899932366
0.7899932327
0.7899932291
0.7899932257
0.7899932226
0.78999322
0.7899932179
0.7899932163
0.7899932152
0.7899932145
0.7899932143
0.7899932145
0.789993215
0.7899932157
0.7899932167
0.7899932179
0.7899932192
0.7899932206
0.789993222
0.7899932233
0.7899932244
0.7899932249
0.7899932212
0.7899932165
0.7899932756
0.7899932719
0.7899932679
0.7899932638
0.7899932596
0.7899932553
0.7899932509
0.7899932464
0.7899932419
0.7899932373
0.7899932327
0.7899932281
0.789993206
0.7899932072
0.7899932087
0.7899932103
0.789993212
0.7899932137
0.7899932153
0.7899932166
0.7899932174
0.7899932139
0.7899932092
0.789993265
0.7899932608
0.7899932564
0.7899932519
0.7899932473
0.7899932426
0.7899937224
0.7899937208
0.7899937192
0.7899937178
0.7899937165
0.7899937153
0.7899937144
0.7899937135
0.7899937129
0.7899937124
0.7899937121
0.789993712
0.789993712
0.7899937122
0.7899937126
0.789993713
0.7899937136
0.7899937142
0.7899937149
0.7899937157
0.7899937165
0.7899937173
0.7899937181
0.7899937189
0.7899937197
0.7899937204
0.7899937211
0.7899937217
0.7899937222
0.7899937226
0.789993723
0.7899937232
0.7899937234
0.7899937236
0.7899937248
0.7899937231
0.7899937215
0.7899937201
0.7899937187
0.7899937176
0.7899937166
0.7899937158
0.7899937151
0.7899937146
0.7899937144
0.7899937142
0.7899937143
0.7899937145
0.7899937148
0.7899937153
0.7899937159
0.7899937166
0.7899937173
0.7899937181
0.7899937189
0.7899937198
0.7899937206
0.7899937214
0.7899937222
0.7899937229
0.7899937236
0.7899937242
0.7899937247
0.7899937252
0.7899937255
0.7899937257
0.7899937246
0.7899937234
0.7899937319
0.7899937301
0.7899937285
0.789993727
0.7899937257
0.7899937245
0.7899937235
0.7899937227
0.789993722
0.7899937215
0.7899937212
0.7899937211
0.7899937212
0.7899937215
0.7899937218
0.7899937224
0.789993723
0.7899937237
0.7899937245
0.7899937254
0.7899937262
0.7899937271
0.789993728
0.7899937288
0.7899937296
0.7899937304
0.7899937311
0.7899937317
0.7899937323
0.7899937327
0.789993733
0.7899937319
0.7899937252
0.7899937232
0.7899937322
0.7899937303
0.7899937287
0.7899937272
0.7899937258
0.7899937246
0.7899937236
0.7899937227
0.789993722
0.7899937215
0.7899937213
0.7899937212
0.7899937213
0.7899937216
0.789993722
0.7899937226
0.7899937233
0.7899937241
0.789993725
0.7899937259
0.7899937268
0.7899937278
0.7899937287
0.7899937296
0.7899937305
0.7899937313
0.789993732
0.7899937327
0.7899937333
0.7899937338
0.789993734
0.7899937325
0.7899937249
0.7899937229
0.7899937308
0.789993729
0.7899937273
0.7899937257
0.7899937243
0.789993723
0.7899937219
0.7899937209
0.7899937202
0.7899937197
0.7899937195
0.7899937194
0.7899937196
0.7899937199
0.7899937204
0.7899937211
0.7899937219
0.7899937228
0.7899937238
0.7899937248
0.7899937258
0.7899937269
0.7899937279
0.7899937289
0.7899937298
0.7899937307
0.7899937315
0.7899937322
0.7899937328
0.7899937333
0.7899937336
0.789993732
0.7899937245
0.7899937224
0.7899937292
0.7899937273
0.7899937255
0.7899937238
0.7899937223
0.7899937209
0.7899937197
0.7899937187
0.789993718
0.7899937174
0.7899937172
0.7899937172
0.7899937174
0.7899937178
0.7899937184
0.7899937192
0.7899937201
0.7899937211
0.7899937222
0.7899937234
0.7899937245
0.7899937257
0.7899937268
0.7899937279
0.7899937289
0.7899937298
0.7899937307
0.7899937315
0.7899937321
0.7899937327
0.789993733
0.7899937315
0.7899937239
0.7899937218
0.7899937274
0.7899937254
0.7899937235
0.7899937217
0.78999372
0.7899937185
0.7899937172
0.7899937161
0.7899937153
0.7899937148
0.7899937145
0.7899937145
0.7899937148
0.7899937153
0.789993716
0.7899937169
0.789993718
0.7899937191
0.7899937204
0.7899937217
0.789993723
0.7899937243
0.7899937255
0.7899937267
0.7899937278
0.7899937288
0.7899937298
0.7899937306
0.7899937313
0.7899937319
0.7899937323
0.7899937307
0.7899937232
0.7899937212
0.7899937256
0.7899937234
0.7899937213
0.7899937193
0.7899937175
0.7899937158
0.7899937144
0.7899937132
0.7899937123
0.7899937117
0.7899937114
0.7899937115
0.7899937118
0.7899937124
0.7899937133
0.7899937143
0.7899937155
0.7899937169
0.7899937183
0.7899937198
0.7899937212
0.7899937227
0.7899937241
0.7899937254
0.7899937266
0.7899937277
0.7899937287
0.7899937296
0.7899937304
0.789993731
0.7899937314
0.7899937299
0.7899937224
0.7899937204
0.7899937238
0.7899937213
0.7899937191
0.7899937168
0.7899937148
0.7899937129
0.7899937113
0.78999371
0.789993709
0.7899937083
0.789993708
0.7899937081
0.7899937085
0.7899937092
0.7899937102
0.7899937115
0.7899937129
0.7899937144
0.789993716
0.7899937177
0.7899937193
0.7899937209
0.7899937225
0.7899937239
0.7899937252
0.7899937265
0.7899937276
0.7899937285
0.7899937294
0.7899937301
0.7899937305
0.789993729
0.7899937215
0.7899937195
0.789993722
0.7899937194
0.7899937168
0.7899937143
0.789993712
0.7899937099
0.7899937081
0.7899937065
0.7899937054
0.7899937047
0.7899937043
0.7899937045
0.789993705
0.7899937058
0.789993707
0.7899937084
0.78999371
0.7899937118
0.7899937136
0.7899937154
0.7899937173
0.789993719
0.7899937207
0.7899937223
0.7899937238
0.7899937251
0.7899937263
0.7899937273
0.7899937282
0.789993729
0.7899937294
0.789993728
0.7899937205
0.7899937185
0.7899937205
0.7899937175
0.7899937146
0.7899937119
0.7899937092
0.7899937068
0.7899937047
0.789993703
0.7899937016
0.7899937008
0.7899937005
0.7899937006
0.7899937012
0.7899937022
0.7899937036
0.7899937052
0.789993707
0.789993709
0.7899937111
0.7899937131
0.7899937151
0.7899937171
0.7899937189
0.7899937207
0.7899937222
0.7899937237
0.789993725
0.7899937261
0.789993727
0.7899937278
0.7899937283
0.7899937269
0.7899937194
0.7899937174
0.7899937191
0.7899937158
0.7899937126
0.7899937095
0.7899937065
0.7899937038
0.7899937013
0.7899936993
0.7899936978
0.7899936968
0.7899936964
0.7899936966
0.7899936973
0.7899936985
0.7899937
0.7899937019
0.789993704
0.7899937062
0.7899937085
0.7899937107
0.789993713
0.7899937151
0.7899937171
0.789993719
0.7899937206
0.7899937222
0.7899937235
0.7899937247
0.7899937257
0.7899937265
0.7899937271
0.7899937257
0.7899937182
0.7899937162
0.789993718
0.7899937144
0.7899937109
0.7899937073
0.7899937039
0.7899937008
0.789993698
0.7899936957
0.7899936939
0.7899936928
0.7899936923
0.7899936926
0.7899936934
0.7899936947
0.7899936965
0.7899936986
0.7899937009
0.7899937034
0.7899937059
0.7899937084
0.7899937108
0.7899937131
0.7899937152
0.7899937172
0.789993719
0.7899937206
0.789993722
0.7899937233
0.7899937243
0.7899937252
0.7899937258
0.7899937244
0.7899937169
0.789993715
0.7899937172
0.7899937132
0.7899937093
0.7899937054
0.7899937016
0.789993698
0.7899936949
0.7899936922
0.7899936902
0.7899936889
0.7899936884
0.7899936886
0.7899936895
0.789993691
0.789993693
0.7899936954
0.789993698
0.7899937007
0.7899937034
0.7899937061
0.7899937087
0.7899937111
0.7899937134
0.7899937155
0.7899937173
0.789993719
0.7899937205
0.7899937218
0.7899937229
0.7899937238
0.7899937243
0.789993723
0.7899937156
0.7899937136
0.7899937167
0.7899937124
0.7899937082
0.7899937039
0.7899936996
0.7899936956
0.789993692
0.789993689
0.7899936867
0.7899936852
0.7899936846
0.7899936849
0.7899936859
0.7899936876
0.7899936898
0.7899936924
0.7899936952
0.7899936982
0.7899937011
0.7899937039
0.7899937067
0.7899937092
0.7899937116
0.7899937137
0.7899937157
0.7899937174
0.7899937189
0.7899937202
0.7899937213
0.7899937223
0.7899937228
0.7899937215
0.7899937141
0.7899937121
0.7899937166
0.789993712
0.7899937074
0.7899937028
0.789993698
0.7899936937
0.7899936897
0.7899936863
0.7899936837
0.789993682
0.7899936813
0.7899936816
0.7899936827
0.7899936846
0.789993687
0.7899936898
0.7899936928
0.7899936959
0.789993699
0.7899937019
0.7899937048
0.7899937074
0.7899937098
0.789993712
0.789993714
0.7899937157
0.7899937173
0.7899937186
0.7899937197
0.7899937206
0.7899937212
0.7899937199
0.7899937125
0.7899937105
0.7899937169
0.7899937121
0.7899937072
0.7899937022
0.7899936972
0.7899936923
0.7899936879
0.7899936842
0.7899936813
0.7899936794
0.7899936786
0.7899936789
0.7899936801
0.7899936821
0.7899936847
0.7899936876
0.7899936908
0.789993694
0.7899936971
0.7899937002
0.789993703
0.7899937057
0.7899937081
0.7899937103
0.7899937123
0.789993714
0.7899937156
0.7899937169
0.789993718
0.7899937189
0.7899937195
0.7899937182
0.7899937107
0.7899937088
0.7899937176
0.7899937125
0.7899937074
0.7899937022
0.7899936969
0.7899936917
0.789993687
0.789993683
0.7899936798
0.7899936777
0.7899936768
0.789993677
0.7899936783
0.7899936803
0.789993683
0.789993686
0.7899936892
0.7899936924
0.7899936956
0.7899936986
0.7899937014
0.7899937041
0.7899937064
0.7899937086
0.7899937105
0.7899937123
0.7899937138
0.789993715
0.7899937161
0.789993717
0.7899937176
0.7899937163
0.7899937088
0.7899937068
0.7899937186
0.7899937135
0.7899937083
0.7899937028
0.7899936975
0.7899936918
0.789993687
0.7899936827
0.7899936793
0.7899936771
0.789993676
0.7899936762
0.7899936774
0.7899936794
0.789993682
0.7899936849
0.7899936881
0.7899936912
0.7899936943
0.7899936972
0.7899937
0.7899937025
0.7899937048
0.7899937069
0.7899937087
0.7899937104
0.7899937118
0.7899937131
0.7899937141
0.789993715
0.7899937155
0.7899937142
0.7899937067
0.7899937048
0.78999372
0.7899937148
0.7899937096
0.7899937041
0.7899936986
0.7899936931
0.789993688
0.7899936836
0.7899936801
0.7899936777
0.7899936765
0.7899936765
0.7899936775
0.7899936794
0.7899936818
0.7899936845
0.7899936874
0.7899936904
0.7899936933
0.789993696
0.7899936986
0.7899937009
0.7899937031
0.7899937051
0.7899937068
0.7899937084
0.7899937097
0.7899937109
0.7899937119
0.7899937127
0.7899937133
0.7899937119
0.7899937044
0.7899937024
0.7899937216
0.7899937165
0.7899937114
0.7899937059
0.7899937005
0.789993695
0.78999369
0.7899936855
0.789993682
0.7899936794
0.7899936781
0.7899936778
0.7899936786
0.7899936801
0.7899936822
0.7899936846
0.7899936872
0.7899936898
0.7899936924
0.7899936949
0.7899936972
0.7899936993
0.7899937013
0.7899937031
0.7899937047
0.7899937061
0.7899937074
0.7899937085
0.7899937095
0.7899937102
0.7899937107
0.7899937093
0.7899937019
0.7899936999
0.7899937234
0.7899937185
0.7899937134
0.7899937082
0.7899937029
0.7899936976
0.7899936927
0.7899936883
0.7899936847
0.7899936821
0.7899936805
0.78999368
0.7899936803
0.7899936814
0.789993683
0.789993685
0.7899936871
0.7899936893
0.7899936915
0.7899936936
0.7899936956
0.7899936975
0.7899936993
0.7899937009
0.7899937023
0.7899937036
0.7899937048
0.7899937058
0.7899937067
0.7899937074
0.7899937079
0.7899937065
0.789993699
0.789993697
0.7899937252
0.7899937205
0.7899937156
0.7899937106
0.7899937055
0.7899937005
0.7899936958
0.7899936915
0.789993688
0.7899936852
0.7899936834
0.7899936825
0.7899936824
0.7899936829
0.789993684
0.7899936854
0.789993687
0.7899936887
0.7899936905
0.7899936922
0.7899936938
0.7899936954
0.7899936969
0.7899936983
0.7899936995
0.7899937007
0.7899937018
0.7899937027
0.7899937035
0.7899937042
0.7899937047
0.7899937032
0.7899936957
0.7899936937
0.7899937268
0.7899937224
0.7899937178
0.789993713
0.7899937082
0.7899937034
0.7899936989
0.7899936948
0.7899936912
0.7899936884
0.7899936863
0.789993685
0.7899936844
0.7899936843
0.7899936848
0.7899936856
0.7899936866
0.7899936877
0.789993689
0.7899936903
0.7899936915
0.7899936928
0.789993694
0.7899936952
0.7899936963
0.7899936973
0.7899936983
0.7899936992
0.7899936999
0.7899937006
0.789993701
0.7899936996
0.7899936921
0.7899936901
0.7899937322
0.7899937281
0.789993724
0.7899937196
0.7899937151
0.7899937105
0.789993706
0.7899937017
0.7899936977
0.7899936941
0.7899936911
0.7899936888
0.789993687
0.7899936859
0.7899936852
0.789993685
0.7899936851
0.7899936855
0.7899936861
0.7899936868
0.7899936877
0.7899936886
0.7899936895
0.7899936905
0.7899936914
0.7899936924
0.7899936933
0.7899936942
0.789993695
0.7899936958
0.7899936965
0.7899936969
0.7899936954
0.7899936879
0.7899936859
0.7899937328
0.7899937291
0.7899937251
0.789993721
0.7899937167
0.7899937123
0.789993708
0.7899937038
0.7899936999
0.7899936963
0.7899936931
0.7899936904
0.7899936882
0.7899936865
0.7899936852
0.7899936843
0.7899936838
0.7899936836
0.7899936836
0.7899936838
0.7899936842
0.7899936847
0.7899936853
0.7899936861
0.7899936869
0.7899936877
0.7899936885
0.7899936894
0.7899936902
0.789993691
0.7899936917
0.7899936922
0.7899936907
0.7899936833
0.7899936813
0.7899937331
0.7899937295
0.7899937257
0.7899937217
0.7899937176
0.7899937134
0.7899937092
0.7899937051
0.7899937011
0.7899936974
0.789993694
0.789993691
0.7899936883
0.789993686
0.789993684
0.7899936824
0.7899936812
0.7899936803
0.7899936798
0.7899936795
0.7899936795
0.7899936797
0.7899936801
0.7899936806
0.7899936813
0.7899936821
0.7899936829
0.7899936838
0.7899936846
0.7899936855
0.7899936863
0.7899936868
0.7899936854
0.789993678
0.7899936761
0.789993733
0.7899937292
0.7899937256
0.7899937217
0.7899937177
0.7899937136
0.7899937095
0.7899937052
0.7899937013
0.7899936974
0.7899936937
0.7899936902
0.7899936869
0.789993684
0.7899936813
0.789993679
0.7899936771
0.7899936756
0.7899936745
0.7899936737
0.7899936734
0.7899936733
0.7899936735
0.7899936739
0.7899936745
0.7899936753
0.7899936762
0.7899936772
0.7899936782
0.7899936791
0.78999368
0.7899936807
0.7899936794
0.7899936721
0.7899936702
0.7899937284
0.7899937246
0.7899937207
0.7899937168
0.7899937127
0.7899937086
0.7899937044
0.7899937002
0.789993696
0.7899936919
0.7899936879
0.789993684
0.7899936805
0.7899936771
0.7899936741
0.7899936714
0.7899936693
0.7899936676
0.7899936665
0.7899936658
0.7899936655
0.7899936656
0.7899936659
0.7899936663
0.7899936672
0.7899936682
0.7899936694
0.7899936706
0.7899936718
0.789993673
0.7899936738
0.7899936727
0.7899936655
0.7899936636
0.7899937268
0.7899937229
0.7899937188
0.7899937148
0.7899937107
0.7899937064
0.7899937021
0.7899936977
0.7899936934
0.7899936888
0.7899936842
0.7899936801
0.7899936573
0.7899936582
0.7899936595
0.7899936607
0.7899936623
0.7899936638
0.7899936652
0.7899936663
0.7899936655
0.7899936583
0.7899936565
0.7899937165
0.789993712
0.7899937077
0.7899937033
0.7899936988
0.7899936944
0.7899939931
0.7899939916
0.7899939902
0.7899939888
0.7899939876
0.7899939865
0.7899939855
0.7899939848
0.7899939842
0.7899939838
0.7899939835
0.7899939834
0.7899939835
0.7899939837
0.7899939841
0.7899939846
0.7899939852
0.7899939859
0.7899939866
0.7899939874
0.7899939882
0.7899939891
0.7899939899
0.7899939907
0.7899939915
0.7899939922
0.7899939928
0.7899939934
0.789993994
0.7899939944
0.7899939948
0.789993995
0.7899939952
0.7899939954
0.7899939932
0.7899939915
0.7899939901
0.7899939887
0.7899939875
0.7899939864
0.7899939854
0.7899939847
0.7899939841
0.7899939836
0.7899939834
0.7899939833
0.7899939834
0.7899939836
0.789993984
0.7899939845
0.7899939852
0.7899939859
0.7899939866
0.7899939875
0.7899939883
0.7899939892
0.78999399
0.7899939908
0.7899939916
0.7899939924
0.7899939931
0.7899939937
0.7899939942
0.7899939946
0.789993995
0.7899939952
0.7899939949
0.7899939953
0.789993998
0.7899939963
0.7899939948
0.7899939934
0.7899939921
0.789993991
0.7899939901
0.7899939893
0.7899939887
0.7899939882
0.789993988
0.7899939879
0.7899939881
0.7899939883
0.7899939888
0.7899939893
0.78999399
0.7899939908
0.7899939916
0.7899939925
0.7899939934
0.7899939943
0.7899939952
0.7899939961
0.7899939969
0.7899939977
0.7899939984
0.789993999
0.7899939996
0.789994
0.7899940003
0.7899939994
0.789993995
0.789993995
0.7899939981
0.7899939964
0.7899939948
0.7899939934
0.7899939921
0.7899939909
0.7899939899
0.7899939891
0.7899939885
0.7899939881
0.7899939878
0.7899939878
0.789993988
0.7899939883
0.7899939888
0.7899939894
0.7899939902
0.789993991
0.7899939919
0.7899939929
0.7899939939
0.7899939949
0.7899939958
0.7899939968
0.7899939976
0.7899939985
0.7899939992
0.7899939999
0.7899940005
0.789994001
0.7899940012
0.7899939998
0.7899939947
0.7899939947
0.7899939967
0.7899939949
0.7899939933
0.7899939918
0.7899939904
0.7899939892
0.7899939881
0.7899939873
0.7899939866
0.7899939862
0.789993986
0.789993986
0.7899939862
0.7899939866
0.7899939872
0.7899939879
0.7899939887
0.7899939897
0.7899939907
0.7899939918
0.7899939929
0.789993994
0.789993995
0.789993996
0.789993997
0.7899939979
0.7899939987
0.7899939994
0.789994
0.7899940005
0.7899940008
0.7899939994
0.7899939942
0.7899939942
0.7899939949
0.789993993
0.7899939914
0.7899939898
0.7899939883
0.789993987
0.7899939858
0.7899939849
0.7899939842
0.7899939837
0.7899939835
0.7899939836
0.7899939838
0.7899939843
0.789993985
0.7899939859
0.7899939869
0.7899939879
0.7899939891
0.7899939903
0.7899939915
0.7899939927
0.7899939939
0.789993995
0.789993996
0.789993997
0.7899939979
0.7899939987
0.7899939993
0.7899939999
0.7899940002
0.7899939988
0.7899939936
0.7899939936
0.789993993
0.789993991
0.7899939892
0.7899939874
0.7899939858
0.7899939844
0.7899939831
0.7899939821
0.7899939813
0.7899939808
0.7899939806
0.7899939807
0.7899939811
0.7899939817
0.7899939825
0.7899939835
0.7899939846
0.7899939859
0.7899939872
0.7899939886
0.7899939899
0.7899939913
0.7899939926
0.7899939938
0.7899939949
0.789993996
0.789993997
0.7899939978
0.7899939985
0.7899939991
0.7899939994
0.7899939981
0.7899939929
0.7899939929
0.7899939911