/*--------------------------------*- C++ -*----------------------------------*\
  =========                 |
  \\      /  F ield         | OpenFOAM: The Open Source CFD Toolbox
   \\    /   O peration     | Website:  https://openfoam.org
    \\  /    A nd           | Version:  8
     \\/     M anipulation  |
\*---------------------------------------------------------------------------*/
FoamFile
{
    version     2.0;
    format      ascii;
    class       volScalarField;
    location    "0.2";
    object      nut;
}
// * * * * * * * * * * * * * * * * * * * * * * * * * * * * * * * * * * * * * //

dimensions      [0 2 -1 0 0 0 0];

internalField   nonuniform List<scalar> 
67193
(
5.879012193e-07
5.878990362e-07
5.878992087e-07
5.878993695e-07
5.878994834e-07
5.878995446e-07
5.878995478e-07
5.878994887e-07
5.878993641e-07
5.87899172e-07
5.878989123e-07
5.878985866e-07
5.878981982e-07
5.878977524e-07
5.878972554e-07
5.878967153e-07
5.878961407e-07
5.878955408e-07
5.878949253e-07
5.878943037e-07
5.878936851e-07
5.878930784e-07
5.878924916e-07
5.878919319e-07
5.87891406e-07
5.878909196e-07
5.878904782e-07
5.878900866e-07
5.8788975e-07
5.878894747e-07
5.878892071e-07
5.878831943e-07
5.874594386e-07
4.898181274e-07
6.407908879e-07
6.40788574e-07
6.407885808e-07
6.407885614e-07
6.407884857e-07
6.407883537e-07
6.407881665e-07
6.407879264e-07
6.407876366e-07
6.40787301e-07
6.407869243e-07
6.407865122e-07
6.407860707e-07
6.407856063e-07
6.407851256e-07
6.407846355e-07
6.407841424e-07
6.407836527e-07
6.407831721e-07
6.407827057e-07
6.407822582e-07
6.407818334e-07
6.407814345e-07
6.40781064e-07
6.40780724e-07
6.407804158e-07
6.407801405e-07
6.407798985e-07
6.407796898e-07
6.407795079e-07
6.407789449e-07
6.40757111e-07
6.399057859e-07
5.21029916e-07
6.415999958e-07
6.415977478e-07
6.415977276e-07
6.415976121e-07
6.415973732e-07
6.415970128e-07
6.415965356e-07
6.415959486e-07
6.415952604e-07
6.415944811e-07
6.415936223e-07
6.415926969e-07
6.415917183e-07
6.415907005e-07
6.415896576e-07
6.415886035e-07
6.415875511e-07
6.415865128e-07
6.415854996e-07
6.415845214e-07
6.415835866e-07
6.415827024e-07
6.415818743e-07
6.415811071e-07
6.415804039e-07
6.415797671e-07
6.41579198e-07
6.415786967e-07
6.415782613e-07
6.415778613e-07
6.415761909e-07
6.415267243e-07
6.403166122e-07
5.211454643e-07
6.416337479e-07
6.416315199e-07
6.416315033e-07
6.416313813e-07
6.416311283e-07
6.41630746e-07
6.416302395e-07
6.416296159e-07
6.416288841e-07
6.41628055e-07
6.41627141e-07
6.416261556e-07
6.416251135e-07
6.416240296e-07
6.416229191e-07
6.416217969e-07
6.416206769e-07
6.416195722e-07
6.416184948e-07
6.41617455e-07
6.416164618e-07
6.416155227e-07
6.416146437e-07
6.416138295e-07
6.416130835e-07
6.41612408e-07
6.416118042e-07
6.416112722e-07
6.416108095e-07
6.416103806e-07
6.416085629e-07
6.415566064e-07
6.403263876e-07
5.211471692e-07
6.416357152e-07
6.416335069e-07
6.416334974e-07
6.416333796e-07
6.416331226e-07
6.416327313e-07
6.416322112e-07
6.416315693e-07
6.416308146e-07
6.416299581e-07
6.416290125e-07
6.416279921e-07
6.416269119e-07
6.416257879e-07
6.416246358e-07
6.416234712e-07
6.416223089e-07
6.416211627e-07
6.416200449e-07
6.416189663e-07
6.416179364e-07
6.416169628e-07
6.416160518e-07
6.416152082e-07
6.416144354e-07
6.416137357e-07
6.416131104e-07
6.41612559e-07
6.416120793e-07
6.416116349e-07
6.416097957e-07
6.415577069e-07
6.403267213e-07
5.211476546e-07
6.416371317e-07
6.416349468e-07
6.416349453e-07
6.416348299e-07
6.416345727e-07
6.416341752e-07
6.416336381e-07
6.416329737e-07
6.416321908e-07
6.416313006e-07
6.416303162e-07
6.416292523e-07
6.41628125e-07
6.41626951e-07
6.416257472e-07
6.4162453e-07
6.416233151e-07
6.416221172e-07
6.416209492e-07
6.416198227e-07
6.416187473e-07
6.416177311e-07
6.416167805e-07
6.416159005e-07
6.416150947e-07
6.416143653e-07
6.416137135e-07
6.416131388e-07
6.416126389e-07
6.416121772e-07
6.416103224e-07
6.415581946e-07
6.403269368e-07
5.211482686e-07
6.41640107e-07
6.416373816e-07
6.416369716e-07
6.416365809e-07
6.416363034e-07
6.416358904e-07
6.416353352e-07
6.416346443e-07
6.416338248e-07
6.41632893e-07
6.416318608e-07
6.416307437e-07
6.416295587e-07
6.416283234e-07
6.41627056e-07
6.416257743e-07
6.41624495e-07
6.416232338e-07
6.416220045e-07
6.416208193e-07
6.416196885e-07
6.416186205e-07
6.416176219e-07
6.41616698e-07
6.416158522e-07
6.416150871e-07
6.416144034e-07
6.41613801e-07
6.416132772e-07
6.416127954e-07
6.416109235e-07
6.415587546e-07
6.403271902e-07
5.21148998e-07
6.41651944e-07
6.416493034e-07
6.416484027e-07
6.416470024e-07
6.416450394e-07
6.416428618e-07
6.416404983e-07
6.416380876e-07
6.416360056e-07
6.416347703e-07
6.416336715e-07
6.416324868e-07
6.416312324e-07
6.41629924e-07
6.416285809e-07
6.416272223e-07
6.416258665e-07
6.416245301e-07
6.416232283e-07
6.416219738e-07
6.416207776e-07
6.416196487e-07
6.416185938e-07
6.416176183e-07
6.416167258e-07
6.416159188e-07
6.416151982e-07
6.416145636e-07
6.416140123e-07
6.416135078e-07
6.416116167e-07
6.415594014e-07
6.403274821e-07
5.211498222e-07
6.416712529e-07
6.416698741e-07
6.416698179e-07
6.416687389e-07
6.416665287e-07
6.416632494e-07
6.416591042e-07
6.416541928e-07
6.416487354e-07
6.416434318e-07
6.416385894e-07
6.416348282e-07
6.416331562e-07
6.416317554e-07
6.416303235e-07
6.416288753e-07
6.416274304e-07
6.416260069e-07
6.41624621e-07
6.416232866e-07
6.416220152e-07
6.416208161e-07
6.416196967e-07
6.416186623e-07
6.416177165e-07
6.416168619e-07
6.416160992e-07
6.416154281e-07
6.416148458e-07
6.416143157e-07
6.416124034e-07
6.415601356e-07
6.403278113e-07
5.211507238e-07
6.416980064e-07
6.416987264e-07
6.417001192e-07
6.416997906e-07
6.416975627e-07
6.416934112e-07
6.416880241e-07
6.416812435e-07
6.416732766e-07
6.416645952e-07
6.416554993e-07
6.416468755e-07
6.416394427e-07
6.416341953e-07
6.416322842e-07
6.416307304e-07
6.416291835e-07
6.416276608e-07
6.416261795e-07
6.416247546e-07
6.416233983e-07
6.416221204e-07
6.416209283e-07
6.416198279e-07
6.416188226e-07
6.416179147e-07
6.416171051e-07
6.416163934e-07
6.416157767e-07
6.416152183e-07
6.416132825e-07
6.415609561e-07
6.403281756e-07
5.211516853e-07
6.417320917e-07
6.417348424e-07
6.417380586e-07
6.417392791e-07
6.417382539e-07
6.417347085e-07
6.417283919e-07
6.417191156e-07
6.417072873e-07
6.416949754e-07
6.41682085e-07
6.416689074e-07
6.416561452e-07
6.416450287e-07
6.41636514e-07
6.416327886e-07
6.416311195e-07
6.416294851e-07
6.416278973e-07
6.416263717e-07
6.416249212e-07
6.416235561e-07
6.41622284e-07
6.416211108e-07
6.416200399e-07
6.416190737e-07
6.416182127e-07
6.416174565e-07
6.416168021e-07
6.41616213e-07
6.416142516e-07
6.415618603e-07
6.403285728e-07
5.211526899e-07
6.417677288e-07
6.417725527e-07
6.417777952e-07
6.417809613e-07
6.417817055e-07
6.417796614e-07
6.417744754e-07
6.417658173e-07
6.417534607e-07
6.417373519e-07
6.417176804e-07
6.416986727e-07
6.416805755e-07
6.41663648e-07
6.41649126e-07
6.416381494e-07
6.416332369e-07
6.416314705e-07
6.416297648e-07
6.416281288e-07
6.416265755e-07
6.416251155e-07
6.416237567e-07
6.416225045e-07
6.416213627e-07
6.416203334e-07
6.41619417e-07
6.416186129e-07
6.41617918e-07
6.416172956e-07
6.416153066e-07
6.415628446e-07
6.403290003e-07
5.211537214e-07
6.418027223e-07
6.418097849e-07
6.418172992e-07
6.418227552e-07
6.41825683e-07
6.418256054e-07
6.418220064e-07
6.418143955e-07
6.418024238e-07
6.417859149e-07
6.417650062e-07
6.417400567e-07
6.41712259e-07
6.41688288e-07
6.416673093e-07
6.416500793e-07
6.416378844e-07
6.416336069e-07
6.416317704e-07
6.416300144e-07
6.416283503e-07
6.416267886e-07
6.416253369e-07
6.416240007e-07
6.416227833e-07
6.416216868e-07
6.416207114e-07
6.416198563e-07
6.416191183e-07
6.416184607e-07
6.416164423e-07
6.415639041e-07
6.403294551e-07
5.211547648e-07
6.418356844e-07
6.41845103e-07
6.418550902e-07
6.418631351e-07
6.418685793e-07
6.418708335e-07
6.418692187e-07
6.41863088e-07
6.418519248e-07
6.418354264e-07
6.418136377e-07
6.417868995e-07
6.417559245e-07
6.417217695e-07
6.416899962e-07
6.416657125e-07
6.416473778e-07
6.416363313e-07
6.416338938e-07
6.416320165e-07
6.416302334e-07
6.416285636e-07
6.416270138e-07
6.416255889e-07
6.416242922e-07
6.416231251e-07
6.416220878e-07
6.416211792e-07
6.41620396e-07
6.416197014e-07
6.416176522e-07
6.415650324e-07
6.403299342e-07
5.211558065e-07
6.418659371e-07
6.418777054e-07
6.418903193e-07
6.419010775e-07
6.419092839e-07
6.419141363e-07
6.419147941e-07
6.419103965e-07
6.419002677e-07
6.418839668e-07
6.418615121e-07
6.418332947e-07
6.418000833e-07
6.417629086e-07
6.417230527e-07
6.416856577e-07
6.416590828e-07
6.416420554e-07
6.416361175e-07
6.416341049e-07
6.416322078e-07
6.416304286e-07
6.416287756e-07
6.416272581e-07
6.416258787e-07
6.416246384e-07
6.416235369e-07
6.416225728e-07
6.416217428e-07
6.416210099e-07
6.416189285e-07
6.415662226e-07
6.403304343e-07
5.211568361e-07
6.418928695e-07
6.419070189e-07
6.419221495e-07
6.419356295e-07
6.419467003e-07
6.419543011e-07
6.419574131e-07
6.419549394e-07
6.419459912e-07
6.419299873e-07
6.419069053e-07
6.418772472e-07
6.418419656e-07
6.418022541e-07
6.417594455e-07
6.417148968e-07
6.416749797e-07
6.416492481e-07
6.416384379e-07
6.416362664e-07
6.416342492e-07
6.416323603e-07
6.41630609e-07
6.416289974e-07
6.416275321e-07
6.41626216e-07
6.416250483e-07
6.416240273e-07
6.416231492e-07
6.41622377e-07
6.416202627e-07
6.415674664e-07
6.403309521e-07
5.211578462e-07
6.419160642e-07
6.419322585e-07
6.419498155e-07
6.41965866e-07
6.419796733e-07
6.419900064e-07
6.419956054e-07
6.419951232e-07
6.419874303e-07
6.419718008e-07
6.419481511e-07
6.41917123e-07
6.418798597e-07
6.418378423e-07
6.417925746e-07
6.417454692e-07
6.416978589e-07
6.416603434e-07
6.416413259e-07
6.416385133e-07
6.416363429e-07
6.416343435e-07
6.416324904e-07
6.416307881e-07
6.416292416e-07
6.416278481e-07
6.416266122e-07
6.416255327e-07
6.416246053e-07
6.41623793e-07
6.416216452e-07
6.415687553e-07
6.403314844e-07
5.211588338e-07
6.419351537e-07
6.419530518e-07
6.419725466e-07
6.419908267e-07
6.42007026e-07
6.420198503e-07
6.420277509e-07
6.420291553e-07
6.420227179e-07
6.420074979e-07
6.419834131e-07
6.419512038e-07
6.419122767e-07
6.41868336e-07
6.418210608e-07
6.4177202e-07
6.417225237e-07
6.416747435e-07
6.416489436e-07
6.416415851e-07
6.416385229e-07
6.416363621e-07
6.416344084e-07
6.416326151e-07
6.416309844e-07
6.416295186e-07
6.416282188e-07
6.416270798e-07
6.416261018e-07
6.416252485e-07
6.416230663e-07
6.415700801e-07
6.403320288e-07
5.211598004e-07
6.419499777e-07
6.419689893e-07
6.419899044e-07
6.420097723e-07
6.420277903e-07
6.420425633e-07
6.420523102e-07
6.420552712e-07
6.420499302e-07
6.420351579e-07
6.420108474e-07
6.419778719e-07
6.419378272e-07
6.418926026e-07
6.418440494e-07
6.417938044e-07
6.417432133e-07
6.416933784e-07
6.416596314e-07
6.416491145e-07
6.416416941e-07
6.416384614e-07
6.41636349e-07
6.416344646e-07
6.416327526e-07
6.416312131e-07
6.416298467e-07
6.416286526e-07
6.416276281e-07
6.416267356e-07
6.416245177e-07
6.415714327e-07
6.403325831e-07
5.211607526e-07
6.419605696e-07
6.419799836e-07
6.420015311e-07
6.420222679e-07
6.420412913e-07
6.4205721e-07
6.420681122e-07
6.420721055e-07
6.420675747e-07
6.420532468e-07
6.420290391e-07
6.419959191e-07
6.419555822e-07
6.419100097e-07
6.418611203e-07
6.418105828e-07
6.417597529e-07
6.41709672e-07
6.416731266e-07
6.41659017e-07
6.416488463e-07
6.416415464e-07
6.416383547e-07
6.416363232e-07
6.416345316e-07
6.416329204e-07
6.416314898e-07
6.416302394e-07
6.416291661e-07
6.416282333e-07
6.416259836e-07
6.415728005e-07
6.403331449e-07
5.211617019e-07
6.419672516e-07
6.419862879e-07
6.420076803e-07
6.420284019e-07
6.4204744e-07
6.420635761e-07
6.42074757e-07
6.420791019e-07
6.420750034e-07
6.420611467e-07
6.420375029e-07
6.420050233e-07
6.419653964e-07
6.419205856e-07
6.418724641e-07
6.418226625e-07
6.417725085e-07
6.417230112e-07
6.416890641e-07
6.416706349e-07
6.416578707e-07
6.41648097e-07
6.416411938e-07
6.416382297e-07
6.416363092e-07
6.416346283e-07
6.416331342e-07
6.416318288e-07
6.416307083e-07
6.416297369e-07
6.416274537e-07
6.415741714e-07
6.403337113e-07
5.211626649e-07
6.419706406e-07
6.419885955e-07
6.420090332e-07
6.420288441e-07
6.420469895e-07
6.420623818e-07
6.420729363e-07
6.420769302e-07
6.420728585e-07
6.420595716e-07
6.4203704e-07
6.42006102e-07
6.419682749e-07
6.419253485e-07
6.418790865e-07
6.418310289e-07
6.417824302e-07
6.417352644e-07
6.417055712e-07
6.416842377e-07
6.416681363e-07
6.416562445e-07
6.416469657e-07
6.416407219e-07
6.416381114e-07
6.416363258e-07
6.416347682e-07
6.4163341e-07
6.416322421e-07
6.416312324e-07
6.416289165e-07
6.415755362e-07
6.403342825e-07
5.211636635e-07
6.419716605e-07
6.419879926e-07
6.42006866e-07
6.420250904e-07
6.420417061e-07
6.42055691e-07
6.420650865e-07
6.420683733e-07
6.420642149e-07
6.420516424e-07
6.420306203e-07
6.420018417e-07
6.419665937e-07
6.419264295e-07
6.418828904e-07
6.418373747e-07
6.417909734e-07
6.417512956e-07
6.417224793e-07
6.416991081e-07
6.416799506e-07
6.416653151e-07
6.416542032e-07
6.416456174e-07
6.416402261e-07
6.416380247e-07
6.416363886e-07
6.416349707e-07
6.416337564e-07
6.416327099e-07
6.416303606e-07
6.415768836e-07
6.403348571e-07
5.211647224e-07
6.419738764e-07
6.419860995e-07
6.4200278e-07
6.420190977e-07
6.420338257e-07
6.420460684e-07
6.420540676e-07
6.420565344e-07
6.420523334e-07
6.420406886e-07
6.420215399e-07
6.419954118e-07
6.419633181e-07
6.419265217e-07
6.418863215e-07
6.418437766e-07
6.418030249e-07
6.417687983e-07
6.417398905e-07
6.417147528e-07
6.416932061e-07
6.416755864e-07
6.416621469e-07
6.416518922e-07
6.416442084e-07
6.416398326e-07
6.416379917e-07
6.416365117e-07
6.41635247e-07
6.416341575e-07
6.416317745e-07
6.415782024e-07
6.403354339e-07
5.211658688e-07
6.419715541e-07
6.419773634e-07
6.419880174e-07
6.419999604e-07
6.420128917e-07
6.420257958e-07
6.420363472e-07
6.420430445e-07
6.420448551e-07
6.420408453e-07
6.420303994e-07
6.42013426e-07
6.41990286e-07
6.419617124e-07
6.419285694e-07
6.418918369e-07
6.418546312e-07
6.418197844e-07
6.417876568e-07
6.417581672e-07
6.417314414e-07
6.417077355e-07
6.416873807e-07
6.416710067e-07
6.416586995e-07
6.416494168e-07
6.416429243e-07
6.416396345e-07
6.416380233e-07
6.416367062e-07
6.416355746e-07
6.416331559e-07
6.415794899e-07
6.40336015e-07
5.211671308e-07
6.419796008e-07
6.419852836e-07
6.419938059e-07
6.420029067e-07
6.420120861e-07
6.420210944e-07
6.420291091e-07
6.420348278e-07
6.420364041e-07
6.420329786e-07
6.420240599e-07
6.420095134e-07
6.419895186e-07
6.419645142e-07
6.419356173e-07
6.419043497e-07
6.418722972e-07
6.41840042e-07
6.418085939e-07
6.417783809e-07
6.417499536e-07
6.417238267e-07
6.417007442e-07
6.416813429e-07
6.416662343e-07
6.416551501e-07
6.416470144e-07
6.416418695e-07
6.416395213e-07
6.416381248e-07
6.416369492e-07
6.416344937e-07
6.415807368e-07
6.403366008e-07
5.211685353e-07
6.419905232e-07
6.41994954e-07
6.420021861e-07
6.420098511e-07
6.420174156e-07
6.420242741e-07
6.42029941e-07
6.420336465e-07
6.420345082e-07
6.420316038e-07
6.420244035e-07
6.420126611e-07
6.419964256e-07
6.419759561e-07
6.419517449e-07
6.419246277e-07
6.418953134e-07
6.418643531e-07
6.418328799e-07
6.418015217e-07
6.41771061e-07
6.417424249e-07
6.417162462e-07
6.416934748e-07
6.416749852e-07
6.416612975e-07
6.416516294e-07
6.416449469e-07
6.41641106e-07
6.416394994e-07
6.416382726e-07
6.416357783e-07
6.415819331e-07
6.403371903e-07
5.21170104e-07
6.420057051e-07
6.42006073e-07
6.420127092e-07
6.42019825e-07
6.420268467e-07
6.420332467e-07
6.420384149e-07
6.420416938e-07
6.420426264e-07
6.420406627e-07
6.420353952e-07
6.420264752e-07
6.420137165e-07
6.419971154e-07
6.419765636e-07
6.419523679e-07
6.41924869e-07
6.418946616e-07
6.418625002e-07
6.418295647e-07
6.417967004e-07
6.417648917e-07
6.417351879e-07
6.417084749e-07
6.416858642e-07
6.416683845e-07
6.416564167e-07
6.416483321e-07
6.416434087e-07
6.416408533e-07
6.416395389e-07
6.416370019e-07
6.41583071e-07
6.40337783e-07
5.211718536e-07
6.42020666e-07
6.420252975e-07
6.420325645e-07
6.420399538e-07
6.420467825e-07
6.42052542e-07
6.420566333e-07
6.420587301e-07
6.42058531e-07
6.420555973e-07
6.420497355e-07
6.420406641e-07
6.420317354e-07
6.420148369e-07
6.419935719e-07
6.419678313e-07
6.41937972e-07
6.419048694e-07
6.418695267e-07
6.418332874e-07
6.417975168e-07
6.417633177e-07
6.417317823e-07
6.417003068e-07
6.416778534e-07
6.416618577e-07
6.416519594e-07
6.41645847e-07
6.416423986e-07
6.416408145e-07
6.416382239e-07
6.41584209e-07
6.403384437e-07
5.211738538e-07
6.420378132e-07
6.420434125e-07
6.420485669e-07
6.420570848e-07
6.420652626e-07
6.420723685e-07
6.420781348e-07
6.420822898e-07
6.420880164e-07
6.420882678e-07
6.420863347e-07
6.420838362e-07
6.417287427e-07
6.416949508e-07
6.416730328e-07
6.41659269e-07
6.416518278e-07
6.416477869e-07
6.416456036e-07
6.416429154e-07
6.415888001e-07
6.403426601e-07
5.21179479e-07
6.420740168e-07
6.420824653e-07
6.420929096e-07
6.421025362e-07
6.42110912e-07
6.421199487e-07
5.473518409e-07
5.473524326e-07
5.473548729e-07
5.47356862e-07
5.473583026e-07
5.473591236e-07
5.473592586e-07
5.473586515e-07
5.473572606e-07
5.473550624e-07
5.473520544e-07
5.473482564e-07
5.473437101e-07
5.47338478e-07
5.473326407e-07
5.473262935e-07
5.473195424e-07
5.473125001e-07
5.473052819e-07
5.472980015e-07
5.472907687e-07
5.472836857e-07
5.472768465e-07
5.472703356e-07
5.472642272e-07
5.472585868e-07
5.47253472e-07
5.472489357e-07
5.472450292e-07
5.472418108e-07
5.472389186e-07
5.472143105e-07
5.463144111e-07
4.358200764e-07
8.780509813e-06
8.780349401e-06
8.779205399e-06
8.776951345e-06
8.77361046e-06
8.769210145e-06
8.763782134e-06
8.75736606e-06
8.75001094e-06
8.741777363e-06
8.732738587e-06
8.722980518e-06
8.712600997e-06
8.701708274e-06
8.690418858e-06
8.678855028e-06
8.667142081e-06
8.655405438e-06
8.64376805e-06
8.632347516e-06
8.62125429e-06
8.610590041e-06
8.600446436e-06
8.590904469e-06
8.582034098e-06
8.573893889e-06
8.566530806e-06
8.559979787e-06
8.554260814e-06
8.549331125e-06
8.54237244e-06
8.412181891e-06
5.592141259e-06
4.388156684e-07
1.529362221e-05
1.529292588e-05
1.528909665e-05
1.528192446e-05
1.527149227e-05
1.525788838e-05
1.524121398e-05
1.522159522e-05
1.519918783e-05
1.51741838e-05
1.514681411e-05
1.51173483e-05
1.508609126e-05
1.505337802e-05
1.501956669e-05
1.498503016e-05
1.495014713e-05
1.49152932e-05
1.488083249e-05
1.48471101e-05
1.481444615e-05
1.478313123e-05
1.475342353e-05
1.472554716e-05
1.469969177e-05
1.467601172e-05
1.465462452e-05
1.463560757e-05
1.461897568e-05
1.460429646e-05
1.457668887e-05
1.408671607e-05
7.368630366e-06
4.391199307e-07
1.571143236e-05
1.57108935e-05
1.570699806e-05
1.569950445e-05
1.568850242e-05
1.567406612e-05
1.565628393e-05
1.563527091e-05
1.56111792e-05
1.558420511e-05
1.555459294e-05
1.55226342e-05
1.548866388e-05
1.545305392e-05
1.541620463e-05
1.537853435e-05
1.534046866e-05
1.53024295e-05
1.526482499e-05
1.522804039e-05
1.519243106e-05
1.51583172e-05
1.512598088e-05
1.509566435e-05
1.506756951e-05
1.504185766e-05
1.501864747e-05
1.499801102e-05
1.497994471e-05
1.496388619e-05
1.493258975e-05
1.439830998e-05
7.428884403e-06
4.391307459e-07
1.576900172e-05
1.576884922e-05
1.576523771e-05
1.575794094e-05
1.574698321e-05
1.573243354e-05
1.571435718e-05
1.56928443e-05
1.566802808e-05
1.564009591e-05
1.560929299e-05
1.557592234e-05
1.554033995e-05
1.550294683e-05
1.546417838e-05
1.542449215e-05
1.53843546e-05
1.534422812e-05
1.530455864e-05
1.526576531e-05
1.522823208e-05
1.519230208e-05
1.51582744e-05
1.512640278e-05
1.509689561e-05
1.506991612e-05
1.50455809e-05
1.50239535e-05
1.500502198e-05
1.498819833e-05
1.495604599e-05
1.441830884e-05
7.433122279e-06
4.391334669e-07
1.582456128e-05
1.582502813e-05
1.582191944e-05
1.581500739e-05
1.5804301e-05
1.578980518e-05
1.577150964e-05
1.574951098e-05
1.572391575e-05
1.569489824e-05
1.566270405e-05
1.562765086e-05
1.559012265e-05
1.555055929e-05
1.550944322e-05
1.546728414e-05
1.54246024e-05
1.5381913e-05
1.533971082e-05
1.52984579e-05
1.525857403e-05
1.52204304e-05
1.518434647e-05
1.515058937e-05
1.511937474e-05
1.509086808e-05
1.506518329e-05
1.504237943e-05
1.502243533e-05
1.500475213e-05
1.497184249e-05
1.443244903e-05
7.43692827e-06
4.391367127e-07
1.588602663e-05
1.58882649e-05
1.58866071e-05
1.588079725e-05
1.58706181e-05
1.585637591e-05
1.583805991e-05
1.581567163e-05
1.578926784e-05
1.57590451e-05
1.572525064e-05
1.568822239e-05
1.564838106e-05
1.560621815e-05
1.556227834e-05
1.551713945e-05
1.547139152e-05
1.542561683e-05
1.538037141e-05
1.533617031e-05
1.529347649e-05
1.525269416e-05
1.521416611e-05
1.517817422e-05
1.514494124e-05
1.511463499e-05
1.508736603e-05
1.506318827e-05
1.504207329e-05
1.502341396e-05
1.498967706e-05
1.444852788e-05
7.44132167e-06
4.391405431e-07
1.594111948e-05
1.594463426e-05
1.594504443e-05
1.594193859e-05
1.593523017e-05
1.592426436e-05
1.590885197e-05
1.588875703e-05
1.586347302e-05
1.583238939e-05
1.57968396e-05
1.575757158e-05
1.571506051e-05
1.566987243e-05
1.562263322e-05
1.557400821e-05
1.552467539e-05
1.547530033e-05
1.542651358e-05
1.537889298e-05
1.533295147e-05
1.528913023e-05
1.524779699e-05
1.520924855e-05
1.517371379e-05
1.514136044e-05
1.511229591e-05
1.508656677e-05
1.506413733e-05
1.504439258e-05
1.500974978e-05
1.446666071e-05
7.446284367e-06
4.391448606e-07
1.598902289e-05
1.59924144e-05
1.599337087e-05
1.599156345e-05
1.598688742e-05
1.59789694e-05
1.596718659e-05
1.595121091e-05
1.593067994e-05
1.590457989e-05
1.587275172e-05
1.583469143e-05
1.57896392e-05
1.574101036e-05
1.568999486e-05
1.563737922e-05
1.55839503e-05
1.553047448e-05
1.547767007e-05
1.542618689e-05
1.537659306e-05
1.5329369e-05
1.528490723e-05
1.524351812e-05
1.520543361e-05
1.517081997e-05
1.513977761e-05
1.511234473e-05
1.508847688e-05
1.506755052e-05
1.503192804e-05
1.448671549e-05
7.451770454e-06
4.391495751e-07
1.602598292e-05
1.602805598e-05
1.602899118e-05
1.602848321e-05
1.602645655e-05
1.602246989e-05
1.601448894e-05
1.600265836e-05
1.598642116e-05
1.596498592e-05
1.593817111e-05
1.590506206e-05
1.586535444e-05
1.581837183e-05
1.576361931e-05
1.570651687e-05
1.564849505e-05
1.559044322e-05
1.553317985e-05
1.547743381e-05
1.542383118e-05
1.537289114e-05
1.532502789e-05
1.528056393e-05
1.52397283e-05
1.520268218e-05
1.516951661e-05
1.514025875e-05
1.511485362e-05
1.509266786e-05
1.505600382e-05
1.450850071e-05
7.457722119e-06
4.391545974e-07
1.604654539e-05
1.604786182e-05
1.604867319e-05
1.604866043e-05
1.604776317e-05
1.604587303e-05
1.604282926e-05
1.603837054e-05
1.603088564e-05
1.601579598e-05
1.599410289e-05
1.596603704e-05
1.593139097e-05
1.588930222e-05
1.583964022e-05
1.578044588e-05
1.571737655e-05
1.56543141e-05
1.559220325e-05
1.553185579e-05
1.547395469e-05
1.541905387e-05
1.5367584e-05
1.531987059e-05
1.52761399e-05
1.523654046e-05
1.520115047e-05
1.516998338e-05
1.514297207e-05
1.511947241e-05
1.508172188e-05
1.453178661e-05
7.464073205e-06
4.391598386e-07
1.605946019e-05
1.606074351e-05
1.606182835e-05
1.606237387e-05
1.606228654e-05
1.60614284e-05
1.605953187e-05
1.605641024e-05
1.605189119e-05
1.604573402e-05
1.603758254e-05
1.601825065e-05
1.598937436e-05
1.595246648e-05
1.590718255e-05
1.585356303e-05
1.578943704e-05
1.572100867e-05
1.565373733e-05
1.558853344e-05
1.552613162e-05
1.546711125e-05
1.541191208e-05
1.536085294e-05
1.53141498e-05
1.527193482e-05
1.52342693e-05
1.520115072e-05
1.517249838e-05
1.514765686e-05
1.510879521e-05
1.455631713e-05
7.470751646e-06
4.391652128e-07
1.606763041e-05
1.606925375e-05
1.6070821e-05
1.607197366e-05
1.607258187e-05
1.607252079e-05
1.607164885e-05
1.606977023e-05
1.606670395e-05
1.606226437e-05
1.605600249e-05
1.60477509e-05
1.603608779e-05
1.600778199e-05
1.596825378e-05
1.591888033e-05
1.586000852e-05
1.57892631e-05
1.571664512e-05
1.5646439e-05
1.557944106e-05
1.551624775e-05
1.545729172e-05
1.540287718e-05
1.535320067e-05
1.530837314e-05
1.526843574e-05
1.523336839e-05
1.520307649e-05
1.517689351e-05
1.513691804e-05
1.458182072e-05
7.477682038e-06
4.391706403e-07
1.607426276e-05
1.607638783e-05
1.607851817e-05
1.608027426e-05
1.608151268e-05
1.608208036e-05
1.608181202e-05
1.608054442e-05
1.607812615e-05
1.607441707e-05
1.606938313e-05
1.606284429e-05
1.605456235e-05
1.604387598e-05
1.602128549e-05
1.597848175e-05
1.592351161e-05
1.585704474e-05
1.577963856e-05
1.570448666e-05
1.563292205e-05
1.556561763e-05
1.550298326e-05
1.54452965e-05
1.539272581e-05
1.534535613e-05
1.530320625e-05
1.526623822e-05
1.523434434e-05
1.520684831e-05
1.516577767e-05
1.460801645e-05
7.484789529e-06
4.391760518e-07
1.608026149e-05
1.608291952e-05
1.608564091e-05
1.608803854e-05
1.608995187e-05
1.609117512e-05
1.60915007e-05
1.60906959e-05
1.60886008e-05
1.608507239e-05
1.608014907e-05
1.607390419e-05
1.606646138e-05
1.605777637e-05
1.604729344e-05
1.602669837e-05
1.598157614e-05
1.591916832e-05
1.584138875e-05
1.576145491e-05
1.56855966e-05
1.561440532e-05
1.554827738e-05
1.548749234e-05
1.54321834e-05
1.538240601e-05
1.533815527e-05
1.529937681e-05
1.526595183e-05
1.523719683e-05
1.519506953e-05
1.463463453e-05
7.491999773e-06
4.391813926e-07
1.608562239e-05
1.608879201e-05
1.609209725e-05
1.609513849e-05
1.609775647e-05
1.609968867e-05
1.610066937e-05
1.610039683e-05
1.609862806e-05
1.609518706e-05
1.60900981e-05
1.60835409e-05
1.60758046e-05
1.606718968e-05
1.605788629e-05
1.604750718e-05
1.60253222e-05
1.597547885e-05
1.59005752e-05
1.581632596e-05
1.573651307e-05
1.566178944e-05
1.559253134e-05
1.552892301e-05
1.547109796e-05
1.541909996e-05
1.537290233e-05
1.533243778e-05
1.529757893e-05
1.526763971e-05
1.522451105e-05
1.466141869e-05
7.499245129e-06
4.391866283e-07
1.609014754e-05
1.609378203e-05
1.609763701e-05
1.610131233e-05
1.610462675e-05
1.610729302e-05
1.610896595e-05
1.61092687e-05
1.610786601e-05
1.610453083e-05
1.609926487e-05
1.609230877e-05
1.608403609e-05
1.607490594e-05
1.606531053e-05
1.605548262e-05
1.604513219e-05
1.601573402e-05
1.595439221e-05
1.586800528e-05
1.578493096e-05
1.570715949e-05
1.563515479e-05
1.556910331e-05
1.550909439e-05
1.545510737e-05
1.540714502e-05
1.536513809e-05
1.532895828e-05
1.529792086e-05
1.525385373e-05
1.468814614e-05
7.506466072e-06
4.391917467e-07
1.609388196e-05
1.609787617e-05
1.610216511e-05
1.610636265e-05
1.611026935e-05
1.611359535e-05
1.61159168e-05
1.611677787e-05
1.611577251e-05
1.611256871e-05
1.610717069e-05
1.60998524e-05
1.609110291e-05
1.608146347e-05
1.607139376e-05
1.606126796e-05
1.605131384e-05
1.603930932e-05
1.599013361e-05
1.59132963e-05
1.583006483e-05
1.575006525e-05
1.567583124e-05
1.560773066e-05
1.554583884e-05
1.549016442e-05
1.544067853e-05
1.539728547e-05
1.53598978e-05
1.532784847e-05
1.528290547e-05
1.471463769e-05
7.51361624e-06
4.39196763e-07
1.609685315e-05
1.610106967e-05
1.610564789e-05
1.611020999e-05
1.611454862e-05
1.61183608e-05
1.612118275e-05
1.612247485e-05
1.612179061e-05
1.611871487e-05
1.611323876e-05
1.610569211e-05
1.609663146e-05
1.608665502e-05
1.607627785e-05
1.606590596e-05
1.60558123e-05
1.604599166e-05
1.601122578e-05
1.59415348e-05
1.586873556e-05
1.579006234e-05
1.571440936e-05
1.564470145e-05
1.558127922e-05
1.552416132e-05
1.547332855e-05
1.542873276e-05
1.539028255e-05
1.535731814e-05
1.531154887e-05
1.474077605e-05
7.520665855e-06
4.392017186e-07
1.6099071e-05
1.610333645e-05
1.610802269e-05
1.611273687e-05
1.61172799e-05
1.612134209e-05
1.612444897e-05
1.612600316e-05
1.612553775e-05
1.612256102e-05
1.611707696e-05
1.610946888e-05
1.610033722e-05
1.609029943e-05
1.607988234e-05
1.606948212e-05
1.605938056e-05
1.604966814e-05
1.602072028e-05
1.595827609e-05
1.589240323e-05
1.582440328e-05
1.575076684e-05
1.568011321e-05
1.561549367e-05
1.555717405e-05
1.550517904e-05
1.545948936e-05
1.542004309e-05
1.538621336e-05
1.533968764e-05
1.476647558e-05
7.527595544e-06
4.392066887e-07
1.610059928e-05
1.610473904e-05
1.610932767e-05
1.611396887e-05
1.611845697e-05
1.612249014e-05
1.612560963e-05
1.612720204e-05
1.612682054e-05
1.612393886e-05
1.611860356e-05
1.611117325e-05
1.610223938e-05
1.609242103e-05
1.608223413e-05
1.607206039e-05
1.606216343e-05
1.605262499e-05
1.602107366e-05
1.596737247e-05
1.590747767e-05
1.584624436e-05
1.578288498e-05
1.57141906e-05
1.564877984e-05
1.558944767e-05
1.553640119e-05
1.548969722e-05
1.544930633e-05
1.541464262e-05
1.536735479e-05
1.479172699e-05
7.534399273e-06
4.392117723e-07
1.610155855e-05
1.61054187e-05
1.610972854e-05
1.611407251e-05
1.611825648e-05
1.612198159e-05
1.612481751e-05
1.612620608e-05
1.612574021e-05
1.612299848e-05
1.611800398e-05
1.611105337e-05
1.610265307e-05
1.609334786e-05
1.608362946e-05
1.607387728e-05
1.606434622e-05
1.605358788e-05
1.601751822e-05
1.597051014e-05
1.591796492e-05
1.586187433e-05
1.580510137e-05
1.57457291e-05
1.568162359e-05
1.562141989e-05
1.556734921e-05
1.551963604e-05
1.547827177e-05
1.544274377e-05
1.539466761e-05
1.481662365e-05
7.541107622e-06
4.392170798e-07
1.610211951e-05
1.610559675e-05
1.610950949e-05
1.611342434e-05
1.611715565e-05
1.612043347e-05
1.612286459e-05
1.612397528e-05
1.612341283e-05
1.612084234e-05
1.611627469e-05
1.61099396e-05
1.610224289e-05
1.609364475e-05
1.608457148e-05
1.607536213e-05
1.60662554e-05
1.604724737e-05
1.601246609e-05
1.597107477e-05
1.592553496e-05
1.587553611e-05
1.582306831e-05
1.576995107e-05
1.571366431e-05
1.56537517e-05
1.559860004e-05
1.554972007e-05
1.550727802e-05
1.547079048e-05
1.542182768e-05
1.484130985e-05
7.547755832e-06
4.39222768e-07
1.60988952e-05
1.610508634e-05
1.610900515e-05
1.611244394e-05
1.611567459e-05
1.611845788e-05
1.612045047e-05
1.612127229e-05
1.612063202e-05
1.611828185e-05
1.611421178e-05
1.610858133e-05
1.610169078e-05
1.609390123e-05
1.608556148e-05
1.60769528e-05
1.606378753e-05
1.604004224e-05
1.600848592e-05
1.59723529e-05
1.593256921e-05
1.588890344e-05
1.584115974e-05
1.579146053e-05
1.574089175e-05
1.568671514e-05
1.563083507e-05
1.558059106e-05
1.553682517e-05
1.549914123e-05
1.544912667e-05
1.486600704e-05
7.554397946e-06
4.392289944e-07
1.608206564e-05
1.609006431e-05
1.609877802e-05
1.610639315e-05
1.611151415e-05
1.611431967e-05
1.611666746e-05
1.611828776e-05