/*--------------------------------*- C++ -*----------------------------------*\
  =========                 |
  \\      /  F ield         | OpenFOAM: The Open Source CFD Toolbox
   \\    /   O peration     | Website:  https://openfoam.org
    \\  /    A nd           | Version:  8
     \\/     M anipulation  |
\*---------------------------------------------------------------------------*/
FoamFile
{
    version     2.0;
    format      ascii;
    class       volScalarField;
    location    "0.2";
    object      O2;
}
// * * * * * * * * * * * * * * * * * * * * * * * * * * * * * * * * * * * * * //

dimensions      [0 0 0 0 0 0 0];

internalField   nonuniform List<scalar> 
67193
(
0.2100067237
0.2100067253
0.2100067269
0.2100067284
0.2100067297
0.2100067308
0.2100067318
0.2100067326
0.2100067332
0.2100067336
0.2100067338
0.2100067339
0.2100067338
0.2100067335
0.2100067331
0.2100067326
0.2100067319
0.2100067312
0.2100067304
0.2100067295
0.2100067286
0.2100067277
0.2100067268
0.2100067259
0.2100067251
0.2100067243
0.2100067236
0.210006723
0.2100067224
0.2100067219
0.2100067215
0.2100067212
0.2100067211
0.2100067211
0.2100067183
0.21000672
0.2100067216
0.210006723
0.2100067244
0.2100067255
0.2100067265
0.2100067273
0.2100067279
0.2100067283
0.2100067285
0.2100067286
0.2100067285
0.2100067282
0.2100067277
0.2100067272
0.2100067265
0.2100067257
0.2100067249
0.210006724
0.2100067231
0.2100067222
0.2100067213
0.2100067204
0.2100067195
0.2100067187
0.210006718
0.2100067173
0.2100067168
0.2100067163
0.2100067159
0.2100067157
0.2100067174
0.2100067211
0.2100067155
0.2100067171
0.2100067188
0.2100067203
0.2100067216
0.2100067228
0.2100067238
0.2100067246
0.2100067252
0.2100067256
0.2100067258
0.2100067259
0.2100067257
0.2100067254
0.210006725
0.2100067244
0.2100067236
0.2100067228
0.210006722
0.210006721
0.2100067201
0.2100067191
0.2100067181
0.2100067172
0.2100067163
0.2100067155
0.2100067147
0.210006714
0.2100067134
0.2100067129
0.2100067125
0.2100067125
0.2100067164
0.2100067213
0.2100067164
0.2100067181
0.2100067198
0.2100067213
0.2100067227
0.2100067239
0.210006725
0.2100067258
0.2100067264
0.2100067269
0.2100067271
0.2100067271
0.2100067269
0.2100067266
0.210006726
0.2100067254
0.2100067246
0.2100067237
0.2100067227
0.2100067217
0.2100067207
0.2100067197
0.2100067186
0.2100067177
0.2100067167
0.2100067158
0.210006715
0.2100067143
0.2100067137
0.2100067131
0.2100067127
0.2100067127
0.2100067167
0.2100067217
0.2100067179
0.2100067196
0.2100067214
0.210006723
0.2100067244
0.2100067257
0.2100067268
0.2100067277
0.2100067283
0.2100067288
0.210006729
0.210006729
0.2100067288
0.2100067283
0.2100067277
0.210006727
0.2100067261
0.2100067251
0.2100067241
0.210006723
0.2100067218
0.2100067207
0.2100067196
0.2100067185
0.2100067175
0.2100067166
0.2100067157
0.2100067149
0.2100067143
0.2100067137
0.2100067132
0.2100067132
0.2100067172
0.2100067222
0.2100067196
0.2100067214
0.2100067233
0.210006725
0.2100067265
0.2100067279
0.210006729
0.21000673
0.2100067307
0.2100067311
0.2100067314
0.2100067313
0.210006731
0.2100067305
0.2100067299
0.210006729
0.210006728
0.2100067269
0.2100067257
0.2100067245
0.2100067232
0.210006722
0.2100067207
0.2100067196
0.2100067185
0.2100067175
0.2100067165
0.2100067157
0.210006715
0.2100067144
0.2100067139
0.2100067139
0.2100067178
0.2100067228
0.2100067215
0.2100067234
0.2100067254
0.2100067272
0.2100067289
0.2100067304
0.2100067316
0.2100067327
0.2100067334
0.2100067339
0.2100067341
0.2100067341
0.2100067337
0.2100067331
0.2100067323
0.2100067313
0.2100067302
0.2100067289
0.2100067276
0.2100067262
0.2100067248
0.2100067234
0.2100067221
0.2100067208
0.2100067196
0.2100067185
0.2100067175
0.2100067166
0.2100067158
0.2100067152
0.2100067147
0.2100067146
0.2100067186
0.2100067235
0.2100067234
0.2100067255
0.2100067276
0.2100067296
0.2100067315
0.2100067331
0.2100067345
0.2100067357
0.2100067365
0.2100067371
0.2100067373
0.2100067372
0.2100067368
0.2100067361
0.2100067351
0.210006734
0.2100067327
0.2100067313
0.2100067298
0.2100067282
0.2100067266
0.2100067251
0.2100067236
0.2100067222
0.2100067209
0.2100067197
0.2100067186
0.2100067177
0.2100067168
0.2100067161
0.2100067156
0.2100067155
0.2100067194
0.2100067244
0.2100067252
0.2100067275
0.2100067299
0.2100067321
0.2100067341
0.210006736
0.2100067376
0.2100067389
0.2100067399
0.2100067405
0.2100067407
0.2100067406
0.2100067401
0.2100067393
0.2100067382
0.2100067369
0.2100067354
0.2100067338
0.2100067321
0.2100067304
0.2100067286
0.2100067269
0.2100067253
0.2100067238
0.2100067224
0.210006721
0.2100067199
0.2100067188
0.2100067179
0.2100067172
0.2100067166
0.2100067165
0.2100067204
0.2100067253
0.210006727
0.2100067295
0.2100067321
0.2100067346
0.2100067369
0.210006739
0.2100067408
0.2100067423
0.2100067434
0.2100067441
0.2100067444
0.2100067443
0.2100067437
0.2100067428
0.2100067416
0.2100067401
0.2100067384
0.2100067366
0.2100067346
0.2100067327
0.2100067308
0.2100067289
0.2100067271
0.2100067255
0.2100067239
0.2100067225
0.2100067212
0.2100067201
0.2100067191
0.2100067183
0.2100067177
0.2100067175
0.2100067215
0.2100067264
0.2100067286
0.2100067314
0.2100067342
0.210006737
0.2100067396
0.210006742
0.210006744
0.2100067458
0.2100067471
0.2100067479
0.2100067482
0.2100067481
0.2100067475
0.2100067464
0.2100067451
0.2100067434
0.2100067415
0.2100067394
0.2100067373
0.2100067351
0.210006733
0.210006731
0.210006729
0.2100067272
0.2100067255
0.210006724
0.2100067226
0.2100067215
0.2100067204
0.2100067196
0.2100067189
0.2100067187
0.2100067226
0.2100067275
0.2100067299
0.210006733
0.2100067362
0.2100067393
0.2100067422
0.2100067449
0.2100067473
0.2100067492
0.2100067507
0.2100067517
0.2100067521
0.210006752
0.2100067513
0.2100067502
0.2100067486
0.2100067467
0.2100067446
0.2100067423
0.21000674
0.2100067376
0.2100067353
0.2100067331
0.210006731
0.210006729
0.2100067272
0.2100067256
0.2100067242
0.2100067229
0.2100067218
0.2100067209
0.2100067202
0.21000672
0.2100067239
0.2100067288
0.210006731
0.2100067345
0.2100067379
0.2100067414
0.2100067447
0.2100067477
0.2100067504
0.2100067527
0.2100067544
0.2100067555
0.210006756
0.2100067558
0.2100067551
0.2100067538
0.2100067521
0.2100067501
0.2100067477
0.2100067452
0.2100067426
0.2100067401
0.2100067376
0.2100067352
0.2100067329
0.2100067309
0.210006729
0.2100067273
0.2100067257
0.2100067244
0.2100067233
0.2100067223
0.2100067216
0.2100067214
0.2100067253
0.2100067302
0.2100067319
0.2100067356
0.2100067394
0.2100067433
0.2100067469
0.2100067503
0.2100067534
0.2100067559
0.2100067579
0.2100067591
0.2100067597
0.2100067595
0.2100067587
0.2100067574
0.2100067555
0.2100067533
0.2100067507
0.210006748
0.2100067452
0.2100067425
0.2100067398
0.2100067373
0.2100067349
0.2100067327
0.2100067307
0.210006729
0.2100067274
0.210006726
0.2100067248
0.2100067239
0.2100067231
0.2100067229
0.2100067267
0.2100067316
0.2100067324
0.2100067364
0.2100067406
0.2100067447
0.2100067488
0.2100067526
0.210006756
0.2100067589
0.2100067611
0.2100067625
0.2100067631
0.210006763
0.2100067621
0.2100067606
0.2100067586
0.2100067562
0.2100067535
0.2100067506
0.2100067477
0.2100067448
0.210006742
0.2100067393
0.2100067368
0.2100067346
0.2100067325
0.2100067307
0.2100067291
0.2100067277
0.2100067265
0.2100067255
0.2100067247
0.2100067245
0.2100067283
0.2100067332
0.2100067326
0.2100067369
0.2100067413
0.2100067458
0.2100067503
0.2100067544
0.2100067582
0.2100067614
0.2100067638
0.2100067654
0.2100067662
0.210006766
0.2100067651
0.2100067635
0.2100067613
0.2100067588
0.210006756
0.210006753
0.2100067499
0.2100067469
0.210006744
0.2100067413
0.2100067387
0.2100067364
0.2100067343
0.2100067325
0.2100067308
0.2100067294
0.2100067282
0.2100067272
0.2100067264
0.2100067262
0.21000673
0.2100067349
0.2100067324
0.2100067369
0.2100067416
0.2100067464
0.2100067511
0.2100067557
0.2100067597
0.2100067632
0.2100067659
0.2100067677
0.2100067686
0.2100067685
0.2100067675
0.2100067658
0.2100067636
0.2100067609
0.210006758
0.210006755
0.2100067519
0.2100067488
0.2100067459
0.2100067431
0.2100067406
0.2100067383
0.2100067362
0.2100067343
0.2100067327
0.2100067312
0.21000673
0.210006729
0.2100067283
0.210006728
0.2100067319
0.2100067368
0.2100067318
0.2100067365
0.2100067414
0.2100067464
0.2100067514
0.2100067562
0.2100067606
0.2100067643
0.2100067673
0.2100067692
0.2100067702
0.2100067701
0.2100067692
0.2100067675
0.2100067652
0.2100067625
0.2100067596
0.2100067567
0.2100067536
0.2100067505
0.2100067476
0.2100067449
0.2100067424
0.2100067401
0.210006738
0.2100067362
0.2100067346
0.2100067332
0.210006732
0.210006731
0.2100067303
0.21000673
0.2100067339
0.2100067388
0.2100067309
0.2100067357
0.2100067407
0.2100067459
0.210006751
0.210006756
0.2100067606
0.2100067645
0.2100067677
0.2100067698
0.2100067709
0.2100067709
0.2100067701
0.2100067684
0.2100067662
0.2100067636
0.2100067608
0.2100067579
0.210006755
0.210006752
0.2100067493
0.2100067466
0.2100067442
0.210006742
0.21000674
0.2100067382
0.2100067367
0.2100067353
0.2100067341
0.2100067332
0.2100067324
0.2100067322
0.2100067361
0.210006741
0.2100067297
0.2100067345
0.2100067395
0.2100067447
0.2100067499
0.2100067551
0.2100067597
0.2100067638
0.210006767
0.2100067693
0.2100067706
0.2100067708
0.2100067701
0.2100067686
0.2100067666
0.2100067642
0.2100067616
0.2100067589
0.2100067562
0.2100067534
0.2100067508
0.2100067483
0.210006746
0.210006744
0.2100067421
0.2100067404
0.2100067389
0.2100067376
0.2100067365
0.2100067356
0.2100067348
0.2100067346
0.2100067385
0.2100067434
0.2100067282
0.2100067329
0.2100067379
0.2100067431
0.2100067481
0.2100067536
0.2100067581
0.2100067622
0.2100067655
0.2100067679
0.2100067694
0.2100067698
0.2100067693
0.2100067682
0.2100067665
0.2100067644
0.2100067621
0.2100067597
0.2100067572
0.2100067547
0.2100067524
0.2100067501
0.210006748
0.2100067461
0.2100067443
0.2100067428
0.2100067414
0.2100067401
0.2100067391
0.2100067382
0.2100067375
0.2100067373
0.2100067412
0.2100067461
0.2100067266
0.2100067312
0.2100067361
0.2100067411
0.2100067461
0.2100067512
0.2100067558
0.2100067599
0.2100067633
0.2100067658
0.2100067674
0.2100067681
0.210006768
0.2100067673
0.210006766
0.2100067643
0.2100067624
0.2100067604
0.2100067582
0.2100067561
0.2100067541
0.2100067521
0.2100067502
0.2100067485
0.2100067469
0.2100067454
0.2100067441
0.210006743
0.210006742
0.2100067411
0.2100067405
0.2100067403
0.2100067442
0.2100067491
0.210006725
0.2100067295
0.2100067342
0.210006739
0.2100067439
0.2100067487
0.2100067532
0.2100067572
0.2100067606
0.2100067633
0.2100067651
0.2100067662
0.2100067665
0.2100067662
0.2100067654
0.2100067642
0.2100067628
0.2100067612
0.2100067595
0.2100067578
0.2100067561
0.2100067544
0.2100067528
0.2100067513
0.2100067499
0.2100067485
0.2100067473
0.2100067462
0.2100067453
0.2100067445
0.2100067438
0.2100067436
0.2100067476
0.2100067525
0.2100067236
0.2100067278
0.2100067323
0.210006737
0.2100067417
0.2100067461
0.2100067505
0.2100067545
0.2100067579
0.2100067607
0.2100067628
0.2100067643
0.210006765
0.2100067653
0.210006765
0.2100067644
0.2100067635
0.2100067624
0.2100067612
0.2100067599
0.2100067586
0.2100067572
0.2100067559
0.2100067546
0.2100067533
0.2100067521
0.210006751
0.21000675
0.210006749
0.2100067483
0.2100067476
0.2100067475
0.2100067514
0.2100067563
0.2100067185
0.2100067223
0.2100067264
0.2100067307
0.2100067351
0.2100067396
0.210006744
0.2100067482
0.2100067521
0.2100067556
0.2100067586
0.210006761
0.2100067628
0.2100067641
0.2100067648
0.2100067652
0.2100067652
0.2100067649
0.2100067643
0.2100067636
0.2100067627
0.2100067617
0.2100067607
0.2100067596
0.2100067585
0.2100067574
0.2100067563
0.2100067553
0.2100067543
0.2100067534
0.2100067526
0.2100067519
0.2100067517
0.2100067557
0.2100067606
0.2100067178
0.2100067214
0.2100067254
0.2100067295
0.2100067338
0.2100067381
0.2100067423
0.2100067465
0.2100067504
0.2100067539
0.2100067571
0.2100067598
0.2100067621
0.2100067639
0.2100067652
0.2100067662
0.2100067668
0.2100067671
0.2100067671
0.2100067669
0.2100067664
0.2100067658
0.2100067651
0.2100067642
0.2100067633
0.2100067623
0.2100067613
0.2100067602
0.2100067593
0.2100067583
0.2100067575
0.2100067568
0.2100067566
0.2100067605
0.2100067654
0.2100067177
0.2100067211
0.2100067249
0.2100067289
0.2100067331
0.2100067373
0.2100067414
0.2100067456
0.2100067495
0.2100067532
0.2100067566
0.2100067597
0.2100067624
0.2100067648
0.2100067668
0.2100067684
0.2100067697
0.2100067706
0.2100067711
0.2100067713
0.2100067713
0.210006771
0.2100067705
0.2100067699
0.210006769
0.2100067681
0.2100067671
0.2100067661
0.210006765
0.210006764
0.2100067631
0.2100067623
0.2100067621
0.2100067659
0.2100067708
0.210006718
0.2100067215
0.2100067252
0.2100067291
0.2100067332
0.2100067373
0.2100067414
0.2100067456
0.2100067496
0.2100067536
0.2100067573
0.2100067608
0.2100067641
0.2100067671
0.2100067698
0.2100067721
0.210006774
0.2100067755
0.2100067766
0.2100067773
0.2100067776
0.2100067776
0.2100067773
0.2100067768
0.210006776
0.2100067751
0.210006774
0.2100067729
0.2100067717
0.2100067705
0.2100067695
0.2100067686
0.2100067682
0.210006772
0.2100067768
0.2100067226
0.2100067262
0.2100067301
0.2100067342
0.2100067383
0.2100067425
0.2100067467
0.210006751
0.2100067552
0.2100067593
0.2100067634
0.2100067673
0.2100067709
0.2100067743
0.2100067774
0.21000678
0.2100067821
0.2100067837
0.2100067848
0.2100067855
0.2100067857
0.2100067855
0.210006785
0.2100067843
0.2100067833
0.2100067821
0.2100067808
0.2100067794
0.210006778
0.2100067767
0.2100067756
0.2100067751
0.2100067788
0.2100067835
0.2100067244
0.2100067281
0.2100067321
0.2100067362
0.2100067404
0.2100067447
0.2100067491
0.2100067536
0.2100067581
0.2100067627
0.2100067673
0.2100067719
0.210006794
0.2100067928
0.2100067913
0.2100067897
0.210006788
0.2100067863
0.2100067847
0.2100067834
0.2100067826
0.2100067861
0.2100067908
0.210006735
0.2100067392
0.2100067436
0.2100067481
0.2100067527
0.2100067574
0.2100062776
0.2100062792
0.2100062808
0.2100062822
0.2100062835
0.2100062847
0.2100062856
0.2100062865
0.2100062871
0.2100062876
0.2100062879
0.210006288
0.210006288
0.2100062878
0.2100062874
0.210006287
0.2100062864
0.2100062858
0.2100062851
0.2100062843
0.2100062835
0.2100062827
0.2100062819
0.2100062811
0.2100062803
0.2100062796
0.2100062789
0.2100062783
0.2100062778
0.2100062774
0.210006277
0.2100062768
0.2100062766
0.2100062764
0.2100062752
0.2100062769
0.2100062785
0.2100062799
0.2100062813
0.2100062824
0.2100062834
0.2100062842
0.2100062849
0.2100062854
0.2100062856
0.2100062858
0.2100062857
0.2100062855
0.2100062852
0.2100062847
0.2100062841
0.2100062834
0.2100062827
0.2100062819
0.2100062811
0.2100062802
0.2100062794
0.2100062786
0.2100062778
0.2100062771
0.2100062764
0.2100062758
0.2100062753
0.2100062748
0.2100062745
0.2100062743
0.2100062754
0.2100062766
0.2100062681
0.2100062699
0.2100062715
0.210006273
0.2100062743
0.2100062755
0.2100062765
0.2100062773
0.210006278
0.2100062785
0.2100062788
0.2100062789
0.2100062788
0.2100062785
0.2100062782
0.2100062776
0.210006277
0.2100062763
0.2100062755
0.2100062746
0.2100062738
0.2100062729
0.210006272
0.2100062712
0.2100062704
0.2100062696
0.2100062689
0.2100062683
0.2100062677
0.2100062673
0.210006267
0.2100062681
0.2100062748
0.2100062768
0.2100062678
0.2100062697
0.2100062713
0.2100062728
0.2100062742
0.2100062754
0.2100062764
0.2100062773
0.210006278
0.2100062785
0.2100062787
0.2100062788
0.2100062787
0.2100062784
0.210006278
0.2100062774
0.2100062767
0.2100062759
0.210006275
0.2100062741
0.2100062732
0.2100062722
0.2100062713
0.2100062704
0.2100062695
0.2100062687
0.210006268
0.2100062673
0.2100062667
0.2100062662
0.210006266
0.2100062675
0.2100062751
0.2100062771
0.2100062692
0.210006271
0.2100062727
0.2100062743
0.2100062757
0.210006277
0.2100062781
0.2100062791
0.2100062798
0.2100062803
0.2100062805
0.2100062806
0.2100062804
0.2100062801
0.2100062796
0.2100062789
0.2100062781
0.2100062772
0.2100062762
0.2100062752
0.2100062742
0.2100062731
0.2100062721
0.2100062711
0.2100062702
0.2100062693
0.2100062685
0.2100062678
0.2100062672
0.2100062667
0.2100062664
0.210006268
0.2100062755
0.2100062776
0.2100062708
0.2100062727
0.2100062745
0.2100062762
0.2100062777
0.2100062791
0.2100062803
0.2100062813
0.210006282
0.2100062826
0.2100062828
0.2100062828
0.2100062826
0.2100062822
0.2100062816
0.2100062808
0.2100062799
0.2100062789
0.2100062778
0.2100062766
0.2100062755
0.2100062743
0.2100062732
0.2100062721
0.2100062711
0.2100062702
0.2100062693
0.2100062685
0.2100062679
0.2100062673
0.210006267
0.2100062685
0.2100062761
0.2100062782
0.2100062726
0.2100062746
0.2100062765
0.2100062783
0.21000628
0.2100062815
0.2100062828
0.2100062839
0.2100062847
0.2100062852
0.2100062855
0.2100062855
0.2100062852
0.2100062847
0.210006284
0.2100062831
0.210006282
0.2100062809
0.2100062796
0.2100062783
0.210006277
0.2100062757
0.2100062745
0.2100062733
0.2100062722
0.2100062712
0.2100062702
0.2100062694
0.2100062687
0.2100062681
0.2100062677
0.2100062693
0.2100062768
0.2100062788
0.2100062744
0.2100062766
0.2100062787
0.2100062807
0.2100062825
0.2100062842
0.2100062856
0.2100062868
0.2100062877
0.2100062883
0.2100062886
0.2100062885
0.2100062882
0.2100062876
0.2100062867
0.2100062857
0.2100062845
0.2100062831
0.2100062817
0.2100062802
0.2100062788
0.2100062773
0.2100062759
0.2100062746
0.2100062734
0.2100062723
0.2100062713
0.2100062704
0.2100062696
0.210006269
0.2100062686
0.2100062701
0.2100062776
0.2100062796
0.2100062762
0.2100062787
0.2100062809
0.2100062832
0.2100062852
0.2100062871
0.2100062887
0.21000629
0.210006291
0.2100062917
0.210006292
0.2100062919
0.2100062915
0.2100062908
0.2100062898
0.2100062885
0.2100062871
0.2100062856
0.210006284
0.2100062823
0.2100062807
0.2100062791
0.2100062775
0.2100062761
0.2100062748
0.2100062735
0.2100062724
0.2100062715
0.2100062706
0.2100062699
0.2100062695
0.210006271
0.2100062785
0.2100062805
0.210006278
0.2100062806
0.2100062832
0.2100062857
0.210006288
0.2100062901
0.2100062919
0.2100062935
0.2100062946
0.2100062953
0.2100062957
0.2100062955
0.210006295
0.2100062942
0.210006293
0.2100062916
0.21000629
0.2100062882
0.2100062864
0.2100062846
0.2100062827
0.210006281
0.2100062793
0.2100062777
0.2100062762
0.2100062749
0.2100062737
0.2100062727
0.2100062718
0.210006271
0.2100062706
0.210006272
0.2100062795
0.2100062815
0.2100062795
0.2100062825
0.2100062854
0.2100062881
0.2100062908
0.2100062932
0.2100062953
0.210006297
0.2100062984
0.2100062992
0.2100062995
0.2100062994
0.2100062988
0.2100062978
0.2100062964
0.2100062948
0.210006293
0.210006291
0.2100062889
0.2100062869
0.2100062849
0.2100062829
0.2100062811
0.2100062793
0.2100062778
0.2100062763
0.210006275
0.2100062739
0.210006273
0.2100062722
0.2100062717
0.2100062731
0.2100062806
0.2100062826
0.2100062809
0.2100062842
0.2100062874
0.2100062905
0.2100062935
0.2100062962
0.2100062987
0.2100063007
0.2100063022
0.2100063032
0.2100063036
0.2100063034
0.2100063027
0.2100063015
0.2100063
0.2100062981
0.210006296
0.2100062938
0.2100062915
0.2100062893
0.210006287
0.2100062849
0.2100062829
0.210006281
0.2100062794
0.2100062778
0.2100062765
0.2100062753
0.2100062743
0.2100062735
0.2100062729
0.2100062743
0.2100062818
0.2100062838
0.210006282
0.2100062856
0.2100062891
0.2100062927
0.2100062961
0.2100062992
0.210006302
0.2100063043
0.2100063061
0.2100063072
0.2100063077
0.2100063074
0.2100063066
0.2100063053
0.2100063035
0.2100063014
0.2100062991
0.2100062966
0.2100062941
0.2100062916
0.2100062892
0.2100062869
0.2100062848
0.2100062828
0.210006281
0.2100062794
0.210006278
0.2100062767
0.2100062757
0.2100062748
0.2100062742
0.2100062756
0.2100062831
0.210006285
0.2100062828
0.2100062868
0.2100062907
0.2100062946
0.2100062984
0.210006302
0.2100063051
0.2100063078
0.2100063098
0.2100063111
0.2100063116
0.2100063114
0.2100063105
0.210006309
0.210006307
0.2100063046
0.210006302
0.2100062993
0.2100062966
0.2100062939
0.2100062913
0.2100062889
0.2100062866
0.2100062845
0.2100062827
0.210006281
0.2100062795
0.2100062782
0.2100062771
0.2100062762
0.2100062757
0.210006277
0.2100062844
0.2100062864
0.2100062833
0.2100062876
0.2100062918
0.2100062961
0.2100063004
0.2100063044
0.210006308
0.210006311
0.2100063133
0.2100063148
0.2100063154
0.2100063151
0.2100063141
0.2100063124
0.2100063102
0.2100063076
0.2100063048
0.2100063018
0.2100062989
0.2100062961
0.2100062933
0.2100062908
0.2100062884
0.2100062863
0.2100062843
0.2100062826
0.2100062811
0.2100062798
0.2100062787
0.2100062777
0.2100062772
0.2100062785
0.2100062859
0.2100062879
0.2100062834
0.210006288
0.2100062926
0.2100062972
0.210006302
0.2100063063
0.2100063103
0.2100063137
0.2100063163
0.210006318
0.2100063187
0.2100063184
0.2100063173
0.2100063154
0.210006313
0.2100063102
0.2100063072
0.2100063041
0.210006301
0.2100062981
0.2100062952
0.2100062926
0.2100062902
0.210006288
0.210006286
0.2100062843
0.2100062827
0.2100062814
0.2100062803
0.2100062794
0.2100062788
0.2100062801
0.2100062875
0.2100062895
0.2100062831
0.2100062879
0.2100062928
0.2100062978
0.2100063028
0.2100063077
0.2100063121
0.2100063158
0.2100063187
0.2100063206
0.2100063214
0.2100063211
0.2100063199
0.2100063179
0.2100063153
0.2100063124
0.2100063092
0.210006306
0.2100063029
0.2100062998
0.210006297
0.2100062943
0.2100062919
0.2100062897
0.2100062877
0.210006286
0.2100062844
0.2100062831
0.210006282
0.2100062811
0.2100062805
0.2100062818
0.2100062893
0.2100062912
0.2100062824
0.2100062875
0.2100062926
0.2100062978
0.2100063031
0.2100063083
0.210006313
0.210006317
0.2100063202
0.2100063223
0.2100063232
0.210006323
0.2100063217
0.2100063197
0.210006317
0.210006314
0.2100063108
0.2100063076
0.2100063044
0.2100063014
0.2100062986
0.2100062959
0.2100062936
0.2100062914
0.2100062895
0.2100062877
0.2100062862
0.210006285
0.2100062839
0.210006283
0.2100062824
0.2100062837
0.2100062912
0.2100062932
0.2100062814
0.2100062865
0.2100062917
0.2100062972
0.2100063025
0.2100063082
0.210006313
0.2100063173
0.2100063207
0.2100063229
0.210006324
0.2100063238
0.2100063226
0.2100063206
0.210006318
0.2100063151
0.2100063119
0.2100063088
0.2100063057
0.2100063028
0.2100063
0.2100062975
0.2100062952
0.2100062931
0.2100062913
0.2100062896
0.2100062882
0.2100062869
0.2100062859
0.210006285
0.2100062845
0.2100062858
0.2100062933
0.2100062952
0.21000628
0.2100062852
0.2100062904
0.2100062959
0.2100063014
0.2100063069
0.210006312
0.2100063164
0.2100063199
0.2100063223
0.2100063235
0.2100063235
0.2100063225
0.2100063206
0.2100063182
0.2100063155
0.2100063126
0.2100063096
0.2100063067
0.210006304
0.2100063014
0.2100062991
0.2100062969
0.2100062949
0.2100062932
0.2100062916
0.2100062903
0.2100062891
0.2100062881
0.2100062873
0.2100062867
0.2100062881
0.2100062956
0.2100062976
0.2100062784
0.2100062835
0.2100062886
0.2100062941
0.2100062995
0.210006305
0.21000631
0.2100063145
0.210006318
0.2100063206
0.2100063219
0.2100063222
0.2100063214
0.2100063199
0.2100063178
0.2100063154
0.2100063128
0.2100063102
0.2100063076
0.2100063051
0.2100063028
0.2100063007
0.2100062987
0.2100062969
0.2100062953
0.2100062939
0.2100062926
0.2100062915
0.2100062905
0.2100062898
0.2100062893
0.2100062907
0.2100062981
0.2100063001
0.2100062766
0.2100062815
0.2100062866
0.2100062918
0.2100062971
0.2100063024
0.2100063073
0.2100063117
0.2100063153
0.2100063179
0.2100063195
0.21000632
0.2100063197
0.2100063186
0.210006317
0.210006315
0.2100063129
0.2100063107
0.2100063085
0.2100063064
0.2100063044
0.2100063025
0.2100063007
0.2100062991
0.2100062977
0.2100062964
0.2100062952
0.2100062942
0.2100062933
0.2100062926
0.2100062921
0.2100062935
0.210006301
0.210006303
0.2100062748
0.2100062795
0.2100062844
0.2100062894
0.2100062945
0.2100062995
0.2100063042
0.2100063085
0.210006312
0.2100063148
0.2100063166
0.2100063175
0.2100063176
0.2100063171
0.210006316
0.2100063146
0.210006313
0.2100063113
0.2100063095
0.2100063078
0.2100063062
0.2100063046
0.2100063031
0.2100063017
0.2100063005
0.2100062993
0.2100062982
0.2100062973
0.2100062965
0.2100062958
0.2100062953
0.2100062968
0.2100063043
0.2100063063
0.2100062732
0.2100062776
0.2100062822
0.210006287
0.2100062918
0.2100062966
0.2100063011
0.2100063052
0.2100063088
0.2100063116
0.2100063137
0.210006315
0.2100063156
0.2100063157
0.2100063152
0.2100063144
0.2100063134
0.2100063123
0.210006311
0.2100063097
0.2100063085
0.2100063072
0.210006306
0.2100063048
0.2100063037
0.2100063027
0.2100063017
0.2100063008
0.2100063001
0.2100062994
0.210006299
0.2100063004
0.2100063079
0.2100063099
0.2100062678
0.2100062719
0.210006276
0.2100062804
0.2100062849
0.2100062895
0.210006294
0.2100062983
0.2100063023
0.2100063059
0.2100063089
0.2100063112
0.210006313
0.2100063141
0.2100063148
0.210006315
0.2100063149
0.2100063145
0.2100063139
0.2100063132
0.2100063123
0.2100063114
0.2100063105
0.2100063095
0.2100063086
0.2100063076
0.2100063067
0.2100063058
0.210006305
0.2100063042
0.2100063035
0.2100063031
0.2100063046
0.2100063121
0.2100063141
0.2100062672
0.2100062709
0.2100062749
0.210006279
0.2100062833
0.2100062877
0.210006292
0.2100062962
0.2100063001
0.2100063037
0.2100063069
0.2100063096
0.2100063118
0.2100063135
0.2100063148
0.2100063157
0.2100063162
0.2100063164
0.2100063164
0.2100063162
0.2100063158
0.2100063153
0.2100063147
0.2100063139
0.2100063131
0.2100063123
0.2100063115
0.2100063106
0.2100063098
0.210006309
0.2100063083
0.2100063078
0.2100063093
0.2100063167
0.2100063187
0.2100062669
0.2100062705
0.2100062743
0.2100062783
0.2100062824
0.2100062866
0.2100062908
0.2100062949
0.2100062989
0.2100063026
0.210006306
0.210006309
0.2100063117
0.210006314
0.210006316
0.2100063176
0.2100063188
0.2100063197
0.2100063202
0.2100063205
0.2100063205
0.2100063203
0.2100063199
0.2100063194
0.2100063187
0.2100063179
0.2100063171
0.2100063162
0.2100063154
0.2100063145
0.2100063137
0.2100063132
0.2100063146
0.210006322
0.2100063239
0.210006267
0.2100062708
0.2100062744
0.2100062783
0.2100062823
0.2100062864
0.2100062905
0.2100062948
0.2100062987
0.2100063026
0.2100063063
0.2100063098
0.2100063131
0.210006316
0.2100063187
0.210006321
0.2100063229
0.2100063244
0.2100063255
0.2100063263
0.2100063266
0.2100063267
0.2100063265
0.2100063261
0.2100063255
0.2100063247
0.2100063238
0.2100063228
0.2100063218
0.2100063209
0.21000632
0.2100063193
0.2100063206
0.2100063279
0.2100063298
0.2100062716
0.2100062754
0.2100062793
0.2100062832
0.2100062873
0.2100062914
0.2100062956
0.2100062998
0.210006304
0.2100063081
0.2100063121
0.210006316
0.2100063195
0.2100063229
0.2100063259
0.2100063286
0.2100063307
0.2100063324
0.2100063335
0.2100063342
0.2100063345
0.2100063344
0.2100063341
0.2100063337
0.2100063328
0.2100063318
0.2100063306
0.2100063294
0.2100063282
0.210006327
0.2100063262
0.2100063273
0.2100063345
0.2100063364
0.2100062732
0.2100062771
0.2100062812
0.2100062852
0.2100062893
0.2100062936
0.2100062979
0.2100063023
0.2100063066
0.2100063112
0.2100063158
0.2100063199
0.2100063427
0.2100063418
0.2100063405
0.2100063393
0.2100063377
0.2100063362
0.2100063348
0.2100063337
0.2100063345
0.2100063417
0.2100063435
0.2100062835
0.210006288
0.2100062923
0.2100062967
0.2100063012
0.2100063056
0.2100060069
0.2100060084
0.2100060098
0.2100060112
0.2100060124
0.2100060135
0.2100060145
0.2100060152
0.2100060158
0.2100060162
0.2100060165
0.2100060166
0.2100060165
0.2100060163
0.2100060159
0.2100060154
0.2100060148
0.2100060141
0.2100060134
0.2100060126
0.2100060118
0.2100060109
0.2100060101
0.2100060093
0.2100060085
0.2100060078
0.2100060072
0.2100060066
0.210006006
0.2100060056
0.2100060052
0.210006005
0.2100060048
0.2100060046
0.2100060068
0.2100060085
0.2100060099
0.2100060113
0.2100060125
0.2100060136
0.2100060146
0.2100060153
0.2100060159
0.2100060164
0.2100060166
0.2100060167
0.2100060166
0.2100060164
0.210006016
0.2100060155
0.2100060148
0.2100060141
0.2100060134
0.2100060125
0.2100060117
0.2100060108
0.21000601
0.2100060092
0.2100060084
0.2100060076
0.2100060069
0.2100060063
0.2100060058
0.2100060054
0.210006005
0.2100060048
0.2100060051
0.2100060047
0.210006002
0.2100060037
0.2100060052
0.2100060066
0.2100060079
0.210006009
0.2100060099
0.2100060107
0.2100060113
0.2100060118
0.210006012
0.2100060121
0.2100060119
0.2100060117
0.2100060112
0.2100060107
0.21000601
0.2100060092
0.2100060084
0.2100060075
0.2100060066
0.2100060057
0.2100060048
0.2100060039
0.2100060031
0.2100060023
0.2100060016
0.210006001
0.2100060004
0.210006
0.2100059997
0.2100060006
0.210006005
0.210006005
0.2100060019
0.2100060036
0.2100060052
0.2100060066
0.2100060079
0.2100060091
0.2100060101
0.2100060109
0.2100060115
0.2100060119
0.2100060122
0.2100060122
0.210006012
0.2100060117
0.2100060112
0.2100060106
0.2100060098
0.210006009
0.2100060081
0.2100060071
0.2100060061
0.2100060051
0.2100060042
0.2100060032
0.2100060024
0.2100060015
0.2100060008
0.2100060001
0.2100059995
0.210005999
0.2100059988
0.2100060002
0.2100060053
0.2100060053
0.2100060033
0.2100060051
0.2100060067
0.2100060082
0.2100060096
0.2100060108
0.2100060119
0.2100060127
0.2100060134
0.2100060138
0.210006014
0.210006014
0.2100060138
0.2100060134
0.2100060128
0.2100060121
0.2100060113
0.2100060103
0.2100060093
0.2100060082
0.2100060071
0.210006006
0.210006005
0.210006004
0.210006003
0.2100060021
0.2100060013
0.2100060006
0.210006
0.2100059995
0.2100059992
0.2100060006
0.2100060058
0.2100060058
0.2100060051
0.210006007
0.2100060086
0.2100060102
0.2100060117
0.210006013
0.2100060142
0.2100060151
0.2100060158
0.2100060163
0.2100060165
0.2100060164
0.2100060162
0.2100060157
0.210006015
0.2100060141
0.2100060131
0.2100060121
0.2100060109
0.2100060097
0.2100060085
0.2100060073
0.2100060061
0.210006005
0.210006004
0.210006003
0.2100060021
0.2100060013
0.2100060007
0.2100060001
0.2100059998
0.2100060012
0.2100060064
0.2100060064
0.210006007
0.210006009
0.2100060108
0.2100060126
0.2100060142
0.2100060156
0.2100060169
0.2100060179
0.2100060187
0.2100060192
0.2100060194
0.2100060193
0.2100060189
0.2100060183
0.2100060175
0.2100060165
0.2100060154
0.2100060141
0.2100060128
0.2100060114
0.2100060101
0.2100060087
0.2100060074
0.2100060062
0.2100060051
0.210006004
0.210006003
0.2100060022
0.2100060015
0.2100060009
0.2100060006
0.2100060019
0.2100060071
0.2100060071
0.2100060089