/*--------------------------------*- C++ -*----------------------------------*\
  =========                 |
  \\      /  F ield         | OpenFOAM: The Open Source CFD Toolbox
   \\    /   O peration     | Website:  https://openfoam.org
    \\  /    A nd           | Version:  8
     \\/     M anipulation  |
\*---------------------------------------------------------------------------*/
FoamFile
{
    version     2.0;
    format      ascii;
    class       volScalarField;
    location    "0.2";
    object      p;
}
// * * * * * * * * * * * * * * * * * * * * * * * * * * * * * * * * * * * * * //

dimensions      [1 -1 -2 0 0 0 0];

internalField   nonuniform List<scalar> 
67193
(
100003.6919
100003.6928
100003.6936
100003.6944
100003.695
100003.6956
100003.696
100003.6964
100003.6966
100003.6967
100003.6967
100003.6966
100003.6964
100003.696
100003.6956
100003.6951
100003.6946
100003.694
100003.6933
100003.6927
100003.692
100003.6913
100003.6907
100003.69
100003.6894
100003.6888
100003.6883
100003.6879
100003.6875
100003.6871
100003.6868
100003.6866
100003.6865
100003.6864
100003.6921
100003.6931
100003.6939
100003.6947
100003.6954
100003.6959
100003.6964
100003.6967
100003.6969
100003.6971
100003.697
100003.6969
100003.6967
100003.6964
100003.6959
100003.6954
100003.6949
100003.6942
100003.6936
100003.6929
100003.6922
100003.6915
100003.6908
100003.6902
100003.6896
100003.689
100003.6885
100003.688
100003.6876
100003.6872
100003.6869
100003.6867
100003.6866
100003.6865
100003.6927
100003.6936
100003.6945
100003.6953
100003.696
100003.6966
100003.697
100003.6974
100003.6976
100003.6977
100003.6977
100003.6976
100003.6974
100003.697
100003.6966
100003.696
100003.6954
100003.6948
100003.6941
100003.6933
100003.6926
100003.6919
100003.6912
100003.6905
100003.6899
100003.6893
100003.6887
100003.6882
100003.6878
100003.6874
100003.6871
100003.6869
100003.6868
100003.6867
100003.6935
100003.6945
100003.6954
100003.6962
100003.6969
100003.6975
100003.698
100003.6984
100003.6987
100003.6988
100003.6988
100003.6986
100003.6984
100003.698
100003.6975
100003.6969
100003.6962
100003.6955
100003.6948
100003.694
100003.6932
100003.6925
100003.6917
100003.691
100003.6903
100003.6897
100003.6891
100003.6886
100003.6881
100003.6877
100003.6874
100003.6872
100003.6871
100003.687
100003.6945
100003.6955
100003.6965
100003.6974
100003.6981
100003.6988
100003.6993
100003.6998
100003.7
100003.7002
100003.7001
100003.7
100003.6997
100003.6992
100003.6987
100003.6981
100003.6973
100003.6966
100003.6957
100003.6949
100003.694
100003.6932
100003.6924
100003.6916
100003.6909
100003.6902
100003.6896
100003.689
100003.6886
100003.6882
100003.6878
100003.6876
100003.6874
100003.6874
100003.6957
100003.6968
100003.6978
100003.6988
100003.6996
100003.7003
100003.7009
100003.7014
100003.7017
100003.7018
100003.7018
100003.7016
100003.7013
100003.7008
100003.7002
100003.6995
100003.6987
100003.6978
100003.6969
100003.696
100003.695
100003.6941
100003.6932
100003.6924
100003.6916
100003.6909
100003.6902
100003.6896
100003.6891
100003.6887
100003.6883
100003.6881
100003.6879
100003.6878
100003.697
100003.6982
100003.6993
100003.7003
100003.7013
100003.7021
100003.7028
100003.7033
100003.7036
100003.7038
100003.7038
100003.7036
100003.7032
100003.7026
100003.7019
100003.7011
100003.7002
100003.6993
100003.6983
100003.6972
100003.6962
100003.6952
100003.6942
100003.6933
100003.6924
100003.6916
100003.6909
100003.6903
100003.6897
100003.6893
100003.6889
100003.6887
100003.6885
100003.6884
100003.6983
100003.6996
100003.7009
100003.7021
100003.7031
100003.7041
100003.7048
100003.7054
100003.7058
100003.706
100003.706
100003.7058
100003.7053
100003.7047
100003.7039
100003.703
100003.702
100003.7009
100003.6998
100003.6986
100003.6975
100003.6964
100003.6953
100003.6943
100003.6934
100003.6925
100003.6917
100003.6911
100003.6905
100003.69
100003.6896
100003.6893
100003.6891
100003.689
100003.6997
100003.7012
100003.7026
100003.7039
100003.7051
100003.7062
100003.7071
100003.7078
100003.7083
100003.7085
100003.7085
100003.7082
100003.7077
100003.707
100003.7062
100003.7051
100003.704
100003.7028
100003.7015
100003.7002
100003.6989
100003.6977
100003.6965
100003.6954
100003.6944
100003.6935
100003.6927
100003.6919
100003.6913
100003.6908
100003.6904
100003.69
100003.6898
100003.6897
100003.701
100003.7027
100003.7043
100003.7058
100003.7072
100003.7084
100003.7095
100003.7103
100003.7109
100003.7111
100003.7112
100003.7109
100003.7103
100003.7095
100003.7085
100003.7074
100003.7061
100003.7047
100003.7033
100003.7019
100003.7005
100003.6991
100003.6978
100003.6966
100003.6955
100003.6945
100003.6936
100003.6929
100003.6922
100003.6916
100003.6912
100003.6909
100003.6906
100003.6905
100003.7023
100003.7041
100003.7059
100003.7077
100003.7093
100003.7107
100003.7119
100003.7129
100003.7136
100003.7139
100003.714
100003.7137
100003.7131
100003.7122
100003.711
100003.7097
100003.7083
100003.7068
100003.7052
100003.7036
100003.7021
100003.7006
100003.6992
100003.6979
100003.6967
100003.6957
100003.6947
100003.6939
100003.6932
100003.6926
100003.6921
100003.6917
100003.6915
100003.6914
100003.7035
100003.7055
100003.7075
100003.7095
100003.7113
100003.713
100003.7144
100003.7156
100003.7164
100003.7168
100003.7169
100003.7165
100003.7159
100003.7149
100003.7136
100003.7122
100003.7106
100003.7089
100003.7071
100003.7054
100003.7037
100003.7021
100003.7006
100003.6992
100003.698
100003.6968
100003.6958
100003.6949
100003.6942
100003.6936
100003.6931
100003.6927
100003.6925
100003.6923
100003.7045
100003.7067
100003.709
100003.7112
100003.7133
100003.7152
100003.7169
100003.7182
100003.7192
100003.7197
100003.7198
100003.7194
100003.7187
100003.7176
100003.7162
100003.7146
100003.7128
100003.7109
100003.7091
100003.7072
100003.7054
100003.7037
100003.7021
100003.7006
100003.6992
100003.698
100003.697
100003.6961
100003.6953
100003.6946
100003.6941
100003.6937
100003.6935
100003.6934
100003.7053
100003.7078
100003.7102
100003.7127
100003.7151
100003.7173
100003.7192
100003.7207
100003.7218
100003.7225
100003.7226
100003.7223
100003.7215
100003.7202
100003.7187
100003.7169
100003.715
100003.713
100003.7109
100003.7089
100003.707
100003.7052
100003.7035
100003.7019
100003.7005
100003.6993
100003.6982
100003.6972
100003.6964
100003.6957
100003.6952
100003.6948
100003.6946
100003.6944
100003.7058
100003.7085
100003.7113
100003.714
100003.7166
100003.7191
100003.7213
100003.723
100003.7243
100003.7251
100003.7253
100003.7249
100003.724
100003.7227
100003.721
100003.7191
100003.717
100003.7149
100003.7127
100003.7106
100003.7086
100003.7067
100003.7049
100003.7033
100003.7018
100003.7006
100003.6994
100003.6984
100003.6976
100003.6969
100003.6964
100003.696
100003.6957
100003.6956
100003.7062
100003.7091
100003.712
100003.715
100003.7179
100003.7206
100003.723
100003.725
100003.7265
100003.7274
100003.7276
100003.7273
100003.7263
100003.7249
100003.7231
100003.7211
100003.7189
100003.7166
100003.7143
100003.7121
100003.71
100003.7081
100003.7063
100003.7046
100003.7032
100003.7019
100003.7007
100003.6997
100003.6989
100003.6982
100003.6977
100003.6973
100003.697
100003.6969
100003.7063
100003.7093
100003.7125
100003.7156
100003.7188
100003.7217
100003.7244
100003.7266
100003.7282
100003.7292
100003.7295
100003.7292
100003.7282
100003.7267
100003.7249
100003.7227
100003.7204
100003.7181
100003.7158
100003.7135
100003.7114
100003.7094
100003.7076
100003.706
100003.7045
100003.7032
100003.702
100003.7011
100003.7002
100003.6995
100003.699
100003.6986
100003.6983
100003.6982
100003.7061
100003.7092
100003.7125
100003.7159
100003.7191
100003.7223
100003.7252
100003.7276
100003.7294
100003.7305
100003.7309
100003.7305
100003.7296
100003.7281
100003.7262
100003.724
100003.7217
100003.7193
100003.717
100003.7148
100003.7127
100003.7107
100003.7089
100003.7073
100003.7058
100003.7046
100003.7034
100003.7025
100003.7016
100003.701
100003.7004
100003.7001
100003.6998
100003.6997
100003.7056
100003.7088
100003.7122
100003.7156
100003.719
100003.7224
100003.7253
100003.7279
100003.7298
100003.731
100003.7315
100003.7312
100003.7303
100003.7289
100003.727
100003.7249
100003.7226
100003.7203
100003.7181
100003.7159
100003.7138
100003.7119
100003.7102
100003.7086
100003.7072
100003.706
100003.7049
100003.704
100003.7032
100003.7025
100003.702
100003.7016
100003.7014
100003.7013
100003.7049
100003.7081
100003.7115
100003.715
100003.7184
100003.7219
100003.7249
100003.7275
100003.7295
100003.7309
100003.7314
100003.7313
100003.7305
100003.7291
100003.7274
100003.7254
100003.7232
100003.7211
100003.7189
100003.7169
100003.7149
100003.7132
100003.7115
100003.71
100003.7087
100003.7075
100003.7065
100003.7056
100003.7048
100003.7042
100003.7037
100003.7034
100003.7031
100003.703
100003.704
100003.7072
100003.7106
100003.714
100003.7174
100003.7207
100003.7238
100003.7265
100003.7285
100003.7299
100003.7306
100003.7306
100003.73
100003.7289
100003.7273
100003.7255
100003.7236
100003.7217
100003.7197
100003.7178
100003.7161
100003.7144
100003.7129
100003.7115
100003.7103
100003.7092
100003.7082
100003.7074
100003.7067
100003.7061
100003.7056
100003.7053
100003.705
100003.7049
100003.703
100003.7061
100003.7094
100003.7127
100003.716
100003.7193
100003.7223
100003.7249
100003.727
100003.7285
100003.7293
100003.7295
100003.7291
100003.7282
100003.727
100003.7255
100003.7239
100003.7222
100003.7205
100003.7188
100003.7173
100003.7158
100003.7145
100003.7132
100003.7121
100003.7111
100003.7102
100003.7094
100003.7087
100003.7082
100003.7077
100003.7074
100003.7072
100003.7071
100003.7019
100003.7049
100003.708
100003.7112
100003.7144
100003.7176
100003.7205
100003.723
100003.7251
100003.7267
100003.7277
100003.7281
100003.728
100003.7275
100003.7266
100003.7254
100003.7241
100003.7228
100003.7214
100003.72
100003.7187
100003.7174
100003.7162
100003.7151
100003.7141
100003.7132
100003.7124
100003.7117
100003.7111
100003.7105
100003.7101
100003.7098
100003.7096
100003.7095
100003.701
100003.7038
100003.7068
100003.7098
100003.7129
100003.7158
100003.7186
100003.7211
100003.7232
100003.7249
100003.7261
100003.7267
100003.7269
100003.7268
100003.7263
100003.7255
100003.7246
100003.7236
100003.7225
100003.7214
100003.7204
100003.7193
100003.7183
100003.7174
100003.7165
100003.7157
100003.715
100003.7143
100003.7137
100003.7132
100003.7128
100003.7125
100003.7123
100003.7121
100003.6976
100003.7001
100003.7028
100003.7056
100003.7085
100003.7114
100003.7143
100003.717
100003.7194
100003.7216
100003.7233
100003.7247
100003.7256
100003.7262
100003.7264
100003.7263
100003.726
100003.7255
100003.7248
100003.7241
100003.7233
100003.7225
100003.7217
100003.7209
100003.7201
100003.7193
100003.7186
100003.7179
100003.7173
100003.7167
100003.7162
100003.7158
100003.7155
100003.7153
100003.7152
100003.6972
100003.6996
100003.7021
100003.7048
100003.7076
100003.7103
100003.713
100003.7157
100003.7181
100003.7203
100003.7222
100003.7238
100003.725
100003.7259
100003.7265
100003.7269
100003.727
100003.7269
100003.7267
100003.7263
100003.7259
100003.7253
100003.7247
100003.7241
100003.7234
100003.7227
100003.722
100003.7214
100003.7207
100003.7202
100003.7196
100003.7192
100003.7189
100003.7186
100003.7185
100003.6971
100003.6993
100003.7018
100003.7044
100003.707
100003.7097
100003.7123
100003.7149
100003.7174
100003.7197
100003.7217
100003.7236
100003.7251
100003.7264
100003.7275
100003.7283
100003.7289
100003.7292
100003.7293
100003.7293
100003.7291
100003.7288
100003.7284
100003.7279
100003.7273
100003.7267
100003.726
100003.7254
100003.7247
100003.7241
100003.7235
100003.7231
100003.7227
100003.7224
100003.7223
100003.6973
100003.6995
100003.7019
100003.7044
100003.707
100003.7096
100003.7122
100003.7149
100003.7174
100003.7198
100003.7221
100003.7242
100003.7261
100003.7278
100003.7294
100003.7306
100003.7317
100003.7324
100003.733
100003.7333
100003.7333
100003.7332
100003.7329
100003.7325
100003.732
100003.7314
100003.7307
100003.73
100003.7293
100003.7286
100003.728
100003.7274
100003.727
100003.7267
100003.7265
100003.7002
100003.7026
100003.705
100003.7076
100003.7102
100003.7129
100003.7155
100003.7182
100003.7207
100003.7233
100003.7257
100003.7281
100003.7303
100003.7323
100003.7341
100003.7356
100003.7368
100003.7377
100003.7383
100003.7386
100003.7386
100003.7385
100003.7381
100003.7376
100003.7369
100003.7362
100003.7354
100003.7345
100003.7337
100003.7329
100003.7322
100003.7317
100003.7313
100003.7311
100003.7013
100003.7037
100003.7063
100003.7089
100003.7115
100003.7142
100003.717
100003.7198
100003.7226
100003.7254
100003.7282
100003.7311
100003.7441
100003.7434
100003.7425
100003.7415
100003.7404
100003.7394
100003.7384
100003.7376
100003.7369
100003.7365
100003.7362
100003.7081
100003.7108
100003.7136
100003.7164
100003.7193
100003.7222
100003.5712
100003.5721
100003.5729
100003.5736
100003.5743
100003.5748
100003.5752
100003.5756
100003.5758
100003.5759
100003.5759
100003.5757
100003.5755
100003.5752
100003.5747
100003.5742
100003.5737
100003.573
100003.5724
100003.5717
100003.571
100003.5703
100003.5697
100003.569
100003.5684
100003.5678
100003.5673
100003.5669
100003.5664
100003.5661
100003.5658
100003.5656
100003.5655
100003.5654
100003.5715
100003.5724
100003.5732
100003.574
100003.5746
100003.5751
100003.5756
100003.5759
100003.5761
100003.5762
100003.5762
100003.5761
100003.5758
100003.5755
100003.575
100003.5745
100003.5739
100003.5733
100003.5726
100003.5719
100003.5712
100003.5705
100003.5698
100003.5692
100003.5686
100003.568
100003.5674
100003.567
100003.5666
100003.5662
100003.5659
100003.5657
100003.5656
100003.5655
100003.572
100003.573
100003.5738
100003.5746
100003.5753
100003.5758
100003.5763
100003.5766
100003.5768
100003.5769
100003.5769
100003.5768
100003.5765
100003.5761
100003.5757
100003.5751
100003.5745
100003.5738
100003.5731
100003.5724
100003.5716
100003.5709
100003.5702
100003.5695
100003.5689
100003.5683
100003.5677
100003.5672
100003.5668
100003.5664
100003.5661
100003.5659
100003.5658
100003.5657
100003.5729
100003.5738
100003.5747
100003.5755
100003.5762
100003.5768
100003.5773
100003.5777
100003.5779
100003.578
100003.578
100003.5778
100003.5775
100003.5771
100003.5766
100003.576
100003.5753
100003.5746
100003.5739
100003.5731
100003.5723
100003.5715
100003.5707
100003.57
100003.5693
100003.5687
100003.5681
100003.5676
100003.5671
100003.5667
100003.5664
100003.5662
100003.566
100003.566
100003.5739
100003.5749
100003.5759
100003.5767
100003.5775
100003.5781
100003.5786
100003.579
100003.5793
100003.5794
100003.5794
100003.5792
100003.5789
100003.5784
100003.5779
100003.5772
100003.5765
100003.5757
100003.5748
100003.574
100003.5731
100003.5722
100003.5714
100003.5706
100003.5699
100003.5692
100003.5686
100003.568
100003.5676
100003.5672
100003.5668
100003.5666
100003.5664
100003.5664
100003.5751
100003.5762
100003.5772
100003.5781
100003.579
100003.5797
100003.5803
100003.5807
100003.581
100003.5811
100003.5811
100003.5809
100003.5805
100003.58
100003.5794
100003.5786
100003.5778
100003.5769
100003.576
100003.5751
100003.5741
100003.5732
100003.5723
100003.5714
100003.5706
100003.5699
100003.5692
100003.5686
100003.5681
100003.5677
100003.5673
100003.5671
100003.5669
100003.5668
100003.5765
100003.5776
100003.5788
100003.5798
100003.5807
100003.5815
100003.5822
100003.5827
100003.583
100003.5832
100003.5831
100003.5829
100003.5825
100003.5819
100003.5812
100003.5804
100003.5794
100003.5784
100003.5774
100003.5763
100003.5753
100003.5742
100003.5733
100003.5723
100003.5714
100003.5706
100003.5699
100003.5693
100003.5687
100003.5683
100003.5679
100003.5676
100003.5675
100003.5674
100003.5779
100003.5792
100003.5804
100003.5816
100003.5826
100003.5835
100003.5843
100003.5849
100003.5853
100003.5855
100003.5854
100003.5852
100003.5847
100003.5841
100003.5832
100003.5823
100003.5813
100003.5801
100003.579
100003.5778
100003.5766
100003.5755
100003.5744
100003.5734
100003.5724
100003.5715
100003.5708
100003.5701
100003.5695
100003.569
100003.5686
100003.5683
100003.5681
100003.568
100003.5793
100003.5807
100003.5821
100003.5835
100003.5847
100003.5857
100003.5866
100003.5873
100003.5878
100003.588
100003.588
100003.5877
100003.5872
100003.5864
100003.5855
100003.5844
100003.5833
100003.582
100003.5807
100003.5794
100003.5781
100003.5768
100003.5756
100003.5745
100003.5735
100003.5725
100003.5717
100003.5709
100003.5703
100003.5698
100003.5693
100003.569
100003.5688
100003.5687
100003.5807
100003.5823
100003.5839
100003.5854
100003.5868
100003.5881
100003.5891
100003.5899
100003.5905
100003.5908
100003.5908
100003.5905
100003.5899
100003.589
100003.588
100003.5868
100003.5854
100003.584
100003.5825
100003.5811
100003.5796
100003.5782
100003.5769
100003.5757
100003.5746
100003.5736
100003.5727
100003.5719
100003.5712
100003.5706
100003.5702
100003.5698
100003.5696
100003.5695
100003.582
100003.5838
100003.5856
100003.5873
100003.589
100003.5904
100003.5917
100003.5927
100003.5934
100003.5937
100003.5937
100003.5934
100003.5927
100003.5918
100003.5906
100003.5892
100003.5877
100003.5861
100003.5845
100003.5828
100003.5813
100003.5797
100003.5783
100003.577
100003.5758
100003.5747
100003.5737
100003.5729
100003.5722
100003.5716
100003.5711
100003.5707
100003.5705
100003.5704
100003.5831
100003.5852
100003.5872
100003.5892
100003.5911
100003.5928
100003.5943
100003.5955
100003.5963
100003.5967
100003.5968
100003.5964
100003.5957
100003.5946
100003.5933
100003.5917
100003.59
100003.5883
100003.5864
100003.5847
100003.5829
100003.5813
100003.5797
100003.5783
100003.577
100003.5759
100003.5748
100003.5739
100003.5732
100003.5726
100003.5721
100003.5717
100003.5714
100003.5713
100003.5841
100003.5864
100003.5887
100003.591
100003.5932
100003.5951
100003.5969
100003.5983
100003.5993
100003.5998
100003.5999
100003.5995
100003.5986
100003.5974
100003.5959
100003.5942
100003.5923
100003.5904
100003.5884
100003.5865
100003.5846
100003.5828
100003.5812
100003.5797
100003.5783
100003.5771
100003.576
100003.5751
100003.5743
100003.5736
100003.5731
100003.5727
100003.5725
100003.5723
100003.5849
100003.5875
100003.59
100003.5926
100003.595
100003.5973
100003.5993
100003.601
100003.6021
100003.6028
100003.6029
100003.6025
100003.6016
100003.6002
100003.5986
100003.5967
100003.5946
100003.5925
100003.5903
100003.5882
100003.5862
100003.5844
100003.5826
100003.581
100003.5796
100003.5783
100003.5772
100003.5762
100003.5754
100003.5747
100003.5742
100003.5738
100003.5735
100003.5734
100003.5855
100003.5883
100003.5911
100003.5939
100003.5967
100003.5993
100003.6016
100003.6035
100003.6048
100003.6056
100003.6058
100003.6053
100003.6043
100003.6029
100003.601
100003.5989
100003.5967
100003.5944
100003.5921
100003.5899
100003.5878
100003.5858
100003.584
100003.5824
100003.5809
100003.5796
100003.5784
100003.5774
100003.5766
100003.5759
100003.5754
100003.575
100003.5747
100003.5746
100003.5858
100003.5888
100003.5919
100003.595
100003.598
100003.6009
100003.6035
100003.6057
100003.6072
100003.6082
100003.6084
100003.6079
100003.6068
100003.6052
100003.6032
100003.601
100003.5986
100003.5962
100003.5938
100003.5915
100003.5893
100003.5873
100003.5854
100003.5837
100003.5822
100003.5809
100003.5797
100003.5787
100003.5779
100003.5772
100003.5766
100003.5762
100003.576
100003.5758
100003.5859
100003.589
100003.5923
100003.5956
100003.5989
100003.6021
100003.605
100003.6074
100003.6092
100003.6102
100003.6105
100003.61
100003.6089
100003.6071
100003.605
100003.6027
100003.6002
100003.5977
100003.5952
100003.5928
100003.5906
100003.5886
100003.5867
100003.585
100003.5835
100003.5822
100003.581
100003.58
100003.5792
100003.5785
100003.578
100003.5776
100003.5773
100003.5772
100003.5856
100003.5889
100003.5923
100003.5959
100003.5994
100003.6028
100003.6059
100003.6085
100003.6104
100003.6116
100003.612
100003.6115
100003.6103
100003.6086
100003.6064
100003.604
100003.6015
100003.5989
100003.5964
100003.5941
100003.5919
100003.5898
100003.588
100003.5863
100003.5848
100003.5835
100003.5824
100003.5814
100003.5806
100003.5799
100003.5794
100003.579
100003.5787
100003.5786
100003.5851
100003.5884
100003.592
100003.5956
100003.5992
100003.6028
100003.6061
100003.6088
100003.611
100003.6123
100003.6127
100003.6123
100003.6111
100003.6094
100003.6072
100003.6049
100003.6024
100003.5999
100003.5974
100003.5951
100003.593
100003.591
100003.5892
100003.5876
100003.5862
100003.5849
100003.5838
100003.5829
100003.5821
100003.5815
100003.5809
100003.5805
100003.5803
100003.5802
100003.5843
100003.5877
100003.5912
100003.5949
100003.5986
100003.6022
100003.6055
100003.6084
100003.6106
100003.612
100003.6125
100003.6122
100003.6112
100003.6095
100003.6075
100003.6053
100003.6029
100003.6005
100003.5982
100003.5961
100003.594
100003.5922
100003.5905
100003.589
100003.5876
100003.5864
100003.5854
100003.5845
100003.5837
100003.5831
100003.5826
100003.5823
100003.582
100003.5819
100003.5833
100003.5866
100003.5901
100003.5937
100003.5974
100003.6009
100003.6043
100003.6071
100003.6094
100003.6109
100003.6115
100003.6114
100003.6105
100003.6091
100003.6073
100003.6053
100003.6032
100003.601
100003.5989
100003.5969
100003.5951
100003.5934
100003.5918
100003.5904
100003.5892
100003.5881
100003.5871
100003.5863
100003.5856
100003.585
100003.5845
100003.5841
100003.5839
100003.5838
100003.5822
100003.5854
100003.5888
100003.5923
100003.5958
100003.5992
100003.6025
100003.6053
100003.6075
100003.6091
100003.6099
100003.6099
100003.6093
100003.6082
100003.6068
100003.6051
100003.6033
100003.6014
100003.5996
100003.5978
100003.5962
100003.5947
100003.5933
100003.5921
100003.5909
100003.5899
100003.589
100003.5882
100003.5876
100003.587
100003.5866
100003.5862
100003.586
100003.5859
100003.581
100003.5841
100003.5873
100003.5906
100003.594
100003.5973
100003.6003
100003.6031
100003.6053
100003.6069
100003.6079
100003.6082
100003.6079
100003.6072
100003.6061
100003.6048
100003.6033
100003.6018
100003.6003
100003.5989
100003.5975
100003.5962
100003.595
100003.5939
100003.5929
100003.592
100003.5912
100003.5905
100003.5898
100003.5893
100003.5889
100003.5886
100003.5884
100003.5882
100003.5799
100003.5828
100003.5859
100003.589
100003.5922
100003.5953
100003.5982
100003.6008
100003.603
100003.6047
100003.6058
100003.6064
100003.6065
100003.6062
100003.6055
100003.6046
100003.6036
100003.6025
100003.6014
100003.6002
100003.5991
100003.5981
100003.597
100003.5961
100003.5952
100003.5944
100003.5937
100003.593
100003.5924
100003.5919
100003.5915
100003.5912
100003.591
100003.5909
100003.5765
100003.579
100003.5817
100003.5846
100003.5876
100003.5905
100003.5934
100003.5962
100003.5987
100003.6009
100003.6027
100003.604
100003.6049
100003.6054
100003.6055
100003.6053
100003.6049
100003.6043
100003.6036
100003.6028
100003.602
100003.6012
100003.6003
100003.5995
100003.5987
100003.598
100003.5972
100003.5966
100003.5959
100003.5954
100003.5949
100003.5945
100003.5942
100003.594
100003.5938
100003.576
100003.5784
100003.5809
100003.5837
100003.5864
100003.5892
100003.592
100003.5947
100003.5971
100003.5994
100003.6012
100003.6028
100003.604
100003.6048
100003.6054
100003.6057
100003.6057
100003.6056
100003.6053
100003.6049
100003.6044
100003.6038
100003.6032
100003.6026
100003.6019
100003.6012
100003.6006
100003.5999
100003.5993
100003.5988
100003.5983
100003.5978
100003.5975
100003.5973
100003.5972
100003.5758
100003.5781
100003.5805
100003.5831
100003.5858
100003.5884
100003.5911
100003.5937
100003.5962
100003.5984
100003.6005
100003.6023
100003.6038
100003.6051
100003.6061
100003.6068
100003.6074
100003.6077
100003.6078
100003.6077
100003.6075
100003.6072
100003.6068
100003.6063
100003.6058
100003.6052
100003.6045
100003.6039
100003.6032
100003.6026
100003.6021
100003.6016
100003.6013
100003.601
100003.6009
100003.5759
100003.5782
100003.5806
100003.5831
100003.5857
100003.5883
100003.5909
100003.5935
100003.596
100003.5983
100003.6006
100003.6027
100003.6046
100003.6063
100003.6078
100003.609
100003.61
100003.6108
100003.6113
100003.6116
100003.6117
100003.6115
100003.6113
100003.6109
100003.6104
100003.6098
100003.6092
100003.6085
100003.6078
100003.6071
100003.6065
100003.6059
100003.6055
100003.6052
100003.605
100003.5788
100003.5811
100003.5836
100003.5862
100003.5888
100003.5914
100003.594
100003.5966
100003.5991
100003.6016
100003.604
100003.6064
100003.6086
100003.6106
100003.6124
100003.6139
100003.6151
100003.616
100003.6166
100003.6169
100003.6169
100003.6168
100003.6164
100003.6159
100003.6153
100003.6146
100003.6138
100003.613
100003.6121
100003.6114
100003.6107
100003.6102
100003.6098
100003.6096
100003.5799
100003.5823
100003.5848
100003.5874
100003.59
100003.5927
100003.5954
100003.5981
100003.6008
100003.6036
100003.6065
100003.6093
100003.6225
100003.6218
100003.6209
100003.6199
100003.6189
100003.6178
100003.6169
100003.616
100003.6154
100003.6149
100003.6147
100003.5866
100003.5893
100003.592
100003.5948
100003.5976
100003.6005
100003.4505
100003.4513
100003.4521
100003.4528
100003.4534
100003.4539
100003.4543
100003.4546
100003.4548
100003.4549
100003.4548
100003.4547
100003.4544
100003.454
100003.4536
100003.4531
100003.4525
100003.4518
100003.4512
100003.4505
100003.4497
100003.449
100003.4484
100003.4477
100003.4471
100003.4465
100003.446
100003.4455
100003.4451
100003.4447
100003.4445
100003.4443
100003.4441
100003.444
100003.4508
100003.4517
100003.4525
100003.4532
100003.4538
100003.4543
100003.4547
100003.455
100003.4552
100003.4552
100003.4552
100003.455
100003.4548
100003.4544
100003.4539
100003.4534
100003.4528
100003.4521
100003.4514
100003.4507
100003.45
100003.4492
100003.4485
100003.4479
100003.4472
100003.4466
100003.4461
100003.4456
100003.4452
100003.4449
100003.4446
100003.4444
100003.4442
100003.4441
100003.4514
100003.4523
100003.4531
100003.4538
100003.4544
100003.455
100003.4554
100003.4557
100003.4559
100003.456
100003.4559
100003.4558
100003.4555
100003.4551
100003.4546
100003.454
100003.4533
100003.4526
100003.4519
100003.4512
100003.4504
100003.4496
100003.4489
100003.4482
100003.4475
100003.4469
100003.4464
100003.4459
100003.4454
100003.4451
100003.4448
100003.4445
100003.4444
100003.4443
100003.4523
100003.4532
100003.454
100003.4548
100003.4555
100003.456
100003.4565
100003.4568
100003.457
100003.4571
100003.457
100003.4569
100003.4565
100003.4561
100003.4555
100003.4549
100003.4542
100003.4535
100003.4527
100003.4518
100003.451
100003.4502
100003.4494
100003.4487
100003.448
100003.4473
100003.4467
100003.4462
100003.4458
100003.4454
100003.4451
100003.4448
100003.4447
100003.4446
100003.4534
100003.4544
100003.4553
100003.4561
100003.4568
100003.4574
100003.4579
100003.4583
100003.4585
100003.4586
100003.4585
100003.4583
100003.4579
100003.4575
100003.4568
100003.4561
100003.4554
100003.4545
100003.4537
100003.4528
100003.4519
100003.451
100003.4501
100003.4493
100003.4486
100003.4479
100003.4473
100003.4467
100003.4462
100003.4458
100003.4455
100003.4452
100003.4451
100003.445
100003.4547
100003.4558
100003.4567
100003.4576
100003.4584
100003.4591
100003.4597
100003.4601
100003.4603
100003.4604
100003.4603
100003.4601
100003.4597
100003.4591
100003.4585
100003.4577
100003.4568
100003.4559
100003.4549
100003.4539
100003.4529
100003.4519
100003.451
100003.4501
100003.4493
100003.4486
100003.4479
100003.4473
100003.4468
100003.4463
100003.446
100003.4457
100003.4455
100003.4455
100003.4562
100003.4573
100003.4583
100003.4593
100003.4602
100003.461
100003.4617
100003.4622
100003.4625
100003.4626
100003.4625
100003.4622
100003.4618
100003.4611
100003.4603
100003.4595
100003.4585
100003.4574
100003.4563
100003.4552
100003.4541
100003.453
100003.452
100003.4511
100003.4502
100003.4494
100003.4486
100003.448
100003.4474
100003.4469
100003.4466
100003.4463
100003.4461
100003.446
100003.4577
100003.4589
100003.4601
100003.4612
100003.4623
100003.4632
100003.464
100003.4645
100003.4649
100003.465
100003.4649
100003.4646
100003.4641
100003.4634
100003.4625
100003.4615
100003.4604
100003.4592
100003.4579
100003.4567
100003.4555
100003.4543
100003.4532
100003.4521
100003.4511
100003.4502
100003.4495
100003.4488
100003.4481
100003.4476
100003.4472
100003.447
100003.4468
100003.4467
100003.4592
100003.4606
100003.4619
100003.4632
100003.4645
100003.4655
100003.4664
100003.4671
100003.4676
100003.4678
100003.4677
100003.4673
100003.4668
100003.4659
100003.4649
100003.4638
100003.4625
100003.4611
100003.4597
100003.4584
100003.457
100003.4557
100003.4544
100003.4533
100003.4522
100003.4512
100003.4504
100003.4496
100003.449
100003.4484
100003.448
100003.4477
100003.4475
100003.4474
100003.4606
100003.4622
100003.4638
100003.4653
100003.4667
100003.468
100003.4691
100003.4699
100003.4705
100003.4707
100003.4707
100003.4703
100003.4696
100003.4687
100003.4675
100003.4662
100003.4648
100003.4632
100003.4617
100003.4601
100003.4586
100003.4571
100003.4558
100003.4545
100003.4534
100003.4523
100003.4514
100003.4506
100003.4499
100003.4493
100003.4488
100003.4485
100003.4483
100003.4482
100003.4619
100003.4638
100003.4656
100003.4674
100003.4691
100003.4706
100003.4719
100003.4729
100003.4736
100003.4739
100003.4739
100003.4735
100003.4727
100003.4716
100003.4703
100003.4688
100003.4672
100003.4654
100003.4637
100003.462
100003.4603
100003.4587
100003.4572
100003.4558
100003.4546
100003.4534
100003.4524
100003.4516
100003.4508
100003.4502
100003.4497
100003.4494
100003.4492
100003.449
100003.4631
100003.4652
100003.4673
100003.4694
100003.4714
100003.4732
100003.4747
100003.476
100003.4768
100003.4773
100003.4773
100003.4768
100003.4759
100003.4747
100003.4732
100003.4715
100003.4696
100003.4677
100003.4657
100003.4638
100003.462
100003.4603
100003.4586
100003.4572
100003.4558
100003.4546
100003.4536
100003.4526
100003.4519
100003.4512
100003.4507
100003.4503
100003.4501
100003.45
100003.4641
100003.4665
100003.4689
100003.4713
100003.4736
100003.4757
100003.4776
100003.4791
100003.4801
100003.4807
100003.4807
100003.4802
100003.4792
100003.4778
100003.4761
100003.4742
100003.4721
100003.4699