/*--------------------------------*- C++ -*----------------------------------*\
  =========                 |
  \\      /  F ield         | OpenFOAM: The Open Source CFD Toolbox
   \\    /   O peration     | Website:  https://openfoam.org
    \\  /    A nd           | Version:  8
     \\/     M anipulation  |
\*---------------------------------------------------------------------------*/
FoamFile
{
    version     2.0;
    format      ascii;
    class       surfaceScalarField;
    location    "0.2";
    object      phi;
}
// * * * * * * * * * * * * * * * * * * * * * * * * * * * * * * * * * * * * * //

dimensions      [1 0 -1 0 0 0 0];

internalField   nonuniform List<scalar> 
196504
(
5.823822012e-08
-8.619455289e-08
3.077895395e-08
1.137625543e-07
-8.752554361e-08
3.219712605e-08
1.68968902e-07
-8.883495328e-08
3.383778544e-08
2.236013392e-07
-9.008384541e-08
3.567436097e-08
2.773633606e-07
-9.12231849e-08
3.76983532e-08
3.299014345e-07
-9.219930905e-08
3.991308147e-08
3.80798643e-07
-9.295828462e-08
4.232795293e-08
4.295782952e-07
-9.345042119e-08
4.495299933e-08
4.757148554e-07
-9.363379779e-08
4.779508316e-08
5.186505187e-07
-9.347724529e-08
5.085523195e-08
5.578151624e-07
-9.296228051e-08
5.412719299e-08
5.926478629e-07
-9.208416693e-08
5.759692948e-08
6.226183488e-07
-9.085200384e-08
6.124277604e-08
6.472470693e-07
-8.928795728e-08
6.503605664e-08
6.661228129e-07
-8.742576874e-08
6.894204902e-08
6.789169963e-07
-8.530862854e-08
7.29211914e-08
6.853940101e-07
-8.298665205e-08
7.693050967e-08
6.854172381e-07
-8.051416703e-08
8.092523264e-08
6.789506477e-07
-7.794699036e-08
8.486050519e-08
6.6605615e-07
-7.533985294e-08
8.869304348e-08
6.468872925e-07
-7.274428884e-08
9.238269449e-08
6.216800539e-07
-7.02069928e-08
9.589369125e-08
5.907416708e-07
-6.776873628e-08
9.919553622e-08
5.544384685e-07
-6.546388234e-08
1.022635102e-07
5.13183621e-07
-6.332042939e-08
1.05078784e-07
4.674256203e-07
-6.136052269e-08
1.076282177e-07
4.176381361e-07
-5.960145012e-08
1.099039629e-07
3.643118379e-07
-5.805711781e-08
1.119029719e-07
3.079490399e-07
-5.674024842e-08
1.136263712e-07
2.490626879e-07
-5.566601032e-08
1.150787438e-07
1.881809728e-07
-5.485693778e-08
1.16267422e-07
1.258743624e-07
-5.435881148e-08
1.171959467e-07
6.274124924e-08
-5.418234017e-08
1.178471314e-07
-5.314673175e-08
1.164202295e-07
5.783063322e-08
-1.718619094e-07
2.958079286e-08
1.140650147e-07
-1.745919468e-07
3.102568806e-08
1.700287739e-07
-1.772807856e-07
3.268887746e-08
2.254703358e-07
-1.798511549e-07
3.454620464e-08
2.800925841e-07
-1.822032183e-07
3.659236482e-08
3.33535582e-07
-1.842275561e-07
3.883437996e-08
3.853709958e-07
-1.858147036e-07
4.128507401e-08
4.351062785e-07
-1.868638003e-07
4.395744316e-08
4.82196754e-07
-1.872899476e-07
4.686058201e-08
5.260633114e-07
-1.870300765e-07
4.999695513e-08
5.661136034e-07
-1.860469406e-07
5.336094996e-08
6.017647733e-07
-1.843312394e-07
5.693841108e-08
6.324660471e-07
-1.819017873e-07
6.070685676e-08
6.577197874e-07
-1.78803882e-07
6.463615837e-08
6.770998878e-07
-1.751061806e-07
6.868957313e-08
6.902666436e-07
-1.708963453e-07
7.282504371e-08
6.969774038e-07
-1.662758304e-07
7.699673455e-08
6.97092603e-07
-1.613543117e-07
8.115679913e-08
6.905771129e-07
-1.562441429e-07
8.525724465e-08
6.774971757e-07
-1.510552432e-07
8.925181449e-08
6.580134584e-07
-1.458907849e-07
9.309766855e-08
6.323711074e-07
-1.408439429e-07
9.675677479e-08
6.008878599e-07
-1.359958388e-07
1.001968801e-07
5.639411504e-07
-1.31414577e-07
1.033920334e-07
5.219552123e-07
-1.271553934e-07
1.063226946e-07
4.753889147e-07
-1.232616906e-07
1.089755172e-07
4.247249025e-07
-1.197669617e-07
1.113429723e-07
3.70460422e-07
-1.166975271e-07
1.134229193e-07
3.131003645e-07
-1.140767017e-07
1.152183537e-07
2.531541345e-07
-1.119316702e-07
1.167368258e-07
1.911385519e-07
-1.103059041e-07
1.179919013e-07
1.276584068e-07
-1.093007264e-07
1.189511883e-07
6.354506864e-08
-1.088986132e-07
1.193598973e-07
-1.066496956e-07
1.175788801e-07
5.46027599e-08
-2.543361064e-07
2.637880407e-08
1.108928547e-07
-2.585604307e-07
2.786755224e-08
1.670066438e-07
-2.627476216e-07
2.955508415e-08
2.22715996e-07
-2.66770023e-07
3.142496338e-08
2.777352799e-07
-2.704719547e-07
3.34787924e-08
3.317047082e-07
-2.736845598e-07
3.573125314e-08
3.841857239e-07
-2.762397495e-07
3.820245918e-08
4.346667797e-07
-2.779830043e-07
4.091170331e-08
4.825772771e-07
-2.787844529e-07
4.387301456e-08
5.273074411e-07
-2.785477897e-07
4.709226809e-08
5.68231774e-07
-2.772163962e-07
5.056573143e-08
6.047340676e-07
-2.747766236e-07
5.427966619e-08
6.362321099e-07
-2.712579847e-07
5.821065818e-08
6.622005457e-07
-2.667304677e-07
6.23264126e-08
6.821907054e-07
-2.612995317e-07
6.658691103e-08
6.958464432e-07
-2.550992155e-07
7.094587108e-08
7.029152811e-07
-2.482839922e-07
7.535251528e-08
7.032544316e-07
-2.410201214e-07
7.975361896e-08
6.968316249e-07
-2.33477123e-07
8.409573031e-08
6.837210619e-07
-2.258200002e-07
8.83273818e-08
6.640952489e-07
-2.182028344e-07
9.240111764e-08
6.382136903e-07
-2.107640093e-07
9.627511208e-08
6.064095664e-07
-2.0362323e-07
9.991425619e-08
5.690756005e-07
-1.968803279e-07
1.032907373e-07
5.26650045e-07
-1.906155997e-07
1.063841071e-07
4.796035157e-07
-1.848914271e-07
1.091810129e-07
4.284269725e-07
-1.797549737e-07
1.116748231e-07
3.736207323e-07
-1.752416792e-07
1.138653467e-07
3.156835143e-07
-1.713797914e-07
1.157591636e-07
2.550999671e-07
-1.681961641e-07
1.17370062e-07
1.923413422e-07
-1.657232699e-07
1.187004838e-07
1.281215248e-07
-1.640105715e-07
1.194559716e-07
6.376568774e-08
-1.629652751e-07
1.18949982e-07
-1.593837513e-07
1.170277955e-07
4.959312887e-08
-3.312108211e-07
2.084467349e-08
1.059281217e-07
-3.370752306e-07
2.236215339e-08
1.622413555e-07
-3.429205979e-07
2.405463348e-08
2.183342388e-07
-3.485656978e-07
2.591073781e-08
2.739367319e-07
-3.537951709e-07
2.79422125e-08
3.28688325e-07
-3.58376037e-07
3.017538667e-08
3.821344546e-07
-3.620774899e-07
3.264157993e-08
4.337343034e-07
-3.646878493e-07
3.536986027e-08
4.828775213e-07
-3.660294678e-07
3.838194701e-08
5.289073337e-07
-3.659709499e-07
4.168911817e-08
5.711474052e-07
-3.644355199e-07
4.529069835e-08
6.089304695e-07
-3.614057644e-07
4.917375349e-08
6.416263818e-07
-3.569237284e-07
5.331357297e-08
6.686677792e-07
-3.510868059e-07
5.76746452e-08
6.895721031e-07
-3.440404411e-07
6.221200534e-08
7.039588996e-07
-3.359682303e-07
6.687295891e-08
7.115616156e-07
-3.270803853e-07
7.159920191e-08
7.122334683e-07
-3.176016694e-07
7.632933783e-08
7.059473597e-07
-3.077596854e-07
8.10016519e-08
6.927903129e-07
-2.977743927e-07
8.555688884e-08
6.729533413e-07
-2.878496466e-07
8.994076387e-08
6.467180024e-07
-2.781670796e-07
9.410593868e-08
6.144410182e-07
-2.688824613e-07
9.801329318e-08
5.765382703e-07
-2.60124473e-07
1.016325176e-07
5.334692455e-07
-2.51995473e-07
1.049420862e-07
4.857226177e-07
-2.445738089e-07
1.0792881e-07
4.338030865e-07
-2.37917255e-07
1.105873158e-07
3.782193103e-07
-2.320672165e-07
1.129196583e-07
3.194712574e-07
-2.270529692e-07
1.149356061e-07
2.580367291e-07
-2.228961759e-07
1.166521852e-07
1.943873577e-07
-2.196134916e-07
1.180597923e-07
1.293449324e-07
-2.172147317e-07
1.187686609e-07
6.436538418e-08
-2.156131518e-07
1.181507129e-07
-2.107672664e-07
1.162727749e-07
4.263012407e-08
-4.006176848e-07
1.350578419e-08
9.899131397e-08
-4.082858322e-07
1.502282176e-08
1.555469938e-07
-4.159682538e-07
1.66774445e-08
2.121378818e-07
-4.23429216e-07
1.847066037e-08
2.68513895e-07
-4.303906216e-07
2.043053075e-08
3.243122026e-07
-4.365492895e-07
2.259960686e-08
3.790556514e-07
-4.416068452e-07
2.502464616e-08
4.321629771e-07
-4.452900034e-07
2.774814946e-08
4.82969012e-07
-4.473695565e-07
3.080243756e-08
5.30752308e-07
-4.476766035e-07
3.420623954e-08
5.747663333e-07
-4.461128663e-07
3.796306356e-08
6.142735092e-07
-4.426579675e-07
4.206089103e-08
6.485781699e-07
-4.373691663e-07
4.647289639e-08
6.770560692e-07
-4.303750404e-07
5.115869635e-08
6.991794199e-07
-4.218653591e-07
5.606599691e-08
7.145360863e-07
-4.120774458e-07
6.113270929e-08
7.228421158e-07
-4.012806412e-07
6.628961938e-08
7.239471729e-07
-3.897603482e-07
7.146360223e-08
7.178329848e-07
-3.778029123e-07
7.658120928e-08
7.04605491e-07
-3.65682415e-07
8.157224584e-08
6.844819194e-07
-3.536503397e-07
8.637297286e-08
6.577743833e-07
-3.419284064e-07
9.09285412e-08
6.248717102e-07
-3.307046548e-07
9.519447995e-08
5.862210312e-07
-3.201325366e-07
9.913725301e-08
5.423103587e-07
-3.103324379e-07
1.027340236e-07
4.936528148e-07
-3.013948934e-07
1.059719001e-07
4.407727793e-07
-2.933850748e-07
1.088470656e-07
3.841933403e-07
-2.86347654e-07
1.113641285e-07
3.244243348e-07
-2.803115441e-07
1.135360292e-07
2.61951063e-07
-2.752942605e-07
1.153832091e-07
1.972589075e-07
-2.713043149e-07
1.168974902e-07
1.312120168e-07
-2.683390775e-07
1.176877009e-07
6.528355015e-08
-2.663199619e-07
1.171530039e-07
-2.603060676e-07
1.153406915e-07
3.35262029e-08
-4.613118973e-07
5.011838022e-09
8.987091594e-08
-4.709252499e-07
6.45714867e-09
1.466920298e-07
-4.806091689e-07
7.993657888e-09
2.038806815e-07
-4.900709022e-07
9.638807577e-09
2.612147784e-07
-4.989718936e-07
1.144539105e-08
3.183248238e-07
-5.069239839e-07
1.347586001e-08
3.747034581e-07
-5.135574795e-07
1.579678968e-08
4.297169278e-07
-5.185328743e-07
1.846837094e-08
4.826286668e-07
-5.215643717e-07
2.153682535e-08
5.326335362e-07
-5.224430826e-07
2.503070543e-08
5.788929802e-07
-5.210464221e-07
2.895905427e-08
6.205776488e-07
-5.173521321e-07
3.331068237e-08
6.569074744e-07
-5.114366377e-07
3.805533778e-08
6.871857924e-07
-5.034645068e-07
4.314544475e-08
7.108284307e-07
-4.936753464e-07
4.851816854e-08
7.273851293e-07
-4.823652461e-07
5.409817609e-08
7.365526697e-07
-4.69866426e-07
5.980112198e-08
7.381793423e-07
-4.565268341e-07
6.553787242e-08
7.322611036e-07
-4.426914075e-07
7.121920446e-08
7.189304649e-07
-4.286862653e-07
7.676047892e-08
6.984397865e-07
-4.148068485e-07
8.20857119e-08
6.711410185e-07
-4.013101945e-07
8.713057011e-08
6.374640067e-07
-3.884112648e-07
9.184404658e-08
5.978951948e-07
-3.762828582e-07
9.618888307e-08
5.529580682e-07
-3.650582791e-07
1.00140972e-07
5.031960627e-07
-3.548357745e-07
1.036881071e-07
4.491580982e-07
-3.456842573e-07
1.068285899e-07
3.913861204e-07
-3.376490259e-07
1.095700733e-07
3.304040758e-07
-3.307574505e-07
1.119290695e-07
2.667085967e-07
-3.250236927e-07
1.13929593e-07
2.007974451e-07
-3.204521149e-07
1.155664159e-07
1.335515365e-07
-3.17036709e-07
1.164530479e-07
6.644014114e-08
-3.146971958e-07
1.15999459e-07
-3.076050926e-07
1.142506377e-07
2.211836584e-08
-5.123698212e-07
-4.262540913e-09
7.837247753e-08
-5.240420488e-07
-2.987761416e-09
1.354571453e-07
-5.358580777e-07
-1.675605612e-09
1.933144163e-07
-5.474817319e-07
-2.751847495e-10
2.517797434e-07
-5.584785486e-07
1.224263897e-09
3.104614372e-07
-5.684081281e-07
2.997670693e-09
3.68814486e-07
-5.768171189e-07
5.114772011e-09
4.261399204e-07
-5.832925313e-07
7.656091161e-09
4.816100407e-07
-5.874832233e-07
1.068503447e-08
5.343174449e-07
-5.891411264e-07
1.424210905e-08
5.833053635e-07
-5.88111135e-07
1.834410153e-08
6.276278039e-07
-5.843708584e-07
2.297999781e-08
6.664003722e-07
-5.780225295e-07
2.811385822e-08
6.988376798e-07
-5.69271794e-07
3.368757277e-08
7.242885697e-07
-5.584148471e-07
3.962329178e-08
7.422597124e-07
-5.45812168e-07
4.582736138e-08
7.524289303e-07
-5.318625727e-07
5.219501246e-08
7.546477301e-07
-5.169776164e-07
5.861596972e-08
7.489339838e-07
-5.015591881e-07
6.498064612e-08
7.354563204e-07
-4.859814387e-07
7.118617428e-08
7.145124651e-07
-4.705779909e-07
7.714153244e-08
6.865041762e-07
-4.556343869e-07
8.277111863e-08
6.519113534e-07
-4.413853646e-07
8.801652831e-08
6.112674535e-07
-4.280161916e-07
9.283666231e-08
5.651376333e-07
-4.156669068e-07
9.720656991e-08
5.141005001e-07
-4.044383825e-07
1.011154591e-07
4.587330815e-07
-3.943991786e-07
1.045646039e-07
3.995989449e-07
-3.855926039e-07
1.075655306e-07
3.372379755e-07
-3.780429893e-07
1.101389423e-07
2.721587456e-07
-3.717611413e-07
1.123128547e-07
2.048689039e-07
-3.667484694e-07
1.14085293e-07
1.362564592e-07
-3.629972297e-07
1.150742061e-07
6.77806343e-08
-3.60420443e-07
1.147017005e-07
-3.523410548e-07
1.130198993e-07
8.294602613e-09
-5.531821948e-07
-1.392530682e-08
6.434440606e-08
-5.669185914e-07
-1.303840315e-08
1.216551835e-07
-5.808744301e-07
-1.21499405e-08
1.802577282e-07
-5.94728042e-07
-1.120161037e-08
2.399921333e-07
-6.079616143e-07
-1.008597835e-08
3.004838234e-07
-6.200372641e-07
-8.685765223e-09
3.61139035e-07
-6.304149772e-07
-6.868344651e-09
4.211827417e-07
-6.385917018e-07
-4.542431813e-09
4.796636746e-07
-6.441480229e-07
-1.600005392e-09
5.355648722e-07
-6.467637142e-07
1.952475377e-09
5.877720559e-07
-6.462786828e-07
6.207287187e-09
6.351922745e-07
-6.426761312e-07
1.114858699e-08
6.768186955e-07
-6.360940042e-07
1.672580272e-08
7.117591656e-07
-6.267786181e-07
2.286471634e-08
7.392862086e-07
-6.150913005e-07
2.946554501e-08
7.588607296e-07
-6.014622858e-07
3.640940862e-08
7.701450081e-07
-5.86360114e-07
4.356440735e-08
7.730015356e-07
-5.702592869e-07
5.079304328e-08
7.674805964e-07
-5.536146505e-07
5.796027818e-08
7.537985806e-07
-5.368416905e-07
6.494117447e-08
7.32310074e-07
-5.203037546e-07
7.162713643e-08
7.034770418e-07
-5.043056717e-07
7.792998609e-08
6.67838182e-07
-4.890928751e-07
8.378363885e-08
6.259807913e-07
-4.748547776e-07
8.914362841e-08
5.785167928e-07
-4.617311835e-07
9.398510772e-08
5.260632907e-07
-4.498199094e-07
9.829987632e-08
4.692276497e-07
-4.391851806e-07
1.020933908e-07
4.085961322e-07
-4.298656322e-07
1.053821407e-07
3.447249106e-07
-4.218812121e-07
1.081918976e-07
2.78133885e-07
-4.152390655e-07
1.105553365e-07
2.093386452e-07
-4.099379757e-07
1.124742002e-07
1.392304666e-07
-4.059686656e-07
1.135713195e-07
6.925569155e-08
-4.032358914e-07
1.132833852e-07
-3.942648338e-07
1.116733408e-07
-7.797925983e-09
-5.837812726e-07
-2.34247644e-08
4.777708594e-08
-5.992663506e-07
-2.310874082e-08
1.05205837e-07
-6.153236305e-07
-2.285256109e-08
1.645396924e-07
-6.313640107e-07
-2.25618956e-08
2.256493487e-07
-6.46829615e-07
-2.209602213e-08
2.881596986e-07
-6.610949381e-07
-2.129661986e-08
3.514367172e-07
-6.735237318e-07
-2.000085872e-08
4.146015358e-07
-6.835212912e-07
-1.805542015e-08
4.765796879e-07
-6.905862725e-07
-1.534654768e-08
5.361645224e-07
-6.943478849e-07
-1.179259112e-08
5.920738087e-07
-6.946061785e-07
-7.357869846e-09
6.430331271e-07
-6.913445191e-07
-2.050146971e-09
6.879070934e-07
-6.847209186e-07
4.011424819e-09
7.256672939e-07
-6.750649993e-07
1.080293632e-08
7.555043317e-07
-6.628123054e-07
1.817930674e-08
7.768334304e-07
-6.484634996e-07
2.598604438e-08
7.893091037e-07
-6.325592119e-07
3.405565478e-08
7.92816558e-07
-6.156331456e-07
4.221637382e-08
7.874521946e-07
-5.981857879e-07
5.030241088e-08
7.73493929e-07
-5.806638151e-07
5.816324957e-08
7.513656362e-07
-5.634486843e-07
6.567089501e-08
7.215997731e-07
-5.468527267e-07
7.272417043e-08
6.848016334e-07
-5.311211258e-07
7.924993591e-08
6.416178027e-07
-5.164380596e-07
8.520164978e-08
5.927102057e-07
-5.029355189e-07
9.055617533e-08
5.387361102e-07
-4.907026882e-07
9.530957856e-08
4.803336282e-07
-4.797957753e-07
9.947305524e-08
4.181113543e-07
-4.702465782e-07
1.030693531e-07
3.526408627e-07
-4.620698292e-07
1.061303487e-07
2.844521252e-07
-4.552690791e-07
1.086941204e-07
2.140670703e-07
-4.498410163e-07
1.107666818e-07
1.423783123e-07
-4.457753152e-07
1.119763519e-07
7.081725591e-08
-4.429688909e-07
1.117765265e-07
-4.332072263e-07
1.102428614e-07
-2.620706478e-08
-6.043002382e-07
-3.239278061e-08
2.874625989e-08
-6.212576967e-07
-3.286127712e-08
8.617084209e-08
-6.391812458e-07
-3.345910968e-08
1.461750533e-07
-6.572053635e-07
-3.404729375e-08
2.087037919e-07
-6.747806996e-07
-3.445369829e-08
2.733928786e-07
-6.911778258e-07
-3.447297709e-08
3.395595396e-07
-7.056552144e-07
-3.38916123e-08
4.062177129e-07
-7.175126969e-07
-3.25115968e-08
4.721279345e-07
-7.261581966e-07
-3.017012856e-08
5.358784655e-07
-7.311599278e-07
-2.675586806e-08
5.959699828e-07
-7.322852465e-07
-2.221395436e-08
6.509226961e-07
-7.295255385e-07
-1.655602552e-08
6.99398776e-07
-7.230836521e-07
-9.879420086e-09
7.402465028e-07
-7.133473225e-07
-2.312420219e-09
7.725780599e-07
-7.00831451e-07
5.960099485e-09
7.957610809e-07
-6.861162224e-07
1.476185459e-08
8.094568065e-07
-6.698208407e-07
2.387746151e-08
8.135892687e-07
-6.525281706e-07
3.309297069e-08
8.08318072e-07
-6.347729328e-07
4.220676717e-08
7.939982113e-07
-6.170187277e-07
5.104016309e-08
7.711355443e-07
-5.996501411e-07
5.944526008e-08
7.403423567e-07
-5.829728466e-07
6.73088627e-08
7.022965248e-07
-5.672194034e-07
7.4552698e-08
6.577071732e-07
-5.525589185e-07
8.113043198e-08
6.072871057e-07
-5.391080427e-07
8.702306551e-08
5.517332608e-07
-5.269425394e-07
9.223309084e-08
4.917129633e-07
-5.161076852e-07
9.677925531e-08
4.278552625e-07
-5.066273631e-07
1.006919969e-07
3.607451784e-07
-4.985112175e-07
1.04010336e-07
2.90920956e-07
-4.917601341e-07
1.067784624e-07
2.189093457e-07
-4.863699882e-07
1.090071281e-07
1.456030601e-07
-4.823306572e-07
1.103306344e-07
7.241688918e-08
-4.795329022e-07
1.102207813e-07
-4.690859711e-07
1.087670078e-07
-4.637100018e-08
-6.153248424e-07
-4.044996676e-08
7.628547312e-09
-6.332420312e-07
-4.193355264e-08
6.479708977e-08
-6.526294882e-07
-4.363297218e-08
1.253181283e-07
-6.722728208e-07
-4.535995336e-08
1.892318398e-07
-6.916907312e-07
-4.69030568e-08
2.561920605e-07
-7.100289469e-07
-4.80005176e-08
3.254674196e-07
-7.264381727e-07
-4.83746167e-08
3.959472815e-07
-7.401049103e-07
-4.775916893e-08
4.661963382e-07
-7.503353539e-07
-4.593104235e-08
5.345564189e-07
-7.566279883e-07
-4.273700841e-08
5.992645101e-07
-7.587145353e-07
-3.810787425e-08
6.585931389e-07
-7.565973332e-07
-3.206836415e-08
7.109854614e-07
-7.505347702e-07
-2.473381535e-08
7.551388322e-07
-7.409926369e-07
-1.628070957e-08
7.900886192e-07
-7.285664534e-07
-6.966838456e-09
8.151551279e-07
-7.139303147e-07
3.01635289e-09
8.300428286e-07
-6.977270714e-07
1.330793754e-08
8.347311496e-07
-6.806003789e-07
2.36933691e-08
8.294632909e-07
-6.631064503e-07
3.393005047e-08
8.146878457e-07
-6.45705973e-07
4.380942241e-08
7.910044675e-07
-6.287683719e-07
5.316507986e-08
7.591124044e-07
-6.125767517e-07
6.187473866e-08
7.19765433e-07
-5.973383678e-07
6.985850607e-08
6.737351596e-07
-5.831976232e-07
7.707383581e-08
6.217835136e-07
-5.702496957e-07
8.350895909e-08
5.646438786e-07
-5.585533122e-07
8.91754424e-08
5.030093124e-07
-5.481416065e-07
9.410154419e-08
4.375259125e-07
-5.390309442e-07
9.832679531e-08
3.687892435e-07
-5.312274076e-07
1.018982568e-07
2.973436046e-07
-5.247313419e-07
1.048667423e-07
2.237190873e-07
-5.195401055e-07
1.072480223e-07
1.488076807e-07
-5.15645929e-07
1.086826192e-07
7.400640334e-08
-5.129360642e-07
1.086620309e-07
-5.019112152e-07
1.072900419e-07
-6.77066768e-08
-6.176686525e-07
-4.729027174e-08
-1.482779559e-08
-6.360340887e-07
-5.002522506e-08
4.151950807e-08
-6.558984386e-07
-5.301256027e-08
1.02302513e-07
-6.768285207e-07
-5.615669482e-08
1.674679433e-07
-6.976631105e-07
-5.911698634e-08
2.367005082e-07
-7.176000684e-07
-6.157888379e-08
3.092232274e-07
-7.356882511e-07
-6.318216162e-08
3.837867563e-07
-7.509991741e-07
-6.356911053e-08
4.587266707e-07
-7.627320562e-07
-6.243137512e-08
5.320893028e-07
-7.703097808e-07
-5.955517563e-08
6.017924682e-07
-7.73429661e-07
-5.484640489e-08
6.658089543e-07
-7.721072677e-07
-4.83469518e-08
7.223380624e-07
-7.666596807e-07
-4.022492944e-08
7.699234461e-07
-7.576350492e-07
-3.074273434e-08
8.075062947e-07
-7.457201811e-07
-2.020708734e-08
8.34442295e-07
-7.316485185e-07
-8.973637914e-09
8.504338303e-07
-7.16137895e-07
2.68541998e-09
8.555649662e-07
-6.997962246e-07
1.435223171e-08
8.501901499e-07
-6.83206103e-07
2.578242943e-08
8.348664589e-07
-6.668081414e-07
3.675302223e-08
8.102963135e-07
-6.509347441e-07
4.708144227e-08
7.772695314e-07
-6.358303286e-07
5.66414782e-08
7.366149717e-07
-6.216650391e-07
6.535691512e-08
6.891631194e-07
-6.085509582e-07
7.3193801e-08
6.357196881e-07
-5.96557758e-07
8.015143942e-08
5.770487288e-07
-5.857259036e-07
8.625329837e-08
5.138634763e-07
-5.76077344e-07
9.153909975e-08
4.468223523e-07
-5.67623326e-07
9.605863779e-08
3.76527829e-07
-5.603695827e-07
9.986761614e-08
3.035278341e-07
-5.543194444e-07
1.030236636e-07
2.283545105e-07
-5.494751625e-07
1.055475477e-07
1.518988635e-07
-5.458344086e-07
1.070859214e-07
7.553965698e-08
-5.432842434e-07
1.071508775e-07
-5.317878982e-07
1.058606569e-07
-8.957215551e-08
-6.122496502e-07
-5.268700476e-08
-3.855498502e-08
-6.301868617e-07
-5.682346933e-08
1.685109685e-08
-6.499313295e-07
-6.13297917e-08
7.764071081e-08
-6.71447074e-07
-6.612387076e-08
1.438294937e-07
-6.930325391e-07
-7.076846379e-08
2.152259206e-07
-7.140516767e-07
-7.488908755e-08
2.910264219e-07
-7.334137798e-07
-7.80127453e-08
3.69834824e-07
-7.50078989e-07
-7.965781014e-08
4.497249108e-07
-7.631413917e-07
-7.939905771e-08
5.283925499e-07
-7.719459573e-07
-7.693630207e-08
6.033747705e-07
-7.761582155e-07
-7.214247196e-08
6.722922197e-07
-7.758088933e-07
-6.508619619e-08
7.330740157e-07
-7.712750379e-07
-5.601632044e-08
7.840995367e-07
-7.631841316e-07
-4.530425013e-08
8.242530049e-07
-7.5229634e-07
-3.338203395e-08
8.52907515e-07
-7.393993077e-07
-2.068492905e-08
8.698932661e-07
-7.252236162e-07
-7.657854854e-09
8.753258932e-07
-7.104122194e-07
5.448297824e-09
8.697256073e-07
-6.954369644e-07
1.811779316e-08
8.537788834e-07
-6.807399584e-07
3.01855441e-08
8.282933461e-07
-6.66593084e-07
4.146965849e-08
7.941476018e-07
-6.531881204e-07
5.184638302e-08
7.522398223e-07
-6.406493362e-07
6.125021917e-08
7.034515155e-07
-6.290524993e-07
6.96615192e-08
6.486233596e-07
-6.184410413e-07
7.709492262e-08
5.88541693e-07
-6.08839194e-07
8.358862003e-08
5.239326528e-07
-6.002614355e-07
8.919544623e-08
4.554612619e-07
-5.927185961e-07
9.397621507e-08
3.837329001e-07
-5.862211332e-07
9.799541023e-08
3.092968189e-07
-5.80780338e-07
1.013172336e-07
2.326863797e-07
-5.764078437e-07
1.039670568e-07
1.547922402e-07
-5.731108363e-07
1.055971813e-07
7.697506718e-08
-5.707796111e-07
1.057408816e-07
-5.589140569e-07
1.045304056e-07
-1.109239178e-07
-6.00194043e-07
-5.646824931e-08
-6.213170701e-08
-6.168414607e-07
-6.21176124e-08
-7.950043844e-09
-6.357935533e-07
-6.830010153e-08
5.212191438e-08
-6.565937434e-07
-7.489994073e-08
1.189462437e-07
-6.7833357e-07
-8.149738852e-08
1.922598366e-07
-6.997725328e-07
-8.756392823e-08
2.712280396e-07
-7.198489372e-07
-9.249927783e-08
3.543011881e-07
-7.37448388e-07
-9.566263492e-08
4.392606429e-07
-7.515773004e-07
-9.647233586e-08
5.233961092e-07
-7.615096914e-07
-9.4507445e-08
6.037999259e-07
-7.668836106e-07
-8.959803917e-08
6.776890702e-07
-7.677436398e-07
-8.185508861e-08
7.426999436e-07
-7.645199952e-07
-7.164524864e-08
7.970549912e-07
-7.579025575e-07
-5.949273153e-08
8.396047176e-07
-7.486974625e-07
-4.598028873e-08
8.697861401e-07
-7.377083419e-07
-3.167913088e-08
8.875334305e-07
-7.256533302e-07
-1.709950762e-08
8.9316451e-07
-7.131227029e-07
-2.67841187e-09
8.872364685e-07
-7.005571632e-07
1.131339005e-08
8.706344826e-07
-6.88286728e-07
2.443537355e-08
8.442645935e-07
-6.765283412e-07
3.661149949e-08
8.090855513e-07
-6.654133824e-07
4.772852502e-08
7.660540441e-07
-6.550173292e-07
5.773967064e-08
7.160902479e-07
-6.45380311e-07
6.664582642e-08
6.600579485e-07
-6.365234448e-07
7.448113397e-08
5.98755269e-07
-6.28460528e-07
8.130092336e-08
5.329127931e-07
-6.212053958e-07
8.717221379e-08
4.631959797e-07
-6.147755931e-07
9.21669767e-08
3.90209239e-07
-6.091932138e-07
9.63580304e-08
3.145013489e-07
-6.044838255e-07
9.98154083e-08
2.366069393e-07
-6.006739689e-07
1.025682783e-07
1.574175213e-07
-5.977848151e-07
1.042738361e-07
7.827846701e-08
-5.957146387e-07
1.044862561e-07
-5.835742808e-07
1.033517068e-07
-1.306870956e-07
-5.827734395e-07
-5.848182618e-08
-8.470779591e-08
-5.97156084e-07
-6.566419555e-08
-3.256248339e-08
-6.14312753e-07
-7.362641145e-08
2.651343808e-08
-6.335461715e-07
-8.212312487e-08
9.361755342e-08
-6.54536001e-07
-9.090083763e-08
1.684766318e-07
-6.754893113e-07
-9.913984955e-08
2.503340736e-07
-6.955543291e-07
-1.061460672e-07
3.375022821e-07
-7.135370498e-07
-1.110674169e-07
4.274531119e-07
-7.283859675e-07
-1.131207799e-07
5.170196277e-07
-7.393217958e-07
-1.11720364e-07
6.027880088e-07
-7.459619878e-07
-1.066398149e-07
6.815285771e-07
-7.483594335e-07
-9.805517039e-08
7.505745607e-07
-7.469754012e-07
-8.649875177e-08
8.080099565e-07
-7.425239382e-07
-7.269782343e-08
8.526876433e-07
-7.358083008e-07
-5.742491745e-08
8.841420512e-07
-7.27594532e-07
-4.139996233e-08
9.024592523e-07
-7.185369872e-07
-2.523911392e-08
9.081322909e-07
-7.09140569e-07
-9.435348613e-09
9.018558429e-07
-6.997648969e-07
5.728118981e-09
8.846424433e-07
-6.906271151e-07
1.982018984e-08
8.575043323e-07
-6.818765728e-07
3.277331657e-08
8.214667875e-07
-6.735800288e-07
4.450971021e-08
7.775290193e-07
-6.657670585e-07
5.500949564e-08
7.266340665e-07
-6.584489514e-07
6.430003708e-08
6.69654596e-07
-6.516334729e-07
7.243844018e-08
6.073887983e-07
-6.453338271e-07
7.949870922e-08
5.405628934e-07
-6.395731567e-07
8.556226369e-08
4.698368967e-07
-6.343851345e-07
9.071158656e-08
3.958110785e-07
-6.298120233e-07
9.502674104e-08
3.190329607e-07
-6.259011044e-07
9.858232859e-08
2.400395833e-07
-6.227000888e-07
1.014101247e-07
1.597261971e-07
-6.202491458e-07
1.031710193e-07
7.942624321e-08
-6.184594123e-07
1.034397465e-07
-6.061277322e-07
1.02375545e-07
-1.478458088e-07
-5.614123072e-07
-5.856035342e-08
-1.050934853e-07
-5.726676121e-07
-6.725881975e-08
-5.540829873e-08
-5.870499485e-07
-7.696810855e-08
2.170289693e-09
-6.037505878e-07
-8.739569524e-08
6.890718559e-08
-6.228610968e-07
-9.843420086e-08
1.447473178e-07
-6.423673301e-07
-1.089842785e-07
2.290061899e-07
-6.615871711e-07
-1.182460431e-07
3.198543397e-07
-6.792951243e-07
-1.251050916e-07
4.144523365e-07
-6.944510585e-07
-1.285394972e-07
5.091394695e-07
-7.062585821e-07
-1.277447012e-07
5.999492904e-07
-7.143271907e-07
-1.224228176e-07
6.831807008e-07
-7.1870422e-07
-1.128449714e-07
7.558726979e-07
-7.198384756e-07
-9.976425623e-08
8.160029769e-07
-7.184022404e-07
-8.416189762e-08
8.624658268e-07
-7.151206888e-07
-6.703345217e-08
8.949292955e-07
-7.106523986e-07
-4.926103378e-08
9.13650925e-07
-7.055261186e-07
-3.156056043e-08
9.192981792e-07
-7.001244349e-07
-1.446496142e-08
9.127392225e-07
-6.946864158e-07
1.703971559e-09
8.950630655e-07
-6.893251685e-07
1.662097451e-08
8.673816666e-07
-6.841103971e-07
3.018320164e-08
8.307657421e-07
-6.790520249e-07
4.237493446e-08
7.862363927e-07
-6.741445791e-07
5.321071559e-08
7.347410671e-07
-6.693838629e-07
6.274876134e-08
6.771459161e-07
-6.647783381e-07
7.107117164e-08
6.142374934e-07
-6.603543732e-07
7.827084885e-08
5.467295029e-07
-6.56157018e-07
8.444271241e-08
4.752717128e-07
-6.522473036e-07
8.967822456e-08
4.00458394e-07
-6.486974014e-07
9.406295705e-08
3.228364836e-07
-6.455845225e-07
9.767432682e-08
2.429480302e-07
-6.42984223e-07
1.005452032e-07
1.616963795e-07
-6.409610541e-07
1.023387824e-07
8.040828502e-08
-6.394438291e-07
1.026494026e-07
-6.269904453e-07
1.016486953e-07
-1.611954865e-07
-5.378322769e-07
-5.657070258e-08
-1.221417091e-07
-5.451448319e-07
-6.661129088e-08
-7.540535972e-08
-5.558543033e-07
-7.796998049e-08
-1.947755763e-08
-5.693577473e-07
-9.036156388e-08
4.59243484e-08
-5.850312453e-07
-1.032746512e-07
1.220728141e-07
-6.023039951e-07
-1.162558947e-07
2.080319565e-07
-6.197779804e-07
-1.278113657e-07
3.018530153e-07
-6.364910085e-07
-1.366642092e-07
4.004166433e-07
-6.515063376e-07
-1.415397318e-07
4.995621201e-07
-6.64067429e-07
-1.413562099e-07
5.947558324e-07
-6.737944472e-07
-1.357299254e-07
6.818352478e-07
-6.807035567e-07
-1.25063368e-07
7.575803383e-07
-6.851604204e-07
-1.103827878e-07
8.199050909e-07
-6.876999472e-07
-9.29604351e-08
8.677808433e-07
-6.888719552e-07
-7.40299991e-08
9.01028939e-07
-6.891442605e-07
-5.463322809e-08
9.200812674e-07
-6.888588632e-07
-3.556830515e-08
9.257687221e-07
-6.882331669e-07
-1.740015657e-08
9.191189389e-07
-6.873705099e-07
-4.618246559e-10
9.012668448e-07
-6.863026066e-07
1.505761909e-08
8.733969547e-07
-6.85000752e-07
2.900992128e-08
8.365991798e-07
-6.834398957e-07
4.1454599e-08
7.918930511e-07
-6.815989942e-07
5.24464519e-08
7.402112658e-07
-6.794775102e-07
6.207604358e-08
6.823987697e-07
-6.771027213e-07
7.045006703e-08
6.192199706e-07
-6.745305144e-07
7.767874058e-08
5.513695532e-07
-6.718423251e-07
8.386835429e-08
4.794840716e-07
-6.691389824e-07
8.911702289e-08
4.041518252e-07
-6.665329164e-07
9.351344149e-08
3.259215911e-07
-6.641397741e-07
9.713573539e-08
2.453447516e-07
-6.620697974e-07
1.000161327e-07
1.633387585e-07
-6.604172775e-07
1.018184237e-07
8.123073069e-08
-6.591335838e-07
1.021555747e-07
-6.466117968e-07
1.012106374e-07
-1.698624819e-07
-5.139543748e-07
-5.23808704e-08
-1.347895847e-07
-5.167538427e-07
-6.351297182e-08
-9.14332738e-08
-5.23072336e-07
-7.619152361e-08
-3.827797302e-08
-5.323986553e-07
-9.017163791e-08
2.572193285e-08
-5.442072431e-07
-1.048841967e-07
1.015079901e-07
-5.581992276e-07
-1.199527274e-07
1.882670836e-07
-5.730337992e-07
-1.335649509e-07
2.840338301e-07
-5.880581505e-07
-1.442581963e-07
3.854868353e-07
-6.025129137e-07
-1.504980891e-07
4.880105348e-07
-6.157505386e-07
-1.508808842e-07
5.865450769e-07
-6.274249849e-07
-1.449283169e-07
6.765291367e-07
-6.37480434e-07
-1.332111599e-07
7.545481422e-07
-6.461028567e-07
-1.170565261e-07
8.184976249e-07
-6.535731642e-07
-9.802945974e-08
8.674443171e-07
-6.60158817e-07
-7.758458334e-08
9.013566992e-07
-6.660551917e-07
-5.689713382e-08
9.208199059e-07
-6.71367455e-07
-3.682153873e-08
9.267901276e-07
-6.761190193e-07
-1.792361744e-08
9.203863102e-07
-6.802795404e-07
-5.003950374e-10
9.028102344e-07
-6.837831446e-07
1.526731133e-08
8.752454788e-07
-6.865491825e-07
2.934550999e-08
8.387776908e-07
-6.885324114e-07
4.181183748e-08
7.944025378e-07
-6.897174395e-07
5.276193311e-08
7.430200253e-07
-6.90129286e-07
6.231710322e-08
6.854410756e-07
-6.898339008e-07
7.060524776e-08