/*--------------------------------*- C++ -*----------------------------------*\
  =========                 |
  \\      /  F ield         | OpenFOAM: The Open Source CFD Toolbox
   \\    /   O peration     | Website:  https://openfoam.org
    \\  /    A nd           | Version:  8
     \\/     M anipulation  |
\*---------------------------------------------------------------------------*/
FoamFile
{
    version     2.0;
    format      ascii;
    class       volScalarField;
    location    "0.2";
    object      T;
}
// * * * * * * * * * * * * * * * * * * * * * * * * * * * * * * * * * * * * * //

dimensions      [0 0 0 1 0 0 0];

internalField   nonuniform List<scalar> 
67193
(
300.003225
300.003226
300.0032267
300.0032274
300.003228
300.0032286
300.0032291
300.0032295
300.0032298
300.00323
300.0032302
300.0032302
300.0032302
300.00323
300.0032298
300.0032295
300.0032291
300.0032287
300.0032282
300.0032277
300.0032272
300.0032267
300.0032261
300.0032256
300.0032251
300.0032246
300.0032242
300.0032238
300.0032235
300.0032232
300.0032229
300.0032228
300.0032226
300.0032225
300.0032259
300.0032269
300.0032277
300.0032284
300.003229
300.0032296
300.0032301
300.0032305
300.0032308
300.003231
300.0032312
300.0032312
300.0032311
300.003231
300.0032307
300.0032304
300.00323
300.0032296
300.0032291
300.0032286
300.0032281
300.0032275
300.003227
300.0032265
300.0032259
300.0032255
300.003225
300.0032246
300.0032243
300.003224
300.0032237
300.0032235
300.0032231
300.0032226
300.0032268
300.0032278
300.0032286
300.0032294
300.00323
300.0032306
300.0032311
300.0032315
300.0032319
300.0032321
300.0032322
300.0032323
300.0032322
300.003232
300.0032317
300.0032314
300.003231
300.0032305
300.00323
300.0032295
300.0032289
300.0032283
300.0032278
300.0032272
300.0032267
300.0032262
300.0032257
300.0032253
300.003225
300.0032247
300.0032244
300.0032242
300.0032235
300.0032228
300.0032274
300.0032285
300.0032293
300.0032301
300.0032308
300.0032314
300.0032319
300.0032323
300.0032327
300.0032329
300.003233
300.0032331
300.003233
300.0032328
300.0032325
300.0032321
300.0032316
300.0032311
300.0032306
300.00323
300.0032294
300.0032288
300.0032282
300.0032276
300.003227
300.0032265
300.003226
300.0032256
300.0032252
300.0032249
300.0032246
300.0032244
300.0032237
300.003223
300.0032281
300.0032292
300.0032301
300.0032309
300.0032317
300.0032323
300.0032329
300.0032334
300.0032337
300.003234
300.0032341
300.0032341
300.003234
300.0032337
300.0032334
300.003233
300.0032325
300.0032319
300.0032313
300.0032306
300.00323
300.0032293
300.0032287
300.0032281
300.0032275
300.0032269
300.0032264
300.003226
300.0032256
300.0032252
300.0032249
300.0032247
300.0032239
300.0032232
300.0032289
300.0032301
300.0032311
300.003232
300.0032328
300.0032335
300.0032341
300.0032346
300.003235
300.0032353
300.0032354
300.0032353
300.0032352
300.0032349
300.0032345
300.003234
300.0032335
300.0032328
300.0032322
300.0032315
300.0032307
300.00323
300.0032293
300.0032286
300.003228
300.0032274
300.0032269
300.0032264
300.0032259
300.0032256
300.0032253
300.003225
300.0032243
300.0032236
300.0032299
300.0032311
300.0032322
300.0032332
300.003234
300.0032348
300.0032355
300.0032361
300.0032365
300.0032368
300.0032369
300.0032368
300.0032366
300.0032363
300.0032359
300.0032353
300.0032347
300.003234
300.0032332
300.0032324
300.0032316
300.0032308
300.0032301
300.0032293
300.0032286
300.003228
300.0032274
300.0032269
300.0032264
300.003226
300.0032257
300.0032255
300.0032247
300.003224
300.0032309
300.0032322
300.0032334
300.0032345
300.0032354
300.0032363
300.0032371
300.0032377
300.0032382
300.0032385
300.0032386
300.0032385
300.0032383
300.0032379
300.0032374
300.0032368
300.003236
300.0032352
300.0032344
300.0032335
300.0032326
300.0032317
300.0032309
300.0032301
300.0032293
300.0032286
300.003228
300.0032274
300.003227
300.0032265
300.0032262
300.0032259
300.0032252
300.0032244
300.0032319
300.0032334
300.0032346
300.0032358
300.003237
300.003238
300.0032388
300.0032395
300.00324
300.0032403
300.0032405
300.0032404
300.0032401
300.0032397
300.0032391
300.0032383
300.0032375
300.0032366
300.0032356
300.0032347
300.0032337
300.0032327
300.0032318
300.0032309
300.0032301
300.0032293
300.0032287
300.0032281
300.0032275
300.0032271
300.0032268
300.0032265
300.0032257
300.003225
300.0032328
300.0032345
300.0032359
300.0032373
300.0032385
300.0032397
300.0032406
300.0032414
300.003242
300.0032424
300.0032425
300.0032424
300.0032421
300.0032416
300.0032409
300.0032401
300.0032391
300.0032381
300.003237
300.0032359
300.0032348
300.0032338
300.0032328
300.0032318
300.0032309
300.0032301
300.0032294
300.0032287
300.0032282
300.0032277
300.0032274
300.0032271
300.0032263
300.0032255
300.0032338
300.0032356
300.0032372
300.0032387
300.0032401
300.0032414
300.0032425
300.0032434
300.0032441
300.0032445
300.0032447
300.0032446
300.0032442
300.0032436
300.0032428
300.0032418
300.0032408
300.0032396
300.0032384
300.0032372
300.003236
300.0032349
300.0032338
300.0032328
300.0032318
300.0032309
300.0032302
300.0032295
300.0032289
300.0032284
300.003228
300.0032277
300.0032269
300.0032261
300.0032346
300.0032365
300.0032383
300.0032401
300.0032417
300.0032431
300.0032444
300.0032455
300.0032463
300.0032467
300.0032469
300.0032468
300.0032463
300.0032456
300.0032447
300.0032437
300.0032425
300.0032412
300.0032399
300.0032386
300.0032373
300.003236
300.0032348
300.0032337
300.0032327
300.0032318
300.003231
300.0032302
300.0032296
300.0032291
300.0032287
300.0032284
300.0032276
300.0032268
300.0032352
300.0032374
300.0032394
300.0032413
300.0032431
300.0032448
300.0032463
300.0032475
300.0032484
300.0032489
300.0032491
300.003249
300.0032485
300.0032477
300.0032467
300.0032455
300.0032441
300.0032427
300.0032413
300.0032399
300.0032385
300.0032371
300.0032359
300.0032347
300.0032336
300.0032327
300.0032318
300.003231
300.0032304
300.0032299
300.0032294
300.0032291
300.0032283
300.0032275
300.0032358
300.0032381
300.0032402
300.0032424
300.0032445
300.0032463
300.003248
300.0032494
300.0032504
300.0032511
300.0032513
300.0032511
300.0032506
300.0032497
300.0032486
300.0032472
300.0032458
300.0032442
300.0032427
300.0032411
300.0032397
300.0032382
300.0032369
300.0032357
300.0032346
300.0032336
300.0032327
300.0032319
300.0032312
300.0032307
300.0032302
300.0032299
300.003229
300.0032283
300.0032361
300.0032386
300.0032409
300.0032433
300.0032456
300.0032477
300.0032496
300.0032511
300.0032523
300.003253
300.0032533
300.0032531
300.0032525
300.0032516
300.0032503
300.0032488
300.0032473
300.0032456
300.003244
300.0032423
300.0032408
300.0032393
300.0032379
300.0032366
300.0032355
300.0032345
300.0032335
300.0032327
300.0032321
300.0032315
300.0032311
300.0032307
300.0032299
300.0032291
300.0032362
300.0032388
300.0032414
300.0032439
300.0032464
300.0032487
300.0032508
300.0032526
300.0032539
300.0032547
300.0032551
300.0032549
300.0032542
300.0032532
300.0032519
300.0032503
300.0032486
300.0032469
300.0032451
300.0032434
300.0032418
300.0032403
300.0032389
300.0032376
300.0032364
300.0032354
300.0032344
300.0032336
300.003233
300.0032324
300.0032319
300.0032316
300.0032307
300.00323
300.0032361
300.0032388
300.0032415
300.0032443
300.0032469
300.0032495
300.0032517
300.0032537
300.0032551
300.0032561
300.0032564
300.0032563
300.0032556
300.0032545
300.0032531
300.0032515
300.0032497
300.0032479
300.0032461
300.0032444
300.0032428
300.0032413
300.0032398
300.0032385
300.0032374
300.0032363
300.0032354
300.0032346
300.0032339
300.0032333
300.0032329
300.0032325
300.0032317
300.0032309
300.0032357
300.0032386
300.0032414
300.0032443
300.0032471
300.0032498
300.0032522
300.0032543
300.0032559
300.0032569
300.0032574
300.0032572
300.0032566
300.0032555
300.003254
300.0032524
300.0032506
300.0032488
300.003247
300.0032453
300.0032437
300.0032421
300.0032407
300.0032395
300.0032383
300.0032373
300.0032364
300.0032356
300.0032349
300.0032344
300.0032339
300.0032335
300.0032327
300.003232
300.0032352
300.0032381
300.003241
300.0032439
300.0032468
300.0032497
300.0032522
300.0032544
300.0032561
300.0032572
300.0032578
300.0032577
300.003257
300.003256
300.0032546
300.003253
300.0032513
300.0032495
300.0032477
300.0032461
300.0032445
300.003243
300.0032417
300.0032404
300.0032393
300.0032383
300.0032374
300.0032366
300.003236
300.0032355
300.003235
300.0032347
300.0032338
300.0032331
300.0032345
300.0032374
300.0032403
300.0032432
300.0032462
300.0032491
300.0032517
300.003254
300.0032557
300.003257
300.0032576
300.0032576
300.003257
300.0032561
300.0032548
300.0032533
300.0032517
300.00325
300.0032483
300.0032468
300.0032453
300.0032439
300.0032426
300.0032414
300.0032404
300.0032394
300.0032386
300.0032378
300.0032372
300.0032367
300.0032362
300.0032359
300.0032351
300.0032343
300.0032336
300.0032365
300.0032394
300.0032423
300.0032451
300.0032482
300.0032507
300.003253
300.0032548
300.0032561
300.0032568
300.003257
300.0032566
300.0032558
300.0032547
300.0032534
300.0032519
300.0032504
300.0032489
300.0032474
300.0032461
300.0032448
300.0032436
300.0032425
300.0032415
300.0032406
300.0032398
300.0032391
300.0032385
300.003238
300.0032376
300.0032373
300.0032364
300.0032357
300.0032327
300.0032355
300.0032383
300.0032411
300.003244
300.0032468
300.0032494
300.0032517
300.0032535
300.0032549
300.0032557
300.003256
300.0032558
300.0032553
300.0032544
300.0032533
300.003252
300.0032508
300.0032495
300.0032482
300.003247
300.0032458
300.0032448
300.0032438
300.0032429
300.003242
300.0032413
300.0032406
300.00324
300.0032395
300.0032391
300.0032388
300.003238
300.0032372
300.0032317
300.0032344
300.0032371
300.0032399
300.0032426
300.0032453
300.0032479
300.0032501
300.003252
300.0032534
300.0032544
300.0032549
300.0032549
300.0032546
300.003254
300.0032532
300.0032523
300.0032512
300.0032502
300.0032491
300.0032481
300.0032471
300.0032462
300.0032453
300.0032444
300.0032437
300.003243
300.0032423
300.0032418
300.0032413
300.0032409
300.0032406
300.0032397
300.003239
300.0032309
300.0032335
300.003236
300.0032387
300.0032413
300.0032439
300.0032463
300.0032486
300.0032504
300.003252
300.0032531
300.0032538
300.0032541
300.0032541
300.0032538
300.0032533
300.0032527
300.003252
300.0032512
300.0032503
300.0032495
300.0032487
300.0032478
300.003247
300.0032463
300.0032456
300.0032449
300.0032443
300.0032438
300.0032433
300.0032429
300.0032426
300.0032417
300.003241
300.0032279
300.0032304
300.0032327
300.0032351
300.0032376
300.0032402
300.0032426
300.003245
300.0032472
300.0032491
300.0032507
300.003252
300.003253
300.0032536
300.0032539
300.0032539
300.0032538
300.0032535
300.0032531
300.0032525
300.0032519
300.0032513
300.0032506
300.0032499
300.0032492
300.0032485
300.0032479
300.0032472
300.0032466
300.0032461
300.0032456
300.0032452
300.0032448
300.003244
300.0032433
300.0032277
300.00323
300.0032322
300.0032345
300.0032369
300.0032393
300.0032417
300.0032441
300.0032462
300.0032482
300.00325
300.0032514
300.0032526
300.0032535
300.0032542
300.0032546
300.0032548
300.0032548
300.0032547
300.0032544
300.0032541
300.0032536
300.0032531
300.0032525
300.0032519
300.0032512
300.0032506
300.0032499
300.0032493
300.0032487
300.0032482
300.0032478
300.0032474
300.0032466
300.0032458
300.0032277
300.0032299
300.003232
300.0032343
300.0032366
300.0032389
300.0032413
300.0032436
300.0032458
300.0032479
300.0032498
300.0032514
300.0032529
300.0032541
300.0032552
300.0032559
300.0032565
300.0032569
300.003257
300.003257
300.0032568
300.0032566
300.0032561
300.0032556
300.0032551
300.0032544
300.0032538
300.0032531
300.0032524
300.0032518
300.0032513
300.0032508
300.0032504
300.0032495
300.0032487
300.003228
300.0032301
300.0032323
300.0032345
300.0032367
300.0032391
300.0032414
300.0032438
300.003246
300.0032482
300.0032503
300.0032522
300.003254
300.0032556
300.0032569
300.0032581
300.003259
300.0032597
300.0032602
300.0032604
300.0032604
300.0032603
300.0032599
300.0032595
300.0032589
300.0032583
300.0032576
300.0032568
300.0032561
300.0032554
300.0032547
300.0032542
300.0032537
300.0032528
300.003252
300.0032307
300.0032329
300.0032351
300.0032374
300.0032398
300.0032422
300.0032446
300.0032469
300.0032493
300.0032516
300.0032538
300.0032559
300.0032577
300.0032595
300.0032611
300.0032624
300.0032634
300.0032642
300.0032646
300.0032648
300.0032647
300.0032644
300.003264
300.0032635
300.0032628
300.0032619
300.0032611
300.0032602
300.0032594
300.0032586
300.003258
300.0032574
300.0032564
300.0032555
300.0032316
300.0032339
300.0032363
300.0032387
300.0032411
300.0032436
300.0032461
300.0032486
300.003251
300.0032535
300.0032561
300.0032584
300.0032686
300.0032678
300.0032669
300.0032658
300.0032648
300.0032638
300.0032628
300.003262
300.0032613
300.0032602
300.0032594
300.0032378
300.0032404
300.0032429
300.0032455
300.0032482
300.0032507
300.0034448
300.0034457
300.0034465
300.0034471
300.0034477
300.0034483
300.0034487
300.0034491
300.0034493
300.0034495
300.0034496
300.0034495
300.0034494
300.0034492
300.0034489
300.0034485
300.0034481
300.0034476
300.0034471
300.0034465
300.0034459
300.0034453
300.0034447
300.0034441
300.0034436
300.0034431
300.0034426
300.0034422
300.0034418
300.0034415
300.0034412
300.003441
300.0034409
300.0034409
300.0034418
300.0034431
300.0034439
300.0034446
300.0034452
300.0034457
300.0034462
300.0034465
300.0034468
300.003447
300.003447
300.003447
300.0034469
300.0034467
300.0034463
300.003446
300.0034455
300.003445
300.0034444
300.0034439
300.0034433
300.0034426
300.003442
300.0034415
300.0034409
300.0034404
300.0034399
300.0034395
300.0034391
300.0034388
300.0034385
300.0034384
300.0034393
300.0034409
300.0034389
300.0034402
300.0034411
300.0034418
300.0034424
300.0034429
300.0034434
300.0034438
300.0034441
300.0034442
300.0034443
300.0034443
300.0034441
300.0034439
300.0034436
300.0034431
300.0034427
300.0034421
300.0034415
300.0034409
300.0034403
300.0034397
300.003439
300.0034384
300.0034379
300.0034373
300.0034368
300.0034364
300.003436
300.0034356
300.0034354
300.0034357
300.0034387
300.0034411
300.003439
300.0034404
300.0034413
300.003442
300.0034427
300.0034433
300.0034438
300.0034442
300.0034445
300.0034446
300.0034447
300.0034447
300.0034445
300.0034442
300.0034439
300.0034434
300.0034429
300.0034423
300.0034417
300.003441
300.0034403
300.0034397
300.003439
300.0034384
300.0034378
300.0034372
300.0034367
300.0034362
300.0034358
300.0034354
300.0034352
300.0034356
300.0034389
300.0034413
300.0034398
300.0034413
300.0034422
300.003443
300.0034437
300.0034443
300.0034448
300.0034453
300.0034456
300.0034458
300.0034458
300.0034457
300.0034455
300.0034452
300.0034448
300.0034443
300.0034437
300.0034431
300.0034424
300.0034417
300.003441
300.0034402
300.0034395
300.0034388
300.0034382
300.0034376
300.003437
300.0034365
300.0034361
300.0034357
300.0034355
300.0034359
300.0034392
300.0034416
300.0034408
300.0034423
300.0034433
300.0034441
300.0034449
300.0034456
300.0034462
300.0034466
300.003447
300.0034472
300.0034472
300.0034471
300.0034469
300.0034465
300.0034461
300.0034455
300.0034448
300.0034441
300.0034434
300.0034426
300.0034418
300.003441
300.0034402
300.0034395
300.0034388
300.0034381
300.0034375
300.003437
300.0034365
300.0034361
300.0034359
300.0034362
300.0034396
300.0034419
300.0034418
300.0034434
300.0034445
300.0034455
300.0034463
300.0034471
300.0034477
300.0034482
300.0034486
300.0034488
300.0034488
300.0034487
300.0034485
300.0034481
300.0034475
300.0034469
300.0034461
300.0034453
300.0034445
300.0034436
300.0034427
300.0034418
300.003441
300.0034402
300.0034394
300.0034387
300.0034381
300.0034375
300.003437
300.0034366
300.0034363
300.0034367
300.00344
300.0034424
300.0034429
300.0034446
300.0034458
300.0034469
300.0034478
300.0034487
300.0034494
300.00345
300.0034504
300.0034507
300.0034507
300.0034506
300.0034503
300.0034498
300.0034492
300.0034484
300.0034476
300.0034467
300.0034457
300.0034447
300.0034438
300.0034428
300.0034419
300.003441
300.0034402
300.0034394
300.0034387
300.0034381
300.0034376
300.0034372
300.0034369
300.0034372
300.0034405
300.0034429
300.003444
300.0034458
300.0034471
300.0034483
300.0034494
300.0034504
300.0034513
300.003452
300.0034524
300.0034527
300.0034528
300.0034526
300.0034522
300.0034517
300.003451
300.0034502
300.0034492
300.0034482
300.0034471
300.003446
300.0034449
300.0034439
300.0034429
300.0034419
300.003441
300.0034402
300.0034395
300.0034388
300.0034382
300.0034378
300.0034374
300.0034378
300.0034411
300.0034434
300.003445
300.003447
300.0034485
300.0034498
300.0034511
300.0034522
300.0034532
300.003454
300.0034546
300.0034549
300.003455
300.0034548
300.0034544
300.0034538
300.003453
300.003452
300.0034509
300.0034498
300.0034486
300.0034474
300.0034462
300.003445
300.0034439
300.0034429
300.0034419
300.003441
300.0034402
300.0034395
300.0034389
300.0034384
300.0034381
300.0034384
300.0034417
300.003444
300.0034459
300.0034481
300.0034497
300.0034513
300.0034527
300.003454
300.0034552
300.0034561
300.0034568
300.0034572
300.0034573
300.0034571
300.0034566
300.0034559
300.003455
300.0034539
300.0034527
300.0034515
300.0034501
300.0034488
300.0034475
300.0034462
300.003445
300.0034439
300.0034428
300.0034419
300.003441
300.0034403
300.0034397
300.0034391
300.0034388
300.0034391
300.0034423
300.0034447
300.0034467
300.003449
300.0034509
300.0034526
300.0034543
300.0034558
300.0034571
300.0034582
300.003459
300.0034595
300.0034596
300.0034594
300.0034589
300.0034581
300.0034571
300.0034559
300.0034546
300.0034532
300.0034517
300.0034502
300.0034488
300.0034474
300.0034461
300.0034449
300.0034438
300.0034428
300.0034419
300.0034411
300.0034405
300.0034399
300.0034395
300.0034398
300.0034431
300.0034454
300.0034474
300.0034499
300.0034519
300.0034539
300.0034558
300.0034575
300.003459
300.0034603
300.0034612
300.0034618
300.003462
300.0034618
300.0034612
300.0034604
300.0034592
300.0034579
300.0034564
300.0034548
300.0034532
300.0034516
300.0034501
300.0034486
300.0034472
300.003446
300.0034448
300.0034437
300.0034428
300.003442
300.0034413
300.0034407
300.0034403
300.0034406
300.0034438
300.0034462
300.0034478
300.0034505
300.0034528
300.003455
300.0034571
300.0034591
300.0034608
300.0034623
300.0034634
300.003464
300.0034642
300.003464
300.0034634
300.0034625
300.0034612
300.0034598
300.0034582
300.0034565
300.0034547
300.003453
300.0034514
300.0034498
300.0034483
300.003447
300.0034458
300.0034447
300.0034437
300.0034429
300.0034421
300.0034415
300.0034411
300.0034414
300.0034446
300.003447
300.0034481
300.003451
300.0034535
300.0034559
300.0034583
300.0034605
300.0034625
300.0034641
300.0034653
300.0034661
300.0034664
300.0034662
300.0034655
300.0034644
300.0034631
300.0034615
300.0034598
300.003458
300.0034561
300.0034543
300.0034526
300.0034509
300.0034494
300.003448
300.0034468
300.0034456
300.0034446
300.0034438
300.003443
300.0034424
300.003442
300.0034422
300.0034455
300.0034479
300.0034482
300.0034512
300.0034539
300.0034565
300.0034592
300.0034616
300.0034638
300.0034657
300.0034671
300.003468
300.0034683
300.003468
300.0034673
300.0034661
300.0034647
300.003463
300.0034612
300.0034593
300.0034574
300.0034555
300.0034537
300.003452
300.0034504
300.003449
300.0034477
300.0034466
300.0034456
300.0034447
300.003444
300.0034434
300.0034429
300.0034432
300.0034464
300.0034488
300.003448
300.0034512
300.0034541
300.0034569
300.0034597
300.0034624
300.0034648
300.0034669
300.0034684
300.0034694
300.0034698
300.0034695
300.0034688
300.0034675
300.003466
300.0034642
300.0034623
300.0034604
300.0034584
300.0034565
300.0034547
300.003453
300.0034514
300.00345
300.0034487
300.0034476
300.0034466
300.0034457
300.003445
300.0034443
300.0034439
300.0034442
300.0034474
300.0034498
300.0034476
300.0034509
300.0034539
300.0034569
300.0034598
300.0034627
300.0034653
300.0034676
300.0034693
300.0034704
300.0034708
300.0034706
300.0034698
300.0034685
300.0034669
300.0034651
300.0034632
300.0034613
300.0034593
300.0034574
300.0034556
300.0034539
300.0034524
300.003451
300.0034497
300.0034486
300.0034476
300.0034467
300.003446
300.0034454
300.003445
300.0034452
300.0034485
300.0034508
300.003447
300.0034504
300.0034534
300.0034565
300.0034595
300.0034626
300.0034653
300.0034677
300.0034695
300.0034707
300.0034712
300.003471
300.0034703
300.003469
300.0034675
300.0034657
300.0034638
300.0034619
300.00346
300.0034582
300.0034564
300.0034548
300.0034533
300.0034519
300.0034507
300.0034496
300.0034487
300.0034478
300.0034471
300.0034465
300.0034461
300.0034464
300.0034496
300.003452
300.0034463
300.0034496
300.0034527
300.0034558
300.0034589
300.0034619
300.0034647
300.0034672
300.0034691
300.0034704
300.003471
300.0034709
300.0034702
300.0034691
300.0034676
300.0034659
300.0034642
300.0034624
300.0034606
300.0034589
300.0034572
300.0034557
300.0034543
300.003453
300.0034518
300.0034508
300.0034498
300.003449
300.0034483
300.0034478
300.0034474
300.0034476
300.0034509
300.0034533
300.0034453
300.0034486
300.0034516
300.0034547
300.0034578
300.0034608
300.0034636
300.0034661
300.003468
300.0034694
300.0034701
300.0034701
300.0034696
300.0034686
300.0034674
300.0034659
300.0034643
300.0034627
300.0034611
300.0034595
300.003458
300.0034566
300.0034553
300.0034541
300.003453
300.003452
300.0034511
300.0034504
300.0034497
300.0034491
300.0034487
300.003449
300.0034523
300.0034547
300.0034443
300.0034475
300.0034505
300.0034534
300.0034564
300.0034593
300.0034621
300.0034645
300.0034665
300.0034679
300.0034687
300.0034689
300.0034686
300.0034679
300.0034669
300.0034657
300.0034643
300.003463
300.0034616
300.0034602
300.0034589
300.0034576
300.0034564
300.0034553
300.0034543
300.0034534
300.0034526
300.0034519
300.0034512
300.0034507
300.0034503
300.0034506
300.0034539
300.0034562
300.0034433
300.0034464
300.0034492
300.003452
300.0034549
300.0034577
300.0034603
300.0034627
300.0034646
300.0034661
300.0034671
300.0034675
300.0034675
300.003467
300.0034663
300.0034654
300.0034644
300.0034633
300.0034622
300.003461
300.0034599
300.0034588
300.0034578
300.0034568
300.0034559
300.0034551
300.0034543
300.0034536
300.003453
300.0034525
300.0034521
300.0034524
300.0034557
300.003458
300.0034424
300.0034454
300.003448
300.0034507
300.0034534
300.0034561
300.0034586
300.0034609
300.0034628
300.0034644
300.0034655
300.0034661
300.0034664
300.0034663
300.0034659
300.0034654
300.0034647
300.0034639
300.003463
300.0034621
300.0034612
300.0034603
300.0034594
300.0034586
300.0034578
300.003457
300.0034562
300.0034556
300.003455
300.0034545
300.0034541
300.0034544
300.0034577
300.00346
300.003439
300.003442
300.0034445
300.003447
300.0034495
300.0034521
300.0034546
300.003457
300.0034593
300.0034612
300.0034629
300.0034641
300.003465
300.0034656
300.0034659
300.0034659
300.0034657
300.0034653
300.0034648
300.0034643
300.0034636
300.0034629
300.0034622
300.0034615
300.0034607
300.00346
300.0034593
300.0034586
300.0034579
300.0034573
300.0034568
300.0034564
300.0034567
300.00346
300.0034623
300.0034389
300.0034416
300.0034439
300.0034463
300.0034487
300.0034511
300.0034535
300.0034559
300.0034581
300.0034601
300.0034618
300.0034633
300.0034645
300.0034653
300.003466
300.0034663
300.0034665
300.0034665
300.0034664
300.0034661
300.0034657
300.0034652
300.0034646
300.003464
300.0034634
300.0034627
300.003462
300.0034613
300.0034606
300.00346
300.0034594
300.003459
300.0034593
300.0034626
300.0034649
300.0034389
300.0034414
300.0034437
300.0034459
300.0034482
300.0034506
300.003453
300.0034553
300.0034575
300.0034595
300.0034614
300.0034631
300.0034645
300.0034658
300.0034667
300.0034675
300.0034681
300.0034684
300.0034686
300.0034686
300.0034684
300.0034681
300.0034677
300.0034672
300.0034666
300.0034659
300.0034652
300.0034645
300.0034638
300.0034631
300.0034625
300.003462
300.0034623
300.0034655
300.0034678
300.0034388
300.0034416
300.0034438
300.003446
300.0034483
300.0034506
300.0034529
300.0034553
300.0034575
300.0034597
300.0034617
300.0034637
300.0034654
300.003467
300.0034683
300.0034695
300.0034704
300.0034711
300.0034716
300.0034718
300.0034719
300.0034717
300.0034714
300.003471
300.0034704
300.0034697
300.003469
300.0034682
300.0034674
300.0034667
300.003466
300.0034654
300.0034656
300.0034688
300.0034711
300.0034417
300.0034443
300.0034466
300.0034489
300.0034512
300.0034536
300.003456
300.0034583
300.0034606
300.0034628
300.003465
300.003467
300.0034687
300.0034705
300.0034721
300.0034734
300.0034745
300.0034752
300.0034757
300.0034759
300.0034759
300.0034756
300.0034751
300.0034748
300.0034741
300.0034733
300.0034725
300.0034716
300.0034707
300.0034699
300.0034692
300.0034693
300.0034724
300.0034747
300.0034424
300.003445
300.0034476
300.0034501
300.0034525
300.0034549
300.0034573
300.0034597
300.0034619
300.0034644
300.0034668
300.0034687
300.0034792
300.0034787
300.0034777
300.0034769
300.0034759
300.0034748
300.0034738
300.003473
300.0034729
300.003476
300.0034785
300.0034483
300.0034513
300.0034539
300.0034564
300.003459
300.0034612
300.003392
300.003393
300.0033937
300.0033944
300.0033949
300.0033955
300.0033959
300.0033962
300.0033965
300.0033967
300.0033967
300.0033967
300.0033966
300.0033964
300.0033961
300.0033957
300.0033952
300.0033947
300.0033942
300.0033937
300.0033931
300.0033925
300.0033919
300.0033914
300.0033908
300.0033903
300.0033899
300.0033895
300.0033891
300.0033888
300.0033885
300.0033883
300.0033882
300.0033882
300.0033905
300.0033918
300.0033926
300.0033933
300.0033939
300.0033944
300.0033948
300.0033952
300.0033955
300.0033956
300.0033957
300.0033956
300.0033955
300.0033953
300.003395
300.0033946
300.0033941
300.0033936
300.0033931
300.0033925
300.0033919
300.0033913
300.0033907
300.0033901
300.0033896
300.0033891
300.0033886
300.0033882
300.0033878
300.0033875
300.0033873
300.0033871
300.0033877
300.0033882
300.0033875
300.0033888
300.0033897
300.0033904
300.003391
300.0033915
300.003392
300.0033923
300.0033926
300.0033928
300.0033928
300.0033928
300.0033926
300.0033924
300.003392
300.0033916
300.0033911
300.0033906
300.00339
300.0033894
300.0033888
300.0033881
300.0033875
300.0033869
300.0033864
300.0033858
300.0033853
300.0033849
300.0033845
300.0033842
300.003384
300.0033845
300.0033873
300.0033883
300.0033874
300.0033887
300.0033896
300.0033904
300.003391
300.0033916
300.0033921
300.0033925
300.0033927
300.0033929
300.0033929
300.0033929
300.0033927
300.0033924
300.003392
300.0033916
300.003391
300.0033905
300.0033898
300.0033892
300.0033885
300.0033878
300.0033872
300.0033865
300.0033859
300.0033854
300.0033849
300.0033844
300.003384
300.0033837
300.0033835
300.0033843
300.0033875
300.0033886
300.0033882
300.0033896
300.0033905
300.0033913
300.003392
300.0033926
300.0033931
300.0033935
300.0033938
300.003394
300.003394
300.003394
300.0033937
300.0033934
300.003393
300.0033925
300.0033919
300.0033912
300.0033905
300.0033898
300.0033891
300.0033884
300.0033877
300.003387
300.0033863
300.0033857
300.0033852
300.0033847
300.0033843
300.0033839
300.0033838
300.0033845
300.0033878
300.0033889
300.0033892
300.0033906
300.0033917
300.0033925
300.0033933
300.0033939
300.0033945
300.003395
300.0033953
300.0033954
300.0033955
300.0033954
300.0033951
300.0033947
300.0033943
300.0033937
300.003393
300.0033923
300.0033915
300.0033907
300.0033899
300.0033891
300.0033883
300.0033876
300.0033869
300.0033863
300.0033857
300.0033852
300.0033847
300.0033843
300.0033841
300.0033849
300.0033881
300.0033892
300.0033903
300.0033918
300.0033929
300.0033939
300.0033947
300.0033955
300.0033961
300.0033966
300.003397
300.0033972
300.0033972
300.0033971
300.0033968
300.0033963
300.0033958
300.0033951
300.0033943
300.0033935
300.0033926
300.0033917
300.0033908
300.00339
300.0033891
300.0033883
300.0033876
300.0033869
300.0033862
300.0033857
300.0033852
300.0033848
300.0033846
300.0033853
300.0033886
300.0033896
300.0033915
300.0033931
300.0033943
300.0033954
300.0033963
300.0033972
300.0033979
300.0033985
300.0033989
300.0033991
300.0033991
300.003399
300.0033986
300.0033981
300.0033975
300.0033967
300.0033958
300.0033949
300.0033939
300.0033929
300.0033919
300.0033909
300.00339
300.0033891
300.0033883
300.0033876
300.0033869
300.0033863
300.0033858
300.0033853
300.0033851
300.0033858
300.0033891
300.0033901
300.0033926
300.0033944
300.0033957
300.0033969
300.003398
300.003399
300.0033999
300.0034005
300.003401
300.0034013
300.0034013
300.0034011
300.0034007
300.0034001
300.0033994
300.0033985
300.0033975
300.0033964
300.0033953
300.0033942
300.0033931
300.003392
300.003391
300.00339
300.0033891
300.0033883
300.0033876
300.0033869
300.0033864
300.0033859
300.0033857
300.0033864
300.0033896
300.0033907
300.0033937
300.0033956
300.0033971
300.0033985
300.0033998
300.0034009
300.0034019
300.0034027
300.0034033
300.0034036
300.0034036
300.0034034
300.003403
300.0034023
300.0034014
300.0034004
300.0033993
300.0033981
300.0033968
300.0033956
300.0033944
300.0033932
300.003392
300.003391
300.00339
300.0033891
300.0033883
300.0033877
300.0033871
300.0033866
300.0033863
300.003387
300.0033902
300.0033913
300.0033947
300.0033967
300.0033985
300.0034
300.0034015
300.0034029
300.003404
300.003405
300.0034057
300.003406
300.0034061
300.0034059
300.0034054
300.0034046
300.0034036
300.0034024
300.0034012
300.0033998
300.0033984
300.003397
300.0033957
300.0033944
300.0033931
300.003392
300.0033909
300.00339
300.0033892
300.0033884
300.0033878
300.0033873
300.003387
300.0033876
300.0033909
300.0033919
300.0033955
300.0033978
300.0033997
300.0034015
300.0034032
300.0034048
300.0034062
300.0034073
300.0034081
300.0034086
300.0034087
300.0034084
300.0034078
300.003407
300.0034058
300.0034045
300.0034031
300.0034016
300.0034
300.0033985
300.003397
300.0033956
300.0033942
300.003393
300.0033919
300.0033909
300.00339
300.0033892
300.0033886
300.003388
300.0033877
300.0033884
300.0033916
300.0033926
300.0033961
300.0033986
300.0034008
300.0034029
300.0034049
300.0034067
300.0034083
300.0034096
300.0034106
300.0034112
300.0034113
300.003411
300.0034104
300.0034094
300.0034081
300.0034066
300.003405
300.0034033
300.0034016
300.0033999
300.0033983
300.0033968
300.0033954