/*--------------------------------*- C++ -*----------------------------------*\
  =========                 |
  \\      /  F ield         | OpenFOAM: The Open Source CFD Toolbox
   \\    /   O peration     | Website:  https://openfoam.org
    \\  /    A nd           | Version:  8
     \\/     M anipulation  |
\*---------------------------------------------------------------------------*/
FoamFile
{
    version     2.0;
    format      ascii;
    class       volVectorField;
    location    "0.2";
    object      U;
}
// * * * * * * * * * * * * * * * * * * * * * * * * * * * * * * * * * * * * * //

dimensions      [0 1 -1 0 0 0 0];

internalField   nonuniform List<vector> 
67193
(
(0.00024696882 -0.0003796081955 0.0001439033216)
(0.0006988944526 -0.000385482947 0.0001505845805)
(0.001149252861 -0.0003912738802 0.0001583184901)
(0.001595892738 -0.0003968075608 0.0001669747942)
(0.002036724528 -0.0004018667301 0.0001765115746)
(0.00246907464 -0.0004062152252 0.0001869411237)
(0.002889797882 -0.0004096137459 0.0001983066294)
(0.003295259104 -0.0004118420193 0.0002106543585)
(0.003681379276 -0.0004127138091 0.000224016478)
(0.004043749047 -0.0004120902831 0.0002383981048)
(0.004377775946 -0.0004098887207 0.0002537703858)
(0.004678853628 -0.0004060871001 0.0002700679715)
(0.00494253719 -0.0004007245773 0.0002871896616)
(0.005164712705 -0.0003938981506 0.0003050012714)
(0.005341751184 -0.0003857559054 0.0003233401504)
(0.005470638893 -0.0003764878196 0.0003420208272)
(0.005549077983 -0.0003663145345 0.0003608417752)
(0.005575553109 -0.0003554752963 0.0003795929833)
(0.005549362577 -0.0003442156979 0.0003980640594)
(0.005470613779 -0.0003327770344 0.0004160519035)
(0.005340186311 -0.0003213863409 0.0004333681489)
(0.005159668648 -0.0003102493261 0.0004498450105)
(0.004931274716 -0.0002995456454 0.0004653395412)
(0.00465774851 -0.0002894267443 0.0004797359984)
(0.004342264503 -0.0002800160507 0.0004929464329)
(0.003988330639 -0.0002714113837 0.0005049098191)
(0.003599699988 -0.0002636894408 0.0005155902568)
(0.003180295604 -0.000256912436 0.0005249744814)
(0.002734154468 -0.0002511380217 0.0005330694507)
(0.002265401064 -0.0002464356002 0.0005398971947)
(0.001778255696 -0.0002429052459 0.0005454918657)
(0.001277115348 -0.00024073863 0.000549858383)
(0.0007672103986 -0.000239993515 0.0005528879309)
(0.0002538407326 -0.0002344464491 0.0005475372775)
(0.0002409142237 -0.001145891059 0.0001372104862)
(0.0006984516389 -0.001163866682 0.0001440061749)
(0.001154785051 -0.001181552489 0.0001518342438)
(0.001607797596 -0.001198436612 0.000160581624)
(0.002055422595 -0.001213861033 0.0001702210749)
(0.002494957521 -0.001227104043 0.0001807826813)
(0.002923184301 -0.001237442168 0.0001923255661)
(0.003336356198 -0.00124420867 0.0002049101054)
(0.003730252112 -0.001246841606 0.0002185789859)
(0.00410029776 -0.001244923186 0.0002333440051)
(0.004441723185 -0.001238206317 0.0002491791752)
(0.004749741919 -0.001226628603 0.0002660183558)
(0.005019735922 -0.001210313707 0.0002837561513)
(0.005247433819 -0.001189560813 0.0003022511106)
(0.005429072059 -0.001164824007 0.0003213305526)
(0.005561530826 -0.001136683677 0.0003407966835)
(0.005642438262 -0.001105812393 0.0003604338467)
(0.005670238559 -0.001072938017 0.0003800168621)
(0.00564422179 -0.001038806758 0.0003993197451)
(0.005564516811 -0.001004149541 0.0004181247747)
(0.005432050243 -0.0009696531309 0.0004362302387)
(0.00524847712 -0.0009359385768 0.0004534570253)
(0.005016091699 -0.0009035469979 0.0004696533039)
(0.004737726248 -0.0008729334798 0.0004846969848)
(0.004416645784 -0.0008444678692 0.0004984962592)
(0.004056445853 -0.0008184418684 0.0005109887522)
(0.003660958952 -0.0007950819932 0.0005221397551)
(0.003234172823 -0.0007745685207 0.0005319400003)
(0.002780163208 -0.0007570645634 0.0005404051268)
(0.002303057162 -0.0007427646147 0.0005475704418)
(0.001806989088 -0.0007319709273 0.000553510591)
(0.001296398963 -0.0007253372519 0.00055808235)
(0.0007769545805 -0.0007229490409 0.0005596513522)
(0.0002583158484 -0.0007090611506 0.0005515332364)
(0.0002147729902 -0.001892470352 0.0001212484341)
(0.0006724179463 -0.001923230766 0.0001282295695)
(0.001129591589 -0.001953624663 0.0001361485724)
(0.00158429551 -0.00198275348 0.0001449276761)
(0.002034620019 -0.002009488512 0.0001545711158)
(0.002477909068 -0.002032599261 0.0001651440864)
(0.002910903303 -0.002050857797 0.0001767395813)
(0.003329737384 -0.002063133904 0.0001894473721)
(0.003730007357 -0.002068476696 0.0002033333302)
(0.004106908402 -0.002066180179 0.000218425502)
(0.004455410332 -0.002055828327 0.000234707076)
(0.00477045533 -0.002037318956 0.0002521143041)
(0.005047160901 -0.002010865521 0.0002705379722)
(0.005281014208 -0.001976978281 0.0002898271003)
(0.005468046536 -0.001936428244 0.0003097943516)
(0.005604979005 -0.001890197401 0.0003302229086)
(0.005689332746 -0.001839419936 0.000350874845)
(0.005719498946 -0.00178531905 0.0003715006974)
(0.00569476661 -0.001729144587 0.0003918498616)
(0.005615309135 -0.001672115815 0.0004116810401)
(0.005482134195 -0.001615373957 0.0004307717313)
(0.00529700401 -0.00155994648 0.0004489258322)
(0.005062334603 -0.001506724515 0.0004659788412)
(0.004781083731 -0.001456453391 0.0004818005863)
(0.004456636119 -0.001409734802 0.0004962955723)
(0.004092692709 -0.001367038627 0.0005094019082)
(0.003693168863 -0.001328723381 0.0005210894702)
(0.003262101035 -0.001295063831 0.0005313578614)
(0.002803557995 -0.001266291446 0.0005402369675)
(0.002321562413 -0.001242650765 0.0005477814275)
(0.00181988045 -0.001224487562 0.0005540817696)
(0.001303040247 -0.001212468557 0.0005585741015)
(0.0007795771807 -0.001206124038 0.0005579824098)
(0.0002592090923 -0.001180231016 0.0005489972244)
(0.0001742155953 -0.002601101174 9.502382743e-05)
(0.0006318488578 -0.002645725339 0.0001021227139)
(0.001090020443 -0.002690083322 0.0001100424714)
(0.001547082403 -0.002732809605 0.0001187369079)
(0.002001329439 -0.002772263694 0.0001282562134)
(0.002450166824 -0.002806668781 0.0001387191001)
(0.002890266618 -0.002834260086 0.0001502702562)
(0.003317579277 -0.002853416995 0.0001630450908)
(0.003727420368 -0.002862778141 0.0001771453632)
(0.004114631596 -0.002861334979 0.0001926245295)
(0.004473783776 -0.002848496397 0.0002094801481)
(0.004799403275 -0.002824123975 0.0002276523478)
(0.005086203482 -0.002788533523 0.0002470259405)
(0.005329304379 -0.002742465529 0.0002674350061)
(0.005524427476 -0.00268703059 0.000288669194)
(0.00566805654 -0.002623635278 0.0003104818909)
(0.005757556401 -0.002553895333 0.0003326001761)
(0.005791244968 -0.002479543763 0.000354736609)
(0.005768416591 -0.002402341206 0.0003766022004)
(0.005689318667 -0.002323995276 0.0003979194784)
(0.005555087213 -0.002246094263 0.0004184342128)
(0.005367650296 -0.002170058704 0.0004379247325)
(0.005129610213 -0.002097112066 0.0004562079438)
(0.004844115314 -0.0020282696 0.0004731421673)
(0.004514731456 -0.001964343113 0.0004886270945)
(0.00414531991 -0.00190595848 0.0005026017726)
(0.003739926535 -0.001853582569 0.0005150420087)
(0.003302678188 -0.001807557539 0.0005259573622)
(0.002837684209 -0.001768139714 0.000535390541)
(0.002348947426 -0.001735544359 0.0005434063208)
(0.001840134491 -0.00170998466 0.000550079215)
(0.001316274224 -0.001691695711 0.0005547383256)
(0.0007869680431 -0.001679821292 0.0005541829339)
(0.0002615976331 -0.001642347978 0.0005454601687)
(0.0001179936901 -0.003250829643 6.09782272e-05)
(0.0005753493983 -0.00331072169 6.804608212e-05)
(0.001034594382 -0.003370574971 7.577114786e-05)
(0.00149464924 -0.003428539556 8.415476494e-05)
(0.001954052611 -0.003482433295 9.332301507e-05)
(0.002410283995 -0.003529884588 0.0001034703807)
(0.002859913657 -0.00356855156 0.0001148135386)
(0.00329863617 -0.003596287959 0.0001275508975)
(0.003721379848 -0.003611292799 0.000141833957)
(0.004122499587 -0.003612236133 0.0001577511786)
(0.004496016018 -0.003598342489 0.0001753199217)
(0.004835881952 -0.003569443531 0.0001944846549)
(0.005136256055 -0.003525977787 0.0002151202954)
(0.00539175845 -0.003468945187 0.0002370380692)
(0.005597693801 -0.003399829776 0.0002599932991)
(0.005750232156 -0.003320495772 0.000283695385)
(0.005846538501 -0.003233068185 0.000307820372)
(0.00588484594 -0.003139808469 0.0003320259476)
(0.005864471148 -0.003042995671 0.0003559682441)
(0.005785775532 -0.002944821641 0.0003793185722)
(0.005650079949 -0.002847307235 0.0004017784269)
(0.005459544582 -0.00275224322 0.0004230909035)
(0.005217027608 -0.002661156768 0.0004430477928)
(0.004925935864 -0.002575301464 0.000461492242)
(0.004590078851 -0.002495667221 0.0004783177363)
(0.004213533864 -0.00242300503 0.0004934646491)
(0.003800525762 -0.002357861239 0.0005069159114)
(0.003355320705 -0.002300618589 0.0005186933094)
(0.002882125929 -0.00225153424 0.0005288526762)
(0.002385010813 -0.002210779224 0.000537473068)
(0.001867709291 -0.002178456907 0.0005446358186)
(0.001335511561 -0.00215457936 0.000549669614)
(0.0007982916859 -0.002138419664 0.000549483245)
(0.0002652607286 -0.002090157516 0.0005410962582)
(4.480349103e-05 -0.00382841202 2.15108042e-05)
(0.0005012205088 -0.003904956913 2.821254259e-05)
(0.0009614924238 -0.003981851009 3.536350104e-05)
(0.001425055327 -0.004056752853 4.303608976e-05)
(0.001890771091 -0.004126935322 5.147342387e-05)
(0.002356219093 -0.004189337506 6.095961007e-05)
(0.002817825592 -0.004241003227 7.180217164e-05)
(0.003270951058 -0.004279219244 8.428362045e-05)
(0.003710020488 -0.004301706064 9.862038951e-05)
(0.004128756875 -0.004306791251 0.0001149473802)
(0.004520463886 -0.004293496975 0.0001333080127)
(0.004878343544 -0.004261633079 0.0001536507048)
(0.005195834783 -0.004211790156 0.000175834269)
(0.005466917035 -0.004145265843 0.0001996361893)
(0.00568636897 -0.004063961434 0.0002247623883)
(0.005849975119 -0.003970239844 0.0002508602598)
(0.005954666906 -0.003866767308 0.0002775350652)
(0.005998594178 -0.003756351997 0.0003043696186)
(0.005981127223 -0.003641793998 0.0003309462338)
(0.005902795041 -0.003525756878 0.0003568686098)
(0.005765171157 -0.003410668656 0.0003817808457)
(0.00557072224 -0.003298655421 0.0004053815402)
(0.005322636566 -0.003191507686 0.0004274317514)
(0.005024648558 -0.003090675287 0.0004477570703)
(0.004680872419 -0.002997285822 0.0004662449256)
(0.004295653278 -0.002912178349 0.0004828387291)
(0.003873438705 -0.002835949136 0.0004975315023)
(0.003418671059 -0.002768997217 0.000510358737)
(0.002935690621 -0.002711571929 0.0005213928669)
(0.002428667598 -0.002663811847 0.0005307283793)
(0.001901429093 -0.002625770606 0.0005384579367)
(0.00135939894 -0.002597405229 0.0005439165196)
(0.000812525415 -0.002578014385 0.0005440664427)
(0.0002698852584 -0.002519796969 0.0005360040346)
(-4.665516947e-05 -0.004324482183 -2.157761175e-05)
(0.0004079686849 -0.004418816818 -1.579701425e-05)
(0.0008689997894 -0.00451407895 -9.795047037e-06)
(0.001336376003 -0.004607467641 -3.4555815e-06)
(0.001809415016 -0.004695563277 3.702423895e-06)
(0.002285845994 -0.004774700021 1.201572325e-05)
(0.002761859988 -0.004841234635 2.191517586e-05)
(0.003232413424 -0.004891838892 3.379062855e-05)
(0.003691299191 -0.004923691027 4.793973886e-05)
(0.004131452228 -0.004934766442 6.455710827e-05)
(0.004545276187 -0.004923832971 8.372420541e-05)
(0.004925012906 -0.004890692749 0.0001053907496)
(0.005263198047 -0.004836135819 0.0001293892412)
(0.005553021914 -0.004761801987 0.0001554481212)
(0.005788627017 -0.004670064269 0.0001832031528)
(0.005965348962 -0.00456383187 0.0002122161616)
(0.006079866949 -0.00444634564 0.0002419970108)
(0.006130267989 -0.004320974052 0.0002720297051)
(0.0061160265 -0.004191030698 0.000301801358)
(0.006037909757 -0.00405962423 0.0003308303549)
(0.005897824901 -0.003929548194 0.0003586903553)
(0.005698627564 -0.003803212825 0.0003850270765)
(0.005443913656 -0.003682616596 0.0004095667879)
(0.005137813155 -0.00356935104 0.0004321169141)
(0.00478480191 -0.003464631086 0.0004525608199)
(0.004389536833 -0.003369341916 0.0004708481873)
(0.003956722814 -0.003284094414 0.0004869861733)
(0.003491004494 -0.003209281545 0.0005010281033)
(0.002996873247 -0.003145132292 0.0005130657741)
(0.002478611502 -0.003091756117 0.0005232116777)
(0.001940135881 -0.003049176876 0.000531572454)
(0.00138694637 -0.00301733222 0.0005374899451)
(0.0008290050006 -0.002995478735 0.0005379816917)
(0.0002752496133 -0.002928097276 0.0005302650767)
(-0.0001571966259 -0.004732109602 -6.628969195e-05)
(0.0002944018294 -0.004844821041 -6.22272297e-05)
(0.000755693555 -0.004959088364 -5.817242194e-05)
(0.00122707475 -0.005072011298 -5.383849687e-05)
(0.00170833807 -0.005179368678 -4.872544129e-05)
(0.002197306599 -0.005276828601 -4.22906352e-05)
(0.002690038513 -0.005359992902 -3.396205184e-05)
(0.003180998229 -0.005424806106 -2.318607278e-05)
(0.003663188777 -0.005467859503 -9.583888571e-06)
(0.004128599495 -0.005486637803 7.097193658e-06)
(0.004568541001 -0.005479745262 2.702017098e-05)
(0.00497400926 -0.005447007218 5.012351589e-05)
(0.005336438562 -0.005389484383 7.619441985e-05)
(0.005648081467 -0.005309176857 0.0001048927856)
(0.005902331846 -0.005208998371 0.0001357536742)
(0.006094027487 -0.005092453853 0.0001682220704)
(0.006219598754 -0.004963389503 0.0002016815004)
(0.006277116086 -0.00482573645 0.000235488877)
(0.006266233132 -0.004683297323 0.0002690123459)
(0.006188046208 -0.004539578782 0.0003016670471)
(0.006044890702 -0.004397677031 0.0003329443188)
(0.005840100574 -0.004260215412 0.0003624308761)
(0.005577757279 -0.004129328318 0.0003898168379)
(0.005262449987 -0.004006681499 0.0004148936247)
(0.004899063468 -0.003893518428 0.0004375448109)
(0.004492601831 -0.003790722665 0.0004577323918)
(0.004048049604 -0.003698883417 0.0004754824116)
(0.003570265801 -0.003618364165 0.0004908716371)
(0.003063899955 -0.003549360587 0.0005040152937)
(0.002533345531 -0.003491951132 0.0005150470813)
(0.001982599393 -0.003446135279 0.0005240900788)
(0.001417210381 -0.003411836541 0.0005304938187)
(0.00084713338 -0.003388242355 0.0005313407814)
(0.0002811526717 -0.003312521867 0.000523995693)
(-0.000286259454 -0.005048723352 -0.0001104715862)
(0.0001603794049 -0.005178455716 -0.0001090792451)
(0.0006211587422 -0.005311608046 -0.0001079385066)
(0.001096073307 -0.005444200523 -0.0001066225612)
(0.001585981176 -0.005571451289 -0.0001045102055)
(0.002088804547 -0.005688204452 -0.0001008519786)
(0.002600432656 -0.005789248899 -9.488382441e-05)
(0.003114742881 -0.005869722665 -8.590627985e-05)
(0.003623848415 -0.005925548416 -7.335788379e-05)
(0.00411848703 -0.005953667258 -5.685357634e-05)
(0.004588508184 -0.005952487815 -3.624505255e-05)
(0.005023475612 -0.00592186303 -1.158776648e-05)
(0.005413554033 -0.005863107113 1.68226804e-05)
(0.005749911069 -0.005778769224 4.857805798e-05)
(0.006025047459 -0.0056723775 8.305904303e-05)
(0.006233281506 -0.005548059864 0.0001195555397)
(0.006370827428 -0.005410292259 0.0001572863719)
(0.006435819698 -0.005263549999 0.0001954483383)
(0.006428195689 -0.005112075187 0.0002332656602)
(0.006349493313 -0.004959698152 0.0002700337327)
(0.006202583244 -0.004809728827 0.0003051530284)
(0.005991370326 -0.004664910402 0.0003381492533)
(0.005720495169 -0.004527424256 0.0003686792786)
(0.005395059649 -0.004398930747 0.000396524471)
(0.005020392913 -0.004280638347 0.0004215764704)
(0.004601865631 -0.004173377268 0.0004438165828)
(0.004144750087 -0.004077681986 0.0004632977981)
(0.003654120227 -0.003993863992 0.0004801259824)
(0.003134778325 -0.003922076014 0.0004944446993)
(0.002591220321 -0.003862364004 0.0005064123665)
(0.002027511949 -0.003814706291 0.0005161711084)
(0.001449234757 -0.003779014627 0.0005230793035)
(0.0008663255432 -0.003754403322 0.0005242937279)
(0.0002873992313 -0.003671215739 0.0005173448465)
(-0.0004315506287 -0.005275167589 -0.0001521038562)
(7.633381042e-06 -0.005419267565 -0.0001544083092)
(0.0004657955054 -0.005570097044 -0.0001573004346)
(0.0009436150526 -0.005721273591 -0.0001601409897)
(0.001442158145 -0.005867853534 -0.0001621319346)
(0.001959715487 -0.006003838147 -0.0001623139262)
(0.002492024553 -0.006123123772 -0.0001596898813)
(0.003032312686 -0.006219975918 -0.000153329927)
(0.003571616285 -0.006289549888 -0.000142466952)
(0.004099212663 -0.006328286712 -0.0001265827446)
(0.004603236421 -0.006334269164 -0.0001054325814)
(0.00507151533 -0.006307385329 -7.910044066e-05)
(0.005492539473 -0.006249235046 -4.796680588e-05)
(0.005856145733 -0.006163002236 -1.262673488e-05)
(0.006154010149 -0.006052905695 2.603953278e-05)
(0.006379934368 -0.00592373374 6.71773891e-05)
(0.006529969413 -0.005780638264 0.0001097917414)
(0.006602440708 -0.005628572891 0.0001528805838)
(0.006597705462 -0.00547213659 0.0001954998665)
(0.006517876827 -0.005315375416 0.0002368129658)
(0.006366476097 -0.005161694929 0.0002761271606)
(0.00614806839 -0.005013842711 0.000312911825)
(0.005867916424 -0.004873942838 0.0003467995815)
(0.00553167074 -0.004743565609 0.0003775724054)
(0.005145121728 -0.004623815304 0.0004051411198)
(0.004714008797 -0.004515423818 0.000429516958)
(0.004243882385 -0.004418840543 0.0004507879305)
(0.003740017942 -0.004334310776 0.0004690957589)
(0.003207354659 -0.004261940915 0.0004846172206)
(0.002650475663 -0.00420174868 0.0004975387885)
(0.002073502269 -0.00415369912 0.0005080237436)
(0.001482036093 -0.004117699862 0.0005154401227)
(0.0008859893835 -0.004092802134 0.0005170267238)
(0.0002937938145 -0.004003063792 0.0005104927675)
(-0.0005899066466 -0.005414656981 -0.0001894587819)
(-0.0001613753914 -0.005569597767 -0.0001965251714)
(0.0002917129421 -0.005735331214 -0.0002045837058)
(0.0007712553626 -0.005902557902 -0.0002127706865)
(0.001277736902 -0.006066747308 -0.000220096338)
(0.001810336465 -0.006220868828 -0.0002253375514)
(0.002364654684 -0.006357870131 -0.0002271928666)
(0.002933195021 -0.006471041691 -0.0002244153664)
(0.003505697562 -0.006554688315 -0.0002159582479)
(0.004069706633 -0.006604676489 -0.000201105678)
(0.004611311721 -0.006618787686 -0.0001795252459)
(0.005116239908 -0.006596989475 -0.0001513453619)
(0.005571060402 -0.006541321334 -0.000117079851)
(0.005964086622 -0.006455568873 -7.762669641e-05)
(0.006286064737 -0.006344660532 -3.405448017e-05)
(0.00653029652 -0.006214172874 1.236862562e-05)
(0.006692817769 -0.006069706191 6.048872566e-05)
(0.006772364419 -0.005916715707 0.0001090489401)
(0.006769863869 -0.00576004169 0.0001569162022)
(0.006688155787 -0.005603794558 0.0002031172189)
(0.00653152737 -0.005451327467 0.0002468735626)
(0.006305281481 -0.005305258295 0.000287612395)
(0.006015342992 -0.005167541753 0.0003249585511)
(0.005667926311 -0.005039570998 0.0003587119573)
(0.005269275225 -0.004922284959 0.0003888165045)
(0.004825474873 -0.004816279698 0.0004153259418)
(0.004342328403 -0.004721900962 0.0004383725486)
(0.003825283922 -0.004639324735 0.0004581404655)
(0.003279391955 -0.004568618401 0.0004748438673)
(0.002709301976 -0.004509785001 0.0004886996882)
(0.002119176026 -0.004462792231 0.0004998936432)
(0.001514624899 -0.004427558797 0.000507803245)
(0.000905533718 -0.004403092288 0.000509755273)
(0.0003001420581 -0.004307748297 0.0005036468505)
(-0.0007561677521 -0.005473416195 -0.0002211107028)
(-0.0003422207709 -0.005634647752 -0.0002340359877)
(0.0001025951787 -0.00580909917 -0.000248122435)
(0.0005820791265 -0.005989274221 -0.0002629454197)
(0.001094919959 -0.006168006241 -0.0002769054112)
(0.001642137479 -0.006337909667 -0.0002885287567)
(0.002219118822 -0.006490997095 -0.0002961304861)
(0.002817610722 -0.006619543771 -0.0002980370155)
(0.003425840396 -0.006716922954 -0.0002928064047)
(0.004029292148 -0.006778355522 -0.0002794403911)
(0.00461162562 -0.006801311161 -0.0002574949172)
(0.005156024531 -0.006785874276 -0.0002271709631)
(0.005646814736 -0.00673459865 -0.0001892453841)
(0.006070681333 -0.006651978168 -0.0001449353136)
(0.006417347881 -0.006543702609 -9.572784017e-05)
(0.006679881842 -0.006416026048 -4.321864251e-05)
(0.006854465425 -0.006275000932 1.099598535e-05)
(0.006940254705 -0.006126190229 6.550212771e-05)
(0.006939072949 -0.005974661818 0.0001189623112)
(0.00685465556 -0.005824417564 0.000170265282)
(0.006692152102 -0.005678579328 0.0002185673658)
(0.006457653239 -0.005539490995 0.0002632795019)
(0.006157757754 -0.005408829613 0.0003040442973)
(0.005799224367 -0.005287732159 0.0003407016438)
(0.005388713048 -0.00517692847 0.0003732471535)
(0.004932610353 -0.005076855971 0.000401790109)
(0.00443692499 -0.00498775595 0.0004265162712)
(0.003907236083 -0.004909747538 0.0004476576891)
(0.003348671456 -0.004842880268 0.0004654688279)
(0.002765922292 -0.004787167708 0.0004801979763)
(0.002163176468 -0.004742605677 0.0004920531627)
(0.001546045712 -0.004709147108 0.0005004198784)
(0.0009243909508 -0.004685783793 0.0005027171992)
(0.0003062581163 -0.004585783967 0.0004970353693)
(-0.0009245044295 -0.005459164446 -0.0002459867722)
(-0.0005275808733 -0.005620545626 -0.000265477769)
(-9.513366995e-05 -0.005796574269 -0.0002866753858)
(0.0003797321114 -0.005985151798 -0.0003092057025)
(0.000897419186 -0.006173572046 -0.0003310335802)
(0.001457995202 -0.006355441077 -0.0003503973305)
(0.002057429658 -0.006521695867 -0.0003650850456)
(0.00268674146 -0.006663600879 -0.0003728503268)
(0.003332457183 -0.00677358343 -0.0003717117213)
(0.003977651951 -0.006846177335 -0.0003602738447)
(0.004603111607 -0.006878558118 -0.000337945221)
(0.005189017334 -0.006870936482 -0.0003050426675)
(0.005717126194 -0.00682639866 -0.000262721394)
(0.006172332415 -0.006750171184 -0.0002127092773)
(0.006543462051 -0.006648682023 -0.000157014337)
(0.006823421435 -0.006528683933 -9.770669575e-05)
(0.007008999354 -0.00639662323 -3.675495663e-05)
(0.007100006113 -0.006258060857 2.404973312e-05)
(0.007099070235 -0.006117696756 8.328445121e-05)
(0.007011155279 -0.005979450406 0.0001397274345)
(0.006842357186 -0.005846006506 0.0001924963204)
(0.006599554983 -0.005719301932 0.0002410237295)
(0.006289990204 -0.005600642041 0.0002850035157)
(0.005920910633 -0.005490857388 0.0003243429559)
(0.005499323237 -0.005390446021 0.0003591092826)
(0.005031846144 -0.005299691151 0.0003894805566)
(0.004524629726 -0.005218750428 0.0004157038287)
(0.003983331283 -0.005147717941 0.0004380626727)
(0.003413116466 -0.005086662422 0.0004568525102)
(0.002818692569 -0.005035645951 0.0004723519371)
(0.002204260968 -0.004994727659 0.0004847894018)
(0.001575429746 -0.004963927016 0.000493555261)
(0.0009420475905 -0.004942248624 0.0004961641996)
(0.0003119748385 -0.004838520934 0.0004908999796)
(-0.001086675514 -0.005381025933 -0.0002633085188)
(-0.0007102840001 -0.005534792557 -0.000289866459)
(-0.0002951694061 -0.005706749728 -0.0003188765333)
(0.0001708339106 -0.005894827473 -0.0003498583197)
(0.0006909814565 -0.006087295352 -0.0003807838732)
(0.001262380231 -0.0062758862 -0.0004092032721)
(0.001882958394 -0.006451018974 -0.0004323066614)
(0.002542836688 -0.006603124437 -0.0004471138841)
(0.003226675734 -0.006723767234 -0.0004509267385)
(0.003914780206 -0.006806817217 -0.000441803292)
(0.004584617239 -0.006849187084 -0.0004189547317)
(0.00521292236 -0.006851215761 -0.0003828917874)
(0.005778552816 -0.006816495916 -0.0003353065756)
(0.006264547307 -0.0067508929 -0.0002786284106)
(0.00665896256 -0.006661377413 -0.0002155687101)
(0.00695484808 -0.00655503042 -0.0001487881923)
(0.007149686192 -0.006438285055 -8.068434707e-05)
(0.007244535869 -0.006316639151 -1.332448348e-05)
(0.007243012317 -0.006194144458 5.16409473e-05)
(0.007151046119 -0.006074237874 0.0001130387159)
(0.00697595192 -0.005959086062 0.0001699785741)
(0.006725325208 -0.00585012056 0.0002219631328)
(0.006406971677 -0.005748222615 0.0002687776564)
(0.006028530818 -0.005653902343 0.0003104257989)
(0.005597259706 -0.005567440725 0.000347066001)
(0.005119916269 -0.005489001888 0.0003789564883)
(0.004602715534 -0.005418707207 0.000406410714)
(0.004051333603 -0.005356678738 0.0004297645076)
(0.003470933201 -0.005303057943 0.0004493522358)
(0.002866215156 -0.005258005801 0.0004654793739)
(0.002241385846 -0.005221689351 0.0004783910917)
(0.001602057869 -0.005194232793 0.0004874789451)
(0.0009580825462 -0.005174689339 0.0004903500324)
(0.0003171537962 -0.005068107948 0.0004854860788)
(-0.00123425251 -0.005249676091 -0.0002723631585)
(-0.0008828945106 -0.00538758789 -0.0003060201375)
(-0.0004879104972 -0.005548056273 -0.0003433642618)
(-3.538083449e-05 -0.005725998545 -0.0003831838939)
(0.0004817340107 -0.00591582682 -0.0004242506549)
(0.001061221775 -0.006104158706 -0.0004627468245)
(0.001700457971 -0.006282445894 -0.0004954272071)
(0.002389211472 -0.006440428608 -0.0005183484563)
(0.00311025704 -0.006569016294 -0.0005278935903)
(0.003840835826 -0.006661521507 -0.0005213830299)
(0.004554677095 -0.00671464174 -0.0004977738768)
(0.005224675448 -0.006728821443 -0.0004578673969)
(0.00582655962 -0.006708036863 -0.0004041035311)
(0.006341539854 -0.006658542272 -0.0003398375329)
(0.006757117946 -0.00658751093 -0.0002686531159)
(0.007066784011 -0.006501935421 -0.0001939034415)
(0.007269054768 -0.006407923215 -0.0001184603505)
(0.00736633664 -0.006310336023 -4.465265276e-05)
(0.007363508963 -0.006212734228 2.578503586e-05)
(0.007267584384 -0.006117546426 9.168129807e-05)
(0.007086850734 -0.006026392533 0.0001522584705)
(0.006829589836 -0.005940144725 0.0002071349681)
(0.006504048465 -0.005859263175 0.0002562280477)
(0.00611812927 -0.005783969603 0.0002996668717)
(0.005679216642 -0.005714386945 0.0003377172988)
(0.005194102859 -0.005650630966 0.0003707249668)
(0.004668984181 -0.005592861888 0.0003990708118)
(0.004109495954 -0.00554130365 0.000423139997)
(0.003520761385 -0.005496239413 0.000443300813)
(0.002907458986 -0.005457990147 0.000459879707)
(0.002273801347 -0.005426883278 0.0004731332915)
(0.001625420136 -0.005403189206 0.0004824480457)
(0.0009722002641 -0.005386054564 0.0004855224515)
(0.0003217014328 -0.005277409281 0.0004810322168)
(-0.00135814487 -0.005077089424 -0.000272311579)
(-0.001035772981 -0.005190989495 -0.000313079211)
(-0.0006643345281 -0.005331117314 -0.0003585007964)
(-0.000230360201 -0.00549075686 -0.0004073183437)
(0.0002784665539 -0.005668915919 -0.0004588808155)
(0.0008624496941 -0.00584864146 -0.0005080395247)
(0.001516135318 -0.006023119457 -0.0005510932325)
(0.002230228873 -0.006181583898 -0.0005829015112)
(0.002985493768 -0.00631472643 -0.0005987650195)
(0.00375592074 -0.006415541897 -0.0005950443674)
(0.004511197402 -0.00648059974 -0.0005703778797)
(0.00522011972 -0.006510363078 -0.0005259828716)
(0.005855207724 -0.006508900348 -0.0004652814904)
(0.006396012841 -0.006482400362 -0.0003927759542)
(0.006829786936 -0.006437678165 -0.0003130686965)
(0.007150744408 -0.006381079856 -0.0002302655716)
(0.00735869023 -0.006317874964 -0.0001477093659)
(0.00745746274 -0.00625199464 -6.79157696e-05)
(0.007453326308 -0.006186094776 7.348531315e-06)
(0.007354329969 -0.006121635032 7.69802607e-05)
(0.007169483152 -0.006059579242 0.0001404013412)
(0.006907650288 -0.006000258847 0.0001974004667)
(0.006577346712 -0.005943775071 0.0002480590315)
(0.006186579829 -0.005890154345 0.0002926477825)
(0.005742722284 -0.005839464764 0.0003315499846)
(0.005252491311 -0.00579187892 0.0003652004707)
(0.004721983932 -0.005747697127 0.0003940436029)
(0.004156742113 -0.005707337311 0.0004185068603)
(0.003561822704 -0.005671305308 0.000438984375)
(0.00294187737 -0.005640151589 0.0004558155069)
(0.002301138084 -0.005614421153 0.0004692606523)
(0.001645281911 -0.005594576816 0.0004786966153)
(0.0009842712627 -0.005579900748 0.0004819057182)
(0.0003255780124 -0.005469871577 0.000477756749)
(-0.001450061959 -0.004877303677 -0.0002625770008)
(-0.001160000546 -0.004959757844 -0.0003095473302)
(-0.000814904347 -0.005071153023 -0.0003626927242)
(-0.0004038928034 -0.005205230421 -0.0004205907299)
(9.134773828e-05 -0.005359700151 -0.0004808230782)
(0.0006748366819 -0.00552299545 -0.0005411326319)
(0.001337265909 -0.005685905373 -0.0005946621041)
(0.002071109603 -0.005838686669 -0.0006355444328)
(0.002855039938 -0.00597253758 -0.0006579406962)
(0.003659886241 -0.00608054989 -0.0006570203617)
(0.004451231384 -0.006159307091 -0.0006310444545)
(0.005193790323 -0.006209112937 -0.0005817939378)
(0.005857046528 -0.006233617595 -0.0005138886146)
(0.00641921436 -0.006238216046 -0.000433127924)
(0.006867623972 -0.006228591616 -0.0003451984427)
(0.007197452794 -0.006209757538 -0.0002549461442)
(0.007409853285 -0.006185579621 -0.0001661100339)
(0.007510084138 -0.006158714218 -8.133307225e-05)
(0.007505713815 -0.006130657431 -2.320127646e-06)
(0.007405603209 -0.00610205656 6.997018014e-05)
(0.007219263087 -0.006073091022 0.0001352000059)
(0.006955923722 -0.006043689697 0.0001933698726)
(0.006624164638 -0.00601373063 0.0002447475376)
(0.006231924617 -0.005983190336 0.0002897569087)
(0.005786428599 -0.005952224286 0.0003288921248)
(0.005294215502 -0.005921194974 0.0003626679113)
(0.004761213933 -0.005890661258 0.0003915833599)
(0.004192835014 -0.005861338825 0.0004160976404)
(0.003594057311 -0.005834045308 0.000436619758)
(0.002969515751 -0.005809634882 0.0004534921114)
(0.00232348853 -0.005788930133 0.0004669711048)
(0.001661739042 -0.005772634134 0.0004764159535)
(0.0009943645914 -0.005760207338 0.0004796880967)
(0.0003288093136 -0.005649339876 0.0004758435164)
(-0.001502619513 -0.004666433614 -0.0002425104794)
(-0.001247227266 -0.004711307834 -0.000294576798)
(-0.0009320947011 -0.004786861192 -0.000353832587)
(-0.0005451343322 -0.004888159988 -0.0004190499674)
(-6.815792465e-05 -0.005010096247 -0.0004875590029)
(0.0005066101463 -0.005148813107 -0.0005573749133)
(0.001171763354 -0.005292147484 -0.0006202241728)
(0.001917553739 -0.005432923668 -0.000669405751)
(0.002721651505 -0.005563606818 -0.0006979081721)
(0.003552172828 -0.005677957187 -0.0006995662966)
(0.004370938756 -0.005772757641 -0.0006722272374)
(0.005139037336 -0.005847845746 -0.0006183760062)
(0.005823435605 -0.005905682826 -0.000543924816)
(0.006401467424 -0.005949902074 -0.0004559697008)
(0.00686080102 -0.005984144025 -0.0003611967377)
(0.007197633329 -0.006011360762 -0.0002650732233)
(0.007414343974 -0.006033540763 -0.0001716159197)