/*--------------------------------*- C++ -*----------------------------------*\
  =========                 |
  \\      /  F ield         | OpenFOAM: The Open Source CFD Toolbox
   \\    /   O peration     | Website:  https://openfoam.org
    \\  /    A nd           | Version:  8
     \\/     M anipulation  |
\*---------------------------------------------------------------------------*/
FoamFile
{
    version     2.0;
    format      ascii;
    class       volScalarField;
    location    "0.3/wallFilmRegion";
    object      alpha;
}
// * * * * * * * * * * * * * * * * * * * * * * * * * * * * * * * * * * * * * //

dimensions      [0 0 0 0 0 0 0];

internalField   nonuniform List<scalar> 
1342
(
0.03816562216
5.656218049
0.243540835
0.04246757635
0.06171072549
0.2597551433
2.402341999
3.284217738e-11
4.451094205e-10
5.813434546e-09
2.521870705e-07
1.804794521e-06
2.682711421e-05
0.0268857913
0.02597623598
0.03106994885
0.02077860478
0.0210420259
0.002632053372
0.003133525013
0.003538516978
0.007223851371
0.006644594768
0.003953291573
0.003105426925
3.26575468e-10
4.437656862e-09
5.687416155e-08
1.834115124e-06
1.294202889e-05
0.0001659783946
0.008018834985
0.01149270854
0.03258377035
0.01407552838
0.007315280669
0.005550664583
0.00252955649
0.00303846079
0.01006654133
0.02264845412
0.01696380231
0.008818358237
9.036946046e-07
2.27337022e-05
0.0001597907924
0.001746356146
0.01487544853
0.02932400148
0.05088114757
0.03415675097
7.110352963e-11
2.914275028e-09
1.373386443e-08
2.094072854e-07
0.006337963746
0.02114438443
0.06001375004
0.03513344249
0.007632913011
0.01193015563
0.01857851168
0.01922239494
0.04008470219
9.74351374e-10
2.712833569e-08
1.327119205e-07
2.2047236e-06
0.02034652573
0.04657352471
0.0639853534
0.05506735159
0.03014505086
0.01889091567
0.04147869101
0.04754923667
3.481414564e-08
5.192789332e-07
1.930201716e-06
2.834273334e-05
0.04736979934
0.04141197187
0.05009794911
0.05701056623
0.04829168832
0.03935010083
0.03766051121
0.03396435395
0.04877130745
0.05084786223
0.1246171126
0.09388281702
0.05442568553
0.03248803441
0.0190718786
0.02600605809
0.040258274
0.04876408192
0.003597061522
0.1598015721
0.004136562205
0.003708013631
0.003600068379
0.004074610748
5.2197139
0.08053362203
0.005184002489
0.004047562356
0.04026987045
0.004860574367
0.006994809023
0.01404670489
0.01244461928
0.0104916044
0.006065207136
0.009100115959
0.007306531423
0.00686895715
0.005640281257
0.004796833833
0.008230990258
0.004880681015
0.005858829236
0.009774257416
0.009154562027
0.01756269163
0.01410883481
0.02805946978
0.02080326873
0.1334694609
0.01850967955
0.02422346875
0.1929942724
0.01799794403
0.01419902605
0.1082272689
0.01140535491
0.00758970106
0.456193477
0.02609962574
0.0828242905
0.02345550806
0.05775106099
0.03614946248
0.0002107347567
0.003741964654
2.349720707e-06
0.0002223960924
2.284622474e-10
4.291195754e-10
0.0004973547999
1.148603027e-09
1.205805624e-08
0.00181238004
9.08233762e-08
9.530220886e-07
0.001506011899
9.64270066e-07
3.837531509e-07
0.0001429481584
2.419309081e-08
6.910190014e-11
0.0005827095017
1.041988e-09
1.877741562e-09
0.003705502443
4.70605417e-14
0.0001611377059
0.001853846056
1.543739417e-06
5.949659317e-05
0.009855014686
0.002297521005
0.0003755570268
0.1140834802
0.01230646547
0.01915592526
0.8084281974
0.05264544642
0.4393215903
0.02186208675
0.02578095647
0.001223894833
2.178435287e-09
2.603530456e-08
2.555097959e-22
3.484062692e-21
2.726405633e-33
1.909091812e-32
1.479195496e-19
1.793330274e-31
3.111727163e-30
2.153709381e-16
2.413835095e-29
3.896364944e-27
1.065814931e-19
2.317831957e-28
2.435105097e-30
8.574415364e-23
1.441570581e-31
5.970099919e-36
8.670897839e-29
1.799571152e-41
2.01073908e-41
4.677193596e-10
1.955235147e-41
1.078276732e-21
7.82199541e-19
3.668211223e-31
1.618384603e-30
1.147862168e-06
1.083859662e-18
3.114920201e-19
0.002044585757
6.734637246e-05
0.0001159635517
0.3842447463
0.00261492769
0.3917570751
1.9245491e-08
1.867477483e-09
4.15495271e-21
1.928648666e-35
5.005680188e-34
2.737855052e-48
3.104854936e-44
6.540558697e-57
8.55035119e-56
9.008837002e-42
1.617889924e-54
3.41866542e-53
8.137784289e-39
2.751809684e-52
2.287076263e-50
6.704642915e-42
1.299629752e-51
2.160686474e-53
1.030012533e-48
1.301580144e-55
1.10547451e-60
7.596157575e-53
4.363586567e-64
4.558507498e-64
4.731361252e-33
3.469802765e-64
3.142930748e-45
9.862501048e-43
2.952203438e-54
2.829198811e-54
2.110273235e-30
8.408554949e-42
2.351919671e-42
3.582248193e-08
3.864452001e-28
3.149189192e-20
0.2934698253
0.0005762454199
0.2435889253
0.3843386802
0.5218065841
0.07444687332
5.550033522e-33
1.619140975e-19
3.889265442e-30
4.348770839e-61
2.32992587e-59
1.033924438e-73
2.277142482e-67
1.838728303e-77
4.625606909e-76
1.096978503e-64
2.741002084e-77
3.375982447e-76
5.547940651e-62
2.572317279e-75
1.300855249e-73
5.3372003e-65
7.264422565e-75
1.364135708e-76
9.031321279e-73
1.593155984e-77
1.369799655e-72
1.915568196e-75
1.267759415e-71
1.115060592e-69
6.063269486e-57
2.111246709e-64
5.894748314e-60
7.131858384e-66
2.279560086e-57
2.123075587e-56
1.385546407e-45
9.231396419e-33
6.048882212e-33
1.019781424e-11
3.093147426e-07
2.538029515e-05
0.0007739735337
0.0003814773901
0.002063489425
0.9558996454
0.004125102348
0.3124996846
1.366200623e-28
2.904166997e-15
3.251900757e-26
1.860482678e-60
2.28043975e-47
3.660159239e-46
3.983278247e-58
5.510840417e-45
6.417261247e-45
1.233315518e-59
2.848844589e-45
1.931629693e-46
6.644771762e-64
8.083381818e-53
4.209901952e-52
1.631180596e-59
1.619165002e-53
1.614957247e-46
4.194872257e-57
5.399597206e-46
1.464205859e-44
2.941842639e-50
7.854640312e-42
3.714388754e-34
3.615001395e-45
6.644374864e-33
1.977343303e-32
2.667368248e-43
1.319064061e-31
6.675693881e-31
7.110637574e-21
4.591834604e-06
5.910282635e-06
0.0003039254851
0.0004312842718
0.002991860067
0.008021215752
0.01331279847
0.03723595916
4.507396564e-05
9.973401057e-05
2.803747201e-25
1.978540602e-07
1.434775346e-06
2.136849829e-32
5.465095847e-06
1.430097583e-05
3.145355119e-22
2.759528226e-05
7.427785344e-06
4.024916718e-25
1.430367963e-06
1.312405891e-07
2.240875469e-40
1.012842969e-06
1.926154761e-16
3.035567635e-33
1.170555667e-07
8.806675314e-07
3.094560054e-32
3.679600755e-08
3.746715446e-16
5.030498061e-22
2.064007099e-06
2.181641092e-05
6.566014767e-09
0.0004183820491
0.0006905990029
1.382416933e-19
0.0006048806552
1.341451483e-05
0.0001942665164
0.0007812569589
0.001858228881
0.01663057752
0.0106422485
0.0659552411
0.1698980765
0.3024174818
0.9781619615
0.0008200383152
0.04137251511
0.00330455882
0.04534617269
0.03752024314
0.005395359626
0.0285902365
0.0212347158
0.003748015015
0.01651097507
0.01440717414
0.001541885199
0.01396399082
0.01141933043
0.0007652418948
0.01763965771
0.0113713534
0.002357973027
0.005151018625
0.007852843367
0.00115355107
0.01297855861
0.01504649308
0.004885688002
0.01051683987
0.00854665762
0.01172685385
0.01118482097
0.01260352378
0.001299605631
0.01020415092
0.01107146587
0.01268578656
0.04605454385
0.07678911831
1.757044088e-14
9.476951845e-14
3.690841513e-12
8.536864696e-13
1.790127763e-11
2.345251255e-11
5.888040459e-11
1.121921795e-10
6.072474587e-11
1.886879547e-10
3.04199221e-10
0.00452542714
2.500144452e-09
0.004278051164
0.007100964544
0.006331095821
0.006549379143
0.01861450428
0.006740721639
0.03267720335
0.009018811618
0.02333164974
0.01422358241
0.004957260501
0.008821009358
0.006133392912
0.003224928742
0.002609680054
0.002226908009
0.002010793817
0.002696700162
0.002745568791
4.201984143e-13
6.905179203e-11
4.620690942e-10
1.366939349e-09
0.004049667281
0.006323360571
0.04842227007
0.02297440995
1.555456243e-12
1.537754667e-11
5.205747196e-09
4.403551585e-08
0.003926493239
0.005666901897
0.03330008297
0.008845629713
0.02108983559
0.01344196471
0.003992571443
0.008353873348
0.002578458216
0.004483871112
0.003506340009
7.184112947e-12
8.084430253e-10
6.954306685e-09
7.435875378e-09
1.852288822e-08
2.376480925e-08
3.706826501e-08
0.004318922921
0.01090237853
0.009134736662
0.01905136252
0.07308282255
0.03242742529
0.07328492951
0.04805387671
0.02189749042
0.009409436265
0.02072270312
0.005952152871
0.01147119705
0.009790658737
0.01508971884
1.028913613e-10
2.529158811e-07
2.271682459e-07
4.806926726e-07
0.03902016792
0.05229097853
0.0685137404
0.04880274977
0.05673473474
0.06070160006
0.05856449808
0.04321932231
0.04657025761
0.03107297922
6.784581665e-07
3.33595492e-06
0.04330568638
0.05198130108
0.04343378139
0.09979515433
2.121208389e-10
0.1429333929
5.430699035e-10
0.1311001557
5.501307967e-10
0.1091239119
1.195186395e-09
0.3668083627
0.0245928044
0.9586123646
0.02491968371
2.161754265
0.02191003785
2.175647129
0.01800416901
0.02135642333
2.373372842
0.02030822855
0.03604021342
0.007114520381
0.008211619795
0.00723768049
0.008998506109
0.01073473082
0.04826541749
0.204457818
0.1403655498
0.2183564602
1.621250932
0.197917619
3.859162037
0.09991014763
0.03872422302
0.002317899812
0.0002105375559
0.0002644925329
0.0009251352136
0.00187540746
0.0007269178004
0.0004611283564
0.0001310631276
0.004232454426
0.003252775634
0.08950695883
0.1821775109
0.3222509374
0.8545982477
4.576542468
0.06982881389
0.0005757716588
1.179396276e-21
1.51256211e-20
9.337702077e-19
1.256915078e-17
3.41014681e-20
2.026228359e-22
3.166926904e-30
3.575957775e-20
1.440722573e-07
0.001460109297
0.01120373443
0.9531849622
0.0005944317838
2.644290669e-21
3.281119691e-45
4.446388296e-43
7.403667083e-41
4.818094828e-40
9.227341496e-44
7.318806595e-53
6.176637985e-53
7.658217282e-43
7.46404224e-30
3.391085926e-17
0.0009853977067
0.6340669702
1.506939585e-21
9.911361263e-47
1.307581088e-68
5.210373078e-66
8.610824966e-64
3.065501177e-63
1.662173317e-67
1.811500877e-75
1.477126075e-75
9.99295273e-66
1.341188883e-53
4.378588551e-19
0.0002027348056
0.003084884732
5.706808777e-18
1.379262098e-54
1.629495653e-58
1.543577951e-58
1.118873743e-64
2.520404389e-65
5.117641569e-59
8.368842209e-57
1.167104294e-46
5.708726851e-44
3.589506676e-21
0.0007156979366
0.002412913662
0.008758518399
3.166784025e-13
7.290613328e-33
1.111299203e-22
9.090533125e-23
1.71280008e-36
8.281111218e-42
7.547988376e-33
9.254095071e-23
7.030153086e-10
4.480553839e-09
0.001728684386
0.00208258744
0.07681584823
1.416019203
0.006112883317
0.002019909497
0.004476400012
0.005581853727
0.002559624729
0.002462422103
0.001327961588
0.001256426064
0.002920513639
0.01086333968
0.0110451467
0.00549479145
0.05720566551
0.3070872048
0.03207742763
0.02593856962
0.02046345596
0.02358472458
0.01563023563
0.1872100052
0.0147248167
0.0001512409703
0.03764222532
0.0432020343
0.3541744431
0.01948039251
0.8048592712
3.681228134e-15
1.471355177e-13
1.266866735e-11
3.814318527e-11
5.83936564e-10
0.006871445569
0.006737336122
0.01363943906
0.006387128593
0.004076090876
0.003271402762
0.004491595899
0.002108544563
0.002069109545
0.00220979369
0.002323636885
0.003454975103
0.004292293602
4.005330334e-12
2.268433254e-10
7.315815427e-10
8.242826249e-10
3.054731448e-09
1.122655602e-08
0.005877580972
0.007745835481
0.01069686642
0.03606591324
0.04723038722
0.01369054787
0.008988853206
0.007365120487
0.00663914905
0.01725793547
0.01341664172
0.00985265603
0.006123785732
0.01768806383
0.01993023103
0.03554695776
1.784047099e-05
6.271790352e-05
0.0003663140406
0.002567111563
0.00851866258
0.02190028821
0.04463963228
0.04908910404
0.04205288809
0.05311113255
0.05030865575
0.05438602747
0.02628905242
0.01702023892
0.02264180564
0.05189401676
0.04708224795
0.05646737132
0.006414076838
0.03706839786
0.07025408693
0.04252171568
0.03423294925
0.03746712261
0.05501440186
0.05698759951
1.279027112e-06
1.005758549e-05
2.583876182e-05
6.834170301e-05
0.0002585852124
0.04390212494
0.03724988457
0.02747916857
0.0343184574
0.04504885741
5.580693331e-05
0.0002007410089
0.0003281374344
0.002020894605
0.02722032664
0.01845374364
0.02316086147
0.03353763917
0.03979730182
0.007174925073
0.007220540115
0.005706598682
0.0210199175
0.01809032819
0.01015609357
0.01292447868
0.02101539637
0.02798905588
0.2144784737
0.1858239556
0.09061983605
0.04607077591
0.02401252003
0.01200480498
0.01612785846
0.02722802291
0.03641298506
0.0500148255
5.96780341e-11
0.2485914314
3.354083941e-15
0.1492022008
4.702102299e-10
0.1021982913
0.02341722668
2.258684976e-14
6.531450033e-13
0.133328666
5.476426773e-10
0.03209050912
0.04082498031
2.424239071e-12
4.561169271e-12
0.1242716971
5.351859383e-10
0.0431743804
0.04318772811
7.441406697e-12
1.196578206e-11
0.2244554745
0.01505685582
0.04194053938
0.04265009245
2.176053943e-10
0.004727235695
0.5335852914
0.02658041639
0.04484777458
0.05846637996
0.007328997348
0.007653938729
1.659673195
0.02512795612
0.1817622025
0.4919365202
0.007102562335
0.01122224911
2.223635103
0.0190320171
0.7068636083
0.699101494
0.009007665614
0.006834881153
2.205964351
0.01845308824
0.5757390448
0.5561053975
0.005519597714
0.004733073869
1.061179529
1.822379925
0.004310458343
5.354329299
1.576889402
0.4312777527
0.4725589866
0.412719501
3.194437523
0.003662774304
3.038795278
0.004763365431
0.01103375005
0.1338817519
0.6824074424
0.8147571069
4.182094738
0.01675545577
0.008634054662
1.033969525
0.5423617636
0.1163124716
0.1530716591
1.925958794
0.00602930656
0.006985008419
0.007506618438
0.1821248492
3.593362375
0.007234796917
0.2074237036
0.3029746695
0.02650769115
0.7973505186
0.9631250794
5.715777641
6.424806727
0.006436538457
0.005410872383
0.004575943526
0.03036422698
0.06105050713
8.795893398e-12
2.243219324e-11
0.02925332576
0.04754492249
0.03191980184
1.215088974e-10
8.413668885e-11
3.110400806e-10
0.02274716526
0.02149469591
0.01319859807
1.612861744e-09
1.13496726e-09
4.084686344e-09
0.02007783946
0.006947306355
0.002565998138
2.345439842e-08
1.455871042e-08
5.843836786e-08
0.01983494554
0.002432153077
0.006205497033
6.903490596e-07
5.37013127e-07
1.464565604e-06
0.03317140009
0.01161855585
0.03141990577
4.572335391e-06
3.785301935e-06
9.51637315e-06
0.06166919086
0.1790216359
0.4772059146
0.01849029456
5.182207147e-05
0.005578648968
0.02131938751
0.7367649051
0.8741561168
0.0275886163
0.007838614995
0.008234725617
0.02419636178
0.939058488
0.9037036931
0.03831484034
0.008745625884
0.02782094232
0.04156496887
0.8413815569
0.7818927667
0.02408588402
0.02066638432
0.01351295598
0.08064559402
0.7901446177
0.8857943174
0.02032545379
0.009144756988
0.006862816086
0.02307861952
0.5066236619
1.156037291
0.004737514423
0.005704529968
0.003146343833
0.003889761505
0.002207495855
0.002016664388
0.002186654693
0.00217342999
0.002717002335
0.002763058289
0.00339122059
0.005188810297
0.003498333452
0.004299728306
0.0058630648
0.007646450726
0.01128313377
0.01373381134
0.01993281843
0.006320409827
0.005236347083
0.01058278116
0.009479044199
0.00501276898
0.004377036238
0.006553622675
0.003270371798
0.004108037906
0.003895731307
0.004566125578
8.644665554e-11
1.212636935e-09
1.599033858e-08
6.451570177e-08
2.280713063e-07
2.303220684e-07
9.275326851e-07
5.020863613e-06
6.523562193e-06
1.789312221e-05
3.258588978e-05
4.594857598e-05
0.0001160443343
0.005780202471
0.0005462768332
0.007043732603
0.009173025616
0.009550157475
0.01287118092
0.04226085198
0.01847195647
0.05371083591
0.02194229248
0.04433733544
0.03370186864
0.009615535467
0.02302067192
0.01532260949
0.005841324464
0.0111263085
0.007335729629
0.004686191061
0.005515960953
2.170329128e-10
1.612711113e-09
0.006875963491
0.06044411185
0.003167337001
0.006066795779
0.003992370546
0.004105153244
0.004435954244
0.006415842596
0.005447296374
0.003613666298
0.005480160476
0.008160929362
0.008682974382
0.01494489988
0.01311323365
0.01836162827
0.02251257246
0.02937302253
0.03623959883
0.02929252304
0.02906723323
0.01509939988
0.02516953
0.0224833751
0.01417657081
0.01204802816
0.01870229909
0.0127051232
0.00656778971
0.006876792039
0.01146230087
0.01025139204
8.929896033e-07
2.507464748e-07
3.673872168e-06
3.271308046e-06
1.348653516e-05
7.405862634e-05
0.0002033672234
6.245153497e-05
0.0005186040647
0.001329376797
0.0004060234282
0.01163371314
0.005161009422
0.02330747063
0.0257388284
0.03418115599
0.02196976553
0.05550726385
0.05736688011
0.03771223034
0.05306602957
0.04391113331
0.05002531296
0.02507750256
0.0441780446
0.03751066696
0.01155901134
0.02806791865
0.01994638644
0.01622647793
2.141634668e-11
2.082282337e-10
1.979612716e-09
6.410691838e-08
5.885015658e-07
0.006255068248
0.06266054902
0.05422464541
0.04431515809
0.0308527796
7.507096011e-09
6.699849735e-08
0.01701281485
0.03880448344
0.01605081454
0.02605313295
0.01540015874
0.009473673322
0.006797348628
0.01280006197
0.0150285317
0.02801677426
0.02522508914
0.03150851397
0.03345054454
0.04947110857
0.05287744672
0.0457179574
0.03265880232
0.04118905019
0.04246190219
0.04501906572
0.02742638958
0.0310636222
0.0003427966757
0.0002733242817
0.001567812001
0.001208508126
0.00330346982
0.04036786991
0.06666796336
0.04992825758
0.07648710484
0.04890008842
0.04531368594
0.0414101303
0.03915992836
0.04410575164
0.04496307849
0.05180004545
0.05638908351
0.05673721174
0.02613884272
0.0287103827
0.04458176101
0.04946732754
0.02014076035
0.03277482064
0.03790444173
4.734342039e-06
1.591383832e-05
7.527016523e-05
0.001005319053
0.006687636799
0.0207412475
0.05500259059
0.06575981698
0.04610133026
0.04918353991
0.05507620971
0.05440300362
0.04893505364
0.05468787592
5.709459065e-10
5.302156492e-09
3.337773513e-08
1.088010054e-07
7.984480985e-07
7.962837723e-06
0.05543882607
0.05998394952
0.05918080322
0.05147641495
0.04402334764
3.832911453e-09
1.799517533e-08
1.809043603e-07
1.552921341e-07
1.095622244e-06
1.732573649e-06
3.02048871e-06
5.456041053e-06
8.037702727e-06
0.1316440449
0.1849041848
0.04946743206
0.04430134966
0.03572803342
0.03754812345
0.05464838501
0.04420681758
0.04953111588
0.05541357478
0.0527500379
0.03525810045
0.04984316659
0.03018018955
0.04497043173
0.0231010869
0.01430471352
0.04505486206
0.02507479958
0.03896259881
0.01849617567
0.02562079538
0.0268834319
0.03595785308
0.03657894237
0.03210650403
0.03510667975
0.03477770004
0.04658435086
0.05225371944
0.04776974602
0.05274760175
0.04931162646
0.0520867642
0.05138755516
0.002544919286
0.002008462502
0.01599909675
0.01018595548
0.05917842409
0.1059739441
0.1139704655
0.07181587546
0.08951725336
0.09958348773
0.07810522557
0.05956099606
0.05413519225
0.04605053023
0.02507785089
0.03626350532
0.02857701968
0.0175215449
0.02781126252
0.02220726228
0.02792945366
0.02101345301
0.03027157299
0.038524726
0.05195899182
0.04534368762
0.05014285622
0.05410220546
0.05464316407
0.05347718169
0.05103087815
0.05202022211
0.05359628829
8.044480224e-05
0.0004034888173
0.01735416592
0.07159378408
0.08561847165
0.06393318638
0.03459623093
0.03615906586
0.0455006325
0.05798860683
0.05521482461
1.642968182e-07
1.150851332e-06
4.546571788e-06
7.655323415e-06
2.208527127e-05
1.732411921e-05
4.210040942e-05
6.46908648e-05
3.523196998e-05
8.799902802e-05
0.000111253072
0.2834856791
0.0007011548677
0.3397522853
0.0344560021
0.03196440237
0.02926120698
0.02688202201
0.02299830819
0.02182355747
0.04065293089
0.02893420841
0.03511354356
0.04770742069
0.03975259126
0.04309702158
0.04478340463
1.053007737e-05
0.0001352702646
0.0001261051222
0.0005153905869
0.0008607559907
0.000268924522
0.001090818115
0.001232916083
0.0003805061066
0.001319805132
0.001385079848
0.3957698811
0.006253810587
0.4206524312
0.024222082
0.02262212559
0.01923103033
0.01670837404
0.0141110347
0.01218328307
0.02892318074
0.01774097105
0.02282378151
0.03713289499
0.02712796934
0.03086305052
0.0409069643
0.0339809837
0.03583211484
0.03688681175
0.002858522648
0.29532097
0.008031073014
0.5113650975
0.3761772429
0.006381157893
0.2000453644
0.1208953438
0.005141321701
0.08430155923
0.05999544191
0.336400652
0.04125350463
0.02698831772
0.01440787592
0.01875806536
0.0127633447
0.008383629636
0.008535484761
0.006686752481
0.01718174356
0.01129879793
0.01582290925
0.02465017489
0.020187827
0.02461557734
0.03020221794
0.02930097244
0.03291076755
0.04300132762
0.0435149792
0.1465533082
0.06342564534
0.01318972166
0.2256056113
0.1297322047
0.1650856706
0.1032092643
0.1335379459
0.1603643513
0.1306941894
0.1153446138
0.06405326982
0.09459062374
0.06790354324
0.03324182034
0.04948913677
0.03656376882
0.04184490667
0.01710798914
0.02704676672
0.01978446423
0.009976438877
0.01424466335
0.01219091866
0.02199657639
0.01927491222
0.02598855226
0.03369947301
0.03257913434
0.03183179581
0.03657587408
0.04342097792
0.04533807186
)
;

boundaryField
{
    walls
    {
        type            zeroGradient;
    }
    wallFilmFace_top
    {
        type            zeroGradient;
    }
    region0_to_wallFilmRegion_wallFilmFace
    {
        type            zeroGradient;
    }
    mirrorFace_top
    {
        type            zeroGradient;
    }
    region0_to_wallFilmRegion_mirrorFace
    {
        type            zeroGradient;
    }
    procBoundary3to2
    {
        type            processor;
        value           nonuniform List<scalar> 
64
(
2.570871035e-12
2.512986035e-11
1.292898126e-09
1.77945549e-08
6.837429717e-08
1.697756728e-12
2.701346668e-11
8.534301443e-10
0.002437110433
0.0470192156
0.02315966905
0.01292997174
0.01292997174
0.03448883331
0.03968914827
0.05467788842
0.05442149896
0.008064395011
2.551394089e-05
4.157491262e-10
1.576036592e-07
2.354834438e-06
1.172933569e-05
1.172933569e-05
0.002927615632
0.004011987887
0.004011987887
1.801835245e-05
0.02859520501
0.02859520501
1.620400472e-15
1.941966883e-14
1.941966883e-14
8.787024125e-14
3.378622075e-13
0.03122021015
2.361779005e-11
0.2306598376
0.06144514912
1.35491273e-15
1.23545595e-06
3.481737067e-09
2.598659741e-08
9.976575126e-07
0.0001342370251
0.07043065647
0.2306598376
1.35491273e-15
0.4182773963
6.557136698e-12
3.400211626e-10
4.831040099e-09
1.77945549e-08
2.395015802e-07
5.441581604e-12
4.000553343e-06
1.905601342e-05
1.427301489e-10
8.657783181e-05
0.0004518796912
1.436761557e-07
9.262316763e-06
0.006221704917
0.01778135384
)
;
    }
}


// ************************************************************************* //
