/*--------------------------------*- C++ -*----------------------------------*\
  =========                 |
  \\      /  F ield         | OpenFOAM: The Open Source CFD Toolbox
   \\    /   O peration     | Website:  https://openfoam.org
    \\  /    A nd           | Version:  8
     \\/     M anipulation  |
\*---------------------------------------------------------------------------*/
FoamFile
{
    version     2.0;
    format      ascii;
    class       volScalarField;
    location    "0.3/wallFilmRegion";
    object      delta;
}
// * * * * * * * * * * * * * * * * * * * * * * * * * * * * * * * * * * * * * //

dimensions      [0 1 0 0 0 0 0];

internalField   nonuniform List<scalar> 
1342
(
3.161342496e-05
0.004694035338
0.0001882642464
3.282879394e-05
4.765257533e-05
0.0002029157722
0.001988440619
2.565636538e-14
3.475974565e-13
4.539706818e-12
1.969325263e-10
1.409371801e-09
2.094964989e-08
2.099542115e-05
2.028478543e-05
2.424507549e-05
1.605070591e-05
1.746217323e-05
2.572875739e-06
3.066800177e-06
3.470128414e-06
7.08193699e-06
6.518526022e-06
3.873864797e-06
3.032665303e-06
3.238862754e-13
4.400661534e-12
5.640523697e-11
1.818685993e-09
1.28361921e-08
1.646245109e-07
7.953222182e-06
1.139808303e-05
3.229979335e-05
1.381522962e-05
7.162962956e-06
5.4345954e-06
2.472216701e-06
2.969211882e-06
9.837110196e-06
2.215728286e-05
1.655553987e-05
8.632733176e-06
8.920738479e-10
2.244250896e-08
1.577382288e-07
1.723641298e-06
1.468218772e-05
2.893555574e-05
5.02020731e-05
3.334525233e-05
6.999885457e-14
2.869519524e-12
1.352552262e-11
2.062206869e-10
6.241486211e-06
2.082201225e-05
5.907908029e-05
3.424992525e-05
7.460614738e-06
1.164886429e-05
1.815917608e-05
1.877683389e-05
3.924978863e-05
9.620833698e-13
2.678741387e-11
1.310458737e-10
2.176479021e-09
2.008920019e-05
4.598216992e-05
6.315186892e-05
5.382704728e-05
2.944772081e-05
1.845937297e-05
4.050460537e-05
4.645977e-05
3.42876682e-11
5.114041984e-10
1.901148472e-09
2.790786538e-08
4.665311677e-05
4.07731083e-05
4.930120106e-05
5.555359484e-05
4.719694003e-05
3.836359772e-05
3.684692635e-05
3.329003957e-05
4.769907034e-05
5.036354161e-05
0.0001234475471
9.300034929e-05
5.391588495e-05
3.217932046e-05
1.888876111e-05
2.574340979e-05
3.946491977e-05
4.769312787e-05
3.557434965e-06
0.0001171464001
4.066753745e-06
3.667997215e-06
3.558051377e-06
4.027492471e-06
0.003818704331
6.223863775e-05
5.114758732e-06
3.991653605e-06
3.113288413e-05
4.793523352e-06
6.900621993e-06
1.404670445e-05
1.244461741e-05
1.049160383e-05
6.065206055e-06
9.100116542e-06
7.306531497e-06
6.868956282e-06
5.640281251e-06
4.796833903e-06
8.230989831e-06
4.880682012e-06
5.858830208e-06
9.774256753e-06
9.154563732e-06
1.756269341e-05
1.410883492e-05
2.805946861e-05
2.080326979e-05
0.0001334694736
1.850967668e-05
2.422346558e-05
0.000192994178
1.799794199e-05
1.419902418e-05
0.0001082266507
1.140534763e-05
7.589660702e-06
0.0004562023197
2.609949524e-05
8.282391528e-05
2.3455508e-05
5.775106608e-05
3.614945993e-05
2.107347345e-07
3.741964637e-06
2.349720638e-09
2.22396124e-07
2.284622044e-13
4.291195781e-13
4.973547574e-07
1.148602813e-12
1.205805501e-11
1.812380038e-06
9.082337926e-11
9.530220011e-10
1.506011941e-06
9.642699573e-10
3.837531177e-10
1.429481718e-07
2.419308972e-11
6.910189804e-14
5.827094518e-07
1.041988045e-12
1.877741479e-12
3.70550218e-06
4.706053755e-17
1.611377142e-07
1.853845149e-06
1.54373932e-09
5.949659616e-08
9.855011286e-06
2.297521105e-06
3.75557041e-07
0.0001140834532
1.230646452e-05
1.915591834e-05
0.0007793242526
5.264544556e-05
0.0004393215137
2.186208354e-05
2.578095727e-05
1.223894801e-06
2.178435539e-12
2.603530198e-11
2.555097857e-25
3.484062402e-24
2.72640546e-36
1.909091723e-35
1.479195527e-22
1.793330163e-34
3.111727449e-33
2.15370908e-19
2.413835271e-32
3.896364611e-30
1.065814829e-22
2.317831922e-31
2.435105156e-33
8.574414868e-26
1.44157049e-34
5.97009956e-39
8.670898107e-32
1.799571342e-44
2.010739087e-44
4.677193352e-13
1.955234533e-44
1.078276616e-24
7.821995264e-22
3.66821166e-34
1.618384528e-33
1.147862111e-09
1.083859476e-21
3.114919827e-22
2.04458547e-06
6.734637019e-08
1.159635567e-07
0.0003842447625
2.614928077e-06
0.0003917570824
1.924549186e-11
1.867477264e-12
4.154953164e-24
1.92864835e-38
5.005680463e-37
2.73785479e-51
3.104855435e-47
6.540558366e-60
8.550350618e-59
9.008836476e-45
1.617889644e-57
3.418664787e-56
8.137785297e-42
2.751809248e-55
2.287075967e-53
6.704642791e-45
1.299629553e-54
2.160686519e-56
1.030012343e-51
1.301580024e-58
1.105474392e-63
7.596157197e-56
4.363587581e-67
4.558508044e-67
4.731361828e-36
3.469802738e-67
3.142931365e-48
9.862501291e-46
2.952203075e-57
2.829198026e-57
2.110273048e-33
8.408554466e-45
2.351919433e-45
3.582248399e-11
3.864451361e-31
3.149188973e-23
0.0002934697818
5.762454244e-07
0.0002435888778
0.0002996231312
0.0005218065647
5.837056217e-05
5.550035043e-36
1.619140721e-22
3.889265749e-33
4.348770176e-64
2.329925817e-62
1.03392446e-76
2.277142242e-70
1.838728439e-80
4.625606995e-79
1.096978394e-67
2.74100255e-80
3.375982656e-79
5.547939998e-65
2.572317207e-78
1.300855257e-76
5.337200889e-68
7.264422736e-78
1.364135722e-79
9.031319897e-76
1.593156e-80
1.369799694e-75
1.915568054e-78
1.267759366e-74
1.11506049e-72
6.063269211e-60
2.111246381e-67
5.894748046e-63
7.131856565e-69
2.279560223e-60
2.123075652e-59
1.385546588e-48
9.23139767e-36
6.048882942e-36
1.019781431e-14
3.093147304e-10
2.538029363e-08
7.739734639e-07
3.814773916e-07
2.06348944e-06
0.0007496935537
4.125102768e-06
0.0002436088884
1.366200645e-31
2.904167056e-18
3.251900647e-29
1.860482873e-63
2.280439328e-50
3.660158433e-49
3.98327825e-61
5.510839602e-48
6.417261368e-48
1.23331552e-62
2.848843968e-48
1.93162932e-49
6.644771819e-67
8.083381014e-56
4.209901948e-55
1.631180527e-62
1.619165123e-56
1.614957292e-49
4.194872547e-60
5.399597398e-49
1.464205557e-47
2.941843034e-53
7.85463841e-45
3.714388491e-37
3.615001957e-48
6.644374268e-36
1.977343248e-35
2.667368103e-46
1.319063987e-34
6.675693207e-34
7.110637889e-24
4.591833727e-09
5.910282007e-09
3.039254138e-07
4.312842795e-07
2.991860113e-06
8.021215096e-06
1.331279964e-05
3.723595651e-05
4.507396156e-08
9.973401327e-08
2.803747041e-28
1.978540964e-10
1.43477551e-09
2.136849402e-35
5.465095877e-09
1.430097463e-08
3.145355509e-25
2.759527897e-08
7.427785537e-09
4.024916703e-28
1.430367986e-09
1.312405939e-10
2.24087525e-43
1.012843061e-09
1.926154767e-19
3.035567344e-36
1.170555525e-10
8.806674592e-10
3.094559603e-35
3.679600401e-11
3.746715655e-19
5.030498259e-25
2.064007366e-09
2.181641209e-08
6.566014378e-12
4.183820528e-07
6.905990286e-07
1.3824169e-22
6.048806144e-07
1.34145106e-08
1.942664835e-07
7.812567418e-07
1.858227998e-06
1.663057792e-05
1.064224379e-05
6.595523115e-05
0.0001698980295
0.0003024174301
0.0009429651988
8.200382684e-07
4.137250895e-05
3.304558602e-06
4.534616397e-05
3.752023192e-05
5.395359255e-06
2.859023846e-05
2.123471641e-05
3.748015562e-06
1.651097408e-05
1.440717632e-05
1.541884996e-06
1.396399009e-05
1.141932919e-05
7.652418776e-07
1.763965925e-05
1.137135354e-05
2.35797309e-06
5.151017937e-06
7.852842997e-06
1.153551251e-06
1.297855776e-05
1.504649191e-05
4.885687568e-06
1.051683949e-05
8.546658433e-06
1.172685184e-05
1.118481978e-05
1.260352327e-05
1.299599178e-06
1.020414545e-05
1.107141457e-05
1.268573238e-05
4.605518238e-05
7.679068e-05
1.742908924e-17
9.373188691e-17
3.661435479e-15
8.44538832e-16
1.770786398e-14
2.326516369e-14
5.824762576e-14
1.109889629e-13
6.024154148e-14
1.866391117e-13
3.008793826e-13
4.488530903e-06
2.472407899e-12
4.230728408e-06
7.042780582e-06
6.261854858e-06
6.477875525e-06
1.846602315e-05
6.666835819e-06
3.232165511e-05
8.89417271e-06
2.306497636e-05
1.398215297e-05
4.866996225e-06
8.630433452e-06
5.99329559e-06
3.158036484e-06
2.543317352e-06
2.176214588e-06
1.964474208e-06
2.650644322e-06
2.682819893e-06
4.145980469e-16
6.813492555e-14
4.558617204e-13
1.348583607e-12
3.99564886e-06
6.239610054e-06
4.779009877e-05
2.254313709e-05
1.540302671e-15
1.522943863e-14
5.155744674e-12
4.361201189e-11
3.889265757e-06
5.611354987e-06
3.28014622e-05
8.6420686e-06
2.062824625e-05
1.316335761e-05
3.898393569e-06
8.156308953e-06
2.517750408e-06
4.383437471e-06
3.425507006e-06
7.072498257e-15
7.96010236e-13
6.847461835e-12
7.354302253e-12
1.831634601e-11
2.340031953e-11
3.665687866e-11
4.254105246e-06
1.073640723e-05
9.032937639e-06
1.884396234e-05
7.197015618e-05
3.206894272e-05
7.247139261e-05
4.706708577e-05
2.135388614e-05
9.200460598e-06
2.025203556e-05
5.822506224e-06
1.121118337e-05
9.56526283e-06
1.476341812e-05
1.015945596e-13
2.50066211e-10
2.243098449e-10
4.753225401e-10
3.858969258e-05
5.171673382e-05
6.764602399e-05
4.826837729e-05
5.611773775e-05
5.959395338e-05
5.790059233e-05
4.227173793e-05
4.557513061e-05
3.040900048e-05
6.720091666e-10
3.30443534e-09
4.288325483e-05
5.085900702e-05
4.245445809e-05
7.786186264e-05
1.65414664e-13
0.0001115140276
4.234902217e-13
0.000102277076
4.289947714e-13
8.51285374e-05
9.320041493e-13
0.0002861377721
1.917703298e-05
0.0007477677547
1.943149469e-05
0.001686057162
1.707237597e-05
0.001684120285
1.388577087e-05
1.565792685e-05
0.001523314478
1.683297724e-05
3.604021008e-05
7.114520463e-06
8.211618833e-06
7.237680612e-06
8.998505259e-06
1.073472929e-05
4.826541834e-05
0.0002044577888
0.0001403652097
0.0002183593648
0.001569807411
0.0001545153435
0.002601642628
8.261479866e-05
3.872422395e-05
2.317899498e-06
2.105375695e-07
2.644924719e-07
9.251353624e-07
1.875407469e-06
7.269178615e-07
4.611283172e-07
1.310631232e-07
4.232453471e-06
3.252774109e-06
8.950692549e-05
0.0001821775304
0.0002514505605
0.0007069201594
0.003006268034
6.982880903e-05
5.757716942e-07
1.179396081e-24
1.512562074e-23
9.337701874e-22
1.25691493e-20
3.41014635e-23
2.026228609e-25
3.16692637e-33
3.575957766e-23
1.440722415e-10
1.46010922e-06
1.120373605e-05
0.000922018204
5.944318327e-07
2.644290272e-24
3.281119942e-48
4.446387808e-46
7.403668003e-44
4.818095263e-43
9.227339466e-47
7.318807464e-56
6.176636479e-56
7.658217988e-46
7.464042762e-33
3.391085882e-20
9.853977293e-07
0.0006340668511
1.506939483e-24
9.911361564e-50
1.307580907e-71
5.210373499e-69
8.610822576e-67
3.065501093e-66
1.662173287e-70
1.811500841e-78
1.477125728e-78
9.992952238e-69
1.341188836e-56
4.378588408e-22
2.027348261e-07
3.084884891e-06
5.706808886e-21
1.379262092e-57
1.629495793e-61
1.543577821e-61
1.11887385e-67
2.520404167e-68
5.117642209e-62
8.368841881e-60
1.16710459e-49
5.708726954e-47
3.589506634e-24
7.156978605e-07
2.412913235e-06
8.758519413e-06
3.166783661e-16
7.290612419e-36
1.111299027e-25
9.090533274e-26
1.712800072e-39
8.281110507e-45
7.547987419e-36
9.254094929e-26
7.030152092e-13
4.48055351e-12
1.728684191e-06
2.082587646e-06
7.681584396e-05
0.001210717137
6.112882695e-06
2.019909728e-06
4.476399927e-06
5.581853167e-06
2.559624857e-06
2.462421952e-06
1.327961441e-06
1.256426125e-06
2.920513855e-06
1.086333808e-05
1.104514063e-05
5.494766245e-06
5.720531533e-05
0.0002961029857
3.207742737e-05
2.593857163e-05
2.046345304e-05
2.358471816e-05
1.563023889e-05
0.0001872099843
1.47248154e-05
1.512409636e-07
3.764223143e-05
4.320183454e-05
0.0003429629618
1.615393729e-05
0.0005491724646
3.651627118e-18
1.459690255e-16
1.256761387e-14
3.783723245e-14
5.792381795e-13
6.81510614e-06
6.682810577e-06
1.352213137e-05
6.269855394e-06
3.991492271e-06
3.209605948e-06
4.386865809e-06
2.059398128e-06
2.02757818e-06
2.159351393e-06
2.271637357e-06
3.396848044e-06
4.195435868e-06
3.952791749e-15
2.238008216e-13
7.244386997e-13
8.132190661e-13
3.025640679e-12
1.107503309e-11
5.799366275e-06
7.644044026e-06
1.059326526e-05
3.55819994e-05
4.676122104e-05
1.336634526e-05
8.779736125e-06
7.197301141e-06
6.478606252e-06
1.689275475e-05
1.311899821e-05
9.631219142e-06
5.981941425e-06
1.727753925e-05
1.948897768e-05
3.465530135e-05
1.755849849e-08
6.202736644e-08
3.605398969e-07
2.52645295e-06
8.425730911e-06
2.15596508e-05
4.396445489e-05
4.855022379e-05
4.140184504e-05
5.228584848e-05
4.973246055e-05
5.302707074e-05
2.568148372e-05
1.663089305e-05
2.213339271e-05
5.065392881e-05
4.600763016e-05
5.514681292e-05
6.334261293e-06
3.665156034e-05
6.947702199e-05
4.205900528e-05
3.379554017e-05
3.704119475e-05
5.374012461e-05
5.564575842e-05
1.262166256e-09
9.921980406e-09
2.548873991e-08
6.76765322e-08
2.551268317e-07
4.348251061e-05
3.675168469e-05
2.711964053e-05
3.384868591e-05
4.397773991e-05
5.518069341e-08
1.985084068e-07
3.244664772e-07
1.998309265e-06
2.69126536e-05
1.82478083e-05
2.288870108e-05
3.281374369e-05
3.895002831e-05
7.094163128e-06
7.139070234e-06
5.642887835e-06
2.078190644e-05
1.78874291e-05
1.00401302e-05
1.277334131e-05
2.055936484e-05
2.738108497e-05
0.0002121051879
0.00018376384
8.962291204e-05
4.556390771e-05
2.375378334e-05
1.187289878e-05
1.594166331e-05
2.664446139e-05
3.559723342e-05
3.902360842e-05
4.653827436e-14
0.0002485914286
3.344443567e-18
0.0001164073821
3.666744529e-13
0.0001021982943
2.341722254e-05
2.252234753e-17
6.512867413e-16
0.0001040181081
4.270554259e-13
3.209049887e-05
4.082497501e-05
2.417410364e-15
4.54851173e-15
9.694769316e-05
4.173393007e-13
4.317438389e-05
4.31877223e-05
7.421001498e-15
1.193366994e-14
0.0001750957183
1.174119875e-05
4.194053117e-05
4.265008966e-05
2.170308381e-13
4.714953086e-06
0.0004162285533
2.072672826e-05
4.484777359e-05
5.846637717e-05
7.310147826e-06
7.634161181e-06
0.001294646909
1.959330554e-05
0.0001817621717
0.0004919365295
7.084169066e-06
1.119359778e-05
0.001731546834
1.475934291e-05
0.0007068635954
0.0006991013709
8.979656328e-06
6.78092124e-06
0.001682659784
1.422078054e-05
0.0005757371132
0.0005560956109
5.45125077e-06
4.673148062e-06
0.001027584757
0.001568162037
4.244406113e-06
0.003646570364
0.00135317955
0.0004312750537
0.0004725579566
0.0003979478757
0.002391011108
3.600467622e-06
0.002598791258
4.682659553e-06
1.090719132e-05
8.665923096e-05
0.0006824073592
0.0006291124494
0.003208917061
1.649927409e-05
8.521517958e-06
0.0007930739335
0.0005245965786
9.653140944e-05
0.0001120336684
0.001243010759
5.949667443e-06
6.87862869e-06
7.42032031e-06
0.0001507117736
0.002357546969
7.11149922e-06
0.0002074232612
0.0002933714118
1.946705744e-05
0.0006843870912
0.0007529036743
0.004280684971
0.004336026028
6.361530615e-06
5.347185818e-06
4.497788552e-06
3.03642318e-05
4.770208067e-05
6.875493888e-15
2.236324762e-14
2.925332183e-05
3.712349154e-05
2.491527312e-05
9.489838894e-14
8.388267243e-14
3.101136621e-13
2.274716481e-05
1.677558606e-05
1.030028561e-05
1.259491496e-12
1.13157475e-12
4.072593011e-12
2.007783809e-05
5.421563757e-06
2.002415174e-06
1.831548558e-11
1.451575015e-11
5.8266917e-11
1.983494474e-05
1.897925488e-06
4.842332296e-06
5.390933559e-10
5.354372413e-10
1.460244493e-09
3.317140155e-05
9.066100347e-06
2.451680025e-05
3.570575897e-09
3.774060758e-09
9.487851232e-09
6.166918106e-05
0.0001396865217
0.0003723446017
1.443933092e-05
5.166783821e-08
5.562205499e-06
2.131938768e-05
0.0005748552569
0.0006820409689
2.15441669e-05
7.815884496e-06
8.211392331e-06
2.419636351e-05
0.0007326714576
0.0007050952055
2.991900341e-05
8.721411177e-06
2.77459523e-05
4.156497035e-05
0.0006563826317
0.00060902809
1.870614168e-05
2.060002516e-05
1.340462009e-05
8.064325551e-05
0.0006119599703
0.0006762841323
1.569003466e-05
9.029820206e-06
6.773643839e-06
1.695157201e-05
0.0004360312052
0.0007434821507
4.685080037e-06
5.616415476e-06
3.112188618e-06
3.823632131e-06
2.170529186e-06
1.971583609e-06
2.142818434e-06
2.124061927e-06
2.651329093e-06
2.710876873e-06
3.307676216e-06
5.072086854e-06
3.421568227e-06
4.215229052e-06
5.731824342e-06
7.472530403e-06
1.106457077e-05
1.342125331e-05
1.948606256e-05
6.185740767e-06
5.146557249e-06
1.035031353e-05
9.245652932e-06
4.900563309e-06
4.276698786e-06
6.403783427e-06
3.204426326e-06
4.015961506e-06
3.806001257e-06
4.462390588e-06
8.573262189e-14
1.202686926e-12
1.585830872e-11
6.381839722e-11
2.2617551e-10
2.278471763e-10
9.17527254e-10
4.979034496e-09
6.452269501e-09
1.769922864e-08
3.231940751e-08
4.54570348e-08
1.148025437e-07
5.732739293e-06
5.404421576e-07
6.967440026e-06
9.098354268e-06
9.446627761e-06
1.273197925e-05
4.191014212e-05
1.826956131e-05
5.311834396e-05
2.163792017e-05
4.383480231e-05
3.313384403e-05
9.439569477e-06
2.252237061e-05
1.497318111e-05
5.730476042e-06
1.086646947e-05
7.183059365e-06
4.578213176e-06
5.375474961e-06
2.149512413e-13
1.596944726e-12
6.807913583e-06
5.986630176e-05
3.096667484e-06
5.930548375e-06
3.902394708e-06
4.010500398e-06
4.335699178e-06
6.268015863e-06
5.323505058e-06
3.529534869e-06
5.348290152e-06
7.982427675e-06
8.494120485e-06
1.462300428e-05
1.282899854e-05
1.791737905e-05
2.198156074e-05
2.87032336e-05
3.545901437e-05
2.858382088e-05
2.838160344e-05
1.475938357e-05
2.462154164e-05
2.199144283e-05
1.385464419e-05
1.17754955e-05
1.827109121e-05
1.241251547e-05
6.418945181e-06
6.712629002e-06
1.119817315e-05
1.001555099e-05
8.842342265e-10
2.474970126e-10
3.626796665e-09
3.23962965e-09
1.335580769e-08
7.334600359e-08
2.013810325e-07
6.165238109e-08
5.134931088e-07
1.316468581e-06
4.007855756e-07
1.148145966e-05
5.110301876e-06
2.307859763e-05
2.549473366e-05
3.384908987e-05
2.168180095e-05
5.496424307e-05
5.661114067e-05
3.733719095e-05
5.253700726e-05
4.308855204e-05
4.927391046e-05
2.450092516e-05
4.320698603e-05
3.672841296e-05
1.129046419e-05
2.742136739e-05
1.944515625e-05
1.585595174e-05
2.118411325e-14
2.059571783e-13
1.957901009e-12
6.339387015e-11
5.819480906e-10
6.185306774e-06
6.194264897e-05
5.331669738e-05
4.336193363e-05
3.013940348e-05
7.411899206e-12
6.614895168e-11
1.679638026e-05
3.83187062e-05
1.567624543e-05
2.546781984e-05
1.504552509e-05
9.252076974e-06
6.643952669e-06
1.247895059e-05
1.467868941e-05
2.73690614e-05
2.465270708e-05
3.079364524e-05
3.267716133e-05
4.837590588e-05
5.1688712e-05
4.465732683e-05
3.188876711e-05
4.029886645e-05
4.147381433e-05
4.398051088e-05
2.678453369e-05
3.036645198e-05
3.385332738e-07
2.70306838e-07
1.548433707e-06
1.195172768e-06
3.267076538e-06
3.98668499e-05
6.582268085e-05
4.938420169e-05
7.553491965e-05
4.828982257e-05
4.48092621e-05
4.088611939e-05
3.871780481e-05
4.362122664e-05
4.437988886e-05
5.084972307e-05
5.517914508e-05
5.545526933e-05
2.556079889e-05
2.806283172e-05
4.351526385e-05
4.832780476e-05
1.970015285e-05
3.201773287e-05
3.704258285e-05
4.659289653e-09
1.573924688e-08
7.407521992e-08
9.893706183e-07
6.583357079e-06
2.051431974e-05
5.414809106e-05
6.503133381e-05
4.53980417e-05
4.843293653e-05
5.394672754e-05
5.348340585e-05
4.771029416e-05
5.340835729e-05
5.645083097e-13
5.242822576e-12
3.300337569e-11
1.075896585e-10
7.895099617e-10
7.87268476e-09
5.482599486e-05
5.898005514e-05
5.791729994e-05
5.027151845e-05
4.298668598e-05
3.77472965e-12
1.782502822e-11
1.781584585e-10
1.538434977e-10
1.079046971e-09
1.715952525e-09
2.974709055e-09
5.404894868e-09
7.961123447e-09
0.0001296545931
0.0001831507405
4.870863267e-05
4.36170875e-05
3.538417457e-05
3.718824055e-05
5.349604691e-05
4.375799652e-05
4.87762624e-05
5.396450516e-05
5.171056338e-05
3.448091434e-05
4.875191756e-05
2.951773038e-05
4.384985848e-05
2.257085582e-05
1.396949046e-05
4.412658729e-05
2.452191648e-05
3.810776648e-05
1.805393457e-05
2.502088663e-05
2.625512741e-05
3.501299505e-05
3.562647386e-05
3.141299294e-05
3.434757807e-05
3.387181434e-05
4.535987564e-05
5.103085091e-05
4.678229107e-05
5.162276994e-05
4.822472557e-05
5.094310868e-05
5.009744958e-05
2.505467983e-06
1.986092027e-06
1.575057033e-05
1.007264476e-05
5.825731844e-05
0.0001043102672
0.0001121785894
7.113738039e-05
8.85167211e-05
9.802269141e-05
7.687883298e-05
5.862928775e-05
5.354410681e-05
4.532417402e-05
2.483611215e-05
3.569339153e-05
2.812810282e-05
1.735787744e-05
2.750292991e-05
2.186014877e-05
2.762235379e-05
2.06893085e-05
2.979011838e-05
3.771206893e-05
5.085006308e-05
4.418466399e-05
4.883246496e-05
5.29467848e-05
5.344308892e-05
5.227611715e-05
4.975934336e-05
5.082144793e-05
5.235648039e-05
7.943540311e-08
3.989241067e-07
1.713925415e-05
7.079620505e-05
8.46447244e-05
6.313613536e-05
3.421674199e-05
3.570659056e-05
4.474202168e-05
5.672063974e-05
5.392318527e-05
1.621110015e-10
1.137836021e-09
4.485930961e-09
7.568142535e-09
2.183634656e-08
1.708926564e-08
4.163586396e-08
6.397137448e-08
3.475799537e-08
8.701104443e-08
1.100133429e-07
0.0002797361394
6.934453021e-07
0.0003359904713
3.39931122e-05
3.1608164e-05
2.893357242e-05
2.653367996e-05
2.274413276e-05
2.158519209e-05
3.988842546e-05
2.859914317e-05
3.453075065e-05
4.655306937e-05
3.890458483e-05
4.217961036e-05
4.377191502e-05
1.041266836e-08
1.337888977e-07
1.246969323e-07
5.097304634e-07
8.512734501e-07
2.658958252e-07
1.078628117e-06
1.219047854e-06
3.762793457e-07
1.305266904e-06
1.369915008e-06
0.0003912590677
6.184021312e-06
0.0004158952692
2.395132273e-05
2.236998368e-05
1.901483951e-05
1.652216414e-05
1.395085087e-05
1.204698353e-05
2.843701785e-05
1.75331701e-05
2.243750142e-05
3.632578581e-05
2.653856099e-05
3.018440838e-05
3.991248781e-05
3.324266201e-05
3.496388593e-05
3.615124497e-05
2.826326214e-06
0.0002920554161
7.941117245e-06
0.0005057252864
0.0003720217735
6.309290167e-06
0.0001978182428
0.0001195590524
5.083926711e-06
8.33759363e-05
5.934069947e-05
0.0003325833296
4.079969522e-05
2.669249537e-05
1.424360955e-05
1.855552836e-05
1.262467154e-05
8.289817405e-06
8.441527676e-06
6.612164889e-06
1.689116259e-05
1.116637521e-05
1.555707318e-05
2.410894858e-05
1.975114129e-05
2.407847526e-05
2.947232808e-05
2.867598558e-05
3.211219857e-05
4.207459772e-05
4.253382724e-05
0.0001449232492
6.257681591e-05
1.306468532e-05
0.0002231065044
0.0001280077056
0.0001629073389
0.0001022374955
0.0001320757614
0.000158248919
0.0001289734666
0.0001142579974
6.334350605e-05
9.333762835e-05
6.699449701e-05
3.287865767e-05
4.883618162e-05
3.607998766e-05
4.144531704e-05
1.692252455e-05
2.669060221e-05
1.952118663e-05
9.866477699e-06
1.405500452e-05
1.203153719e-05
2.16311743e-05
1.900988754e-05
2.549874907e-05
3.318555902e-05
3.188630305e-05
3.107402072e-05
3.569653499e-05
4.244031764e-05
4.435875065e-05
)
;

boundaryField
{
    walls
    {
        type            zeroGradient;
    }
    wallFilmFace_top
    {
        type            zeroGradient;
    }
    region0_to_wallFilmRegion_wallFilmFace
    {
        type            zeroGradient;
    }
    mirrorFace_top
    {
        type            zeroGradient;
    }
    region0_to_wallFilmRegion_mirrorFace
    {
        type            zeroGradient;
    }
    procBoundary3to2
    {
        type            processor;
        value           nonuniform List<scalar> 
64
(
2.012105991e-15
2.492550403e-14
1.27900362e-12
1.760077203e-11
6.748828952e-11
1.671456819e-15
2.666799015e-14
8.404489882e-13
2.414140892e-06
4.701922133e-05
2.315966981e-05
1.292997281e-05
1.292997281e-05
3.448883068e-05
3.968914846e-05
5.467788835e-05
5.442149465e-05
8.064394201e-06
2.551393422e-08
4.157490676e-13
1.576036451e-10
2.354834324e-09
1.172933626e-08
1.172933626e-08
2.927615277e-06
4.011987775e-06
4.011987775e-06
1.801835179e-08
2.859520145e-05
2.859520145e-05
1.607444753e-18
1.921017066e-17
1.921017066e-17
8.671663047e-17
3.346164702e-16
2.436069845e-05
1.841830547e-14
0.0002306598467
6.144516873e-05
1.350999616e-18
1.21600575e-09
3.448779362e-12
2.564031446e-11
9.866019325e-10
1.327364397e-07
6.964970248e-05
0.0002306598467
1.350999616e-18
0.0003272819177
6.536698798e-15
3.363476889e-13
4.779049073e-12
1.760077203e-11
2.371909619e-10
5.382237869e-15
3.95631937e-09
1.881550003e-08
1.410887506e-13
8.560434512e-08
4.449387551e-07
1.420748524e-10
9.160806267e-09
6.153471416e-06
1.754351796e-05
)
;
    }
}


// ************************************************************************* //
