/*--------------------------------*- C++ -*----------------------------------*\
  =========                 |
  \\      /  F ield         | OpenFOAM: The Open Source CFD Toolbox
   \\    /   O peration     | Website:  https://openfoam.org
    \\  /    A nd           | Version:  8
     \\/     M anipulation  |
\*---------------------------------------------------------------------------*/
FoamFile
{
    version     2.0;
    format      ascii;
    class       volScalarField;
    location    "0.3/wallFilmRegion";
    object      kappa;
}
// * * * * * * * * * * * * * * * * * * * * * * * * * * * * * * * * * * * * * //

dimensions      [1 1 -3 -1 0 0 0];

internalField   nonuniform List<scalar> 
1342
(
0.6088099982
0.60880995
0.608809969
0.6088099922
0.608809997
0.6088099945
0.6088099882
0.6088097027
0.6088096283
0.6088095537
0.6088092083
0.6088094371
0.6088098912
0.608809999
0.608809999
0.6088099991
0.6088099988
0.6088099986
0.6088099961
0.6088099929
0.6088099939
0.6088099972
0.6088099973
0.6088099968
0.6088099974
0.6088089488
0.608808953
0.6088089353
0.6088094321
0.6088098776
0.608809981
0.6088099984
0.6088099988
0.6088099994
0.6088099991
0.6088099986
0.6088099979
0.6088099964
0.6088099961
0.6088099982
0.6088099992
0.6088099991
0.6088099989
0.6088090081
0.6088099182
0.6088099842
0.6088099967
0.6088099988
0.6088099994
0.6088099996
0.6088099995
0.6088082321
0.6088082905
0.6088082577
0.6088082381
0.6088099978
0.6088099991
0.6088099997
0.6088099995
0.6088099989
0.6088099991
0.6088099994
0.6088099994
0.6088099996
0.6088081304
0.6088082622
0.6088081996
0.6088091161
0.6088099992
0.6088099997
0.6088099998
0.6088099997
0.6088099996
0.6088099996
0.6088099997
0.6088099997
0.6088082813
0.6088088639
0.6088093843
0.6088098511
0.6088099998
0.6088099999
0.6088099999
0.6088099999
0.6088099999
0.6088099998
0.6088099999
0.6088099999
0.6088099999
0.6088099989
0.6088099992
0.6088099996
0.6088099998
0.6088099999
0.6088099999
0.6088099999
0.6088099999
0.6088099999
0.6088099968
0.6088099972
0.6088099965
0.6088099962
0.6088099955
0.6088099951
0.6088099762
0.608809981
0.6088099936
0.6088099932
0.6088099967
0.6088099954
0.6088099969
0.6088099841
0.6088099833
0.6088099855
0.6088099833
0.608809989
0.6088099913
0.6088099597
0.6088099916
0.6088099903
0.6088099579
0.6088099884
0.6088099879
0.6088099619
0.6088099887
0.60880999
0.6088099686
0.6088099907
0.6088099909
0.6088099892
0.608809989
0.6088099908
0.6088099928
0.6088099919
0.6088099925
0.6088099943
0.6088099927
0.6088099934
0.6088099976
0.6088099966
0.6088099974
0.6088099818
0.6088099805
0.6088099809
0.6088099993
0.6088099813
0.6088100695
0.6088100144
0.6088102715
0.6088102723
0.6088100072
0.6088102739
0.6088102745
0.6088099957
0.6088102724
0.6088102498
0.6088099963
0.6088102428
0.608810253
0.6088100057
0.6088102686
0.6088102708
0.6088099962
0.6088102661
0.6088102644
0.6088099952
0.60881
0.6088100351
0.6088099958
0.6088102699
0.6088100954
0.6088099971
0.6088099992
0.6088099987
0.6088099963
0.6088099964
0.6088099961
0.6088099927
0.6088099948
0.6088099906
0.6088099805
0.6088099802
0.6088099809
0.608810198
0.6088102075
0.60881
0.60881
0.60881
0.60881
0.60881
0.60881
0.60881
0.60881
0.60881
0.60881
0.60881
0.60881
0.60881
0.60881
0.60881
0.60881
0.60881
0.60881
0.60881
0.608810273
0.60881
0.60881
0.60881
0.60881
0.60881
0.6088102422
0.60881
0.60881
0.6088099961
0.6088100492
0.6088100001
0.6088099884
0.6088099937
0.6088099876
0.6088102126
0.6088102031
0.60881
0.60881
0.60881
0.60881
0.60881
0.60881
0.60881
0.60881
0.60881
0.60881
0.60881
0.60881
0.60881
0.60881
0.60881
0.60881
0.60881
0.60881
0.60881
0.60881
0.60881
0.60881
0.60881
0.60881
0.60881
0.60881
0.60881
0.60881
0.60881
0.60881
0.60881
0.6088102515
0.60881
0.60881
0.6088099874
0.6088099946
0.6088099876
0.6088099733
0.6088099849
0.6088099801
0.60881
0.60881
0.60881
0.60881
0.60881
0.60881
0.60881
0.60881
0.60881
0.60881
0.60881
0.60881
0.60881
0.60881
0.60881
0.60881
0.60881
0.60881
0.60881
0.60881
0.60881
0.60881
0.60881
0.60881
0.60881
0.60881
0.60881
0.60881
0.60881
0.60881
0.60881
0.60881
0.60881
0.6088102821
0.6088102808
0.6088100628
0.6088099831
0.6088099841
0.6088099822
0.6088099885
0.6088099805
0.6088099924
0.60881
0.60881
0.60881
0.60881
0.60881
0.60881
0.60881
0.60881
0.60881
0.60881
0.60881
0.60881
0.60881
0.60881
0.60881
0.60881
0.60881
0.60881
0.60881
0.60881
0.60881
0.60881
0.60881
0.60881
0.60881
0.60881
0.60881
0.60881
0.60881
0.60881
0.60881
0.6088101912
0.6088101891
0.6088099882
0.6088099893
0.6088099891
0.6088099827
0.6088099849
0.6088099834
0.6088101201
0.6088100722
0.60881
0.6088102236
0.6088101606
0.60881
0.6088100993
0.6088100618
0.60881
0.6088100441
0.6088101016
0.60881
0.608810188
0.6088102532
0.60881
0.6088102035
0.60881
0.60881
0.6088102545
0.6088102352
0.60881
0.6088102699
0.60881
0.60881
0.608810192
0.6088100436
0.60881028
0.6088099677
0.6088099655
0.60881
0.6088099694
0.6088100466
0.6088099881
0.6088099885
0.608809991
0.6088099903
0.6088099936
0.6088099916
0.6088099855
0.6088099866
0.6088099865
0.6088100019
0.6088099909
0.6088099917
0.6088099905
0.6088099902
0.6088099911
0.6088099899
0.6088099896
0.6088099907
0.6088099892
0.6088099887
0.6088099907
0.608809988
0.6088099868
0.6088099892
0.6088099855
0.6088099812
0.6088099725
0.6088099708
0.6088099639
0.6088099645
0.6088099583
0.6088099576
0.6088099583
0.6088099572
0.6088099668
0.6088099599
0.6088099694
0.6088099705
0.6088099702
0.6088099738
0.6088099847
0.6088099935
0.608809995
0.6088099956
0.6088088355
0.6088086121
0.6088088531
0.6088086475
0.6088087085
0.6088088127
0.6088087129
0.6088086957
0.6088087125
0.6088086666
0.6088086348
0.6088099978
0.6088086285
0.6088099976
0.6088099981
0.6088099979
0.6088099979
0.608809999
0.6088099979
0.6088099993
0.6088099985
0.6088099992
0.6088099989
0.6088099975
0.6088099984
0.6088099979
0.6088099967
0.6088099962
0.6088099958
0.6088099946
0.6088099931
0.6088099943
0.6088085149
0.6088085788
0.6088085787
0.6088085337
0.6088099974
0.6088099978
0.6088099995
0.6088099992
0.6088084139
0.6088084404
0.608808424
0.6088084007
0.6088099972
0.6088099976
0.6088099994
0.6088099985
0.6088099992
0.608809999
0.6088099974
0.6088099986
0.6088099966
0.6088099981
0.6088099976
0.6088082198
0.6088082679
0.6088082965
0.6088082689
0.6088083108
0.6088082281
0.6088081933
0.6088099973
0.6088099986
0.6088099984
0.6088099991
0.6088099997
0.6088099994
0.6088099998
0.6088099996
0.6088099993
0.608809999
0.6088099994
0.6088099987
0.6088099993
0.6088099992
0.6088099995
0.6088080889
0.6088085032
0.6088082204
0.6088086154
0.6088099996
0.6088099997
0.6088099998
0.6088099998
0.6088099999
0.6088099998
0.6088099999
0.6088099997
0.6088099998
0.6088099998
0.6088091973
0.6088096821
0.6088099999
0.6088099998
0.6088099999
0.6088099419
0.6088091488
0.6088099426
0.6088090257
0.608809943
0.6088088838
0.6088099434
0.6088087306
0.6088099864
0.6088099987
0.6088099918
0.6088099987
0.6088099948
0.6088099984
0.6088099968
0.6088099981
0.6088099979
0.6088099978
0.6088099979
0.6088099739
0.6088099876
0.6088099688
0.6088099575
0.6088099591
0.6088099651
0.6088099823
0.6088099918
0.6088099933
0.6088099969
0.6088099968
0.6088099958
0.6088099947
0.6088099964
0.6088099809
0.6088099845
0.6088100051
0.6088100185
0.6088099997
0.6088099955
0.6088099979
0.6088099928
0.6088100027
0.6088099954
0.6088099965
0.6088099965
0.608809995
0.6088099944
0.6088099913
0.6088099912
0.6088099803
0.6088099816
0.60881
0.60881
0.60881
0.60881
0.60881
0.60881
0.60881
0.60881
0.6088102525
0.6088099969
0.6088099942
0.6088099806
0.6088099813
0.60881
0.60881
0.60881
0.60881
0.60881
0.60881
0.60881
0.60881
0.60881
0.60881
0.60881
0.6088099933
0.6088099839
0.60881
0.60881
0.60881
0.60881
0.60881
0.60881
0.60881
0.60881
0.60881
0.60881
0.60881
0.60881
0.6088099974
0.6088099801
0.60881
0.60881
0.60881
0.60881
0.60881
0.60881
0.60881
0.60881
0.60881
0.60881
0.60881
0.6088099909
0.608809984
0.6088099811
0.6088102515
0.60881
0.60881
0.60881
0.60881
0.60881
0.60881
0.60881
0.6088102798
0.608810281
0.6088099844
0.608809992
0.6088099856
0.6088099889
0.6088100004
0.6088099925
0.6088099913
0.6088099908
0.6088099906
0.6088099875
0.6088099775
0.6088099656
0.6088099586
0.6088099592
0.6088099615
0.6088099915
0.6088099951
0.6088099894
0.6088099903
0.6088099902
0.6088099898
0.608809989
0.6088099879
0.6088099733
0.6088099681
0.6088099619
0.6088099973
0.6088099969
0.6088099974
0.6088099985
0.6088099971
0.6088089076
0.6088087687
0.6088088496
0.6088087632
0.6088087143
0.6088099981
0.608809998
0.6088099988
0.6088099979
0.6088099971
0.6088099966
0.6088099974
0.6088099951
0.6088099945
0.6088099935
0.6088099941
0.6088099976
0.6088099979
0.6088085335
0.6088085917
0.6088084681
0.6088085577
0.6088084463
0.6088085208
0.6088099977
0.6088099981
0.6088099985
0.6088099994
0.6088099996
0.6088099989
0.6088099986
0.6088099984
0.6088099984
0.6088099992
0.6088099991
0.6088099992
0.6088099987
0.6088099993
0.6088099995
0.6088099997
0.6088098737
0.608809959
0.6088099924
0.6088099979
0.6088099988
0.6088099991
0.6088099995
0.6088099996
0.6088099997
0.6088099998
0.6088099998
0.6088099997
0.6088099997
0.6088099995
0.6088099997
0.6088099998
0.6088099998
0.6088099999
0.6088099986
0.608809999
0.6088099997
0.6088099998
0.6088099998
0.6088099999
0.6088099998
0.6088099998
0.6088095206
0.6088099012
0.6088099451
0.6088099329
0.6088099787
0.6088099998
0.6088099999
0.6088099999
0.6088099999
0.6088099999
0.6088099833
0.608809992
0.6088099932
0.6088099945
0.6088099999
0.6088099999
0.6088099999
0.6088099999
0.6088099999
0.6088099977
0.6088099975
0.6088099974
0.6088099969
0.6088099999
0.6088099998
0.6088099998
0.6088099999
0.6088099999
0.6088099985
0.608809999
0.6088099997
0.6088099999
0.6088099999
0.6088099998
0.6088099998
0.6088099999
0.6088099999
0.6088099421
0.6088091918
0.608809969
0.6088089818
0.6088099423
0.6088090941
0.6088099748
0.6088099731
0.608808918
0.6088089228
0.6088099428
0.6088089527
0.6088099466
0.6088099469
0.6088089144
0.6088088602
0.6088099432
0.6088088126
0.6088099472
0.6088099476
0.6088087981
0.608808728
0.6088099749
0.6088099985
0.6088099481
0.6088099548
0.6088087118
0.608809998
0.6088099903
0.6088099987
0.6088099625
0.6088099686
0.6088099983
0.6088099983
0.6088099934
0.6088099986
0.608809983
0.6088099904
0.6088099982
0.6088099987
0.6088099959
0.6088099983
0.6088099932
0.6088099945
0.6088099985
0.6088099981
0.6088099975
0.608809998
0.6088099952
0.6088099962
0.6088099977
0.6088099974
0.6088099977
0.6088099979
0.6088099971
0.608809997
0.6088099967
0.6088099966
0.6088099965
0.608809995
0.6088099933
0.6088099959
0.6088099798
0.608809995
0.6088099963
0.6088099649
0.6088099823
0.6088099592
0.6088099582
0.6088099968
0.6088099952
0.6088099909
0.608809989
0.6088099963
0.6088099958
0.6088099907
0.6088099965
0.6088099967
0.6088099967
0.6088099953
0.6088099879
0.6088099968
0.6088099932
0.6088099964
0.6088099985
0.608809995
0.6088099913
0.6088099888
0.6088099887
0.608809997
0.6088099972
0.6088099974
0.6088099902
0.6088099919
0.6088097287
0.6088093532
0.6088099903
0.608809992
0.6088099921
0.6088096726
0.6088093333
0.6088093276
0.6088099901
0.6088099922
0.6088099923
0.6088095988
0.6088092959
0.608809271
0.6088099894
0.6088099925
0.6088099926
0.6088095144
0.6088092415
0.6088092013
0.6088099878
0.608809994
0.6088099939
0.6088092315
0.6088091088
0.6088094212
0.6088099857
0.6088099937
0.6088099926
0.6088096762
0.608809704
0.6088098613
0.6088099633
0.6088099801
0.6088099926
0.6088099988
0.6088099558
0.6088099981
0.6088099904
0.6088099959
0.6088099969
0.608809999
0.6088099986
0.6088099986
0.6088099974
0.6088099974
0.6088099976
0.6088099992
0.6088099987
0.6088099993
0.6088099971
0.6088099977
0.6088099977
0.6088099989
0.6088099993
0.6088099991
0.608809997
0.6088099977
0.6088099976
0.6088099987
0.6088099988
0.6088099986
0.6088099986
0.6088099972
0.6088099976
0.6088099981
0.6088099983
0.6088099975
0.6088099978
0.6088099955
0.6088099951
0.6088099939
0.6088099946
0.6088099961
0.6088099921
0.6088099948
0.6088099969
0.6088099945
0.608809995
0.6088099966
0.6088099973
0.6088099982
0.6088099985
0.608809999
0.6088099972
0.6088099968
0.6088099984
0.6088099983
0.6088099973
0.6088099966
0.6088099977
0.6088099971
0.6088099978
0.6088099975
0.6088099975
0.6088089287
0.608808949
0.6088089487
0.6088087004
0.6088089526
0.6088087583
0.6088091272
0.6088097284
0.6088097664
0.6088098987
0.6088099451
0.6088099554
0.6088099801
0.6088099978
0.6088099923
0.6088099978
0.6088099986
0.6088099985
0.6088099988
0.6088099995
0.6088099991
0.6088099996
0.6088099993
0.6088099996
0.6088099995
0.6088099988
0.6088099993
0.6088099991
0.6088099983
0.608809999
0.6088099986
0.6088099981
0.6088099983
0.6088084522
0.6088084679
0.6088099979
0.6088099996
0.6088099971
0.6088099984
0.608809998
0.6088099977
0.6088099977
0.6088099986
0.6088099978
0.6088099963
0.6088099969
0.6088099984
0.6088099982
0.608809999
0.6088099986
0.6088099991
0.6088099994
0.6088099994
0.6088099996
0.6088099995
0.6088099996
0.608809999
0.6088099994
0.6088099994
0.6088099992
0.6088099991
0.6088099994
0.6088099992
0.6088099986
0.6088099987
0.6088099991
0.6088099991
0.608808949
0.608808611
0.6088096052
0.6088095347
0.6088098654
0.6088099714
0.6088099873
0.6088099647
0.608809994
0.608809997
0.6088099927
0.6088099983
0.6088099983
0.6088099988
0.6088099992
0.6088099994
0.6088099991
0.6088099997
0.6088099997
0.6088099995
0.6088099997
0.6088099996
0.6088099997
0.6088099994
0.6088099996
0.6088099995
0.608809999
0.6088099995
0.6088099993
0.6088099993
0.6088081195
0.6088081584
0.6088082183
0.6088081566
0.6088084517
0.608809998
0.6088099998
0.6088099997
0.6088099996
0.6088099995
0.6088081948
0.6088083385
0.6088099989
0.6088099995
0.6088099994
0.6088099996
0.6088099995
0.6088099991
0.6088099986
0.6088099991
0.6088099994
0.6088099997
0.6088099996
0.6088099997
0.6088099998
0.6088099998
0.6088099998
0.6088099997
0.6088099996
0.6088099998
0.6088099997
0.6088099998
0.6088099996
0.6088099996
0.6088099905
0.6088099894
0.608809997
0.6088099969
0.6088099982
0.6088099992
0.6088099994
0.6088099993
0.6088099995
0.6088099997
0.6088099997
0.6088099998
0.6088099998
0.6088099998
0.6088099998
0.6088099998
0.6088099998
0.6088099998
0.6088099995
0.6088099995
0.6088099997
0.6088099997
0.6088099994
0.6088099996
0.6088099997
0.6088095873
0.6088098537
0.608809968
0.6088099962
0.6088099987
0.6088099991
0.6088099992
0.6088099994
0.6088099996
0.6088099998
0.6088099997
0.6088099998
0.6088099997
0.6088099997
0.608808166
0.608808187
0.6088082229
0.6088083229
0.6088087871
0.608809613
0.6088099994
0.6088099998
0.6088099998
0.6088099998
0.6088099997
0.6088082746
0.6088084543
0.6088084662
0.6088086177
0.6088091866
0.6088095286
0.6088095105
0.6088097615
0.6088098076
0.6088099996
0.6088099997
0.6088099998
0.6088099999
0.6088099999
0.6088099999
0.6088099999
0.6088099999
0.6088099999
0.6088099998
0.6088099999
0.6088099997
0.6088099998
0.6088099997
0.6088099998
0.6088099997
0.6088099995
0.6088099998
0.6088099997
0.6088099998
0.6088099996
0.6088099997
0.6088099998
0.6088099998
0.6088099999
0.6088099998
0.6088099998
0.6088099999
0.6088099999
0.6088099999
0.6088099999
0.6088099999
0.6088099998
0.6088099998
0.6088099999
0.608809998
0.6088099974
0.6088099988
0.6088099987
0.608809999
0.6088099992
0.6088099994
0.6088099997
0.6088099994
0.6088099995
0.6088099997
0.6088099998
0.6088099998
0.6088099998
0.6088099999
0.6088099999
0.6088099999
0.6088099998
0.6088099998
0.6088099999
0.6088099999
0.6088099998
0.6088099999
0.6088099999
0.6088099999
0.6088099999
0.6088099999
0.6088099999
0.6088099998
0.6088099998
0.6088099999
0.6088099998
0.6088099998
0.6088099653
0.6088099919
0.608809999
0.6088099992
0.6088099996
0.6088099997
0.6088099998
0.6088099998
0.6088099999
0.6088099998
0.6088099998
0.6088087301
0.608809484
0.6088098257
0.6088099065
0.6088099602
0.6088099304
0.6088099741
0.6088099796
0.6088099537
0.6088099825
0.6088099842
0.6088099998
0.6088099901
0.6088099998
0.6088099999
0.6088099999
0.6088099999
0.6088099999
0.6088099999
0.6088099999
0.6088099999
0.6088099999
0.6088099999
0.6088099999
0.6088099999
0.6088099999
0.6088099999
0.6088099226
0.6088099896
0.6088099902
0.6088099956
0.6088099962
0.6088099928
0.6088099963
0.6088099963
0.6088099935
0.6088099963
0.6088099963
0.6088099998
0.6088099962
0.6088099998
0.6088099999
0.6088099999
0.6088099999
0.6088099999
0.6088099999
0.6088099998
0.6088099999
0.6088099999
0.6088099999
0.6088099999
0.6088099999
0.6088099999
0.6088099999
0.6088099999
0.6088099999
0.6088099999
0.6088099973
0.608809998
0.6088099976
0.6088099981
0.6088099984
0.6088099974
0.6088099989
0.6088099994
0.6088099975
0.6088099997
0.6088099999
0.6088099998
0.6088099999
0.6088099999
0.6088099999
0.6088099999
0.6088099998
0.6088099997
0.6088099997
0.6088099997
0.6088099999
0.6088099997
0.6088099998
0.6088099999
0.6088099999
0.6088099999
0.6088099999
0.6088099999
0.6088099999
0.6088099999
0.6088099999
0.6088099984
0.6088099986
0.6088099987
0.6088099987
0.6088099987
0.6088099989
0.608809999
0.6088099994
0.6088099991
0.6088099994
0.6088099994
0.6088099998
0.6088099996
0.6088099998
0.6088099999
0.6088099999
0.6088099999
0.6088099999
0.6088099999
0.6088099999
0.6088099999
0.6088099997
0.6088099998
0.6088099998
0.6088099999
0.6088099998
0.6088099999
0.6088099999
0.6088099999
0.6088099999
0.6088099999
0.6088099999
0.6088099999
)
;

boundaryField
{
    walls
    {
        type            zeroGradient;
    }
    wallFilmFace_top
    {
        type            zeroGradient;
    }
    region0_to_wallFilmRegion_wallFilmFace
    {
        type            zeroGradient;
    }
    mirrorFace_top
    {
        type            zeroGradient;
    }
    region0_to_wallFilmRegion_mirrorFace
    {
        type            zeroGradient;
    }
    procBoundary3to2
    {
        type            processor;
        value           nonuniform List<scalar> 
64
(
0.608809693
0.6088089032
0.6088086489
0.6088086892
0.6088085244
0.6088082333
0.6088080702
0.6088082776
0.608809998
0.6088099705
0.6088099819
0.6088099829
0.6088099829
0.608809979
0.6088099794
0.6088099797
0.6088099798
0.6088099802
0.6088099965
0.6088102644
0.608810261
0.6088102424
0.6088101923
0.6088101923
0.6088100008
0.6088100005
0.6088100005
0.6088100477
0.6088099935
0.6088099935
0.608809009
0.6088086895
0.6088086895
0.6088085525
0.6088084824
0.6088099434
0.6088092436
0.6088099644
0.6088099906
0.6088090614
0.6088089578
0.6088084554
0.6088085727
0.6088094687
0.6088099886
0.6088099982
0.6088099644
0.6088090614
0.6088099912
0.6088092906
0.6088086431
0.6088086701
0.6088086892
0.6088085273
0.6088081033
0.6088095233
0.6088098712
0.608808157
0.6088099694
0.6088099941
0.6088088371
0.6088099037
0.6088099972
0.6088099984
)
;
    }
}


// ************************************************************************* //
