/*--------------------------------*- C++ -*----------------------------------*\
  =========                 |
  \\      /  F ield         | OpenFOAM: The Open Source CFD Toolbox
   \\    /   O peration     | Website:  https://openfoam.org
    \\  /    A nd           | Version:  8
     \\/     M anipulation  |
\*---------------------------------------------------------------------------*/
FoamFile
{
    version     2.0;
    format      ascii;
    class       volScalarField;
    location    "0.3/wallFilmRegion";
    object      rho;
}
// * * * * * * * * * * * * * * * * * * * * * * * * * * * * * * * * * * * * * //

dimensions      [1 -3 0 0 0 0 0];

internalField   nonuniform List<scalar> 
1342
(
994.5114688
994.5114779
994.5114743
994.5114699
994.511469
994.5114695
994.5114707
994.511525
994.5115391
994.5115533
994.511619
994.5115754
994.5114891
994.5114686
994.5114686
994.5114686
994.5114687
994.5114687
994.5114692
994.5114698
994.5114696
994.511469
994.5114689
994.511469
994.5114689
994.5116683
994.5116675
994.5116709
994.5115764
994.5114917
994.511472
994.5114687
994.5114686
994.5114685
994.5114686
994.5114687
994.5114688
994.5114691
994.5114692
994.5114688
994.5114686
994.5114686
994.5114686
994.511657
994.511484
994.5114714
994.5114691
994.5114686
994.5114685
994.5114685
994.5114685
994.5118045
994.5117934
994.5117997
994.5118034
994.5114688
994.5114686
994.5114685
994.5114685
994.5114686
994.5114686
994.5114685
994.5114685
994.5114685
994.5118239
994.5117988
994.5118107
994.5116365
994.5114686
994.5114685
994.5114685
994.5114685
994.5114685
994.5114685
994.5114685
994.5114685
994.5117952
994.5116844
994.5115855
994.5114967
994.5114685
994.5114684
994.5114684
994.5114684
994.5114684
994.5114685
994.5114684
994.5114684
994.5114684
994.5114686
994.5114686
994.5114685
994.5114685
994.5114684
994.5114684
994.5114684
994.5114684
994.5114684
994.511469
994.511469
994.5114691
994.5114692
994.5114693
994.5114693
994.511473
994.511472
994.5114696
994.5114697
994.511469
994.5114693
994.511469
994.5114714
994.5114716
994.5114712
994.5114716
994.5114705
994.5114701
994.5114761
994.51147
994.5114703
994.5114764
994.5114706
994.5114707
994.5114757
994.5114706
994.5114703
994.5114744
994.5114702
994.5114701
994.5114705
994.5114705
994.5114702
994.5114698
994.51147
994.5114699
994.5114695
994.5114698
994.5114697
994.5114689
994.5114691
994.5114689
994.5114719
994.5114721
994.511472
994.5114685
994.511472
994.5114552
994.5114657
994.5114168
994.5114166
994.511467
994.5114163
994.5114162
994.5114692
994.5114166
994.5114209
994.5114691
994.5114223
994.5114203
994.5114673
994.5114173
994.5114169
994.5114691
994.5114178
994.5114181
994.5114693
994.5114684
994.5114618
994.5114692
994.5114171
994.5114503
994.511469
994.5114686
994.5114687
994.5114691
994.5114691
994.5114692
994.5114698
994.5114694
994.5114702
994.5114721
994.5114722
994.5114721
994.5114308
994.511429
994.5114684
994.5114684
994.5114684
994.5114684
994.5114684
994.5114684
994.5114684
994.5114684
994.5114684
994.5114684
994.5114684
994.5114684
994.5114684
994.5114684
994.5114684
994.5114684
994.5114684
994.5114684
994.5114684
994.5114165
994.5114684
994.5114684
994.5114684
994.5114684
994.5114684
994.5114224
994.5114684
994.5114684
994.5114692
994.5114591
994.5114684
994.5114706
994.5114696
994.5114708
994.511428
994.5114298
994.5114684
994.5114684
994.5114684
994.5114684
994.5114684
994.5114684
994.5114684
994.5114684
994.5114684
994.5114684
994.5114684
994.5114684
994.5114684
994.5114684
994.5114684
994.5114684
994.5114684
994.5114684
994.5114684
994.5114684
994.5114684
994.5114684
994.5114684
994.5114684
994.5114684
994.5114684
994.5114684
994.5114684
994.5114684
994.5114684
994.5114684
994.5114206
994.5114684
994.5114684
994.5114708
994.5114695
994.5114708
994.5114735
994.5114713
994.5114722
994.5114684
994.5114684
994.5114684
994.5114684
994.5114684
994.5114684
994.5114684
994.5114684
994.5114684
994.5114684
994.5114684
994.5114684
994.5114684
994.5114684
994.5114684
994.5114684
994.5114684
994.5114684
994.5114684
994.5114684
994.5114684
994.5114684
994.5114684
994.5114684
994.5114684
994.5114684
994.5114684
994.5114684
994.5114684
994.5114684
994.5114684
994.5114684
994.5114684
994.5114148
994.511415
994.5114565
994.5114716
994.5114714
994.5114718
994.5114706
994.5114721
994.5114699
994.5114684
994.5114684
994.5114684
994.5114684
994.5114684
994.5114684
994.5114684
994.5114684
994.5114684
994.5114684
994.5114684
994.5114684
994.5114684
994.5114684
994.5114684
994.5114684
994.5114684
994.5114684
994.5114684
994.5114684
994.5114684
994.5114684
994.5114684
994.5114684
994.5114684
994.5114684
994.5114684
994.5114684
994.5114684
994.5114684
994.5114684
994.5114321
994.5114325
994.5114707
994.5114705
994.5114705
994.5114717
994.5114713
994.5114716
994.5114456
994.5114547
994.5114684
994.5114259
994.5114379
994.5114684
994.5114495
994.5114567
994.5114684
994.51146
994.5114491
994.5114684
994.5114327
994.5114203
994.5114684
994.5114297
994.5114684
994.5114684
994.51142
994.5114237
994.5114684
994.5114171
994.5114684
994.5114684
994.5114319
994.5114601
994.5114152
994.5114746
994.511475
994.5114684
994.5114742
994.5114596
994.5114707
994.5114706
994.5114701
994.5114703
994.5114696
994.51147
994.5114712
994.511471
994.511471
994.5114681
994.5114702
994.51147
994.5114702
994.5114703
994.5114701
994.5114703
994.5114704
994.5114702
994.5114705
994.5114706
994.5114702
994.5114707
994.5114709
994.5114705
994.5114712
994.511472
994.5114737
994.511474
994.5114753
994.5114752
994.5114764
994.5114765
994.5114764
994.5114766
994.5114747
994.511476
994.5114742
994.511474
994.5114741
994.5114734
994.5114713
994.5114697
994.5114694
994.5114693
994.5116898
994.5117323
994.5116865
994.5117256
994.511714
994.5116942
994.5117131
994.5117164
994.5117132
994.5117219
994.511728
994.5114688
994.5117292
994.5114689
994.5114688
994.5114688
994.5114688
994.5114686
994.5114688
994.5114685
994.5114687
994.5114686
994.5114686
994.5114689
994.5114687
994.5114688
994.511469
994.5114691
994.5114692
994.5114694
994.5114697
994.5114695
994.5117508
994.5117386
994.5117387
994.5117472
994.5114689
994.5114688
994.5114685
994.5114686
994.51177
994.5117649
994.5117681
994.5117725
994.5114689
994.5114689
994.5114685
994.5114687
994.5114686
994.5114686
994.5114689
994.5114687
994.5114691
994.5114688
994.5114689
994.5118069
994.5117977
994.5117923
994.5117975
994.5117896
994.5118053
994.5118119
994.5114689
994.5114687
994.5114687
994.5114686
994.5114685
994.5114685
994.5114685
994.5114685
994.5114686
994.5114686
994.5114685
994.5114687
994.5114686
994.5114686
994.5114685
994.5118318
994.511753
994.5118068
994.5117317
994.5114685
994.5114685
994.5114685
994.5114685
994.5114684
994.5114685
994.5114684
994.5114685
994.5114685
994.5114685
994.511621
994.5115289
994.5114684
994.5114685
994.5114684
994.5114795
994.5116302
994.5114793
994.5116537
994.5114793
994.5116806
994.5114792
994.5117098
994.511471
994.5114687
994.51147
994.5114687
994.5114694
994.5114687
994.511469
994.5114688
994.5114688
994.5114688
994.5114688
994.5114734
994.5114708
994.5114744
994.5114765
994.5114762
994.5114751
994.5114718
994.51147
994.5114697
994.511469
994.511469
994.5114692
994.5114694
994.5114691
994.511472
994.5114714
994.5114675
994.5114649
994.5114685
994.5114693
994.5114688
994.5114698
994.5114679
994.5114693
994.5114691
994.5114691
994.5114694
994.5114695
994.5114701
994.5114701
994.5114722
994.5114719
994.5114684
994.5114684
994.5114684
994.5114684
994.5114684
994.5114684
994.5114684
994.5114684
994.5114204
994.511469
994.5114695
994.5114721
994.511472
994.5114684
994.5114684
994.5114684
994.5114684
994.5114684
994.5114684
994.5114684
994.5114684
994.5114684
994.5114684
994.5114684
994.5114697
994.5114715
994.5114684
994.5114684
994.5114684
994.5114684
994.5114684
994.5114684
994.5114684
994.5114684
994.5114684
994.5114684
994.5114684
994.5114684
994.5114689
994.5114722
994.5114684
994.5114684
994.5114684
994.5114684
994.5114684
994.5114684
994.5114684
994.5114684
994.5114684
994.5114684
994.5114684
994.5114701
994.5114715
994.511472
994.5114206
994.5114684
994.5114684
994.5114684
994.5114684
994.5114684
994.5114684
994.5114684
994.5114152
994.511415
994.5114714
994.51147
994.5114712
994.5114705
994.5114683
994.5114698
994.5114701
994.5114702
994.5114702
994.5114708
994.5114727
994.511475
994.5114763
994.5114762
994.5114757
994.51147
994.5114693
994.5114704
994.5114703
994.5114703
994.5114704
994.5114705
994.5114707
994.5114735
994.5114745
994.5114757
994.5114689
994.511469
994.5114689
994.5114687
994.511469
994.5116761
994.5117025
994.5116871
994.5117036
994.5117129
994.5114688
994.5114688
994.5114686
994.5114688
994.511469
994.5114691
994.5114689
994.5114693
994.5114695
994.5114697
994.5114695
994.5114689
994.5114688
994.5117472
994.5117362
994.5117597
994.5117426
994.5117638
994.5117497
994.5114689
994.5114688
994.5114687
994.5114685
994.5114685
994.5114686
994.5114687
994.5114687
994.5114687
994.5114686
994.5114686
994.5114686
994.5114687
994.5114686
994.5114685
994.5114685
994.5114924
994.5114762
994.5114699
994.5114688
994.5114686
994.5114686
994.5114685
994.5114685
994.5114685
994.5114685
994.5114685
994.5114685
994.5114685
994.5114685
994.5114685
994.5114685
994.5114685
994.5114684
994.5114687
994.5114686
994.5114685
994.5114685
994.5114685
994.5114684
994.5114685
994.5114685
994.5115596
994.5114872
994.5114789
994.5114812
994.5114725
994.5114685
994.5114684
994.5114684
994.5114684
994.5114684
994.5114716
994.5114699
994.5114697
994.5114695
994.5114684
994.5114684
994.5114684
994.5114684
994.5114684
994.5114689
994.5114689
994.5114689
994.511469
994.5114684
994.5114685
994.5114685
994.5114684
994.5114684
994.5114687
994.5114686
994.5114685
994.5114684
994.5114684
994.5114685
994.5114685
994.5114684
994.5114684
994.5114794
994.5116221
994.5114743
994.511662
994.5114794
994.5116407
994.5114732
994.5114735
994.5116741
994.5116732
994.5114793
994.5116675
994.5114786
994.5114785
994.5116748
994.5116851
994.5114792
994.5116942
994.5114785
994.5114784
994.5116969
994.5117103
994.5114732
994.5114687
994.5114783
994.511477
994.5117133
994.5114688
994.5114703
994.5114687
994.5114755
994.5114744
994.5114687
994.5114687
994.5114697
994.5114687
994.5114716
994.5114702
994.5114688
994.5114687
994.5114692
994.5114688
994.5114697
994.5114695
994.5114687
994.5114688
994.5114689
994.5114688
994.5114693
994.5114691
994.5114689
994.5114689
994.5114689
994.5114688
994.511469
994.511469
994.5114691
994.5114691
994.5114691
994.5114694
994.5114697
994.5114692
994.5114723
994.5114694
994.5114691
994.5114751
994.5114718
994.5114762
994.5114764
994.511469
994.5114693
994.5114702
994.5114705
994.5114691
994.5114692
994.5114702
994.5114691
994.5114691
994.511469
994.5114693
994.5114707
994.511469
994.5114697
994.5114691
994.5114687
994.5114694
994.5114701
994.5114705
994.5114706
994.511469
994.511469
994.5114689
994.5114703
994.51147
994.51152
994.5115914
994.5114703
994.5114699
994.5114699
994.5115307
994.5115952
994.5115963
994.5114703
994.5114699
994.5114699
994.5115447
994.5116023
994.511607
994.5114704
994.5114699
994.5114698
994.5115607
994.5116126
994.5116203
994.5114707
994.5114696
994.5114696
994.5116145
994.5116379
994.5115785
994.5114711
994.5114696
994.5114698
994.51153
994.5115247
994.5114948
994.5114754
994.5114722
994.5114698
994.5114687
994.5114768
994.5114688
994.5114703
994.5114692
994.511469
994.5114686
994.5114687
994.5114687
994.5114689
994.5114689
994.5114689
994.5114686
994.5114687
994.5114685
994.511469
994.5114689
994.5114689
994.5114686
994.5114686
994.5114686
994.511469
994.5114689
994.5114689
994.5114687
994.5114686
994.5114687
994.5114687
994.511469
994.5114689
994.5114688
994.5114687
994.5114689
994.5114688
994.5114693
994.5114693
994.5114696
994.5114695
994.5114692
994.5114699
994.5114694
994.511469
994.5114695
994.5114694
994.5114691
994.5114689
994.5114688
994.5114687
994.5114686
994.511469
994.511469
994.5114687
994.5114687
994.5114689
994.5114691
994.5114689
994.511469
994.5114688
994.5114689
994.5114689
994.5116721
994.5116682
994.5116683
994.5117155
994.5116676
994.5117045
994.5116344
994.5115201
994.5115128
994.5114877
994.5114789
994.5114769
994.5114722
994.5114688
994.5114699
994.5114688
994.5114687
994.5114687
994.5114686
994.5114685
994.5114686
994.5114685
994.5114686
994.5114685
994.5114685
994.5114686
994.5114685
994.5114686
994.5114687
994.5114686
994.5114687
994.5114688
994.5114687
994.5117627
994.5117597
994.5114688
994.5114685
994.511469
994.5114687
994.5114688
994.5114689
994.5114689
994.5114687
994.5114688
994.5114691
994.511469
994.5114687
994.5114688
994.5114686
994.5114687
994.5114686
994.5114685
994.5114685
994.5114685
994.5114685
994.5114685
994.5114686
994.5114685
994.5114685
994.5114686
994.5114686
994.5114685
994.5114686
994.5114687
994.5114687
994.5114686
994.5114686
994.5116683
994.5117325
994.5115435
994.5115569
994.511494
994.5114739
994.5114708
994.5114751
994.5114696
994.511469
994.5114698
994.5114687
994.5114687
994.5114687
994.5114686
994.5114685
994.5114686
994.5114685
994.5114685
994.5114685
994.5114685
994.5114685
994.5114685
994.5114685
994.5114685
994.5114685
994.5114686
994.5114685
994.5114685
994.5114686
994.5118259
994.5118186
994.5118072
994.5118189
994.5117628
994.5114688
994.5114685
994.5114685
994.5114685
994.5114685
994.5118116
994.5117843
994.5114686
994.5114685
994.5114685
994.5114685
994.5114685
994.5114686
994.5114687
994.5114686
994.5114685
994.5114685
994.5114685
994.5114685
994.5114685
994.5114685
994.5114685
994.5114685
994.5114685
994.5114685
994.5114685
994.5114685
994.5114685
994.5114685
994.5114702
994.5114704
994.511469
994.511469
994.5114688
994.5114686
994.5114685
994.5114685
994.5114685
994.5114685
994.5114685
994.5114685
994.5114685
994.5114685
994.5114685
994.5114685
994.5114685
994.5114685
994.5114685
994.5114685
994.5114685
994.5114685
994.5114685
994.5114685
994.5114685
994.5115469
994.5114962
994.5114745
994.5114691
994.5114687
994.5114686
994.5114686
994.5114685
994.5114685
994.5114685
994.5114685
994.5114685
994.5114685
994.5114685
994.5118171
994.5118131
994.5118063
994.5117873
994.511699
994.511542
994.5114685
994.5114685
994.5114685
994.5114685
994.5114685
994.5117965
994.5117623
994.51176
994.5117312
994.5116231
994.511558
994.5115615
994.5115138
994.511505
994.5114685
994.5114685
994.5114685
994.5114684
994.5114684
994.5114684
994.5114684
994.5114684
994.5114684
994.5114685
994.5114684
994.5114685
994.5114685
994.5114685
994.5114685
994.5114685
994.5114685
994.5114685
994.5114685
994.5114685
994.5114685
994.5114685
994.5114685
994.5114685
994.5114684
994.5114685
994.5114685
994.5114684
994.5114684
994.5114684
994.5114684
994.5114684
994.5114685
994.5114684
994.5114684
994.5114688
994.5114689
994.5114686
994.5114687
994.5114686
994.5114686
994.5114685
994.5114685
994.5114685
994.5114685
994.5114685
994.5114685
994.5114685
994.5114685
994.5114684
994.5114684
994.5114684
994.5114685
994.5114685
994.5114684
994.5114684
994.5114685
994.5114684
994.5114684
994.5114684
994.5114684
994.5114684
994.5114684
994.5114685
994.5114685
994.5114684
994.5114685
994.5114685
994.511475
994.51147
994.5114686
994.5114686
994.5114685
994.5114685
994.5114685
994.5114685
994.5114684
994.5114685
994.5114685
994.5117099
994.5115665
994.5115016
994.5114862
994.511476
994.5114816
994.5114733
994.5114723
994.5114772
994.5114718
994.5114714
994.5114685
994.5114703
994.5114685
994.5114684
994.5114684
994.5114684
994.5114684
994.5114684
994.5114684
994.5114684
994.5114684
994.5114684
994.5114684
994.5114684
994.5114684
994.5114684
994.5114831
994.5114704
994.5114703
994.5114693
994.5114691
994.5114698
994.5114691
994.5114691
994.5114697
994.5114691
994.5114691
994.5114685
994.5114691
994.5114685
994.5114684
994.5114684
994.5114684
994.5114684
994.5114684
994.5114685
994.5114684
994.5114684
994.5114684
994.5114684
994.5114684
994.5114684
994.5114684
994.5114684
994.5114684
994.5114684
994.5114689
994.5114688
994.5114689
994.5114688
994.5114687
994.5114689
994.5114686
994.5114685
994.5114689
994.5114685
994.5114684
994.5114685
994.5114684
994.5114684
994.5114684
994.5114684
994.5114685
994.5114685
994.5114685
994.5114685
994.5114684
994.5114685
994.5114685
994.5114684
994.5114684
994.5114684
994.5114684
994.5114684
994.5114684
994.5114684
994.5114684
994.5114687
994.5114687
994.5114687
994.5114687
994.5114687
994.5114686
994.5114686
994.5114685
994.5114686
994.5114685
994.5114685
994.5114685
994.5114685
994.5114685
994.5114684
994.5114684
994.5114684
994.5114684
994.5114684
994.5114684
994.5114684
994.5114685
994.5114685
994.5114685
994.5114684
994.5114685
994.5114684
994.5114684
994.5114684
994.5114684
994.5114684
994.5114684
994.5114684
)
;

boundaryField
{
    walls
    {
        type            zeroGradient;
    }
    wallFilmFace_top
    {
        type            zeroGradient;
    }
    region0_to_wallFilmRegion_wallFilmFace
    {
        type            zeroGradient;
    }
    mirrorFace_top
    {
        type            zeroGradient;
    }
    region0_to_wallFilmRegion_mirrorFace
    {
        type            zeroGradient;
    }
    procBoundary3to2
    {
        type            processor;
        value           nonuniform List<scalar> 
64
(
994.5115268
994.5116769
994.5117253
994.5117176
994.511749
994.5118043
994.5118353
994.5117959
994.5114688
994.511474
994.5114719
994.5114717
994.5114717
994.5114724
994.5114723
994.5114723
994.5114723
994.5114722
994.5114691
994.5114181
994.5114188
994.5114223
994.5114319
994.5114319
994.5114683
994.5114683
994.5114683
994.5114593
994.5114697
994.5114697
994.5116568
994.5117176
994.5117176
994.5117436
994.511757
994.5114792
994.5116122
994.5114752
994.5114702
994.5116469
994.5116666
994.5117621
994.5117398
994.5115694
994.5114706
994.5114688
994.5114752
994.5116469
994.5114701
994.5116033
994.5117264
994.5117213
994.5117176
994.5117484
994.511829
994.5115591
994.5114929
994.5118188
994.5114742
994.5114695
994.5116895
994.5114867
994.511469
994.5114687
)
;
    }
}


// ************************************************************************* //
