/*--------------------------------*- C++ -*----------------------------------*\
  =========                 |
  \\      /  F ield         | OpenFOAM: The Open Source CFD Toolbox
   \\    /   O peration     | Website:  https://openfoam.org
    \\  /    A nd           | Version:  8
     \\/     M anipulation  |
\*---------------------------------------------------------------------------*/
FoamFile
{
    version     2.0;
    format      ascii;
    class       volVectorField;
    location    "0.3/wallFilmRegion";
    object      U;
}
// * * * * * * * * * * * * * * * * * * * * * * * * * * * * * * * * * * * * * //

dimensions      [0 1 -1 0 0 0 0];

internalField   nonuniform List<vector> 
1342
(
(1.993390575 1.008146382 -1.869990869)
(-0.05783613477 -0.1661631194 -0.6460709478)
(0.03089807332 0.1962631164 -2.491719591)
(-0.0189740227 0.3616543218 -4.805085736)
(-0.09798450126 0.3626406813 -5.084191638)
(-0.05449120819 0.1354645772 -3.336914007)
(0.3146899919 -0.2542578284 0.3664781618)
(-3.32402717 -0.01034410979 -7.540126834)
(-2.489822522 -0.01176811383 -8.199017887)
(-1.350250254 -0.01393613718 -9.187797676)
(1.213037666 -0.01523860276 -9.177755989)
(2.704011443 -0.01433537727 -8.140051264)
(3.759183738 -0.01367307857 -7.361003687)
(0.5263123483 -0.008976633627 -5.472423861)
(0.9035350508 -0.00946773621 -5.641406237)
(1.397174007 -0.01025753695 -5.994184967)
(1.923370356 -0.1968760501 -6.181842136)
(2.225683222 -0.619361098 -6.264034407)
(2.576404561 0.9393460007 -7.407735078)
(0.4923289264 0.6142699217 -6.494761475)
(0.3543716369 0.407373907 -6.325251237)
(0.2728852416 0.2998462933 -6.119693317)
(0.28498721 -0.04238136119 -6.134649054)
(1.52075886 -1.655377111 -6.181743053)
(3.011852849 -2.074555223 -6.565068948)
(-3.946171865 0.3780310321 -6.767076918)
(-2.959312911 0.4005226328 -7.405607203)
(-1.606712646 0.4560916055 -8.380386556)
(1.57843042 0.4519295364 -8.509582942)
(3.433365654 0.4000504544 -7.307862974)
(4.637016757 0.3541686607 -6.459376689)
(0.5305699917 0.2638016724 -4.956621143)
(0.9266845104 0.2651894164 -5.204155845)
(1.358738533 0.3452875688 -7.1482977)
(2.087294771 0.04684567006 -5.930506701)
(2.388299189 -0.4024350834 -6.192433291)
(2.78008138 -1.238289938 -7.088619764)
(3.961582804 0.8142001975 -7.609599973)
(2.882411797 0.7753694123 -7.587351641)
(2.09081761 0.2517198469 -7.633442093)
(2.179303921 -0.2829582356 -7.943152129)
(1.981603496 -0.4701758305 -7.317875239)
(3.275745731 0.2148687604 -6.246048594)
(-1.754683521 1.878829938 -7.42287711)
(1.820008423 1.885388108 -7.447611278)
(3.847898222 1.597469753 -6.312005553)
(5.097005762 1.398499075 -5.540836959)
(0.2255129454 1.143651764 -4.504404042)
(-0.04328545522 1.483742641 -5.900691181)
(1.356041655 2.10659704 -8.389436068)
(2.274704416 1.450883794 -6.696602215)
(1.87344249 -5.123145261 -9.74296251)
(2.935055261 -3.844348977 -7.326444323)
(3.941355909 -2.638926412 -5.071463122)
(4.76107625 -2.278096061 -4.389521712)
(0.5631559691 -2.269174855 -4.3440844)
(0.5336888826 -2.701951816 -5.140147564)
(1.271388402 -4.493712999 -8.570463766)
(2.209763447 -3.349281845 -6.884298945)
(4.882925589 -1.694527336 -7.363845851)
(5.47810517 0.1807090059 -9.273554742)
(4.102789635 -0.1719020429 -6.759402251)
(4.271294012 0.376096343 -6.299247353)
(3.224121949 2.400782346 -6.208002732)
(4.940844144 -6.625297224 -7.231970748)
(6.200332343 -5.744744863 -6.269927148)
(6.843379775 -4.571533888 -4.997143481)
(7.411108299 -3.947453384 -4.312812825)
(-0.2738232027 -3.306801187 -3.597943596)
(-0.7551031025 -5.203641112 -5.659647904)
(1.378017362 -6.745810287 -7.325103759)
(2.548992951 -5.568131808 -6.410185689)
(3.126079778 -4.275934826 -5.863826786)
(6.807079238 -2.214942697 -7.544731699)
(5.467192349 1.421861029 -6.032523338)
(4.730846225 2.622774742 -5.610924442)
(9.834299161 -6.095539638 -3.876456569)
(11.28459892 -5.661666478 -3.607897539)
(12.29320467 -5.224476714 -3.303637182)
(12.94749702 -4.763106795 -3.041145167)
(-2.739009338 -5.345854451 -3.407050689)
(-1.426021634 -6.974058602 -4.480599834)
(1.61940739 -7.60718717 -4.873700039)
(3.110549082 -6.658593861 -4.581671115)
(4.601608684 -5.416342538 -3.492105852)
(5.00881576 -4.515941126 -4.460200808)
(6.148142793 -3.649386419 -3.739084406)
(7.179219201 -1.673703393 -3.522825638)
(7.085229876 1.151249425 -4.121078656)
(-5.950761174 0.1682429844 -0.0848067671)
(-7.941493126 2.643621667 -1.29376879)
(-8.255525797 3.031499288 -1.477647465)
(-7.270409341 3.588452234 -1.741721174)
(-5.260882481 4.208243965 -2.036898839)
(-2.323693403 4.968065528 -2.414388163)
(2.165705414 5.051722155 -2.463790007)
(4.193748078 4.388160998 -2.582212368)
(5.452639608 3.47444148 -3.556405828)
(2.351581324 0.8987529217 -7.393135934)
(0.5180606818 0.2933927436 -3.422142842)
(2.385435342 1.202999388 -7.358213102)
(2.132035347 1.367610421 -7.067032308)
(1.35647779 1.324680128 -6.623993495)
(0.8726256298 1.114246593 -6.588318667)
(0.08981239277 0.1610445804 -1.23291893)
(0.01639414034 0.260304575 -3.731873159)
(0.05309248276 0.3858962324 -6.017440059)
(0.0124625576 0.3649288783 -5.954071026)
(-0.06757585747 0.396041669 -5.120800631)
(-0.02734104766 0.3523771417 -5.801450344)
(-0.04460148974 0.2565455991 -5.760506434)
(-0.2987213565 0.05954313746 -9.526811011e-05)
(-0.0906701727 0.008400767124 -1.324398014e-05)
(-0.06924978743 0.007444764661 -1.201592465e-05)
(-0.2380415886 0.03452999967 -5.503961552e-05)
(-0.05294479735 0.006174875871 -9.733980388e-06)
(-0.02990068432 0.0055928962 -8.92088767e-06)
(0.0141047778 0.03492889167 -5.559863657e-05)
(0.006211015632 0.005681682083 -9.05251433e-06)
(0.05684553339 0.006959021432 -1.099843778e-05)
(0.4290658327 0.04594999421 -7.367689873e-05)
(0.1130015244 0.01096334313 -1.732275972e-05)
(0.1725638582 0.01356418678 -2.16510306e-05)
(0.6450778206 0.04303129196 -6.881274101e-05)
(0.1947398941 0.01336778834 -2.11452528e-05)
(0.1836692623 0.0111335672 -1.80809954e-05)
(0.7960152646 0.03717817104 -5.880345081e-05)
(0.1509753164 0.007962258538 -1.263161933e-05)
(0.1085358744 0.004478317549 -7.164943344e-06)
(0.6852944214 0.04864289384 -7.757779235e-05)
(0.2112789383 0.02617513931 -4.215788287e-05)
(0.2842920786 0.02984426351 -4.714178463e-05)
(0.5891477978 0.04780565354 -7.486371439e-05)
(0.240572849 0.01994330479 -3.209274116e-05)
(0.4728956324 0.03284001938 -5.151766107e-05)
(0.718026809 0.06313651542 -8.452815195e-05)
(0.5095242405 0.02774170035 -4.432987054e-05)
(0.5425207924 0.01913650379 -2.945836776e-05)
(1.075663759 0.210123462 -0.0005161852758)
(1.049551191 0.1338072625 -0.0002018077098)
(1.127985225 0.1882897718 -0.0003125525831)
(0.1175845906 0.1007943834 -0.0001607085942)
(0.3191788318 0.251655167 -0.0004009736828)
(0.1849571201 0.142892027 -0.0002278632476)
(-5.340314793e-06 1.003718647e-06 -1.597464734e-09)
(0.00395557776 0.003027661282 -4.815464569e-06)
(-2.177127769e-10 -1.21786736e-10 1.943765745e-13)
(-2.642308996e-06 1.269633244e-06 -2.020411178e-09)
(-4.49420571e-12 2.435662494e-12 -3.884676139e-15)
(-5.285561759e-12 8.469076912e-13 -1.351407326e-15)
(3.339123087e-05 6.348014749e-06 -9.991999669e-09)
(-3.582156258e-12 -1.284716908e-12 2.047666121e-15)
(-3.761436067e-12 -9.950889036e-12 1.583536651e-14)
(0.001164016014 0.0001147324405 -1.8236273e-07)
(-1.026993987e-11 -5.204651454e-11 8.285810095e-14)
(-5.958935707e-11 -1.646184962e-10 2.620298177e-13)
(0.0007409263374 0.0001167156719 -1.8545723e-07)
(-4.359603836e-11 -2.668699156e-10 4.249300873e-13)
(4.565759616e-12 -1.821985594e-10 2.903804935e-13)
(3.555286774e-06 9.87945747e-07 -1.574690939e-09)
(7.019995014e-12 -8.210481792e-12 1.30965212e-14)
(5.337311365e-12 1.425072066e-12 -2.268620256e-15)
(0.0001511610151 1.512522596e-05 -2.394302097e-08)
(4.501107163e-12 4.595935144e-13 -7.340297586e-16)
(6.079323625e-12 -2.126644328e-12 3.379481913e-15)
(0.04369366181 0.003082522655 -4.904424988e-06)
(7.926639326e-12 -3.419974696e-12 5.445717885e-15)
(2.83388754e-06 6.601770225e-07 -1.047931172e-09)
(0.1172117929 -0.005074435371 8.286482327e-06)
(1.049029646e-08 -7.199510881e-09 1.143979737e-11)
(1.498325124e-06 -1.930438709e-06 3.075200013e-09)
(0.8096081996 0.07469972102 -0.0001177302231)
(0.003720187177 -9.323456706e-06 7.075380454e-09)
(0.008508505902 0.0003981327786 -6.175145315e-07)
(0.9068176473 0.3275497893 -0.0005215633711)
(0.9866353113 0.2318119907 -0.0003722311939)
(1.126361329 0.251249136 -0.0003990957064)
(0.1798929169 0.3287097555 -0.0005236856749)
(0.9533269699 0.4264076297 -0.0006779398447)
(0.4780387753 0.3873234911 -0.000617929063)
(0.1081283441 0.08054617753 -0.0001282848233)
(0.1337761162 0.0964867921 -0.0001532859399)
(0.0002794606928 0.0002034885606 -3.243855301e-07)
(-2.218903373e-12 2.087307046e-12 -3.319822084e-15)
(-3.58447661e-12 -3.465164821e-13 5.492466076e-16)
(-2.167126703e-12 -2.386637894e-13 3.816033906e-16)
(-8.691615003e-13 4.424170926e-12 -7.054012265e-15)
(-1.41358497e-12 -2.120077066e-13 3.372129751e-16)
(-9.918297387e-13 -2.652664645e-13 4.223364208e-16)
(-1.204568898e-13 6.474839238e-12 -1.030828106e-14)
(-5.403900789e-13 -2.42551716e-13 3.855383702e-16)
(-2.586827145e-13 -2.75719088e-13 4.389125408e-16)
(4.208588802e-13 6.290046878e-12 -1.002957587e-14)
(5.712933994e-15 -2.559934936e-13 4.071274626e-16)
(2.176282534e-13 -2.764061882e-13 4.395401605e-16)
(1.439902728e-12 4.7399574e-12 -7.547482927e-15)
(4.689626373e-13 -2.724663182e-13 4.335926736e-16)
(7.410175718e-13 -3.913717356e-13 6.229660358e-16)
(2.799387868e-12 7.243272372e-13 -1.149328051e-15)
(1.047481866e-12 -5.633866856e-13 8.977881461e-16)
(1.451874692e-12 -8.84943494e-13 1.411880184e-15)
(4.280979821e-12 -5.94819473e-13 9.407187877e-16)
(2.034195571e-12 -1.303166579e-12 2.077644995e-15)
(2.860839433e-12 -1.83894739e-12 2.924063354e-15)
(8.055471241e-12 -2.687494211e-12 4.294327166e-15)
(4.062115522e-12 -2.565802098e-12 4.080823595e-15)
(5.628451875e-12 1.450598239e-13 -2.17204237e-16)
(7.394110988e-12 -7.065547262e-12 1.126906926e-14)
(7.514315161e-12 -4.968694296e-12 7.904803415e-15)
(1.005085363e-11 -6.68665463e-12 1.061397451e-14)
(8.051304079e-09 -7.123168908e-09 1.136691672e-11)
(1.364103582e-11 -4.311632968e-12 6.86551813e-15)
(1.350433355e-11 -7.155844959e-12 1.138908779e-14)
(0.5623099786 0.1339633812 -0.0002122763211)
(6.882681103e-07 -1.403376189e-07 2.239933204e-10)
(0.001580284647 0.0004122695666 -6.55577107e-07)
(0.5205877567 0.4503088347 -0.0007167831772)
(1.4683154 0.5263222362 -0.000838835722)
(0.4726499187 0.4857935024 -0.0007752678192)
(-5.204710484e-12 1.797633719e-12 -2.856008668e-15)
(-3.311886379e-12 2.242714869e-12 -3.576576814e-15)
(-5.313876553e-12 1.547087683e-12 -2.463813702e-15)
(-2.433596744e-12 1.477973057e-12 -2.35290637e-15)
(-3.1963465e-12 1.209694959e-12 -1.923690354e-15)
(-2.608150083e-12 9.600562125e-13 -1.525693981e-15)
(-9.679481883e-13 1.237179441e-12 -1.969817293e-15)
(-1.562024304e-12 8.799174184e-13 -1.404994579e-15)
(-1.074993209e-12 7.626885618e-13 -1.214254334e-15)
(-8.57178575e-14 1.0748797e-12 -1.714301719e-15)
(-5.308274511e-13 7.341116558e-13 -1.168189486e-15)
(-1.932624924e-13 6.739657998e-13 -1.072695712e-15)
(4.936836466e-13 9.80269459e-13 -1.56247754e-15)
(1.055673685e-13 6.612882771e-13 -1.053199971e-15)
(3.211060844e-13 6.130799662e-13 -9.77172048e-16)
(1.044609265e-12 9.130809684e-13 -1.456514131e-15)
(5.064294497e-13 5.87549505e-13 -9.361726296e-16)
(6.620721859e-13 5.002083485e-13 -7.951651576e-16)
(1.741319208e-12 7.381583294e-13 -1.173374017e-15)
(8.401582526e-13 4.149455008e-13 -6.620943297e-16)
(1.061787235e-12 2.566646031e-13 -4.066176406e-16)
(2.700084263e-12 3.705129025e-13 -5.988253168e-16)
(1.38585762e-12 8.717282046e-14 -1.379385367e-16)
(1.841464093e-12 -1.511205078e-13 2.373611193e-16)
(4.275284713e-12 -4.244824347e-13 6.801793812e-16)
(2.497039675e-12 -4.37449542e-13 6.985255143e-16)
(3.363632384e-12 -8.334116809e-13 1.326550084e-15)
(6.805496949e-12 -1.972649107e-12 3.151793752e-15)
(4.49394403e-12 -1.320550405e-12 2.088626428e-15)
(5.973630665e-12 -1.929586588e-12 3.083496644e-15)
(1.122819663e-11 -4.997269812e-12 7.965511574e-15)
(7.993629937e-12 -2.718502811e-12 4.331657555e-15)
(1.039250021e-11 -3.593659403e-12 5.712797531e-15)
(4.820762782e-10 -2.482203516e-10 3.950866055e-13)
(1.513194785e-11 -4.873101965e-12 7.764656902e-15)
(-1.087757457e-11 -3.062739228e-12 4.871161397e-15)
(0.4493913418 0.4924859621 -0.0007846996661)
(0.5050027925 0.2694222381 -0.0004294985928)
(0.4868302246 0.4421659113 -0.0007050852038)
(0.06048746742 0.3063150793 -0.0004879253019)
(0.1775447474 0.4270093603 -0.0006800460985)
(0.05293909762 0.2982801182 -0.0004749322501)
(-6.094511711e-12 2.708457653e-12 -4.316379065e-15)
(5.225755697e-14 3.293515515e-12 -5.245645203e-15)
(-6.743172755e-12 2.660718997e-12 -4.254405037e-15)
(-2.895862131e-12 1.89027865e-12 -3.011748369e-15)
(-3.962541335e-12 1.88323108e-12 -2.990290545e-15)
(-3.102996439e-12 1.567482321e-12 -2.500577492e-15)
(-1.167163299e-12 1.500037811e-12 -2.388379987e-15)
(-1.874098585e-12 1.291696027e-12 -2.053341226e-15)
(-1.258336815e-12 1.148187303e-12 -1.830506237e-15)
(-1.857777906e-13 1.324134948e-12 -2.108418422e-15)
(-6.558781897e-13 1.093849545e-12 -1.741723015e-15)
(-2.663212755e-13 1.028157703e-12 -1.635514118e-15)
(3.990580461e-13 1.224726006e-12 -1.9485931e-15)
(4.810475107e-14 1.051407576e-12 -1.670826447e-15)
(2.760210141e-13 9.698808549e-13 -1.544213062e-15)
(8.087885236e-13 1.136537039e-12 -1.809281218e-15)
(4.652293893e-13 9.928619688e-13 -1.582439949e-15)
(6.030810946e-13 8.547862949e-13 -1.361488416e-15)
(1.254470521e-12 1.051832895e-12 -1.672898135e-15)
(7.71754489e-13 8.764266978e-13 -1.395164872e-15)
(9.162660867e-13 7.328397774e-13 -1.166667092e-15)
(1.944729858e-12 9.287334293e-13 -1.481511659e-15)
(1.179629295e-12 7.379927752e-13 -1.175090894e-15)
(1.477769079e-12 5.969018555e-13 -9.493056862e-16)
(3.065409917e-12 7.018379708e-13 -1.112616553e-15)
(1.970597231e-12 5.613189873e-13 -8.928995009e-16)
(2.570889132e-12 4.210250256e-13 -6.661811311e-16)
(4.87953929e-12 2.599752735e-13 -4.136785815e-16)
(3.41451545e-12 3.273883502e-13 -5.240530563e-16)
(4.545191823e-12 1.664589632e-13 -2.608103027e-16)
(8.138478824e-12 -5.526687314e-13 8.81695986e-16)
(6.053915204e-12 6.08656862e-14 -9.769733151e-17)
(4.785980568e-12 -1.877419548e-13 2.971936516e-16)
(1.887457872e-11 -2.919579334e-12 4.679109825e-15)
(3.582835013e-10 -2.579049219e-12 3.832727111e-15)
(5.403816355e-07 -8.429035757e-08 1.344965119e-10)
(1.119660014 -0.694241209 0.001104025608)
(0.2480119213 -0.1253210859 0.000199934904)
(1.788164973 -0.9720872984 0.001550534659)
(0.03208101089 0.1485785881 -0.0002367818162)
(1.985022615 -0.8321623852 0.001325952701)
(0.006275661125 0.2649854797 -0.0004222025264)
(-7.908368225e-12 4.212247903e-12 -6.701113244e-15)
(-4.116818252e-12 5.97480104e-13 -9.58849181e-16)
(-8.25140816e-12 3.402455486e-12 -5.40289521e-15)
(-3.530011295e-12 2.648673391e-12 -4.222687368e-15)
(-5.033814461e-12 1.717893902e-12 -2.74136956e-15)
(-3.533835818e-12 1.426041354e-12 -2.270231697e-15)
(-1.360420343e-12 1.994794722e-12 -3.17700791e-15)
(-2.198263281e-12 9.761797749e-13 -1.561651639e-15)
(-1.357095305e-12 8.953197982e-13 -1.424774854e-15)
(-2.584910413e-13 1.850957936e-12 -2.952200076e-15)
(-7.542519483e-13 9.010375147e-13 -1.433389483e-15)
(-3.027169953e-13 9.713530983e-13 -1.546518915e-15)
(3.230994869e-13 1.843187903e-12 -2.934839337e-15)
(-4.306918066e-14 1.149993418e-12 -1.831321818e-15)
(1.531366455e-13 1.15891425e-12 -1.846289348e-15)
(7.115059607e-13 1.654360892e-12 -2.634167576e-15)
(2.777352501e-13 1.288781048e-12 -2.052022242e-15)
(4.015300863e-13 1.039173371e-12 -1.655112933e-15)
(1.1209303e-12 1.440095902e-12 -2.295913434e-15)
(6.271518486e-13 1.184574878e-12 -1.888355122e-15)
(7.839396085e-13 9.202981241e-13 -1.468664186e-15)
(1.692226901e-12 1.312121994e-12 -2.087567568e-15)
(1.107419774e-12 1.110182886e-12 -1.765385534e-15)
(1.385031434e-12 9.075042461e-13 -1.44607753e-15)
(2.714791157e-12 1.352811903e-12 -2.15903502e-15)
(1.966012723e-12 1.599723305e-13 -2.543545613e-16)
(2.564375945e-12 -8.580577532e-13 1.366393394e-15)
(4.508345186e-12 1.539918653e-12 -2.457861695e-15)
(3.49319681e-12 -7.604251951e-13 1.208556178e-15)
(1.009674588e-12 1.568652711e-12 -2.496843496e-15)
(7.032494003e-12 -6.724882838e-13 1.068522572e-15)
(2.159323694e-09 3.015796788e-09 -4.802237013e-12)
(2.911895978e-08 9.130093043e-09 -1.450890115e-11)
(0.0401104817 -0.01570312036 2.498867056e-05)
(0.1843522518 -0.06810440299 0.0001083410207)
(0.90246337 -0.3158345052 0.0005034601658)
(1.507846657 -0.6397225382 0.001020085903)
(1.221844742 -0.4404716042 0.0007002770449)
(0.549354866 -0.3227148207 0.0005139119339)
(-3.390540885e-07 3.222546667e-07 -5.127521394e-10)
(-6.416404184e-07 1.362603588e-06 -2.169438174e-09)
(-7.034902342e-12 5.494385382e-12 -8.734621623e-15)
(-9.675896149e-11 7.198627168e-11 -1.14695909e-13)
(-4.566589761e-10 8.011407396e-10 -1.274685117e-12)
(-4.225068505e-12 2.188309271e-12 -3.475883511e-15)
(-1.748668882e-09 4.5638225e-09 -7.271114997e-12)
(-7.074159389e-09 1.556149314e-08 -2.478232973e-11)
(-1.432902855e-12 3.071190489e-13 -4.899642898e-16)
(-2.719009816e-08 3.496579854e-08 -5.574044144e-11)
(-2.645541843e-09 8.073513475e-09 -1.286618112e-11)
(-1.080936064e-13 2.385422863e-13 -3.79812213e-16)
(-3.118220374e-10 1.095955645e-09 -1.746214183e-12)
(-7.469765957e-12 7.050497387e-11 -1.122634727e-13)
(4.85995668e-13 4.550157779e-12 -7.248673776e-15)
(2.114922092e-10 7.40509382e-10 -1.179367414e-12)
(2.317310757e-12 3.793469941e-12 -6.041358894e-15)
(7.935624943e-13 1.869896442e-12 -2.980685183e-15)
(-1.60035244e-11 3.930956859e-11 -6.254831873e-14)
(-6.918389095e-11 9.595380573e-10 -1.52755547e-12)
(1.330760712e-12 3.305261944e-12 -5.258379519e-15)
(7.155468947e-12 1.952469853e-11 -3.10732407e-14)
(-1.923368217e-12 5.539690092e-12 -8.82314141e-15)
(8.199605348e-13 4.087842778e-13 -6.515895839e-16)
(-1.760049461e-10 2.706423418e-09 -4.309497776e-12)
(8.288757788e-09 4.606272389e-08 -7.34090102e-11)
(2.138898066e-12 4.207151382e-12 -6.70270294e-15)
(3.943615031e-06 -1.801268336e-06 2.869087115e-09)
(2.034041063e-05 -7.861348553e-06 1.250962125e-08)
(5.971890676e-12 1.265066976e-12 -2.007185404e-15)
(3.137362036e-05 -5.929238518e-06 9.429560873e-09)
(6.869524376e-08 3.511748325e-08 -5.581329678e-11)
(0.01616793403 -0.003930488052 6.292076105e-06)
(0.3528486735 -0.07623092668 0.0001212685156)
(0.8986944751 -0.1596826414 0.0002532882612)
(1.78280629 -0.4567341812 0.0007259357363)
(1.960414037 -0.3672388264 0.0005885456484)
(1.998913179 -0.4875342623 0.0007732162345)
(-0.03047809501 0.05793351491 -9.222398024e-05)
(0.5330164544 -0.303598502 0.0004832412391)
(-0.4070639946 0.1013678301 -0.0001615030352)
(-0.0002351243764 -1.61737236e-05 2.555700351e-08)
(-0.2230230081 -0.01509013453 2.396072279e-05)
(-0.005495183059 -0.0005241513995 8.460901901e-07)
(-0.2699783078 -0.02151203493 3.4583303e-05)
(-0.281540021 -0.02609575396 4.139399836e-05)
(-0.0142782784 -0.001594975157 2.566911651e-06)
(-0.2727671865 -0.02960630853 4.651977847e-05)
(-0.2463832794 -0.03148679487 5.072576133e-05)
(-0.005743929223 -0.0008204674637 1.304644598e-06)
(-0.2024943267 -0.03066077794 4.855737081e-05)
(-0.1444306388 -0.0263644872 4.209957381e-05)
(-0.0003730066525 -4.294332225e-05 6.885137733e-08)
(-0.09038949728 -0.02072057916 3.313928899e-05)
(-0.05666921922 -0.01485007182 2.359775168e-05)
(-1.366313229e-06 6.760344982e-06 -1.07729225e-08)
(0.03468720902 -0.01888074097 3.007623269e-05)
(0.001240500131 -0.008418360581 1.339228326e-05)
(-0.0007824721303 -0.000126650907 2.012061431e-07)
(-0.02821021147 -0.05242869477 8.344561873e-05)
(-0.06756824261 -0.01800375877 2.862910298e-05)
(-0.0003332041849 2.748401559e-06 -4.750728988e-09)
(-0.0944552757 -0.01178025304 1.883257884e-05)
(-0.1133380186 -0.007628745694 1.210769818e-05)
(-0.001716195615 -0.001232255257 1.964194234e-06)
(-0.09494313671 -0.01381657788 2.200430085e-05)
(0.08508779944 -0.02387354532 3.803255888e-05)
(0.03249183141 -0.01162008685 1.853068408e-05)
(0.2503046407 -0.03207534943 5.01959392e-05)
(0.3455265412 -0.03524020013 5.648549339e-05)
(0.0473455362 -0.004617947319 7.470664396e-06)
(0.4879561388 -0.03882751321 6.177085068e-05)
(1.054220512 -0.06431558349 0.0001203090156)
(1.861584323 -0.2097780131 0.0003131501458)
(1.85410653 -0.1448742417 0.0005253550199)
(2.045799407 -0.2116478242 5.765930464e-05)
(1.10024896 -0.3151561064 -5.719246797)
(1.065641495 -1.043530698 -6.781627528)
(2.008376657 -0.3019932301 -5.475187775)
(1.528390919 -1.002386728 -6.504220269)
(2.051606093 -1.008211365 -6.546950147)
(2.964619502 -0.2289832636 -4.250661899)
(2.569444885 -0.8588388418 -5.595096606)
(3.130741487 -0.7166940033 -4.602164578)
(3.927221077 -0.1913314543 -3.673992617)
(3.686795132 -0.6157067194 -4.000075698)
(4.213462328 -0.5753834655 -3.708777343)
(0.4515372636 -0.2925319205 -5.825834498)
(4.706096179 -0.5526367266 -3.582545059)
(0.4371469781 -0.8677774348 -5.570348783)
(0.7703868948 -0.2876391498 -5.764404934)
(0.5799375899 -0.8585784735 -5.456498647)
(0.7736010443 -0.8741314841 -5.549118904)
(1.158283655 -0.3445817127 -6.766459129)
(1.012615187 -0.8892601318 -5.718880421)
(0.9645094123 -1.228410792 -7.912177193)
(1.876759823 -0.2731282122 -6.514501717)
(1.443502611 -1.098562391 -6.99791069)
(1.880909263 -0.9943768154 -6.461043255)
(2.23454506 0.09927661397 -7.02351128)
(2.154225196 -0.8218814748 -6.579931416)
(2.334962694 -0.6150721021 -6.889178098)
(2.813427 -0.1756648195 -7.472854098)
(3.015346819 0.2212042553 -7.498157046)
(3.097142386 0.7499590136 -7.352085498)
(2.605425912 1.123927222 -7.103047093)
(0.7195349154 0.7602575108 -6.564362796)
(1.444063414 0.6924994086 -6.965469783)
(1.057402691 -1.996880972 -7.840257043)
(2.111826977 -1.969653766 -7.729171692)
(3.279527266 -1.258694068 -4.99345912)
(4.457860858 -0.9820611835 -3.847183827)
(0.4245276911 -1.332763812 -5.275154156)
(0.7778287115 -1.3209295 -5.291693417)
(0.7816821851 -2.246226015 -8.876863473)
(1.839045291 -1.71138793 -6.809583232)
(1.117181379 -3.285025636 -8.547269361)
(1.551063808 -3.248258277 -8.464901357)
(4.517954085 -1.587453965 -4.080321267)
(4.998706394 -1.489180538 -3.865485504)
(0.4136730507 -1.912801055 -4.919919007)
(0.5727340535 -1.887090716 -4.854014329)
(1.823512222 -2.79396597 -7.272317586)
(2.449195165 -1.376169304 -6.679979265)
(2.177128794 -2.327432286 -6.516064545)
(2.526303332 -2.09489276 -6.381672565)
(3.117339364 -0.8655917842 -7.405936614)
(2.910678432 -1.880656298 -6.788902427)
(3.885032384 0.1588549856 -7.521657022)
(4.125381907 -1.079040809 -7.488344475)
(4.917974842 0.2884087842 -7.832028621)
(1.511703312 -5.015048636 -9.528419469)
(2.73233964 -5.081003512 -9.693710332)
(3.435991743 -3.043153551 -5.825505335)
(3.595151632 -4.816628157 -7.023633173)
(3.893319593 -3.979102431 -5.795818157)
(4.381208164 -2.431452718 -4.648028154)
(4.248401091 -3.525189681 -5.150459954)
(0.3946932327 -2.286258378 -4.38488623)
(0.6969369438 -2.355741909 -4.479397489)
(0.483711422 -2.681696242 -3.920471634)
(0.2144117701 -2.979329919 -4.355124906)
(0.5420050077 -4.854886564 -9.269986358)
(-0.08073112816 -3.72379099 -5.453819407)
(0.4947230283 -5.998579473 -8.78437332)
(1.876482722 -4.001010308 -7.671617655)
(2.498174001 -2.768423534 -6.35156662)
(3.794616087 -2.342675207 -6.878333121)
(3.000952588 -3.336308536 -6.126922096)
(5.539031659 -0.918793688 -7.741470823)
(4.954523461 -2.449838583 -6.993381772)
(6.217218002 -1.578013802 -7.615902669)
(7.023016144 -0.6760041587 -9.279446851)
(4.277130146 -6.54473059 -7.158702521)
(9.462394163 -5.692118704 -4.580144195)
(7.140033878 -4.23823006 -4.590023533)
(9.805983411 -5.294716044 -4.299322576)
(-1.656914899 -4.49210107 -3.631540656)
(-1.692730265 -5.461477223 -4.415643417)
(0.4412409941 -7.24790036 -7.873831047)
(-1.145759163 -6.480604236 -5.239707164)
(0.4002234826 -8.080735502 -6.537262563)
(2.109391081 -6.221947822 -6.793139872)
(1.485620497 -7.530998212 -6.09360061)
(2.814925068 -4.880377504 -6.084021052)
(3.700429723 -5.351836982 -5.056042497)
(5.7931857 -3.546037146 -5.201744934)
(11.2709921 -5.7374142 -2.789205152)
(12.54074198 -5.289544922 -2.608509395)
(-2.589097836 -6.383553285 -3.132722884)
(3.8052293 -6.268168513 -3.877446203)
(5.322546043 -4.597860003 -3.429937161)
(0.304748289 0.2435200167 -0.0003880856443)
(1.418876401 -0.006477461722 -4.521651006)
(0.3633485058 0.1014922728 -0.0001620723184)
(2.098286917 -0.005829850976 -4.336080791)
(0.4401998969 0.05163405188 -8.253608471e-05)
(2.771542521 -0.004950086976 -3.998380311)
(0.5593910284 0.04593849338 -7.232421657e-05)
(3.447192839 -0.004403042147 -3.872994926)
(0.757736606 0.008387021015 -1.260379899e-05)
(0.5957792387 -0.009442593827 -6.115667124)
(0.9754700399 0.02213151686 -3.728124344e-05)
(0.9450349876 -0.009540958535 -6.301716189)
(0.8766639382 0.03497782282 -5.514548618e-05)
(1.429644778 -0.009654214527 -6.538077247)
(0.928704177 0.05167829963 -7.405715072e-05)
(1.925689135 0.1718639795 -6.867983746)
(2.10425855 0.7553050426 -6.510523489)
(1.073882102 0.1248138269 -0.0001398639728)
(2.166084008 0.5758584652 -6.331037313)
(-0.2692360484 0.04777670098 -7.558824799e-05)
(-0.2807953265 0.04631171631 -7.320034507e-05)
(-0.1270682347 0.03567524485 -5.684935443e-05)
(0.2747765728 0.04548510307 -7.196472451e-05)
(0.547532089 0.04487654118 -7.099599576e-05)
(0.7253667744 0.04099354538 -6.53445436e-05)
(0.71079114 0.07471668584 -0.0001192984072)
(0.6153068223 0.05692921528 -9.193863997e-05)
(0.5983583336 0.03998139936 -6.303193155e-05)
(1.026973712 0.1526775862 -9.483932364e-05)
(0.6686674556 0.3552910588 -0.0006491917061)
(0.1651600925 0.1002059566 -3.417884158)
(0.0586515159 -0.1326736697 0.0002113863789)
(0.2973024158 0.2272783012 -3.131630703)
(0.250896498 0.2204016585 -0.0003506571186)
(0.000861452791 0.0007690175761 -1.224449836e-06)
(-4.256156038e-06 1.078061721e-06 -1.726814999e-09)
(1.758587457e-06 1.739869654e-06 -2.777598136e-09)
(0.0002067436074 2.522630767e-05 -4.044931408e-08)
(0.00133267682 0.0001466759768 -2.351011522e-07)
(0.0001337741744 3.325996136e-05 -5.296706164e-08)
(7.179858234e-05 9.193808784e-06 -1.476042574e-08)
(6.575845109e-06 7.670129781e-09 -1.754544874e-11)
(0.05168648437 -0.001011477919 1.578866344e-06)
(0.4388924108 0.01337306692 -2.149806434e-05)
(0.8462791763 0.3590308869 -0.0005743767958)
(0.5778744495 0.4752062997 -0.0007569864712)
(0.1992983706 0.1889565999 -2.993081303)
(0.1171725312 0.1795391151 -2.271687483)
(0.3605784928 0.2160069274 -0.0003432447392)
(0.3048951106 0.229005596 -0.0003651031485)
(5.271651161e-05 3.928958645e-05 -6.248399687e-08)
(-1.292257381e-12 2.703026926e-12 -4.300771808e-15)
(-3.793440094e-13 6.003170179e-12 -9.570587549e-15)
(1.368186289e-13 6.495257657e-12 -1.035473507e-14)
(8.705744449e-13 5.815270666e-12 -9.268131342e-15)
(2.089254172e-12 2.934032814e-12 -4.668241258e-15)
(3.434759002e-12 4.214408426e-14 -6.684836703e-17)
(1.588533067e-12 -1.707314919e-12 2.719711265e-15)
(1.378828855e-11 -7.456074501e-13 1.185964334e-15)
(5.718073148e-10 -4.494518922e-10 7.165420863e-13)
(0.05037738005 0.00940057414 -1.504608574e-05)
(1.327435817 0.3561901358 -0.0005655403695)
(0.1941426542 0.3632658449 -0.0005781190651)
(6.648758595e-05 4.80903021e-05 -7.658766228e-08)
(-2.856110858e-12 1.839689309e-12 -2.925938333e-15)
(-1.4463491e-12 1.396663699e-12 -2.225474882e-15)
(-4.286304746e-13 1.172374685e-12 -1.869100521e-15)
(2.299802231e-13 1.028564771e-12 -1.640581203e-15)
(7.636862796e-13 9.701654665e-13 -1.545898329e-15)
(1.366768059e-12 8.545174045e-13 -1.360423961e-15)
(2.175101947e-12 5.988746807e-13 -9.494539089e-16)
(3.402200574e-12 7.408328163e-14 -1.127739298e-16)
(5.361277687e-12 -1.070409542e-12 1.699651119e-15)
(8.755672753e-12 -3.248661637e-12 5.162899701e-15)
(1.058755568e-11 -3.57026431e-12 5.703309983e-15)
(1.296839373 0.6145625655 -0.0009787343533)
(0.1038528723 0.4478438938 -0.0007123086368)
(-1.413282858e-12 3.386135921e-12 -5.398553101e-15)
(-3.592428181e-12 2.194763689e-12 -3.48832927e-15)
(-1.726084667e-12 1.671419254e-12 -2.657548643e-15)
(-5.661206194e-13 1.424195013e-12 -2.266949441e-15)
(1.463838483e-13 1.305810605e-12 -2.080844257e-15)
(6.205117751e-13 1.219339872e-12 -1.939208425e-15)
(1.023744972e-12 1.134408347e-12 -1.808676709e-15)
(1.575777032e-12 1.028624415e-12 -1.640040732e-15)
(2.454356682e-12 8.545487617e-13 -1.366773227e-15)
(3.86164936e-12 5.227412019e-13 -8.405174575e-16)
(6.335735422e-12 -5.661450499e-14 1.006568014e-16)
(9.845258919e-12 -4.123966338e-12 6.545261292e-15)
(0.009233059596 0.003922714741 -6.252034893e-06)
(1.96347399 -1.129202898 0.001799005292)
(-1.410262381e-12 4.558377297e-12 -7.2520631e-15)
(-4.708835556e-12 2.973050545e-12 -4.741351464e-15)
(-2.118435711e-12 2.19895824e-12 -3.502412823e-15)
(-7.03999652e-13 1.939939153e-12 -3.093487014e-15)
(5.789375482e-14 1.967533672e-12 -3.137380098e-15)
(5.177703951e-13 1.906401931e-12 -3.035193063e-15)
(9.38260516e-13 1.671704516e-12 -2.662042706e-15)
(1.425346073e-12 1.4693368e-12 -2.343852344e-15)
(2.196195061e-12 1.396966372e-12 -2.225477307e-15)
(3.510260628e-12 1.494474551e-12 -2.383659835e-15)
(5.847997919e-12 -1.579870107e-12 2.524718826e-15)
(0.0002770973398 -0.000101427061 1.6113431e-07)
(1.246984897 -0.5541977089 0.0008826692549)
(1.318007226 -0.4625433284 0.0007366603227)
(-1.036818902e-11 2.710988076e-12 -4.329210638e-15)
(-6.640503534e-12 2.947175255e-12 -4.68983813e-15)
(-2.560063345e-12 1.149945685e-12 -1.835835122e-15)
(-7.08126695e-13 8.670293326e-14 -1.37486172e-16)
(1.873461998e-13 1.474907451e-12 -2.347955304e-15)
(5.070137232e-13 3.839516925e-12 -6.123065601e-15)
(1.06258304e-12 2.811196208e-12 -4.478262356e-15)
(1.65300804e-12 -3.289655789e-13 5.259822304e-16)
(3.282541846e-13 2.208043082e-12 -3.513456191e-15)
(7.707783158e-12 4.266889072e-12 -6.810031212e-15)
(0.00227452792 -0.000563193043 8.918171836e-07)
(1.233883677 -0.3557661349 0.0005664969931)
(0.643571143 -0.3096479648 0.0004935750259)
(-0.12155679 0.4062535312 -0.0006468835345)
(0.001880613693 0.05430855902 -8.661316995e-05)
(-0.001908270202 -0.0001807335356 2.869108236e-07)