/*--------------------------------*- C++ -*----------------------------------*\
  =========                 |
  \\      /  F ield         | OpenFOAM: The Open Source CFD Toolbox
   \\    /   O peration     | Website:  https://openfoam.org
    \\  /    A nd           | Version:  8
     \\/     M anipulation  |
\*---------------------------------------------------------------------------*/
FoamFile
{
    version     2.0;
    format      ascii;
    class       scalarField;
    location    "0.8/lagrangian/reactingCloud1";
    object      mass0;
}
// * * * * * * * * * * * * * * * * * * * * * * * * * * * * * * * * * * * * * //


58
(
1.079382079e-07
6.943783799e-08
1.894316488e-07
5.279572341e-07
1.717958831e-07
1.63772286e-07
7.674133557e-08
1.388317357e-07
9.102559072e-08
2.241395347e-07
5.349557324e-07
1.131653828e-07
9.884778511e-08
1.177241802e-07
2.664468809e-07
2.169179935e-07
5.527955655e-07
2.225778874e-07
3.773385022e-07
1.530870611e-07
6.983352353e-08
7.439714871e-08
1.024894517e-07
1.335505767e-07
5.804233732e-07
2.489335072e-07
2.188238601e-07
8.647009436e-08
1.493422317e-07
7.761714841e-08
7.926670828e-07
1.346705325e-07
4.24618736e-07
9.068687158e-08
2.027544722e-07
1.300822109e-07
3.05679765e-07
2.544907696e-07
1.326954845e-07
1.241370084e-07
1.081450697e-07
3.098907896e-07
4.088755018e-07
1.175894047e-07
1.969432008e-07
1.467997533e-07
2.439811531e-07
5.078665326e-07
2.483274926e-07
1.658162154e-07
1.362030357e-07
1.200157933e-07
6.312739338e-07
6.60888656e-07
1.873965816e-07
8.947893713e-08
6.088854246e-07
1.448973735e-07
)


// ************************************************************************* //
