/*--------------------------------*- C++ -*----------------------------------*\
  =========                 |
  \\      /  F ield         | OpenFOAM: The Open Source CFD Toolbox
   \\    /   O peration     | Website:  https://openfoam.org
    \\  /    A nd           | Version:  8
     \\/     M anipulation  |
\*---------------------------------------------------------------------------*/
FoamFile
{
    version     2.0;
    format      ascii;
    class       scalarField;
    location    "0.8/lagrangian/reactingCloud1";
    object      T;
}
// * * * * * * * * * * * * * * * * * * * * * * * * * * * * * * * * * * * * * //


58
(
300
299.9999567
300
299.9999761
300
300
300
299.9999927
299.9999927
299.9999926
299.9999927
299.999998
299.9999925
299.9999998
300
299.9999923
299.9999875
299.9999741
299.9999905
299.9999925
299.9999918
299.9999919
299.9999932
300
299.9999865
299.9999911
300
300
299.9999985
300
300
300
300
300
299.9999981
300
300
300
300
300
300
299.9999854
300
300
300
300
299.9999841
299.9999916
300
300
299.999986
300
300
300
300
300
299.9999991
300
)


// ************************************************************************* //
