/*--------------------------------*- C++ -*----------------------------------*\
  =========                 |
  \\      /  F ield         | OpenFOAM: The Open Source CFD Toolbox
   \\    /   O peration     | Website:  https://openfoam.org
    \\  /    A nd           | Version:  8
     \\/     M anipulation  |
\*---------------------------------------------------------------------------*/
FoamFile
{
    version     2.0;
    format      ascii;
    class       volScalarField;
    location    "1.5/wallFilmRegion";
    object      alpha;
}
// * * * * * * * * * * * * * * * * * * * * * * * * * * * * * * * * * * * * * //

dimensions      [0 0 0 0 0 0 0];

internalField   nonuniform List<scalar> 
1342
(
0.01762606291
0.01863816256
0.002678972777
0.0009086031055
0.0004588509808
0.0007706958561
0.0005406076236
0.1125978826
0.2239711733
0.6660608863
0.09452698262
0.1841389241
0.2107047852
0.1450204236
0.0432554991
0.0041707443
0.000778682813
0.0008877419307
0.002007262944
0.0002880347785
0.0001584199824
0.0001776988361
9.640705217e-05
4.62560368e-05
4.389085921e-05
0.06835338141
0.1744728266
0.1299589952
0.006553562611
0.03212620617
0.02034057122
0.002882285928
6.368288046e-05
4.78739481e-05
3.440688485e-05
2.007486739e-05
0.001591466461
0.0007350624695
0.0003140871577
0.000110009122
0.0002670999521
9.179802489e-05
2.040877936e-05
0.04763165191
0.001531742584
0.0052546678
0.0006518260191
0.000117751997
6.563366363e-05
2.922646706e-05
1.404419017e-05
6.608288835e-06
2.312111258e-05
7.274721484e-05
0.0001832463021
0.0003129325696
0.009193271545
0.002027574513
0.0007944469347
0.0006078882052
0.0001261571715
2.358170375e-05
2.584024823e-05
9.085522817e-06
5.149331633e-07
1.563537055e-06
4.636068655e-06
1.259869541e-05
3.586505884e-05
0.06387379059
0.01500034395
0.002733265239
0.0006541336213
0.0005924564729
4.961944774e-05
2.073047085e-05
1.792804812e-08
3.992216468e-08
9.075209798e-08
2.066126658e-07
1.348016857e-06
0.206665791
0.05089899306
0.01504459108
0.008460778009
0.003789854709
0.00566842059
0.00595381114
0.003834372225
1.796950833e-05
0.0005023934298
0.001543410499
0.004019338277
0.0143594392
0.2320247136
0.07574103845
0.007467077734
0.0006831859621
0.003308667321
0.01613507195
0.00268686037
0.002347493681
0.001663688949
0.001260720819
0.01658328897
0.002067584295
0.0002607340017
0.0002097765103
0.0006160702737
0.0001995131175
0.000162191278
0.2176996278
1.131715994
0.5272301775
0.07056291428
0.01521588059
0.004925969574
0.002434003901
0.0005683635783
0.0001803829871
0.006063289359
0.0004013027899
0.001204506742
0.01251324341
0.00354201624
0.01718279407
0.04268533768
0.07080556826
0.05362946226
0.04315276622
0.0711470958
0.0005979891057
0.1059514604
0.0002293959234
0.0001452237154
0.1064000176
7.211103056e-05
1.378737249e-05
0.4895156118
0.05115228963
0.1788715045
0.3857582001
0.03305092802
0.3891899612
1.13580417
1.135959222
1.107061818
0.0009976819139
0.09823953908
0.004240321791
0.000446703282
0.0002881876664
0.0002914530693
0.0004368688439
0.0002585927476
0.0001792075294
0.02097369249
9.873797861e-05
0.02574947074
0.009890826562
0.01143862146
0.002210910262
0.0003433952745
0.0003090967812
0.0003258983957
0.0002509580142
0.0003485577751
0.0003418111686
6.461050395e-05
0.0003239666868
0.0003849103703
0.04989270989
0.001121724005
0.01038659266
0.3611659812
0.05394572606
0.1223391765
1.593916375
0.3338534939
0.836848303
0.5657818954
1.108033816
0.8429018127
1.01487888
0.526512697
0.6988588078
0.03703650035
0.2379005636
0.03213963073
0.0001810354027
0.0002708054786
9.242117104e-05
0.0001290615338
0.0001233983118
0.0002033893972
0.01138403182
4.248071651e-05
0.004137123484
0.00166901396
0.01020448428
0.001931612489
0.0002378737675
0.0001258164379
0.0001317683613
0.0002878882689
0.0001554844683
0.0001780476314
0.0002030838297
0.000195202082
0.0001892674136
0.0008397594355
0.0001637023694
0.0003190106606
0.02657273547
0.00013964617
0.006007604882
0.4578728736
0.03658027214
0.2568591645
1.083445739
2.258706061
1.43509186
0.03897494245
0.3693803086
0.008222367503
0.001243065728
0.007587493198
0.0001312290433
4.986773795e-05
0.0004480860189
0.0001021065645
0.0005297354442
0.0001264414478
0.0004159103791
0.003860198736
0.0009014271917
0.003700396908
0.002047056519
0.009158805629
0.002209422826
6.997533964e-05
8.878564405e-05
3.959906545e-05
6.76867747e-05
2.654937173e-05
1.959206229e-05
0.0001198822241
1.815770455e-05
2.043139667e-05
0.0002462144771
2.469434931e-05
3.249214412e-05
0.0008735410032
5.127799599e-05
5.594206306e-05
0.2653729656
0.000233377991
0.06146850931
9.636644448
2.406563808
8.325393768
0.6297846579
0.3510504633
0.1690650217
0.0107439434
0.03424016633
0.01889671913
3.020819822e-05
0.02628310445
5.769496254e-06
0.000125548565
0.0001338593121
0.0001329269496
0.0003924992352
0.0001791599191
0.0003909511799
0.001654170718
0.0008069935971
0.001374047656
0.002676689805
0.00473356261
0.004105469658
2.092454413e-05
0.0001292638418
7.923707746e-06
7.503876043e-06
4.047413185e-06
2.451265887e-06
4.894511185e-06
1.856724061e-06
1.847320663e-06
7.226365753e-06
2.756709731e-06
6.010438385e-06
3.781410709e-05
2.679069348e-05
7.989397805e-05
0.005339781923
0.0002950915817
0.00533210626
3.947967619
0.2210989448
2.165842448
0.03484283161
8.689856057e-05
9.181211108e-05
1.158405039e-09
1.711287548e-17
4.599418549e-25
2.762104119e-06
3.816493967e-25
1.739147986e-06
0.000138980253
9.112388488e-05
0.0001481857586
0.0003993973526
0.0002268401156
0.0004223172206
0.001360776823
0.0008313685877
0.001418374336
0.003247006396
0.002366272654
0.001297247413
4.207004841e-09
8.477490976e-06
9.401876907e-10
1.437333929e-15
4.081891903e-14
1.108341557e-16
6.327333486e-18
2.981156656e-17
3.933756582e-18
4.208649412e-26
1.391411296e-19
4.836535583e-30
0.0002151359952
0.0001954906956
0.0006208879286
0.008482974676
0.003516584962
0.02314786459
0.0002239187736
0.00206306526
0.0003608511587
0.003436319376
0.003045326165
2.137326978e-17
1.721602579e-08
9.220155641e-08
1.456318729e-06
4.759437356e-07
2.613231228e-06
0.0001706671734
0.000215365345
0.000457669892
0.0005398986084
0.0007320831421
0.001093965304
0.001568207281
0.00162019415
0.001203092655
0.000345042481
0.0007043478835
0.000137127469
3.556397418e-10
1.767991846e-06
9.300958491e-07
1.017856921e-16
1.511720934e-06
2.659584113e-06
2.455980814e-18
5.51474652e-06
1.384754626e-05
2.143662169e-44
3.82427912e-05
0.0001933834847
0.002150386739
0.004145192084
0.008339442842
0.08194385119
0.06683012454
0.3673701869
0.0203570608
0.4502622102
0.06767617804
0.5617986468
0.5862636627
0.4777919265
0.7714201396
1.40353306
0.8541991475
1.418496268
1.298708187
0.3608517955
1.034937799
0.6572401423
0.001259115561
0.2577625134
0.02736256203
0.0006748891483
0.000786347832
0.0005089522421
7.269723583e-05
0.0002173165041
4.862990926e-05
2.224998318e-06
5.266219068e-06
4.737258304e-06
3.067825521e-06
4.609006278e-06
4.127122603e-06
2.6538054e-06
3.01374868e-06
7.922082611e-07
0.008516130156
0.03375030159
0.06089807949
0.0004765426925
0.0001601045189
0.001680306593
0.0003205134212
0.0006048031717
0.003672955826
0.001041844456
0.00160813718
0.00530172777
0.002224773446
0.002862173299
0.002827814555
0.002974091825
0.002211207501
0.002304211986
0.001895152408
0.00187717273
0.002207598825
0.001834879029
0.001795012406
0.003713417296
0.002311519617
0.002921532719
0.002222443618
0.001778860084
0.001709884553
0.002001701501
0.00164775473
0.001354566478
0.000687942089
0.0003451961619
0.0002594310871
5.918827118e-05
0.0002265652257
0.000669597843
0.001392168207
0.001496268541
0.001794957675
0.001518843088
0.002160625628
2.649872586e-05
5.245400129e-05
0.0006989065236
0.0008903007983
0.0009217083553
0.0009042621856
0.001519878631
0.001236637622
0.001079716286
0.0009011088072
0.001561945666
0.001216298834
0.0009124678329
0.0008283149949
0.0004567458079
3.52004404e-06
1.243482023e-05
4.185838127e-05
1.097967589e-05
1.982896104e-05
0.0001199933417
3.463154032e-05
0.0002479700872
0.0143637878
0.0001813878655
0.04053524662
0.004300320099
0.02486128079
0.01165667057
0.001126579712
0.0007985155109
0.0007406725234
0.0006510287599
0.0004352521965
0.0004073482523
0.0002970635869
0.0002448946847
2.97383708e-07
3.85553494e-07
7.767796692e-06
6.253051068e-07
5.85146325e-06
0.2356131065
0.0322125658
0.123774088
0.06285456434
0.006473826205
0.03180514671
0.001242475987
0.003256335539
0.002529331261
1.499222695e-08
3.255210336e-08
0.5752741363
0.01067880692
0.007039143965
0.8086923745
0.02636604333
0.8067356226
0.03248282019
1.045155403
0.02905309799
2.378984491
0.01614406932
2.20125488
0.01091039964
1.274001197
0.01371371327
0.6658788197
0.01796295903
0.3558210219
0.01706012006
0.01738997123
0.286629288
0.02079407175
0.0209589311
0.1022395917
0.03753926278
0.006347676221
0.007779921642
0.04228358267
0.0459369985
0.06028779573
0.1287657437
0.2351875093
0.8267796415
0.0186206811
3.085994067
0.01859478113
0.02440229855
1.225740715
0.05008345144
0.0004225986774
0.0004706745963
0.0005678100552
0.02681796871
0.0006160496842
0.0003046738083
0.000168999201
0.01331327677
0.1668554372
0.7764358176
0.01719548005
0.01289388852
3.921350369
0.3935355621
0.9107903912
0.05974190297
0.0003113278337
0.0001568616015
0.0005073429227
0.01153975717
0.0001967374311
0.0002775662245
0.0002638686978
0.0001003468745
0.0003295025101
0.1158290161
1.890390642
1.755338344
0.2214649231
0.009456638512
0.0004119424832
0.0001033861354
0.0006314617138
0.01010869145
0.0001005656775
6.164821027e-05
8.791703254e-05
0.0001720585875
0.0003467696661
0.01740683543
1.570707873
1.108668758
0.1149714967
0.02237298697
0.0002097965684
0.0001546835023
0.000841402709
0.00777508614
9.346421729e-05
1.200807756e-05
5.565967792e-06
5.21265621e-06
1.395323086e-05
0.0001012980669
0.6038309119
0.09554318824
0.01588280642
1.562157403e-09
0.0001034967921
0.0002017101049
0.0007929361682
0.002967510135
0.0003065840062
3.582955454e-13
7.694718131e-17
2.190338564e-19
6.56096984e-05
0.001054413062
0.1901114004
0.0003985361182
2.028623911e-17
3.335457001e-23
9.195986983e-05
0.0002795924915
0.001039799435
0.001767036482
2.381350324e-06
2.158233235e-14
2.279251297e-17
1.126101491e-22
0.0007990095237
0.01330340787
0.7494291902
0.01524083952
0.04442233421
0.1523158526
0.7255893485
0.7306593173
0.04621299966
0.001098125112
0.0003297863353
2.452061785e-06
2.684668657e-06
3.311820701e-06
0.003245463332
0.038883286
0.3853914785
0.8201372821
0.8471370673
1.042813149
0.7216160746
0.2041469386
0.003599442929
0.0003190268235
7.298684707e-05
3.857659669e-05
1.591377418e-06
0.2993346455
0.0003251023527
1.304959689
0.0002301770701
0.0009361816337
0.002657186715
0.004516701451
0.004594488585
0.002433460348
0.002396990683
0.002921764637
0.002308184155
0.002580567196
0.002567081491
0.002089047044
0.001208294459
0.001013775401
0.0004855565793
0.0004272008871
3.614356711e-05
3.01227459e-05
0.0001181102416
0.000406663332
0.000183183164
0.001004462684
0.0004830778
0.00165009091
0.00135832902
0.001665463554
0.002441001247
0.001802440205
0.001519792519
0.001358364668
3.109651846e-05
3.106096562e-05
3.496714545e-05
1.156195369e-05
0.0009298609587
0.0002265933436
0.0003428004322
0.0002085701897
0.0004030195181
0.000156554938
0.07962592074
0.1147844325
0.0001547926289
0.0001805146437
0.0002528654666
0.000382271945
0.001337091187
0.004205902959
0.0008968148475
4.274647057e-05
0.0001315364052
1.037456835e-05
0.0007985704186
0.0003674048293
0.0009628063237
0.0006078680884
0.0002999314134
0.001577069707
0.0002192517806
0.0004371166622
0.005070311361
0.02058674337
0.02373895921
0.006731016912
1.582741447e-05
5.047046756e-05
2.601498716e-09
4.826576781e-09
9.084828998e-09
1.071089421e-07
1.735683698e-08
1.560279903e-06
3.145947973e-06
0.3694023435
0.08948863169
0.02371759604
7.74139583e-10
1.339987298e-09
2.328193282e-09
4.078226662e-09
3.064006478e-05
0.5253251687
0.1395953035
0.03287742027
0.01138439862
1.31493618e-10
2.161055508e-10
3.506902625e-10
5.660802411e-10
6.47802553e-06
0.5188820279
0.1340182509
0.02860316914
0.009337595809
2.174445617e-06
0.0002062715544
0.000264296626
0.0001011970759
7.195054262e-05
0.4116286141
0.1106070301
0.03083477427
0.0130866189
0.7646076269
0.01925670815
0.4112437845
0.00130236195
0.8275384104
0.03127475356
0.385336971
0.3814211019
0.002440952752
0.004022206611
0.8016839021
0.03143030208
0.3647805433
0.3091858092
0.005634224354
0.006834714968
1.73534108
0.02621357226
0.1927193452
0.08832355904
0.007458940386
0.00798171257
2.503876898
0.009602393338
0.05210657394
0.04462747677
0.005775979229
0.003214659015
1.727263176
0.01027193589
0.05079233102
0.04966479194
0.002878621293
0.002580606039
0.91728205
0.01546324408
0.07657929226
0.1127461645
0.00287008963
0.002694026007
0.487065603
0.01895746648
0.1398717383
0.1651457785
0.003685912897
0.004460775925
0.2862164911
0.01883865888
0.1824171033
0.2062844927
0.003066390391
0.003038018756
0.330896521
2.587539194
0.003381945016
2.001727065
1.976909894
0.4731033077
0.8507790024
1.511854681
2.949203817
0.001872233338
2.658122378
0.0009267967999
0.0006983664656
5.17376794
1.349440421
0.005352931705
7.742279888
0.000677334319
0.0004778979909
1.433181614
0.3505117466
0.0004086781697
0.0003441240968
1.294838778
0.0001053772022
6.636241523e-05
4.839031418e-05
0.0004580751263
1.607547167
4.705706752e-05
0.03927778493
0.3780392003
0.0004835655727
0.7170567786
0.0008374044702
1.467746125
2.250357439
6.000479879e-05
6.367226578e-05
5.85744585e-05
0.8886319593
0.5435952673
0.107442073
0.02442949587
0.8014277198
0.4905294845
0.4150097618
0.1341866035
0.04785066599
0.0993088816
0.962249941
0.4765881926
0.6497017744
0.3519068456
0.1601566922
0.2062872045
0.9494397335
1.420675075
1.134952863
0.713291244
0.2154667863
0.1225903855
0.4487765691
0.3738995852
0.4875729456
0.1622936209
0.01329548278
0.04186033919
0.05809879242
0.5603146667
0.5767227554
0.2015583314
0.05001886094
0.05400982304
0.001032442067
0.5939769414
0.6607013352
0.1899303131
0.0469340859
0.02847523575
0.0001361989814
0.8006119597
0.93225484
0.08891177627
0.01368869539
0.004051127077
5.31635548e-05
0.919857806
0.6101697959
0.01541138353
0.0007077076547
0.0001802866718
1.995001849e-05
0.4195824548
0.3831354819
0.001409399992
8.244344324e-05
6.199990798e-05
0.0382228443
0.4313359168
0.5544377978
0.0007718388077
5.404981565e-05
3.955475664e-05
0.0003368900082
0.5843921198
0.820917699
2.985211968e-05
2.795591184e-05
4.527463451e-05
3.77289231e-05
0.001688595429
0.001005177059
0.0006900836767
0.0005952835318
0.0005287188759
0.0002741831328
0.0002149060749
0.0001608958808
0.0002087118072
0.0001399077004
0.0001178640646
0.0001290881884
0.0001504952443
0.000195111072
0.0001594415297
6.102030539e-05
4.265715029e-05
9.272913011e-05
6.092411232e-05
3.418543491e-05
3.857593811e-05
3.96700752e-05
4.816011487e-05
3.685530265e-05
4.114928486e-05
4.005108456e-05
0.0216094743
0.1320874605
0.1757892277
0.1283393
0.05324009816
0.0693939882
0.02057250495
0.02850784273
0.003271844853
0.01498106246
0.03094108852
0.01524036483
0.01156816327
0.008132350084
0.004554101412
0.0007378985397
0.0002552132268
0.0001333345736
7.245099251e-05
5.278407093e-05
5.164991694e-05
4.265332163e-05
4.301151686e-05
3.679368436e-05
3.059721347e-05
2.408996827e-05
2.093999236e-05
1.584199595e-05
2.348690193e-05
1.477732787e-05
2.071154363e-05
2.962660774e-05
2.447355122e-05
0.0001007221936
0.0003097489218
0.003205465099
0.001658460302
0.001365009531
0.001219411493
0.0007320480224
0.0003829590986
0.0002711775472
0.0002437932237
0.0001868889183
0.0002175675311
0.0001597429372
0.0001306412854
0.0001305689208
0.0001569267811
0.0001733052751
0.000301515202
0.0005922887846
0.000203307154
0.0003025113075
0.0004230832447
0.0007267730673
6.498704363e-05
0.0001102878753
6.851229646e-05
3.37130504e-05
2.727836491e-05
2.961956104e-05
2.207830126e-05
3.020942896e-05
2.515110851e-05
3.059519465e-05
2.701579309e-05
0.1006711358
0.1011369963
0.01204823135
0.05039352548
0.01357346751
0.0007263060668
0.002397280896
0.00601922786
0.001930667372
0.0009365053034
0.002783379528
0.0001729778073
0.0003030548777
0.0002096303173
0.0002747530552
0.0003638245268
0.0001187553301
5.224274856e-05
3.865927781e-05
0.0001568278539
2.685116377e-05
2.249659505e-05
1.871468242e-05
1.116118836e-05
1.171272838e-05
7.855218208e-06
1.714831964e-05
9.554047076e-06
1.394715258e-05
1.705196214e-05
1.731985196e-06
3.204119201e-06
5.954866143e-06
5.776734071e-05
9.025863882e-05
0.0001286754684
0.004827923267
0.002034084422
0.001064751118
0.0007805059003
8.970615866e-07
2.709149832e-06
1.947834908e-05
0.1106652503
0.0004940623234
0.0006076921536
0.0003264687362
0.0001842592442
0.0001888584409
0.0001370697118
0.0002341364452
0.002296138419
0.001181503615
0.001307902862
0.00230173837
0.0008066896236
0.001584508329
0.0004744349886
0.000109662059
0.0001770338479
0.0002611420151
3.859210571e-05
3.100160695e-05
2.942489442e-05
0.0001103844501
0.09042496329
0.6563854264
0.00013976597
0.0001765667063
0.0006947260988
0.001421114609
0.0009474546636
0.002892447658
0.01277940846
0.00893478523
0.04078762423
0.004001004156
0.0008331378344
0.000862033295
0.0001337141948
1.420214068e-05
3.939761639e-05
1.553933348e-05
1.2860015e-05
1.37117592e-05
1.104521885e-05
2.102321116e-05
2.204340278e-05
1.638308754e-05
0.1254965458
0.1341298463
0.03067150234
0.0001896610104
0.0002259676496
0.0004659841051
0.0007143382103
0.001968326813
0.002197114327
0.0001958414457
1.777313621e-05
3.146769419e-05
6.861584288e-06
7.021240547e-06
5.596939735e-08
8.996081099e-08
1.456762836e-07
2.369509145e-07
1.00585771e-06
1.597295197e-06
2.488500834e-06
0.0160287053
0.007894965091
0.003550264432
0.001639249745
1.215227217e-08
7.111855844e-09
2.665758139e-08
1.028474612e-08
6.009971868e-08
2.202134988e-08
1.370709167e-07
4.834140362e-08
7.195546888e-08
3.10006427e-07
1.591441459e-07
0.4345796485
0.1019533849
0.259237545
0.1267955835
0.02667971777
0.06247714428
0.03212947449
0.008914074507
0.01843615478
0.001582098971
0.006628369852
0.001510918753
0.004045000301
0.0008421499104
0.0002923942339
0.005443160194
0.001297996258
0.004779456506
0.0006265890967
0.001703723834
0.002140196915
0.004547241427
0.006348870128
0.004020070243
0.003656703323
0.0052381143
0.005567094937
0.002941088204
0.002173060586
0.002246118596
0.0003457647136
0.0002120027051
0.001291076272
8.165916783e-09
4.193565881e-05
2.510985041e-05
0.7390035268
0.874845629
0.000650602451
0.001119892393
0.002623718429
0.001514451632
0.002018353074
0.003395190766
0.005227907012
0.008975895142
0.008241949607
0.393329492
0.01941854984
0.2653804178
0.1369920896
0.08373259576
0.1731555027
0.03421616464
0.1028396969
0.03954794679
0.00748633599
0.000198922465
0.00150563142
0.0004019692289
0.0001246214257
6.494881044e-05
2.362407822e-05
0.0004290972183
0.000125529324
6.101925074e-05
1.438292659e-07
2.230637061e-08
0.000351470099
0.0007741703206
0.002858233504
0.005824834774
0.1200640529
0.006009956601
0.0008725505064
1.556837346e-05
5.982286655e-05
1.916743771e-09
1.129369367e-09
3.53788463e-09
1.507498434e-09
2.01303093e-09
6.608210049e-09
2.692062499e-09
3.609070072e-09
1.253677842e-08
4.854406176e-09
6.552572025e-09
2.430431791e-08
8.876642712e-09
1.303607635e-08
0.8711852415
6.754132095e-06
1.05052852
0.181787609
0.4375999497
0.218845541
0.04390217968
0.1094651988
0.05280418935
0.01563961953
0.0263686128
0.01508814903
0.01131399373
5.87854405e-10
2.699478853e-10
1.018533432e-09
3.508237115e-10
4.554112634e-10
1.764724471e-09
5.907452253e-10
7.662969494e-10
3.077516864e-09
9.943005554e-10
1.290731205e-09
1.073308237e-08
1.677029373e-09
5.139187689e-09
1.265456377
0.0002685457036
1.746120762
0.2695025714
0.7243298614
0.3831280491
0.06870368084
0.2091190276
0.1098904838
0.01757654178
0.05432895011
0.02696705554
0.009533931073
0.01566954773
0.01120064554
0.007615969484
1.032234931e-10
3.852742892e-10
1.691073701e-10
4.843846916e-10
4.062011542e-07
2.755201417e-10
3.909391202e-07
3.793418663e-07
4.458056862e-10
3.703963068e-07
3.634050312e-07
7.183860085e-10
3.579480785e-07
3.534632933e-07
1.256463373
4.030326746e-06
1.074229429
0.2635442874
0.4674139979
0.2374523235
0.06365239134
0.1188918581
0.05639446903
0.01432610851
0.02708626703
0.01543241673
0.00757036712
0.01086503371
0.009817556562
0.006405489966
0.006256380056
8.83765257e-10
1.511925461e-09
5.225478696e-09
0.5290774939
6.302330395e-06
0.8372102023
0.9031575575
0.0003475176965
0.0002096016291
0.0002455515562
0.0008577191208
0.0001879022619
0.00021495647
0.0002482466154
5.624975055e-05
0.0005032423724
0.001528500467
0.006031710805
0.8751381884
0.006683954322
0.6804967664
0.2149629695
0.3496494936
0.1910294998
0.05623221264
0.1037573689
0.05660891528
0.02961763768
0.01894570007
0.03122723552
0.01606073557
0.004497443934
0.001436205063
)
;

boundaryField
{
    walls
    {
        type            zeroGradient;
    }
    wallFilmFace_top
    {
        type            zeroGradient;
    }
    region0_to_wallFilmRegion_wallFilmFace
    {
        type            zeroGradient;
    }
    mirrorFace_top
    {
        type            zeroGradient;
    }
    region0_to_wallFilmRegion_mirrorFace
    {
        type            zeroGradient;
    }
    procBoundary3to2
    {
        type            processor;
        value           nonuniform List<scalar> 
64
(
0.1054743331
0.00944526259
0.09281091658
0.1611214902
0.1421662417
1.906311484e-06
1.737844513e-07
8.299306367e-09
4.752661845e-09
0.6674000082
0.06764581272
0.579590463
0.579590463
1.039342639e-05
2.854685661e-08
0.4970401857
1.264636136
1.700405902
2.10253001
1.275305618
0.5215667575
0.2369874392
4.121200958e-05
4.121200958e-05
0.0002378108808
0.00186042756
0.00186042756
0.1389945729
0.2767763486
0.2767763486
0.0001103772634
7.797271795e-05
7.797271795e-05
2.93807175e-05
1.336108924e-05
0.7235876766
0.01239306797
0.4721556541
1.095881124
0.0006373129656
0.1411960682
4.953427928e-09
1.412487139e-09
4.451505035e-10
8.089273017e-11
7.185383036e-10
0.4721556541
0.0006373129656
0.7348643727
0.01996935361
0.02925310919
0.1475707917
0.1611214902
0.1360948251
9.519323063e-07
0.1288774607
1.330192033e-07
3.516000284e-08
2.149952787e-08
7.58896653e-09
8.446656601e-10
2.071432245e-10
3.058092175e-10
1.281618724e-09
)
;
    }
}


// ************************************************************************* //
