/*--------------------------------*- C++ -*----------------------------------*\
  =========                 |
  \\      /  F ield         | OpenFOAM: The Open Source CFD Toolbox
   \\    /   O peration     | Website:  https://openfoam.org
    \\  /    A nd           | Version:  8
     \\/     M anipulation  |
\*---------------------------------------------------------------------------*/
FoamFile
{
    version     2.0;
    format      ascii;
    class       volScalarField;
    location    "1.5/wallFilmRegion";
    object      delta;
}
// * * * * * * * * * * * * * * * * * * * * * * * * * * * * * * * * * * * * * //

dimensions      [0 1 0 0 0 0 0];

internalField   nonuniform List<scalar> 
1342
(
1.46000559e-05
1.546761333e-05
2.070924948e-06
7.023792427e-07
3.543214045e-07
6.020529287e-07
4.474659138e-07
8.796165933e-05
0.0001749048808
0.0005201264628
7.381598691e-05
0.0001437948774
0.000164542166
0.0001132481032
3.377812391e-05
3.25459211e-06
6.015037565e-07
7.367115435e-07
1.962132753e-06
2.819014069e-07
1.553582152e-07
1.742078977e-07
9.457790884e-08
4.532669279e-08
4.286247562e-08
6.779052404e-05
0.0001730183024
0.0001288874899
6.498432061e-06
3.18634858e-05
2.017465343e-05
2.858702096e-06
6.31585458e-08
4.745671278e-08
3.377059829e-08
1.965687141e-08
1.558187525e-06
7.184001309e-07
3.069288647e-07
1.07501854e-07
2.613074234e-07
8.958875097e-08
1.997917775e-08
4.701914871e-05
1.512122679e-06
5.187169921e-06
6.433477206e-07
1.162221711e-07
6.476423534e-08
2.88364022e-08
1.371052726e-08
6.505621473e-09
2.276603386e-08
7.164364441e-08
1.804578012e-07
3.081690582e-07
9.053108798e-06
1.99599654e-06
7.744686032e-07
5.941663027e-07
1.231826153e-07
2.304944111e-08
2.524129019e-08
8.896282888e-09
5.084496684e-10
1.543888083e-09
4.577868102e-09
1.24372943e-08
3.541146809e-08
6.306277033e-05
1.480494683e-05
2.671702796e-06
6.390018827e-07
5.789224404e-07
4.845418455e-08
2.025548621e-08
1.765693094e-11
3.931675506e-11
8.938610455e-11
2.034425683e-10
1.327622002e-09
0.0002034775525
5.008950536e-05
1.466010904e-05
8.268976428e-06
3.694843429e-06
5.545964972e-06
5.83560661e-06
3.750073559e-06
1.779835063e-08
4.97678331e-07
1.528902946e-06
3.98168949e-06
1.422299022e-05
0.0002297969423
7.497609151e-05
7.319926923e-06
6.681818701e-07
3.272217821e-06
1.182820401e-05
2.64151702e-06
2.322159825e-06
1.644271756e-06
1.246142005e-06
1.213221234e-05
1.597887028e-06
2.572513256e-07
2.068788791e-07
4.762877117e-07
1.96760859e-07
1.600073278e-07
0.000217699621
0.001131715825
0.0005272301492
7.056290171e-05
1.521588157e-05
4.925969624e-06
2.434003593e-06
5.683635776e-07
1.803829897e-07
6.063289044e-06
4.013028719e-07
1.204506942e-06
1.251324256e-05
3.542016899e-06
1.718279582e-05
4.268533803e-05
7.080556531e-05
5.362946499e-05
4.315277031e-05
7.114708476e-05
5.979890276e-07
0.0001059514085
2.293958975e-07
1.452236963e-07
0.0001063994098
7.211098458e-08
1.378729917e-08
0.0004895251005
5.115203386e-05
0.0001788706941
0.0003857581991
3.305093093e-05
0.0003891899338
0.001135804051
0.001135959216
0.001107061786
9.976820557e-07
9.823952055e-05
4.240321817e-06
4.467032439e-07
2.881876129e-07
2.914530394e-07
4.368688433e-07
2.585927563e-07
1.79207513e-07
2.097369307e-05
9.873796748e-08
2.574946852e-05
9.890827489e-06
1.143862095e-05
2.210910194e-06
3.433952451e-07
3.090967946e-07
3.258983814e-07
2.509579964e-07
3.485577444e-07
3.418111862e-07
6.461047232e-08
3.239666664e-07
3.849103896e-07
4.989269267e-05
1.121724054e-06
1.038659306e-05
0.0003611658957
5.39457219e-05
0.0001223391323
0.001536534341
0.0003338534885
0.0008368481571
0.0005657818124
0.00110803385
0.0008429017906
0.001014878997
0.0005265126449
0.0006988587798
3.703649727e-05
0.0002379005485
3.213962923e-05
1.810354066e-07
2.70805462e-07
9.242117953e-08
1.290615158e-07
1.233983208e-07
2.033893798e-07
1.138403073e-05
4.248071586e-08
4.137123585e-06
1.669013864e-06
1.020448363e-05
1.931612373e-06
2.378737748e-07
1.258164512e-07
1.317683617e-07
2.878882538e-07
1.554844195e-07
1.780476121e-07
2.03083826e-07
1.952021053e-07
1.892674048e-07
8.397593936e-07
1.637023413e-07
3.190106223e-07
2.657273173e-05
1.396461653e-07
6.007605142e-06
0.0004578728929
3.658027756e-05
0.0002568591693
0.001083445787
0.002258705797
0.001435092017
3.897493607e-05
0.0003693803289
8.222366717e-06
1.243065928e-06
7.587492815e-06
1.312290345e-07
4.986773504e-08
4.480859413e-07
1.021065456e-07
5.297355098e-07
1.264414277e-07
4.159103252e-07
3.860198665e-06
9.014270538e-07
3.700396985e-06
2.047056142e-06
9.158804782e-06
2.209422591e-06
6.997533616e-08
8.878566468e-08
3.959907019e-08
6.768678293e-08
2.654937153e-08
1.959206614e-08
1.19882227e-07
1.815770232e-08
2.0431391e-08
2.462144553e-07
2.469434789e-08
3.249214082e-08
8.735410534e-07
5.12779875e-08
5.594205916e-08
0.0002653729263
2.333779928e-07
6.146849732e-05
0.007512544879
0.002406563719
0.006527579908
0.0006297848305
0.0003510504084
0.0001690650351
1.074394176e-05
3.424016555e-05
1.889671954e-05
3.020819504e-08
2.628310638e-05
5.76949636e-09
1.255485526e-07
1.338593349e-07
1.329269578e-07
3.924991889e-07
1.791599141e-07
3.909511823e-07
1.6541709e-06
8.069936161e-07
1.374047671e-06
2.676689396e-06
4.733562658e-06
4.105469776e-06
2.092454258e-08
1.292638368e-07
7.923707018e-09
7.503875703e-09
4.047412557e-09
2.451265776e-09
4.894509937e-09
1.856724172e-09
1.847320719e-09
7.226366698e-09
2.756710105e-09
6.01043911e-09
3.781410734e-08
2.679069242e-08
7.989397325e-08
5.339781442e-06
2.950915829e-07
5.332106298e-06
0.003096314439
0.0002210989672
0.001688380812
3.484283216e-05
8.689856232e-08
9.181210797e-08
1.15840516e-12
1.711287232e-20
4.599417536e-28
2.762104121e-09
3.816493402e-28
1.739148019e-09
1.389802532e-07
9.112386503e-08
1.4818573e-07
3.993973561e-07
2.26840093e-07
4.223172202e-07
1.360776765e-06
8.313686495e-07
1.418374376e-06
3.24700662e-06
2.366272738e-06
1.297247146e-06
4.207005406e-12
8.477488923e-09
9.401876243e-13
1.437334152e-18
4.081891537e-17
1.108341526e-19
6.32733314e-21
2.981156489e-20
3.933756184e-21
4.208649599e-29
1.39141103e-22
4.836535068e-33
2.151359447e-07
1.954906992e-07
6.208879383e-07
8.482973982e-06
3.51658527e-06
2.314786295e-05
2.239187534e-07
2.063065315e-06
3.608511381e-07
3.436320004e-06
3.045326513e-06
2.137326551e-20
1.721602588e-11
9.220154867e-11
1.456318909e-09
4.759436789e-10
2.613231295e-09
1.706671727e-07
2.153653484e-07
4.576699086e-07
5.398985556e-07
7.320832085e-07
1.093965308e-06
1.56820713e-06
1.620193954e-06
1.203092557e-06
3.450424307e-07
7.043478157e-07
1.371274766e-07
3.556397557e-13
1.767992074e-09
9.30095899e-10
1.017856861e-19
1.511720947e-09
2.659584211e-09
2.455980754e-21
5.514746148e-09
1.38475419e-08
2.143661807e-47
3.824278057e-08
1.933833927e-07
2.150386791e-06
4.145190248e-06
8.339441584e-06
8.194382853e-05
6.683011313e-05
0.0003541512705
2.035705964e-05
0.0004502621431
6.767617358e-05
0.0005617985388
0.0005862634873
0.0004777918936
0.0007714201924
0.0014035331
0.0008541992722
0.001418496182
0.001298708384
0.0003608517481
0.001034937745
0.0006572400707
1.259115533e-06
0.0002577625359
2.736256236e-05
6.748891666e-07
7.863477268e-07
5.089522181e-07
7.269724724e-08
2.1731649e-07
4.862990549e-08
2.224998121e-09
5.266218878e-09
4.737258755e-09
3.067824995e-09
4.609005789e-09
4.127122438e-09
2.653792223e-09
3.013747063e-09
7.922045904e-10
8.516093785e-06
3.375076952e-05
6.0899318e-05
4.727089758e-07
1.583515344e-07
1.66691909e-06
3.170789745e-07
5.982685996e-07
3.643614658e-06
1.030647911e-06
1.590890547e-06
5.259540387e-06
2.200616039e-06
2.830937345e-06
2.804759115e-06
2.941097309e-06
2.186747664e-06
2.285331708e-06
1.874425794e-06
1.856678476e-06
2.189989612e-06
1.814766711e-06
1.775481558e-06
3.662098309e-06
2.285099678e-06
2.871942962e-06
2.181976254e-06
1.740428216e-06
1.670827827e-06
1.96018172e-06
1.60585325e-06
1.323731073e-06
6.720950099e-07
3.393006977e-07
2.535018913e-07
5.839941513e-08
2.235569031e-07
6.606025561e-07
1.373473683e-06
1.476309848e-06
1.77118414e-06
1.49901401e-06
2.120066623e-06
2.624056987e-08
5.19487933e-08
6.921933492e-07
8.817384844e-07
9.129695445e-07
8.953986176e-07
1.497120638e-06
1.208179351e-06
1.056084735e-06
8.824318267e-07
1.525102062e-06
1.187534052e-06
8.909844824e-07
8.09761676e-07
4.462162714e-07
3.465355504e-09
1.224358907e-08
4.121527583e-08
1.085922653e-08
1.960785527e-08
1.181529592e-07
3.424719692e-08
2.442485935e-07
1.414512207e-05
1.79366449e-07
4.009396493e-05
4.234848879e-06
2.458644134e-05
1.152726973e-05
1.103445291e-06
7.78692397e-07
7.242228095e-07
6.362421696e-07
4.257717633e-07
3.981150292e-07
2.902247297e-07
2.395990717e-07
2.936356025e-10
3.812093607e-10
7.670056456e-09
6.183194143e-10
5.78690918e-09
0.0002330256701
3.180459841e-05
0.0001224188064
6.217101348e-05
6.355695676e-06
3.144459347e-05
1.215234679e-06
3.1867532e-06
2.475283589e-06
1.484972019e-11
3.224453666e-11
0.000569662542
1.044824782e-05
6.880428847e-06
0.0006309554307
2.056059282e-05
0.0006294004269
2.533036104e-05
0.0008153723233
2.265575243e-05
0.00185586703
1.258911551e-05
0.001717142331
8.507736257e-06
0.0009937875308
1.069347227e-05
0.0005193512375
1.399679874e-05
0.0002754331771
1.31576702e-05
1.274983611e-05
0.000183968796
1.723568039e-05
2.095892916e-05
0.0001022395929
3.753925838e-05
6.347676329e-06
7.779920907e-06
4.228357665e-05
4.59369993e-05
6.028778714e-05
0.0001287654317
0.0002351906378
0.0008005452969
1.453726531e-05
0.002080413737
1.537585656e-05
2.440229914e-05
0.001225740549
5.008345469e-05
4.2259858e-07
4.70674672e-07
5.678100579e-07
2.681797097e-05
6.160496317e-07
3.046737983e-07
1.689991629e-07
1.331327053e-05
0.000166855375
0.0007764359008
1.341753458e-05
1.066577161e-05
0.002575881323
0.0003935355347
0.0009107904471
5.974189305e-05
3.113278264e-07
1.568615981e-07
5.073428629e-07
1.153975561e-05
1.967374554e-07
2.775661777e-07
2.638686971e-07
1.003468635e-07
3.295024927e-07
0.0001158290328
0.001828579608
0.001755338488
0.0002214648899
9.456639235e-06
4.11942438e-07
1.033861483e-07
6.314617708e-07
1.010868922e-05
1.005656894e-07
6.164819525e-08
8.791704064e-08
1.720585995e-07
3.467696617e-07
1.740683583e-05
0.001570707578
0.001108668683
0.0001149715002
2.237298387e-05
2.097965854e-07
1.546834594e-07
8.41402686e-07
7.775086002e-06
9.346421546e-08
1.200807474e-08
5.565967518e-09
5.212656027e-09
1.39532304e-08
1.012980772e-07
0.000603830943
9.554319006e-05
1.588280636e-05
1.562157537e-12
1.034967834e-07
2.017101241e-07
7.929360983e-07
2.967510506e-06
3.065839941e-07
3.582956361e-16
7.69471827e-20
2.190338538e-22
6.560969142e-08
1.054412876e-06
0.0001901114224
3.985360723e-07
2.028623659e-20
3.335456474e-26
9.195987134e-08
2.795924902e-07
1.039799346e-06
1.767036258e-06
2.381350287e-09
2.15823293e-17
2.279251129e-20
1.126101364e-25
7.990096031e-07
1.330340713e-05
0.0006407729227
1.524083797e-05
4.442233931e-05
0.0001523158497
0.0007255892757
0.0007306593538
4.621299682e-05
1.09812499e-06
3.297863514e-07
2.452061966e-09
2.684668262e-09
3.311818883e-09
3.245448445e-06
3.888304798e-05
0.0003716063895
0.0008201372755
0.0008471371332
0.001042813
0.0007216158783
0.0002041469812
3.599442528e-06
3.190267953e-07
7.298684384e-08
3.857660295e-08
1.59137006e-09
0.0002898591318
2.695881521e-07
0.0008904015328
2.283262e-07
9.287595743e-07
2.635991276e-06
4.480472239e-06
4.557521087e-06
2.413508248e-06
2.377591736e-06
2.896635639e-06
2.2658039e-06
2.527007943e-06
2.51858931e-06
2.040336944e-06
1.180131257e-06
9.934268045e-07
4.744729252e-07
4.176407684e-07
3.553548189e-08
2.94430112e-08
1.165609699e-07
4.01209018e-07
1.813946435e-07
9.9098074e-07
4.784773613e-07
1.627819911e-06
1.340253337e-06
1.64357696e-06
2.417359691e-06
1.778255991e-06
1.504695559e-06
1.326197556e-06
3.037308767e-08
3.035322011e-08
3.412159682e-08
1.131730087e-08
9.092323179e-07
2.21500694e-07
3.348601985e-07
2.03729457e-07
3.940967056e-07
1.526279293e-07
7.836741584e-05
0.0001135206322
1.5235266e-07
1.776556035e-07
2.501069103e-07
3.763260813e-07
1.316867595e-06
4.159732264e-06
8.829307815e-07
4.208224107e-08
1.300298921e-07
1.011533652e-08
7.801145845e-07
3.590002734e-07
9.411868822e-07
5.933421385e-07
2.930856988e-07
1.540188007e-06
2.165234534e-07
4.322012454e-07
5.014229767e-06
2.036272372e-05
2.343563635e-05
6.654498423e-06
1.546081021e-08
4.928208013e-08
2.567204296e-12
4.761500691e-12
8.961762375e-12
1.060664492e-10
1.712470248e-11
1.545366826e-09
3.103872382e-09
0.0003645692096
8.826365799e-05
2.315366759e-05
7.654525424e-13
1.325084222e-12
2.302147189e-12
4.03264876e-12
3.029373824e-08
0.0005194627803
0.0001379549366
3.216777533e-05
1.114202793e-05
1.300135077e-13
2.136672161e-13
3.467750102e-13
5.596704462e-13
6.405368722e-09
0.0005129573766
0.0001324510569
2.798248386e-05
9.134767011e-06
2.150384551e-09
2.039847489e-07
2.613890545e-07
1.000837111e-07
7.117527016e-08
0.0004071057279
0.0001093300786
3.017391146e-05
1.279344242e-05
0.0005965780812
1.501681449e-05
0.0004112437798
1.298618675e-06
0.0006456444974
2.438835317e-05
0.0003853369824
0.0003814210344
2.43398202e-06
4.010763036e-06
0.0006254442145
2.450955997e-05
0.0003647804268
0.0003091857691
5.618353615e-06
6.81574819e-06
0.001353786248
2.044140762e-05
0.0001927193608
8.832354716e-05
7.438487107e-06
7.96029235e-06
0.001953252086
7.487858685e-06
5.210656373e-05
4.462747385e-05
5.760728573e-06
3.20630648e-06
0.001347368948
8.009792648e-06
5.07923299e-05
4.966478958e-05
2.871217738e-06
2.573937831e-06
0.0007155362718
1.205733026e-05
7.657927926e-05
0.0001127461667
2.862657055e-06
2.687147934e-06
0.0003792784623
1.470152885e-05
0.0001398717357
0.0001651457494
3.674451572e-06
4.425559061e-06
0.0002183194751
1.451791864e-05
0.0001824164912
0.0002062808624
3.02842052e-06
2.99955417e-06
0.0003204210145
0.002226583314
3.330121059e-06
0.001363277861
0.00169645001
0.0004731003469
0.0008507771479
0.001457743958
0.002207455627
1.840385172e-06
0.002273238098
9.110940473e-07
6.903561003e-07
0.003348886197
0.001349440256
4.133251429e-06
0.005940643524
6.669782507e-07
4.716690444e-07
0.00109927706
0.0003390306532
3.391749757e-07
2.518655979e-07
0.0008356868992
1.039853096e-07
6.535173417e-08
4.783400596e-08
3.790658716e-07
0.001054685711
4.625510609e-08
3.927770114e-05
0.0003660566544
3.551270735e-07
0.0006154688452
6.546241147e-07
0.001099230791
0.001518739604
5.930553621e-08
6.292283619e-08
5.757403415e-08
0.0008886321003
0.0004247405388
8.398434163e-05
2.435441152e-05
0.000801427612
0.000383009714
0.0003239394034
0.0001047996711
4.770620042e-05
9.901309467e-05
0.000962249922
0.0003719543777
0.0005070321713
0.0002748057489
0.0001596779708
0.0002056764599
0.0009494396689
0.001108671492
0.0008856775074
0.0005570074858
0.0002148309807
0.0001222307206
0.0004487765511
0.0002917717473
0.0003804675449
0.0001267350358
1.325646667e-05
4.173683283e-05
5.809879497e-05
0.0004372203446
0.000450013972
0.0001573986286
4.987032037e-05
5.384794795e-05
1.032441903e-06
0.0004634667342
0.0005155187058
0.0001483192512
4.67944003e-05
2.839130294e-05
1.361989825e-07
0.0006246714395
0.0007273712122
6.943190359e-05
1.364900077e-05
4.039648115e-06
5.31635586e-08
0.000717690717
0.0004760717489
1.203432488e-05
7.057481686e-07
1.798007177e-07
1.99500192e-08
0.0003273266851
0.0002984300158
1.094601133e-06
8.217871974e-08
6.150284316e-08
3.822173594e-05
0.0003340658266
0.0004233008472
5.958133959e-07
5.337048521e-08
3.904080049e-08
2.474504694e-07
0.0005029634805
0.0005279567201
2.952171908e-08
2.752409345e-08
4.478315458e-08
3.708749815e-08
1.660318253e-06
9.827071996e-07
6.762494453e-07
5.817620497e-07
5.159390995e-07
2.690050792e-07
2.096117589e-07
1.572764922e-07
2.041319669e-07
1.37158202e-07
1.152257629e-07
1.261520471e-07
1.475800355e-07
1.906706782e-07
1.558679537e-07
5.97201449e-08
4.192569029e-08
9.069218724e-08
5.942405013e-08
3.342022916e-08
3.769163852e-08
3.876307544e-08
4.718898936e-08
3.602923832e-08
4.020149686e-08
3.914118868e-08
2.143098397e-05
0.0001310036478
0.000174337762
0.0001269521714
5.279755067e-05
6.864832526e-05
2.035058633e-05
2.827034217e-05
3.236088525e-06
1.481872456e-05
3.068805718e-05
1.507732895e-05
1.144437234e-05
8.065572634e-06
4.505459949e-06
7.299061606e-07
2.531357099e-07
1.318891429e-07
7.16674359e-08
5.23460321e-08
5.108399458e-08
4.218280671e-08
4.2414883e-08
3.637665331e-08
3.008151594e-08
2.364911762e-08
2.048672906e-08
1.548072309e-08
2.304120061e-08
1.44322245e-08
2.028049764e-08
2.894395985e-08
2.385023442e-08
9.975611655e-08
3.067207159e-07
3.173741312e-06
1.642606399e-06
1.334553484e-06
1.19202609e-06
7.155498959e-07
3.7412918e-07
2.650487818e-07
2.381760105e-07
1.82641816e-07
2.125022412e-07
1.558990073e-07
1.277838057e-07
1.277290587e-07
1.535467625e-07
1.695488069e-07
2.942202122e-07
5.783182671e-07
1.986711694e-07
2.959953517e-07
4.128471853e-07
7.096301468e-07
6.352363086e-08
1.078866992e-07
6.701325952e-08
3.294748245e-08
2.666131414e-08
2.89366403e-08
2.156982278e-08
2.952479861e-08
2.45507003e-08
2.989018447e-08
2.639427427e-08
9.968409887e-05
9.982634641e-05
1.189385021e-05
4.990552923e-05
1.344189739e-05
7.193172493e-07
2.373867794e-06
5.942203503e-06
1.911640225e-06
9.274118599e-07
2.747472901e-06
1.707140009e-07
3.000773266e-07
2.075718048e-07
2.721474286e-07
3.602900121e-07
1.171987669e-07
5.173166413e-08
3.814998847e-08
1.552682372e-07
2.658348095e-08
2.207516941e-08
1.843357954e-08
1.090457234e-08
1.145527594e-08
7.691404114e-09
1.674991773e-08
9.333967305e-09
1.359667636e-08
1.66625863e-08
1.713203988e-09
3.169173258e-09
5.889555232e-09
5.712480631e-08
8.925353063e-08
1.272403777e-07
4.772609894e-06
2.000025316e-06
1.041848191e-06
7.624590897e-07
8.856860298e-10
2.674797622e-09
1.923054831e-08
0.0001092798779
4.825326601e-07
5.940396618e-07
3.189508398e-07
1.799492818e-07
1.845964671e-07
1.336310843e-07
2.286860905e-07
2.243054564e-06
1.154694137e-06
1.278229014e-06
2.248521724e-06
7.888309446e-07
1.548887092e-06
4.634283671e-07
1.07076427e-07
1.732077667e-07
2.550652442e-07
3.770181584e-08
3.027608075e-08
2.876450266e-08
1.090115859e-07
8.942669036e-05
0.0006482724449
1.382237137e-07
1.746215267e-07
6.861036058e-07
1.40309631e-06
9.371304842e-07
2.856439683e-06
1.261992334e-05
8.8353248e-06
4.027149063e-05
3.955832007e-06
8.239853748e-07
8.508523684e-07
1.312610774e-07
1.389740589e-08
3.850745147e-08
1.519569104e-08
1.256996261e-08
1.338374272e-08
1.079078266e-08
2.056329881e-08
2.15342073e-08
1.601057421e-08
0.0001235070792
0.0001326583017
3.018457943e-05
1.866522182e-07
2.224441564e-07
4.608858229e-07
7.032405209e-07
1.946521811e-06
2.163596739e-06
1.928526561e-07
1.740865142e-08
3.093578199e-08
6.68985074e-09
6.856966328e-09
5.533832459e-11
8.895410226e-11
1.440424013e-10
2.343127977e-10
9.945977499e-10
1.579211079e-09
2.460992477e-09
1.576044809e-05
7.726408502e-06
3.467164216e-06
1.600648697e-06
1.196780637e-11
7.044612172e-12
2.625295266e-11
1.018880528e-11
5.919049178e-11
2.181009214e-11
1.349934187e-10
4.788824017e-11
7.126991255e-11
3.053214993e-10
1.576349838e-10
0.0004279134692
0.0001003786509
0.000256742554
0.0001255803014
2.611713837e-05
6.184282904e-05
3.163982177e-05
8.680970712e-06
1.807285811e-05
1.547225131e-06
6.483250618e-06
1.477753886e-06
3.944206981e-06
8.228203414e-07
2.855421365e-07
5.331013622e-06
1.269376281e-06
4.674596099e-06
6.116074346e-07
1.663831285e-06
2.090177433e-06
4.427754382e-06
6.183553735e-06
3.933235398e-06
3.577635474e-06
5.101672476e-06
5.420763183e-06
2.872259338e-06
2.128140954e-06
2.198220577e-06
3.3814355e-07
2.073478169e-07
1.258663274e-06
8.039328856e-12
4.146857485e-08
2.471979957e-08
0.000730782695
0.0008612287532
6.403886921e-07
1.102285126e-06
2.598930316e-06
1.497524641e-06
1.986718934e-06
3.341880161e-06
5.146127245e-06
8.877890117e-06
8.111949123e-06
0.00038953798
1.911326266e-05
0.0002612115526
0.0001357124566
8.280428516e-05
0.000170448973
3.383993889e-05
0.0001012533358
3.891895598e-05
7.328416012e-06
1.946769854e-07
1.467146187e-06
3.914645029e-07
1.219599784e-07
6.352240231e-08
2.309349599e-08
4.184054164e-07
1.226365776e-07
5.96077323e-08
1.420245361e-10
2.205401634e-11
3.471175383e-07
7.655458007e-07
2.825726535e-06
5.752216924e-06
0.0001187470603
5.934751204e-06
8.580028789e-07
1.522795857e-08
5.842343138e-08
1.891243274e-12
1.116597001e-12
3.490697374e-12
1.490330636e-12
1.990341911e-12
6.518626174e-12
2.662357671e-12
3.568930077e-12
1.236812153e-11
4.799904737e-12
6.479554586e-12
2.398285544e-11
8.779039368e-12
1.289173797e-11
0.0008594815373
6.678858327e-09
0.001038765866
0.0001794319727
0.0004327636307
0.000216455225
4.307656996e-05
0.0001081975649
5.192777802e-05
1.52611959e-05
2.58061148e-05
1.476696588e-05
1.105845293e-05
5.812999036e-13
2.669916416e-13
1.007159679e-12
3.469708947e-13
4.503942134e-13
1.744849692e-12
5.841435902e-13
7.576774001e-13
3.043331006e-12
9.833479018e-13
1.276599361e-12
1.061075135e-11
1.658314597e-12
5.081068572e-12
0.001251310853
2.655525443e-07
0.001726491274
0.0002664990447
0.0007161075066
0.0003788418337
6.754885696e-05
0.0002066696051
0.0001080306471
1.719450348e-05
5.314854709e-05
2.637408174e-05
9.302154638e-06
1.53290877e-05
1.092924865e-05
7.464098019e-06
1.020608547e-13
3.810140636e-13
1.672132043e-13
4.790424456e-13
4.017140235e-10
2.724170989e-13
3.865867626e-10
3.751488901e-10
4.408289478e-13
3.663293913e-10
3.594391183e-10
7.10234089e-13
3.540104686e-10
3.495889375e-10
0.001242138244
3.986809983e-09
0.001062557975
0.0002605952452
0.0004622687884
0.0002348036541
6.257588976e-05
0.0001174984371
5.544700204e-05
1.401156036e-05
2.65003602e-05
1.509568755e-05
7.387415846e-06
1.063328361e-05
9.579336772e-06
6.267444017e-06
6.11531462e-06
8.739354586e-13
1.491691267e-12
5.175942042e-12
0.00052321673
6.218555032e-09
0.0008261630806
0.0008946538602
3.437125235e-07
2.068366875e-07
2.423186187e-07
8.496388847e-07
1.858201478e-07
2.121090476e-07
2.449232593e-07
5.563522916e-08
4.966026384e-07
1.508276629e-06
5.97411218e-06
0.0008656509753
6.595936875e-06
0.0006714411987
0.0002125936289
0.0003449941284
0.0001885320208
5.5298096e-05
0.0001023307339
5.554201371e-05
2.916597132e-05
1.854279883e-05
3.048385235e-05
1.56746113e-05
4.395869421e-06
1.405182436e-06
)
;

boundaryField
{
    walls
    {
        type            zeroGradient;
    }
    wallFilmFace_top
    {
        type            zeroGradient;
    }
    region0_to_wallFilmRegion_wallFilmFace
    {
        type            zeroGradient;
    }
    mirrorFace_top
    {
        type            zeroGradient;
    }
    region0_to_wallFilmRegion_mirrorFace
    {
        type            zeroGradient;
    }
    procBoundary3to2
    {
        type            processor;
        value           nonuniform List<scalar> 
64
(
8.255005198e-05
9.368453603e-06
9.181349704e-05
0.0001593668757
0.0001403240234
1.876780859e-09
1.715619136e-10
8.173069215e-12
4.707868446e-12
0.0006674000895
6.764581494e-05
0.0005795905111
0.0005795905111
1.039342559e-08
2.854685675e-11
0.0004970401851
0.001264636036
0.001700405731
0.002102529461
0.001275305438
0.0005215667109
0.0002369874277
4.121201159e-08
4.121201159e-08
2.378108519e-07
1.860427508e-06
1.860427508e-06
0.0001389945678
0.0002767763141
0.0002767763141
1.094947552e-07
7.713155316e-08
7.713155316e-08
2.899499064e-08
1.32327334e-08
0.0005646054627
9.664719315e-06
0.0004721556727
0.001095881474
6.354723462e-07
0.0001389731708
4.906539375e-12
1.393665121e-12
4.402175511e-13
7.998846066e-14
7.105709583e-13
0.0004721556727
6.354723462e-07
0.0005749959794
1.990711125e-05
2.893706849e-05
0.000145982654
0.0001593668757
0.0001347818351
9.415509093e-10
0.0001274524673
1.31340316e-10
3.47556624e-11
2.12577858e-11
7.472398928e-12
8.352516702e-13
2.048730353e-13
3.024554047e-13
1.264476333e-12
)
;
    }
}


// ************************************************************************* //
