/*--------------------------------*- C++ -*----------------------------------*\
  =========                 |
  \\      /  F ield         | OpenFOAM: The Open Source CFD Toolbox
   \\    /   O peration     | Website:  https://openfoam.org
    \\  /    A nd           | Version:  8
     \\/     M anipulation  |
\*---------------------------------------------------------------------------*/
FoamFile
{
    version     2.0;
    format      ascii;
    class       volScalarField;
    location    "1.5/wallFilmRegion";
    object      rho;
}
// * * * * * * * * * * * * * * * * * * * * * * * * * * * * * * * * * * * * * //

dimensions      [1 -3 0 0 0 0 0];

internalField   nonuniform List<scalar> 
1342
(
994.5114797
994.5114802
994.5114794
994.5114801
994.5114805
994.5114815
994.5114829
994.5114691
994.5114723
994.5114734
994.5114717
994.5114711
994.5114709
994.511471
994.5114715
994.511473
994.5114799
994.51148
994.511478
994.5114787
994.5114808
994.5114799
994.5114821
994.5114859
994.5114886
994.511475
994.5114761
994.5114761
994.5114727
994.511472
994.5114724
994.5114738
994.5114928
994.5114963
994.511503
994.5115052
994.5114771
994.5114777
994.5114782
994.511479
994.5114736
994.511481
994.5114985
994.5114783
994.5114742
994.5114738
994.5114807
994.5114821
994.5114855
994.5115008
994.5115141
994.5115783
994.5115193
994.511493
994.5114834
994.5114792
994.511469
994.511471
994.5114749
994.5114771
994.5114763
994.5114883
994.5114908
994.5115094
994.5117633
994.5116909
994.5116044
994.5115423
994.5115086
994.5114685
994.5114687
994.5114694
994.5114729
994.5114698
994.5114791
994.5114879
994.5118018
994.5117943
994.5117812
994.5117623
994.5116987
994.5114684
994.5114685
994.5114686
994.5114685
994.5114686
994.5114685
994.5114685
994.5114687
994.5115044
994.5114718
994.5114694
994.5114687
994.5114685
994.5114685
994.5114685
994.5114686
994.511469
994.5114783
994.5114799
994.5114784
994.5114785
994.5114786
994.5114786
994.5114802
994.5114797
994.5114798
994.5114818
994.5114801
994.5114811
994.511481
994.5114695
994.5114705
994.5114704
994.5114687
994.5114685
994.5114684
994.5114686
994.511467
994.5114652
994.5114687
994.5114668
994.511468
994.511469
994.5114686
994.5114689
994.5114688
994.5114685
994.5114685
994.5114689
994.5114684
994.5114556
994.5114691
994.5114547
994.5114549
994.511469
994.5114539
994.511448
994.5114689
994.5114686
994.5114687
994.5114706
994.5114705
994.5114705
994.5114704
994.5114705
994.5114704
994.5114658
994.5114702
994.5114685
994.5114658
994.5114622
994.5114628
994.5114669
994.5114628
994.5114617
994.5114688
994.5114555
994.511468
994.5114665
994.511467
994.5114623
994.5114536
994.5114481
994.5114529
994.5114571
994.5114556
994.5114574
994.5114597
994.5114595
994.5114635
994.5114686
994.511468
994.5114685
994.5114686
994.5114685
994.5114686
994.511469
994.5114686
994.5114687
994.5114703
994.5114698
994.5114701
994.5114703
994.5114703
994.5114702
994.5114697
994.5114702
994.5114698
994.5114558
994.5114487
994.5114465
994.5114454
994.5114425
994.51141
994.5114652
994.5114221
994.511463
994.5114613
994.5114659
994.5114616
994.5114507
994.5114358
994.5114461
994.5114555
994.5114508
994.5114535
994.511457
994.5114558
994.511458
994.5114654
994.5114602
994.5114631
994.5114685
994.5114661
994.5114685
994.5114686
994.5114686
994.5114687
994.5114698
994.5114695
994.5114695
994.5114702
994.5114696
994.5114698
994.5114675
994.5114699
994.5114515
994.5114363
994.5114575
994.511447
994.5114519
994.5114439
994.5114529
994.5114625
994.5114544
994.511461
994.5114616
994.5114653
994.511462
994.5114371
994.5114282
994.5114259
994.5114469
994.5114269
994.5114272
994.5114572
994.5114303
994.5114356
994.5114646
994.5114416
994.5114481
994.5114684
994.5114547
994.5114624
994.5114688
994.5114664
994.5114691
994.5114729
994.5114691
994.5114749
994.5114691
994.511469
994.511469
994.5114697
994.5114693
994.5114698
994.5114282
994.5114699
994.5113958
994.5114503
994.511455
994.511451
994.5114538
994.51145
994.5114547
994.5114578
994.5114574
994.5114581
994.5114627
994.5114628
994.5114637
994.5114134
994.5114407
994.5113967
994.5114072
994.5113935
994.5113923
994.5114096
994.5113949
994.5114016
994.5114323
994.5114172
994.5114422
994.5114623
994.5114644
994.5114698
994.5114726
994.5114726
994.5114731
994.511474
994.5114721
994.5114732
994.5114689
994.5114605
994.5114625
994.5113969
994.5113676
994.5113598
994.5113933
994.5113567
994.5113946
994.5114509
994.5114501
994.5114507
994.5114553
994.5114522
994.5114559
994.5114587
994.5114585
994.5114592
994.5114619
994.5114605
994.5114603
994.5113843
994.5114124
994.5113854
994.5113732
994.5113768
994.5113696
994.511371
994.511366
994.5113679
994.5113383
994.5113569
994.511342
994.5114722
994.5114717
994.5114725
994.5114725
994.511472
994.5114717
994.5114667
994.5114687
994.5114678
994.5114688
994.5114689
994.5113628
994.5113988
994.5114006
994.5113968
994.5114017
994.511398
994.5114506
994.5114481
994.5114526
994.5114567
994.5114559
994.5114588
994.5114597
994.5114598
994.5114592
994.5114587
994.5114587
994.5114564
994.5113876
994.5113921
994.5113918
994.5113696
994.5113945
994.5114017
994.5113687
994.511417
994.5114386
994.5113452
994.5114556
994.5114711
994.5114718
994.5114708
994.5114712
994.5114711
994.5114708
994.5114709
994.5114689
994.511469
994.511469
994.511469
994.511469
994.511469
994.511469
994.511469
994.5114691
994.5114691
994.5114693
994.5114692
994.5114695
994.5114696
994.5114599
994.5114697
994.5114691
994.5114581
994.5114582
994.5114566
994.5114522
994.5114542
994.5114436
994.5113937
994.511394
994.5113945
994.5113976
994.5113943
994.5113951
994.5114186
994.511397
994.5114005
994.5114711
994.5114713
994.511471
994.5114744
994.5114798
994.5114732
994.5114763
994.5114747
994.5114738
994.5114741
994.511474
994.5114746
994.5114742
994.5114746
994.5114752
994.5114751
994.5114753
994.5114755
994.5114754
994.5114752
994.511476
994.5114754
994.5114758
994.5114768
994.5114761
994.5114765
994.5114776
994.5114769
994.5114772
994.5114776
994.5114777
994.5114778
994.511478
994.5114784
994.5114786
994.5114909
994.5114785
994.5114753
994.5114751
994.5114756
994.5114738
994.5114751
994.5114762
994.5115065
994.511493
994.5114762
994.5114764
994.5114762
994.5114761
994.5114758
994.5114768
994.5114763
994.5114765
994.5114773
994.5114769
994.5114776
994.5114773
994.5114777
994.511621
994.5115439
994.511503
994.5115452
994.5115218
994.5114868
994.5115061
994.5114807
994.5114688
994.5114824
994.5114686
994.5114696
994.5114686
994.5114688
994.511473
994.5114761
994.5114769
994.5114758
994.5114775
994.5114767
994.5114769
994.5114718
994.5117819
994.5117814
994.5115692
994.5117574
994.5115997
994.5114684
994.5114686
994.5114685
994.5114685
994.5114689
994.5114686
994.5114706
994.511469
994.5114686
994.5117744
994.5117569
994.5114684
994.5114686
994.5114685
994.5114693
994.5114731
994.5114692
994.5114742
994.5114703
994.5114751
994.5114729
994.5114756
994.5114737
994.5114759
994.5114739
994.5114769
994.511474
994.5114779
994.511474
994.511479
994.5114795
994.5114723
994.5114794
994.5114703
994.5114687
994.5114687
994.5114687
994.5114688
994.5114688
994.5114688
994.511469
994.5114691
994.5114687
994.5114689
994.5114801
994.5114696
994.51148
994.5114705
994.5114706
994.51147
994.5114654
994.5114664
994.5114674
994.5114679
994.5114525
994.5114558
994.5114579
994.5114686
994.5114686
994.5114687
994.5114801
994.5114801
994.5114692
994.5114696
994.5114704
994.5114699
994.5114561
994.511454
994.5114436
994.5114663
994.5114434
994.5114538
994.5114565
994.5114569
994.5114644
994.5114686
994.5114692
994.5114698
994.5114698
994.51147
994.5114522
994.5114394
994.5114407
994.5114657
994.5114299
994.5114421
994.5114521
994.5114613
994.5114673
994.5114687
994.5114689
994.5114691
994.5114692
994.51147
994.511457
994.5114477
994.5114564
994.5114646
994.5114321
994.5114108
994.5114065
994.5114178
994.5114493
994.5114699
994.5114712
994.511469
994.5114689
994.5113959
994.5114526
994.5114513
994.511458
994.5114613
994.5114491
994.5113859
994.5113697
994.5113612
994.5114703
994.5114728
994.5114721
994.5114675
994.511369
994.5113653
994.5114481
994.5114531
994.5114592
994.5114597
994.511398
994.5113804
994.5113705
994.5113399
994.5114713
994.5114713
994.5114716
994.5114689
994.5114689
994.511469
994.511469
994.5114692
994.5114689
994.5114592
994.511457
994.5113928
994.5113948
994.5114041
994.5114712
994.5114707
994.5114706
994.5114691
994.5114692
994.5114696
994.5114702
994.5114709
994.5114641
994.5114552
994.5114452
994.5114428
994.5114019
994.5114715
994.511486
994.5114708
994.5114768
994.5114734
994.5114734
994.5114742
994.5114751
994.5114754
994.5114758
994.5114764
994.5114773
994.5114777
994.5114779
994.5114774
994.5114781
994.5114782
994.5114783
994.5114781
994.5114914
994.511495
994.5114829
994.5114763
994.5114802
994.511475
994.5114767
994.5114756
994.5114756
994.5114743
994.5114715
994.5114758
994.5114748
994.5114766
994.5114858
994.5114874
994.5114885
994.5115111
994.5114765
994.5114769
994.5114777
994.5114725
994.5114702
994.511475
994.5114791
994.5114792
994.5114877
994.5114844
994.5114763
994.5114728
994.5114693
994.5114688
994.5114695
994.5114836
994.511473
994.51151
994.5114701
994.5114742
994.511469
994.5114702
994.5114708
994.5114691
994.5114766
994.5114721
994.5114687
994.5114685
994.5114686
994.5114686
994.5114887
994.5114743
994.5117676
994.5117427
994.5117148
994.5117343
994.5116983
994.5116375
994.5115279
994.5114684
994.5114684
994.5114684
994.5117229
994.5116826
994.5116435
994.5116253
994.5114775
994.5114684
994.5114684
994.5114684
994.5114684
994.511671
994.5115922
994.5115956
994.5115946
994.5114939
994.5114684
994.5114684
994.5114684
994.5114684
994.5115286
994.5114763
994.5114768
994.5114782
994.5114804
994.5114684
994.5114684
994.5114685
994.5114685
994.5114693
994.5114724
994.5114687
994.5114726
994.5114693
994.5114737
994.5114687
994.5114687
994.5114727
994.511473
994.5114694
994.5114747
994.5114687
994.5114687
994.5114735
994.5114739
994.5114719
994.5114754
994.5114688
994.5114688
994.5114744
994.5114749
994.5114735
994.5114756
994.5114689
994.5114698
994.5114752
994.5114753
994.5114739
994.5114762
994.5114696
994.511469
994.5114755
994.5114757
994.511474
994.5114775
994.5114689
994.5114688
994.5114759
994.5114762
994.5114741
994.5114784
994.5114688
994.5114688
994.5114767
994.5114771
994.5114735
994.5114793
994.5114688
994.5114687
994.5114777
994.511478
994.5114686
994.5114702
994.5114781
994.5114708
994.5114694
994.5114687
994.5114688
994.511469
994.5114694
994.5114786
994.5114695
994.5114785
994.5114785
994.5114695
994.5114689
994.5114796
994.5114695
994.5114785
994.5114786
994.5114726
994.5114718
994.5114809
994.5114814
994.5114722
994.5114818
994.5114828
994.5114835
994.5114818
994.5114712
994.5114848
994.5114709
994.5114706
994.5114837
994.5114706
994.5114819
994.5114708
994.5114705
994.5114847
994.5114857
994.511487
994.511469
994.5114688
994.5114686
994.5114696
994.5114691
994.5114688
994.5114689
994.5114708
994.5114721
994.5114741
994.5114693
994.5114693
994.5114697
994.5114733
994.5114749
994.5114751
994.5114699
994.5114703
994.5114736
994.5114743
994.5114751
994.5114754
994.5114705
994.5114708
994.5114705
994.5114714
994.5114723
994.5114719
994.5114707
994.5114703
994.5114703
994.5114709
994.5114716
994.5114716
994.5114598
994.5114703
994.5114704
994.5114709
994.5114717
994.5114719
994.5114501
994.5114706
994.5114709
994.5114712
994.5114722
994.5114729
994.5114433
994.5114711
994.5114713
994.511472
994.5114754
994.5114821
994.511439
994.5114715
994.5114716
994.5114754
994.5114895
994.5114938
994.5114717
994.5114717
994.5114717
994.511482
994.5114973
994.5115008
994.5114857
994.5114711
994.5114717
994.5114965
994.5115015
994.5114895
994.5114928
994.5114781
994.5114779
994.5114782
994.511478
994.5114779
994.5114789
994.5114791
994.5114796
994.5114794
994.5114821
994.5114812
994.5114794
994.5114806
994.511477
994.5114788
994.5114831
994.5114844
994.511482
994.5114829
994.5114867
994.5114859
994.5114848
994.5114872
994.5114895
994.5114879
994.5114872
994.5114726
994.5114758
994.5114762
994.5114773
994.5114761
994.5114773
994.5114771
994.5114722
994.5114732
994.5114727
994.5114721
994.5114726
994.511473
994.5114729
994.5114742
994.5114796
994.5114812
994.5114894
994.5114888
994.5114948
994.511493
994.5114965
994.5114984
994.5114991
994.5115024
994.5115065
994.5115096
994.5115113
994.5114996
994.5115083
994.5115008
994.5114933
994.5114971
994.5114848
994.5114778
994.5114708
994.5114731
994.5114774
994.511477
994.5114774
994.5114779
994.5114782
994.5114781
994.5114786
994.5114786
994.5114799
994.5114791
994.5114799
994.5114745
994.5114746
994.5114712
994.5114695
994.5114758
994.5114729
994.5114711
994.5114696
994.5114818
994.511479
994.5114794
994.5114839
994.5114888
994.5114886
994.511495
994.5114913
994.5114946
994.5114896
994.5114917
994.5114787
994.5114782
994.5114782
994.5114788
994.5114789
994.511476
994.5114749
994.5114736
994.5114754
994.5114777
994.5114752
994.5114871
994.5114829
994.5114786
994.5114733
994.5114715
994.5114786
994.5114857
994.5114951
994.5114749
994.5114986
994.5115056
994.5115061
994.5115158
994.5115146
994.511521
994.5115028
994.5115122
994.511505
994.5115003
994.5116641
994.5116188
994.5115777
994.5114958
994.5114892
994.5114849
994.5114693
994.5114704
994.5114724
994.5114746
994.5117321
994.5116462
994.5115225
994.5114685
994.5114758
994.5114718
994.5114731
994.5114771
994.5114783
994.5114762
994.5114724
994.5114686
994.5114688
994.5114689
994.5114686
994.51147
994.5114692
994.5114712
994.5114759
994.5114727
994.5114725
994.5114811
994.5114854
994.5114869
994.5114903
994.5114793
994.5114793
994.5114853
994.511482
994.5114703
994.5114693
994.5114699
994.5114689
994.5114686
994.5114686
994.5114685
994.5114688
994.5114694
994.5114692
994.5114718
994.5114964
994.5114775
994.5114996
994.5115044
994.5114975
994.5115005
994.5114942
994.5114911
994.5114958
994.5114791
994.5114792
994.5114792
994.511487
994.5114782
994.5114719
994.5114703
994.5114691
994.511469
994.5114724
994.5114992
994.5114841
994.5115168
994.5115086
994.5118064
994.5118063
994.5118033
994.5117958
994.5117235
994.5116835
994.511643
994.5114686
994.5114688
994.511469
994.5114695
994.5118033
994.5117855
994.5117988
994.511781
994.5117885
994.5117661
994.5117725
994.5117479
994.5117401
994.5117508
994.5117302
994.5114684
994.5114685
994.5114684
994.5114684
994.5114685
994.5114685
994.5114685
994.5114687
994.5114685
994.5114694
994.5114686
994.5114692
994.5114688
994.5114697
994.5114729
994.5114686
994.5114691
994.5114685
994.5114696
994.5114687
994.5114686
994.5114685
994.5114685
994.5114685
994.5114685
994.5114685
994.5114686
994.5114688
994.5114688
994.5114689
994.5114703
994.5114707
994.5114691
994.5118107
994.5114948
994.5115007
994.5114793
994.5114792
994.5114711
994.5114697
994.511469
994.5114693
994.5114691
994.5114689
994.5114687
994.5114686
994.5114686
994.5114684
994.5114685
994.5114685
994.5114685
994.5114685
994.5114685
994.5114686
994.5114685
994.5114685
994.5114686
994.5114702
994.5114688
994.5114692
994.5114707
994.5114731
994.5114835
994.5114694
994.5114727
994.5114747
994.5119142
994.5118658
994.5114725
994.5114701
994.5114689
994.5114687
994.5114685
994.5114687
994.511469
994.5114862
994.511473
994.5117764
994.5117565
994.5117562
994.5117449
994.51173
994.5117283
994.5117125
994.5116945
994.5117041
994.5116774
994.5116639
994.5116996
994.5116572
994.5116642
994.5114684
994.511492
994.5114684
994.5114684
994.5114684
994.5114684
994.5114684
994.5114684
994.5114684
994.5114684
994.5114684
994.5114684
994.5114684
994.5117376
994.5117209
994.511704
994.5117028
994.5116795
994.5116624
994.5116526
994.5116327
994.5116294
994.5116103
994.5115909
994.5116491
994.5116054
994.5117393
994.5114684
994.5114724
994.5114684
994.5114684
994.5114684
994.5114684
994.5114684
994.5114684
994.5114684
994.5114684
994.5114684
994.5114684
994.5114684
994.5114684
994.5114684
994.5114684
994.5117007
994.5116935
994.511634
994.5116586
994.511518
994.5115985
994.5115199
994.5115312
994.511592
994.5115427
994.5115567
994.5116304
994.51157
994.5115858
994.5114684
994.5115407
994.5114684
994.5114684
994.5114684
994.5114684
994.5114684
994.5114684
994.5114684
994.5114684
994.5114684
994.5114684
994.5114684
994.5114684
994.5114685
994.5114685
994.5114686
994.5116782
994.511715
994.5117616
994.5114789
994.5115189
994.511479
994.5114791
994.5114766
994.5114769
994.5114773
994.5114702
994.5114773
994.5114767
994.5114742
994.5114799
994.5114706
994.511469
994.5114686
994.5114684
994.5114685
994.5114684
994.5114684
994.5114684
994.5114684
994.5114684
994.5114685
994.5114685
994.5114685
994.5114685
994.5114685
994.5114686
994.5114687
994.5114687
)
;

boundaryField
{
    walls
    {
        type            zeroGradient;
    }
    wallFilmFace_top
    {
        type            zeroGradient;
    }
    region0_to_wallFilmRegion_wallFilmFace
    {
        type            zeroGradient;
    }
    mirrorFace_top
    {
        type            zeroGradient;
    }
    region0_to_wallFilmRegion_mirrorFace
    {
        type            zeroGradient;
    }
    procBoundary3to2
    {
        type            processor;
        value           nonuniform List<scalar> 
64
(
994.5114686
994.5114694
994.5114767
994.5114772
994.5114781
994.5116659
994.5117898
994.5118034
994.5117781
994.5114701
994.5114703
994.5114704
994.5114704
994.5114489
994.5113913
994.5114691
994.5114693
994.5114696
994.5114695
994.5114691
994.511469
994.511469
994.511457
994.511457
994.5114641
994.5114683
994.5114683
994.5114691
994.511469
994.511469
994.5114814
994.5114863
994.5114863
994.5115041
994.5115268
994.5114693
994.5114719
994.5114687
994.511469
994.5114732
994.5114791
994.5117879
994.5117828
994.5117487
994.5117221
994.5117169
994.5114687
994.5114732
994.5114688
994.5114687
994.5114759
994.511477
994.5114772
994.5114786
994.5117054
994.5114791
994.5119112
994.5118047
994.5118686
994.511822
994.5117652
994.5117349
994.5117181
994.5117475
)
;
    }
}


// ************************************************************************* //
