/*--------------------------------*- C++ -*----------------------------------*\
  =========                 |
  \\      /  F ield         | OpenFOAM: The Open Source CFD Toolbox
   \\    /   O peration     | Website:  https://openfoam.org
    \\  /    A nd           | Version:  8
     \\/     M anipulation  |
\*---------------------------------------------------------------------------*/
FoamFile
{
    version     2.0;
    format      ascii;
    class       volScalarField;
    location    "1.5/wallFilmRegion";
    object      sigma;
}
// * * * * * * * * * * * * * * * * * * * * * * * * * * * * * * * * * * * * * //

dimensions      [1 0 -2 0 0 0 0];

internalField   nonuniform List<scalar> 
1342
(
0.07244714346
0.07244714377
0.07244714323
0.07244714373
0.07244714404
0.07244714481
0.07244714588
0.07244713534
0.07244713781
0.0724471386
0.07244713735
0.07244713685
0.07244713668
0.07244713682
0.07244713715
0.07244713829
0.07244714354
0.07244714363
0.07244714213
0.0724471427
0.07244714427
0.0724471436
0.07244714524
0.07244714817
0.0724471502
0.07244713981
0.07244714068
0.07244714071
0.07244713811
0.07244713756
0.07244713783
0.07244713895
0.07244715339
0.07244715606
0.07244716119
0.07244716283
0.07244714146
0.07244714191
0.07244714227
0.0724471429
0.07244713875
0.07244714444
0.07244715775
0.07244714237
0.07244713921
0.07244713894
0.07244714416
0.07244714527
0.07244714781
0.07244715951
0.07244716964
0.07244721862
0.0724471736
0.07244715356
0.07244714625
0.07244714302
0.07244713526
0.07244713677
0.07244713979
0.07244714143
0.07244714084
0.07244715
0.07244715186
0.0724471661
0.07244735968
0.07244730444
0.07244723847
0.07244719115
0.07244716547
0.07244713489
0.07244713502
0.0724471356
0.07244713821
0.07244713584
0.07244714295
0.0724471497
0.07244738903
0.07244738326
0.07244737332
0.07244735892
0.07244731042
0.07244713484
0.07244713487
0.07244713495
0.07244713489
0.07244713498
0.07244713486
0.07244713485
0.07244713506
0.07244716225
0.07244713744
0.07244713555
0.07244713507
0.0724471349
0.07244713486
0.07244713488
0.07244713497
0.07244713524
0.07244714233
0.07244714355
0.07244714244
0.0724471425
0.0724471426
0.07244714258
0.07244714381
0.07244714341
0.0724471435
0.07244714501
0.07244714376
0.07244714448
0.07244714442
0.07244713561
0.07244713643
0.0724471363
0.07244713502
0.07244713487
0.07244713478
0.07244713495
0.07244713377
0.07244713237
0.07244713507
0.07244713356
0.0724471345
0.07244713526
0.07244713493
0.0724471352
0.07244713513
0.07244713488
0.07244713486
0.07244713516
0.07244713482
0.07244712504
0.0724471353
0.07244712436
0.07244712452
0.0724471353
0.07244712372
0.07244711925
0.07244713518
0.07244713498
0.07244713503
0.07244713645
0.07244713639
0.0724471364
0.07244713632
0.07244713643
0.07244713629
0.07244713279
0.07244713622
0.0724471349
0.07244713285
0.0724471301
0.07244713053
0.07244713368
0.07244713055
0.07244712968
0.07244713512
0.07244712499
0.07244713451
0.07244713335
0.07244713373
0.07244713015
0.07244712352
0.07244711936
0.07244712295
0.07244712618
0.07244712504
0.07244712645
0.07244712816
0.072447128
0.0724471311
0.07244713496
0.07244713448
0.0724471349
0.07244713498
0.07244713491
0.07244713492
0.07244713524
0.07244713495
0.07244713506
0.07244713622
0.0724471359
0.07244713611
0.07244713624
0.07244713623
0.0724471362
0.07244713578
0.07244713615
0.07244713587
0.07244712524
0.07244711977
0.07244711813
0.07244711729
0.07244711508
0.0724470903
0.0724471324
0.07244709952
0.07244713071
0.07244712941
0.07244713288
0.07244712964
0.0724471213
0.07244710998
0.07244711777
0.07244712497
0.07244712136
0.07244712347
0.07244712612
0.07244712518
0.07244712689
0.07244713253
0.07244712859
0.07244713073
0.07244713489
0.07244713305
0.07244713488
0.07244713499
0.07244713495
0.07244713501
0.07244713588
0.07244713567
0.07244713567
0.07244713615
0.0724471357
0.07244713584
0.07244713413
0.07244713598
0.07244712193
0.07244711032
0.0724471265
0.07244711848
0.07244712221
0.0724471161
0.07244712299
0.07244713029
0.07244712417
0.07244712919
0.07244712966
0.07244713246
0.07244712993
0.07244711093
0.07244710417
0.07244710241
0.0724471184
0.07244710314
0.07244710339
0.07244712623
0.07244710573
0.07244710977
0.07244713191
0.07244711437
0.07244711931
0.07244713481
0.0724471244
0.07244713023
0.07244713513
0.07244713326
0.07244713535
0.07244713824
0.07244713535
0.0724471398
0.07244713537
0.07244713524
0.07244713524
0.07244713577
0.07244713553
0.07244713588
0.07244710412
0.07244713598
0.07244707947
0.07244712102
0.0724471246
0.07244712155
0.07244712368
0.07244712075
0.07244712432
0.07244712669
0.07244712643
0.07244712692
0.07244713046
0.07244713052
0.0724471312
0.07244709285
0.07244711369
0.07244708011
0.07244708815
0.07244707767
0.07244707682
0.07244708996
0.07244707875
0.07244708385
0.07244710731
0.07244709579
0.07244711484
0.07244713019
0.07244713175
0.07244713589
0.07244713798
0.07244713799
0.07244713842
0.07244713911
0.07244713761
0.07244713844
0.07244713521
0.0724471288
0.07244713032
0.07244708026
0.07244705792
0.07244705203
0.07244707752
0.07244704966
0.07244707852
0.0724471215
0.07244712089
0.0724471213
0.07244712485
0.07244712248
0.07244712527
0.0724471274
0.07244712728
0.07244712781
0.07244712986
0.07244712877
0.07244712863
0.07244707067
0.07244709208
0.0724470715
0.07244706224
0.072447065
0.07244705948
0.07244706052
0.07244705671
0.07244705821
0.07244703563
0.07244704977
0.07244703846
0.07244713771
0.07244713731
0.07244713796
0.0724471379
0.07244713759
0.0724471373
0.07244713351
0.07244713501
0.07244713437
0.07244713511
0.07244713516
0.07244705432
0.07244708174
0.07244708315
0.07244708018
0.07244708396
0.07244708117
0.0724471212
0.07244711934
0.0724471228
0.07244712592
0.07244712527
0.07244712748
0.07244712816
0.07244712827
0.07244712776
0.07244712744
0.0724471274
0.07244712567
0.07244707321
0.07244707667
0.07244707638
0.07244705946
0.07244707845
0.07244708394
0.07244705878
0.07244709561
0.07244711209
0.07244704086
0.07244712508
0.07244713689
0.07244713743
0.07244713665
0.07244713692
0.07244713689
0.07244713664
0.07244713669
0.07244713521
0.07244713525
0.07244713524
0.07244713525
0.07244713527
0.07244713527
0.07244713529
0.0724471353
0.07244713535
0.07244713537
0.07244713549
0.07244713543
0.07244713563
0.07244713575
0.07244712833
0.07244713577
0.07244713534
0.07244712698
0.07244712703
0.07244712582
0.07244712242
0.07244712396
0.07244711593
0.07244707789
0.07244707812
0.07244707849
0.07244708086
0.07244707832
0.07244707891
0.07244709681
0.07244708037
0.07244708302
0.07244713688
0.072447137
0.07244713683
0.07244713937
0.07244714348
0.07244713849
0.07244714082
0.07244713958
0.07244713889
0.07244713913
0.07244713908
0.07244713954
0.07244713924
0.07244713951
0.07244714
0.07244713995
0.07244714004
0.07244714024
0.07244714014
0.07244714
0.0724471406
0.07244714018
0.07244714043
0.07244714119
0.07244714069
0.07244714095
0.0724471418
0.0724471413
0.07244714153
0.07244714181
0.07244714188
0.07244714198
0.07244714211
0.07244714245
0.07244714257
0.07244715199
0.0724471425
0.07244714005
0.0724471399
0.07244714027
0.07244713892
0.07244713995
0.07244714075
0.07244716386
0.07244715356
0.07244714077
0.07244714087
0.07244714072
0.07244714068
0.07244714044
0.0724471412
0.0724471408
0.07244714101
0.0724471416
0.07244714127
0.07244714181
0.07244714159
0.07244714193
0.07244725112
0.0724471924
0.07244716122
0.07244719335
0.07244717554
0.07244714884
0.07244716356
0.07244714418
0.0724471351
0.07244714547
0.07244713493
0.07244713571
0.07244713499
0.07244713513
0.07244713835
0.07244714064
0.07244714125
0.07244714043
0.07244714173
0.07244714113
0.0724471413
0.07244713742
0.07244737383
0.07244737347
0.0724472117
0.07244735512
0.07244723495
0.07244713484
0.07244713494
0.07244713486
0.07244713488
0.07244713519
0.07244713492
0.07244713651
0.07244713523
0.07244713496
0.07244736812
0.07244735474
0.07244713483
0.07244713494
0.07244713487
0.07244713548
0.07244713836
0.07244713546
0.07244713923
0.07244713629
0.07244713992
0.07244713825
0.07244714031
0.07244713889
0.07244714054
0.07244713903
0.07244714126
0.07244713911
0.07244714208
0.07244713905
0.07244714292
0.07244714327
0.07244713777
0.07244714319
0.07244713627
0.07244713502
0.07244713502
0.07244713507
0.07244713513
0.0724471351
0.07244713512
0.07244713524
0.07244713533
0.07244713505
0.07244713521
0.07244714372
0.07244713576
0.07244714368
0.0724471364
0.07244713645
0.07244713604
0.0724471325
0.07244713325
0.07244713406
0.07244713445
0.0724471227
0.07244712516
0.07244712683
0.07244713493
0.07244713497
0.07244713504
0.07244714374
0.07244714374
0.07244713542
0.07244713573
0.07244713635
0.07244713599
0.07244712542
0.07244712383
0.0724471159
0.0724471332
0.07244711574
0.07244712369
0.07244712572
0.07244712601
0.07244713176
0.07244713493
0.07244713539
0.07244713587
0.07244713588
0.07244713605
0.07244712249
0.07244711271
0.07244711367
0.07244713272
0.07244710544
0.07244711474
0.0724471224
0.07244712943
0.07244713394
0.07244713506
0.07244713516
0.07244713535
0.07244713541
0.07244713605
0.07244712611
0.07244711901
0.07244712568
0.07244713192
0.07244710712
0.07244709088
0.0724470876
0.07244709623
0.07244712025
0.07244713598
0.07244713694
0.07244713523
0.07244713516
0.07244707957
0.07244712273
0.0724471218
0.07244712691
0.07244712943
0.0724471201
0.07244707187
0.07244705958
0.07244705305
0.07244713624
0.07244713817
0.07244713763
0.07244713409
0.07244705905
0.07244705618
0.07244711932
0.07244712317
0.07244712781
0.0724471282
0.07244708115
0.07244706774
0.07244706015
0.07244703687
0.07244713705
0.07244713701
0.07244713728
0.07244713515
0.07244713523
0.07244713526
0.0724471353
0.0724471354
0.0724471352
0.07244712781
0.07244712613
0.07244707716
0.07244707869
0.07244708577
0.07244713692
0.07244713655
0.07244713646
0.0724471353
0.07244713541
0.07244713569
0.07244713618
0.07244713668
0.07244713155
0.07244712476
0.07244711712
0.07244711533
0.07244708412
0.07244713715
0.07244714819
0.07244713664
0.07244714118
0.07244713864
0.07244713863
0.0724471392
0.07244713989
0.07244714012
0.07244714042
0.07244714088
0.07244714157
0.07244714193
0.07244714205
0.07244714168
0.07244714223
0.07244714228
0.07244714233
0.07244714222
0.07244715236
0.07244715507
0.07244714588
0.0724471408
0.07244714384
0.07244713983
0.07244714114
0.07244714031
0.07244714031
0.07244713931
0.07244713719
0.07244714046
0.07244713972
0.07244714107
0.07244714809
0.07244714932
0.07244715016
0.07244716733
0.07244714101
0.0724471413
0.07244714192
0.07244713796
0.07244713619
0.07244713988
0.072447143
0.07244714305
0.07244714955
0.072447147
0.07244714084
0.07244713814
0.07244713551
0.07244713509
0.07244713566
0.07244714639
0.07244713831
0.0724471665
0.07244713612
0.07244713923
0.07244713526
0.07244713615
0.07244713665
0.07244713537
0.07244714104
0.07244713762
0.07244713505
0.07244713492
0.07244713494
0.07244713498
0.0724471503
0.07244713934
0.07244736296
0.07244734391
0.07244732265
0.07244733757
0.07244731007
0.07244726373
0.07244718014
0.07244713483
0.07244713483
0.07244713483
0.07244732886
0.07244729808
0.07244726831
0.07244725446
0.07244714177
0.07244713483
0.07244713482
0.07244713483
0.07244713483
0.07244728924
0.07244722919
0.07244723182
0.07244723102
0.07244715424
0.07244713483
0.07244713482
0.07244713483
0.07244713483
0.07244718071
0.07244714087
0.07244714121
0.07244714231
0.07244714399
0.07244713483
0.07244713483
0.07244713485
0.07244713491
0.0724471355
0.07244713789
0.07244713502
0.07244713801
0.07244713546
0.07244713882
0.07244713502
0.07244713502
0.07244713805
0.07244713833
0.07244713558
0.0724471396
0.07244713503
0.07244713505
0.07244713868
0.07244713904
0.07244713745
0.07244714016
0.07244713508
0.07244713512
0.07244713939
0.07244713973
0.07244713867
0.0724471403
0.07244713521
0.07244713584
0.07244713999
0.07244714005
0.07244713898
0.07244714076
0.07244713572
0.07244713525
0.07244714018
0.07244714034
0.07244713907
0.07244714174
0.07244713519
0.07244713514
0.07244714055
0.07244714076
0.07244713913
0.07244714243
0.07244713513
0.07244713513
0.07244714115
0.07244714146
0.07244713872
0.07244714312
0.0724471351
0.07244713505
0.07244714189
0.07244714212
0.07244713498
0.07244713615
0.07244714223
0.07244713662
0.07244713557
0.07244713505
0.07244713512
0.07244713527
0.07244713555
0.07244714256
0.07244713561
0.07244714252
0.0724471425
0.07244713561
0.0724471352
0.07244714334
0.07244713564
0.07244714254
0.07244714256
0.07244713799
0.07244713743
0.07244714432
0.07244714469
0.07244713771
0.072447145
0.07244714576
0.07244714635
0.07244714502
0.07244713692
0.07244714734
0.07244713668
0.0724471365
0.07244714646
0.07244713648
0.07244714508
0.07244713665
0.07244713645
0.07244714722
0.07244714803
0.07244714902
0.07244713528
0.07244713508
0.07244713498
0.0724471357
0.07244713534
0.07244713511
0.07244713521
0.0724471366
0.07244713764
0.07244713915
0.07244713552
0.07244713547
0.07244713582
0.07244713856
0.07244713974
0.07244713994
0.07244713598
0.07244713624
0.07244713878
0.07244713929
0.07244713994
0.07244714013
0.07244713644
0.07244713661
0.07244713638
0.07244713709
0.0724471378
0.07244713748
0.07244713654
0.07244713628
0.07244713627
0.0724471367
0.07244713727
0.07244713721
0.07244712823
0.07244713629
0.07244713636
0.07244713673
0.07244713731
0.07244713744
0.07244712083
0.07244713652
0.07244713672
0.07244713695
0.07244713767
0.07244713823
0.07244711569
0.0724471369
0.07244713702
0.07244713752
0.07244714011
0.07244714528
0.07244711238
0.07244713714
0.07244713722
0.07244714017
0.07244715088
0.07244715417
0.07244713729
0.07244713729
0.07244713733
0.07244714517
0.07244715686
0.07244715948
0.07244714801
0.07244713688
0.07244713731
0.07244715624
0.07244716008
0.07244715086
0.0724471534
0.0724471422
0.07244714205
0.0724471423
0.07244714215
0.07244714202
0.07244714282
0.07244714299
0.07244714332
0.07244714321
0.07244714521
0.07244714458
0.07244714322
0.0724471441
0.0724471414
0.07244714276
0.07244714605
0.07244714697
0.07244714515
0.07244714587
0.07244714873
0.07244714812
0.07244714731
0.07244714911
0.07244715091
0.07244714969
0.07244714916
0.07244713802
0.07244714045
0.07244714074
0.07244714158
0.07244714068
0.0724471416
0.07244714146
0.07244713771
0.07244713848
0.07244713809
0.07244713759
0.07244713804
0.0724471383
0.07244713823
0.07244713923
0.07244714333
0.0724471446
0.07244715079
0.07244715032
0.0724471549
0.07244715353
0.07244715623
0.07244715769
0.0724471582
0.07244716074
0.07244716384
0.07244716626
0.07244716752
0.0724471586
0.07244716526
0.07244715952
0.07244715382
0.07244715671
0.07244714734
0.07244714201
0.0724471366
0.0724471384
0.0724471417
0.07244714139
0.07244714169
0.07244714205
0.07244714229
0.07244714221
0.07244714257
0.07244714259
0.07244714361
0.07244714299
0.07244714355
0.07244713943
0.07244713956
0.07244713697
0.07244713563
0.07244714045
0.07244713825
0.07244713687
0.07244713572
0.07244714503
0.07244714287
0.07244714322
0.07244714662
0.0724471504
0.07244715021
0.07244715506
0.07244715224
0.07244715477
0.072447151
0.07244715256
0.07244714266
0.07244714228
0.0724471423
0.07244714275
0.07244714279
0.07244714057
0.07244713974
0.07244713877
0.07244714012
0.0724471419
0.07244713995
0.07244714907
0.07244714584
0.07244714258
0.07244713852
0.07244713719
0.07244714257
0.07244714802
0.07244715515
0.07244713975
0.07244715784
0.07244716316
0.07244716354
0.07244717093
0.07244717003
0.07244717492
0.07244716101
0.07244716819
0.07244716275
0.07244715915
0.07244728401
0.07244724951
0.07244721816
0.07244715566
0.07244715069
0.07244714739
0.0724471355
0.07244713636
0.07244713789
0.07244713955
0.0724473359
0.07244727035
0.07244717606
0.07244713487
0.07244714047
0.07244713741
0.0724471384
0.07244714143
0.07244714237
0.07244714076
0.07244713786
0.07244713494
0.07244713511
0.0724471352
0.07244713498
0.07244713604
0.07244713539
0.07244713696
0.07244714053
0.07244713811
0.07244713792
0.07244714449
0.07244714774
0.07244714892
0.07244715149
0.07244714309
0.0724471431
0.07244714771
0.07244714515
0.07244713629
0.07244713553
0.07244713594
0.07244713519
0.07244713495
0.07244713498
0.0724471349
0.07244713509
0.07244713556
0.07244713539
0.07244713737
0.07244715619
0.07244714172
0.07244715857
0.07244716229
0.07244715702
0.0724471593
0.07244715449
0.07244715209
0.0724471557
0.07244714296
0.07244714302
0.07244714306
0.07244714902
0.07244714229
0.07244713749
0.07244713623
0.07244713534
0.07244713525
0.07244713782
0.07244715832
0.0724471468
0.07244717174
0.07244716548
0.07244739253
0.07244739247
0.07244739017
0.07244738444
0.07244732928
0.07244729877
0.07244726792
0.07244713498
0.07244713509
0.07244713529
0.07244713568
0.07244739016
0.07244737655
0.07244738668
0.07244737312
0.07244737883
0.07244736179
0.07244736667
0.07244734787
0.07244734198
0.0724473501
0.07244733439
0.07244713483
0.07244713485
0.07244713483
0.07244713484
0.0724471349
0.07244713485
0.07244713486
0.07244713502
0.07244713489
0.07244713555
0.072447135
0.07244713539
0.07244713508
0.07244713582
0.07244713826
0.07244713493
0.07244713534
0.07244713489
0.0724471357
0.07244713505
0.07244713498
0.07244713488
0.07244713485
0.07244713488
0.0724471349
0.07244713486
0.07244713495
0.07244713511
0.07244713512
0.07244713519
0.07244713629
0.07244713652
0.07244713532
0.0724473958
0.07244715492
0.07244715944
0.07244714309
0.07244714304
0.07244713683
0.07244713582
0.07244713524
0.07244713549
0.07244713538
0.07244713516
0.07244713504
0.07244713497
0.07244713496
0.07244713484
0.07244713491
0.07244713485
0.07244713487
0.0724471349
0.07244713487
0.07244713492
0.07244713489
0.07244713491
0.07244713497
0.07244713621
0.07244713514
0.07244713543
0.07244713658
0.0724471384
0.07244714629
0.07244713553
0.07244713809
0.0724471396
0.07244747471
0.07244743782
0.07244713792
0.07244713613
0.0724471352
0.07244713503
0.07244713487
0.07244713501
0.0724471353
0.07244714834
0.07244713829
0.07244736966
0.07244735449
0.07244735425
0.07244734566
0.07244733426
0.07244733298
0.07244732093
0.07244730719
0.07244731448
0.07244729417
0.07244728389
0.07244731109
0.07244727874
0.07244728407
0.07244713483
0.07244715282
0.07244713483
0.07244713483
0.07244713483
0.07244713483
0.07244713483
0.07244713483
0.07244713483
0.07244713484
0.07244713483
0.07244713483
0.07244713484
0.07244734007
0.07244732733
0.07244731446
0.0724473135
0.07244729579
0.07244728273
0.07244727528
0.07244726004
0.07244725754
0.07244724296
0.07244722821
0.0724472726
0.0724472393
0.07244734133
0.07244713483
0.07244713789
0.07244713483
0.07244713483
0.07244713483
0.07244713483
0.07244713483
0.07244713483
0.07244713482
0.07244713483
0.07244713483
0.07244713483
0.07244713484
0.07244713483
0.07244713483
0.07244713484
0.07244731194
0.0724473064
0.07244726109
0.07244727984
0.07244717265
0.072447234
0.07244717409
0.07244718269
0.07244722901
0.07244719147
0.07244720209
0.0724472583
0.07244721227
0.07244722431
0.07244713483
0.07244718997
0.07244713483
0.07244713482
0.07244713483
0.07244713483
0.07244713482
0.07244713483
0.07244713483
0.07244713483
0.07244713483
0.07244713483
0.07244713483
0.07244713484
0.07244713485
0.07244713492
0.07244713497
0.0724472948
0.07244732286
0.07244735837
0.07244714283
0.07244717329
0.07244714289
0.072447143
0.07244714103
0.07244714126
0.07244714157
0.0724471362
0.0724471416
0.07244714114
0.07244713925
0.07244714354
0.07244713652
0.07244713525
0.07244713497
0.07244713483
0.07244713491
0.07244713483
0.07244713483
0.07244713484
0.07244713484
0.07244713484
0.07244713485
0.07244713486
0.07244713491
0.07244713488
0.07244713489
0.07244713492
0.072447135
0.07244713507
)
;

boundaryField
{
    walls
    {
        type            zeroGradient;
    }
    wallFilmFace_top
    {
        type            zeroGradient;
    }
    region0_to_wallFilmRegion_wallFilmFace
    {
        type            zeroGradient;
    }
    mirrorFace_top
    {
        type            zeroGradient;
    }
    region0_to_wallFilmRegion_mirrorFace
    {
        type            zeroGradient;
    }
    procBoundary3to2
    {
        type            processor;
        value           nonuniform List<scalar> 
64
(
0.07244713492
0.07244713558
0.07244714112
0.07244714151
0.07244714217
0.07244728537
0.07244737988
0.07244739019
0.0724473709
0.07244713612
0.07244713627
0.07244713632
0.07244713632
0.07244711995
0.07244707606
0.07244713538
0.07244713553
0.07244713575
0.07244713565
0.07244713532
0.07244713524
0.07244713524
0.0724471261
0.0724471261
0.07244713154
0.07244713471
0.07244713471
0.07244713537
0.07244713525
0.07244713525
0.07244714476
0.07244714845
0.07244714845
0.07244716206
0.07244717934
0.07244713547
0.07244713745
0.07244713504
0.07244713526
0.07244713844
0.07244714294
0.0724473784
0.07244737451
0.0724473485
0.07244732822
0.07244732431
0.07244713504
0.07244713844
0.07244713509
0.07244713505
0.07244714052
0.07244714137
0.07244714151
0.07244714256
0.07244731554
0.072447143
0.07244747242
0.0724473912
0.07244743995
0.07244740437
0.07244736108
0.07244733796
0.07244732522
0.07244734758
)
;
    }
}


// ************************************************************************* //
