/*--------------------------------*- C++ -*----------------------------------*\
  =========                 |
  \\      /  F ield         | OpenFOAM: The Open Source CFD Toolbox
   \\    /   O peration     | Website:  https://openfoam.org
    \\  /    A nd           | Version:  8
     \\/     M anipulation  |
\*---------------------------------------------------------------------------*/
FoamFile
{
    version     2.0;
    format      ascii;
    class       volScalarField;
    location    "1";
    object      epsilon;
}
// * * * * * * * * * * * * * * * * * * * * * * * * * * * * * * * * * * * * * //

dimensions      [0 2 -3 0 0 0 0];

internalField   nonuniform List<scalar> 
67451
(
0.1304388615
0.1336652058
0.1205252051
0.1214002524
0.1391992416
0.1980823897
0.3329963769
0.5977719454
0.9945069514
1.064498627
1.057371082
0.2181114863
0.2322879709
0.2204256824
0.2015570311
0.1914798131
0.1899795911
0.168466119
0.1842056222
0.2550827237
0.4117773108
0.6897300456
1.1151419
1.591052774
1.70808462
1.64054249
1.474200152
1.283124779
1.116381107
0.9867774254
0.8725756656
0.7650758801
0.8440222108
1.551336546
1.79169762
1.418092699
0.9703424998
0.1822755709
0.2635471437
0.303875375
0.3273902518
0.3139680458
0.2787534846
0.2609710846
0.2532262474
0.2179852256
0.2496518018
0.3870370743
0.6696823482
1.130276586
1.741273929
2.25848996
2.381444923
2.233633788
1.942643548
1.644685142
1.413413709
1.24366138
1.093246154
0.9358359489
0.7957677133
0.8180221581
0.9830333035
1.380791384
0.8514102903
0.2684760867
0.359151565
0.4193004385
0.4574299809
0.4445312507
0.3744158261
0.337400792
0.3049528673
0.2664979992
0.288438318
0.4196758957
0.7195634626
1.250602544
1.969663121
2.545057613
2.690018507
2.500491482
2.152954466
1.83863516
1.625255852
1.470462803
1.303586677
1.103737249
0.9112922906
0.8684084723
1.485078112
4.167138047
1.848503266
0.4869135215
0.575118575
0.6330597302
0.6400608575
0.5093096779
0.4192577287
0.3405085558
0.3212863448
0.3184468557
0.3769115469
0.5524101207
0.9049107097
1.498978983
2.099046519
2.292310695
2.067764348
1.843853539
1.746414997
1.705935183
1.635672358
1.482723992
1.248078804
1.054556175
1.62882134
5.248150656
10.63554336
4.77095125
0.6630264081
0.7841779711
0.8748785313
0.9331363256
0.7183332414
0.5584307702
0.4349065513
0.3886675449
0.3724938441
0.3956154185
0.4934984621
0.6698665207
0.9458136757
1.298537646
1.558971466
1.484172071
1.612188759
1.741120925
1.803635456
1.762360145
1.608171953
1.377218879
1.157337848
0.9984796104
1.017164192
2.943057729
1.604948899
0.9123053985
1.078125123
1.222656493
1.341444984
1.039503459
0.7705467316
0.5614126431
0.4633642111
0.4294703096
0.4315766671
0.4960278871
0.6081349284
0.7742871958
0.9460135031
1.102305258
1.315098646
1.530213788
1.715270763
1.801268754
1.76467592
1.631899994
1.450913707
1.267322492
1.10865519
0.959043896
1.039386806
0.7950011152
1.239522294
1.479244449
1.661382845
1.688680868
1.426534053
1.070178237
0.7416656964
0.5488940414
0.4797576584
0.4782624481
0.5541075472
0.5927628995
0.7579954009
0.9822836224
1.284372427
1.325815839
1.425814977
1.594779941
1.688985307
1.722286282
1.713772076
1.64433668
1.504708353
1.312458552
1.100607377
0.8671261349
0.6560029207
1.603075587
1.951761664
2.218687663
2.247355315
1.936772104
1.473313615
1.006343884
0.6706567297
0.5311977312
0.5516087946
0.8137182509
0.6488938535
0.8289231764
1.363643648
2.271068213
1.998006356
1.639968222
1.638134388
1.790251785
1.947678549
2.028827753
1.990088961
1.826481582
1.566784217
1.246139581
0.9172673722
0.6444221073
1.957894305
2.414084191
2.764825842
2.81664488
2.470342118
1.92558678
1.342521355
0.8599039147
0.6303345784
0.7508450939
1.660948315
1.086359791
1.196151079
2.318005628
3.954031869
3.706125706
2.712875942
2.129384651
2.071507376
2.189002214
2.261458412
2.216671433
2.041663022
1.750921758
1.376203054
0.9822600669
0.6620798703
2.248029102
2.758373308
3.129734979
3.19793882
2.871827004
2.313272907
1.685011716
1.133976266
0.8446560938
1.557519928
3.107765881
2.457497416
2.644230977
4.177168408
5.696934347
5.696560137
4.789535936
3.415166053
2.538392403
2.296451013
2.264619856
2.192824529
2.015813173
1.732744326
1.36344082
0.971269181
0.6528363438
2.313063464
2.789628223
3.14075033
3.223617813
2.939531931
2.449202359
1.891994967
1.36383396
1.116045574
2.528738518
4.520212419
4.591284346
3.592456592
3.868908773
5.64873697
5.955328426
5.199556891
3.87083332
2.752725145
2.255694573
2.128365464
2.037405164
1.862032729
1.591185949
1.244097809
0.8886247756
0.6030921186
2.042916067
2.473356742
2.807912077
2.905275944
2.64639628
2.22086918
1.742906863
1.278809465
0.9634133991
1.699082109
3.713470933
3.831169106
2.888634025
2.766002469
4.607012133
5.123203707
4.475587414
3.314516314
2.349583423
1.950688473
1.866556085
1.788005
1.623111644
1.372495606
1.062410721
0.7616360993
0.5243873225
1.65842996
2.016521863
2.311879084
2.432674102
2.220987188
1.879680025
1.495518051
1.115636442
0.8179890538
0.9743634484
2.276841078
2.49558418
1.911437274
1.75510659
3.271070472
3.792107308
3.274635618
2.382801589
1.738642764
1.569687704
1.55749615
1.491594019
1.342579751
1.121381243
0.8652239857
0.6212010537
0.435875842
1.266818598
1.535725906
1.77448295
1.927520164
1.769163976
1.508740634
1.210310731
0.9132204396
0.6732226636
0.6158511748
1.258894688
1.442605347
1.128163559
1.04678026
2.182325216
2.532954298
2.111221617
1.523868366
1.222304745
1.229604222
1.249876592
1.187768081
1.063503346
0.879294477
0.6799347556
0.4929187987
0.3557798922
0.9406129138
1.113164497
1.280088421
1.458102027
1.350489191
1.15628604
0.930929741
0.7112999088
0.5359465806
0.4359881045
0.6751167788
0.7458199103
0.5811768731
0.5958921466
1.331058384
1.520531292
1.213226132
0.9270796784
0.8640214925
0.9486228225
0.9720416313
0.9169679263
0.821371932
0.6783997633
0.5341737523
0.3967321339
0.2968371361
0.7205243908
0.8154514834
0.9094341656
1.050394804
0.9829940499
0.8477498822
0.6897105532
0.5415154055
0.4217883074
0.3358154285
0.3791065202
0.3697895473
0.30795326
0.3944393397
0.7280555572
0.8142774412
0.6727588621
0.5981156264
0.6361680575
0.7292506362
0.7509483641
0.7118016092
0.6440213906
0.5424996764
0.4403389401
0.337622635
0.2614264907
0.6262128769
0.7334837376
1.627366502
0.8200398392
0.6999591891
0.6060289955
0.5062833916
0.4128604109
0.3345599041
0.2713057552
0.2486559691
0.226040985
0.2722598925
0.4512049217
0.599064619
0.5750497271
0.4951611524
0.4696943195
0.5060110923
0.5766718214
0.6012585518
0.5823754949
0.5381594577
0.4666061784
0.3901763622
0.3072661012
0.2438564802
0.7239297511
1.709974222
8.968569319
2.263203801
0.7060017033
0.4662541508
0.3819024555
0.3209792038
0.2691527693
0.2235253757
0.1907868625
0.2001431777
0.3651394442
0.6332563085
0.7941622218
0.7196901709
0.592692379
0.4971913027
0.4633360512
0.4881991417
0.5122357887
0.5098858154
0.4830443996
0.4295589002
0.365815122
0.2929092371
0.236239687
1.215904971
5.072892459
22.56324535
7.087559073
1.490184413
0.4667056263
0.3082993361
0.257271966
0.219710802
0.1852503821
0.1581201773
0.2065539426
0.4513258272
0.751342163
0.9451226947
0.9017420983
0.7469001924
0.5790886845
0.4692614758
0.4436255632
0.4583720266
0.4651840753
0.449900342
0.4085441752
0.3508935293
0.2842199576
0.2324742579
0.9262788581
1.356297482
8.316327785
1.835274591
0.5519923003
0.3205612176
0.2550009953
0.2168260011
0.1857071518
0.1568209002
0.13547737
0.1910215993
0.4430272778
0.7209298181
0.9174190059
0.9096006046
0.773784468
0.5978806633
0.462246547
0.4110395654
0.4170574704
0.4280701308
0.4201884483
0.387685462
0.3358541327
0.2753109826
0.229013157
1.696915886
1.30414353
2.024715897
0.7555004871
0.4500957106
0.3313019768
0.2637309165
0.2171071651
0.1807726969
0.1668902075
0.124465894
0.1559992796
0.3400280965
0.5793453414
0.7666252044
0.7835201776
0.6841072623
0.5384242428
0.4220999998
0.3732728873
0.3770655533
0.3901895782
0.3870080466
0.3616163979
0.3170810975
0.26371242
0.2241061221
2.945266338
2.512964794
1.693567247
1.135126667
0.7571699359
0.5317984226
0.3929322505
0.2994631793
0.2293736043
0.99252705
0.1940309555
0.137039849
0.2524352184
0.4022442938
0.5607999017
0.6032353131
0.5447375304
0.4450572481
0.3623940225
0.3298903939
0.3360417265
0.3497721812
0.349512603
0.3300928528
0.294112431
0.2488592065
0.2169963548
3.903339704
3.578867138
2.754242186
2.064302678
1.4497337
0.9885945879
0.6727663929
0.4647495162
0.3273433814
0.7463453033
0.2055315434
0.2927067041
0.4419109262
0.313270494
0.4074952196
0.438250707
0.4058910577
0.3464159557
0.2990126193
0.2853697942
0.29514331
0.3075029866
0.3089594095
0.2946001298
0.2677657546
0.2310745744
0.207449096
4.314497008
3.997783441
3.229846896
2.428881434
1.724908462
1.185833415
0.8098627772
0.5642574756
0.4036032165
0.3093304861
0.2483975992
0.818012615
3.129701773
2.138564825
0.9699457685
0.4786910065
0.321050942
0.2673261339
0.2437717828
0.243328296
0.2551750877
0.2656669721
0.2675352118
0.2585386506
0.2394373241
0.2110257656
0.1954863735
4.216187085
3.874866473
3.126003964
2.337118596
1.662566108
1.161460677
0.8203814714
0.5929685061
0.4414441004
0.3239748319
0.2640005585
0.5579411872
2.963157003
1.728545771
0.7747127271
0.3574911611
0.2346231841
0.2052220055
0.1988822794
0.2054013844
0.2171822195
0.2262082658
0.2286075592
0.2232548812
0.2102369806
0.1893348107
0.1811769304
3.718790643
3.36311352
2.68809225
2.016153596
1.461651634
1.060143529
0.7843744365
0.5918878788
0.4575636215
0.3531590206
0.2718716753
0.2726893345
1.507381444
0.8788470078
0.3961736677
0.2073874
0.1656226998
0.1603083634
0.1631979088
0.171478092
0.1815340744
0.1890102453
0.1916570373
0.1888980934
0.1806319033
0.1663184872
0.1644555524
3.079428942
2.812327592
2.324714173
1.840745932
1.409061287
1.061201895
0.7999778679
0.6114067711
0.4776522309
0.3764467597
0.2917046294
0.2203034077
0.649112027
0.3672069762
0.1794886255
0.1266117413
0.1232500902
0.1278054006
0.1335892749
0.1407082997
0.1481353125
0.1537462698
0.1561175045
0.1551603914
0.1505510476
0.1419030064
0.1450039867
2.529323319
2.497235758
2.238326041
1.89782589
1.522804555
1.176541236
0.8979605634
0.6890645905
0.5327197149
0.4134001117
0.3151475337
0.2262106824
0.2728215594
0.1582984934
0.09977417216
0.08907847016
0.09488719328
0.101275316
0.1072193707
0.112351264
0.1169082507
0.1202002968
0.1214334353
0.1217239491
0.1197719441
0.1158548465
0.1223930966
2.081121272
2.256669646
2.136724719
1.885019547
1.569859095
1.262420799
1.005954573
0.7921203667
0.6140011805
0.466994422
0.3440291367
0.2383534108
0.1679137154
0.1043900106
0.0739359724
0.067387632
0.07205898232
0.07705265973
0.0819521695
0.08541719849
0.08741007936
0.08781790126
0.08699282966
0.08832903378
0.08784611216
0.08754435368
0.09546715017
1.616969054
1.735765682
1.683355451
1.581082312
1.442769012
1.282893527
1.111825621
0.9337170311
0.7540800436
0.5817307244
0.4254656989
0.2920501211
0.1850474697
0.114072323
0.07384162721
0.0573707339
0.0551243405
0.05706641051
0.06042363138
0.0626552035
0.06277886355
0.05710826835
0.05279370807
0.05914234357
0.06009904529
0.06092582384
0.06623526875
0.09298030606
0.09463471632
0.09595278525
0.09814845873
0.1037580473
0.1220059137
0.1838689894
0.28540999
0.3802091302
0.411883857
0.4144273298
0.1351710553
0.1413429717
0.1377033267
0.1332557073
0.1299950049
0.1273171127
0.1283638912
0.1361632434
0.16308249
0.2288200758
0.4176165441
0.6460100146
0.7976529529
0.8531116222
0.8244283452
0.7374988249
0.6476421582
0.5860818076
0.561612811
0.5530977542
0.6069748305
0.9656893155
1.236755883
1.375033956
1.325103406
0.8772614459
0.1344531849
0.1750086526
0.1820231498
0.1861521151
0.186173637
0.1832297227
0.1788052008
0.1732350711
0.1664300789
0.1803985142
0.2343442079
0.361679898
0.6870052846
1.028378622
1.202231727
1.258301942
1.195568023
1.044632034
0.8884429827
0.7806743948
0.7183912651
0.6774147308
0.6610072734
0.7366145271
0.9870410171
1.410322863
1.94225335
1.019338206
0.1879722653
0.2300791394
0.2428228705
0.2469081615
0.2463660249
0.2414397112
0.2383477515
0.2217109758
0.2078756153
0.2201028513
0.2780842293
0.42066175
0.7530555978
1.127932977
1.309179456
1.364822635
1.313208859
1.180139283
1.036935206
0.9315447668
0.8628441759
0.8077543974
0.7613124554
0.7416511463
1.025116614
3.083790984
4.78562401
3.078561961
0.2935261622
0.3175043601
0.328035812
0.325375625
0.3101206772
0.2954408732
0.2698533521
0.2503256815
0.2562707055
0.3017173531
0.4130862153
0.6405752044
0.9674736296
1.178306102
1.251334765
1.231749183
1.152212304
1.067679236
1.00754059
0.964818977
0.9195326524
0.8716404505
0.8750903575
1.729266302
6.907626017
6.975052933
7.384030258
0.3736531875
0.4219517933
0.4492724288
0.4389685863
0.4063727726
0.361240182
0.3221321762
0.2961757371
0.2986863656
0.3348562367
0.4135660736
0.5455151697
0.741781562
0.9272111813
1.018683745
1.058209396
1.052300188
1.039583999
1.03478007
1.026820489
0.9992805537
0.949272509
0.8959879509
0.9459849035
1.830295737
3.854066802
1.995196248
0.4810978369
0.567545693
0.6335870949
0.6024452759
0.5476069617
0.4527998272
0.3858724249
0.3461697423
0.3413671463
0.3711894336
0.4309468838
0.5055314339
0.6225647481
0.7633017032
0.8734973063
0.9335399848
0.9772338874
1.014670431
1.050558132
1.072558935
1.065373104
1.023328842
0.9521690241
0.872661118
0.849147692
0.9469218797
0.859218052
0.6231706958
0.7571893807
0.8398649132
0.8437036875
0.7183779014
0.5757198101
0.4648039132
0.4030008066
0.3960464005
0.4371964085
0.5010551091
0.54764114
0.6461519898
0.7921228939
0.9327524254
0.9967750034
1.031182182
1.059789239
1.097496302
1.128433429
1.131120421
1.094007169
1.01760423
0.9142094448
0.8166258939
0.7518283148
0.9199679815
0.7920934361
0.9899193029
1.110527135
1.096426107
0.9517198522
0.7412578865
0.5680019072
0.4792837178
0.4959625789
0.6063069557
0.7161838396
0.741029004
0.8728432332
1.13825399
1.372554572
1.421505963
1.353239199
1.260501165
1.208178894
1.189716839
1.173955232
1.134106512
1.057610689
0.9495836561
0.834159153
0.7435392656
0.9261415979
0.9644238529
1.207021356
1.360224056
1.362832297
1.205044743
0.9372133841
0.6972072772
0.5912219145
0.7037690856
1.033941566
1.303321215
1.342438477
1.492978507
1.795001093
2.054509918
2.113578761
1.93122009
1.637137263
1.398377676
1.264758218
1.195375863
1.137501212
1.05953308
0.9541407069
0.8358917892
0.7367703186
0.9070857378
1.077509173
1.322601679
1.473035736
1.490015768
1.358902679
1.08865823
0.818384548
0.727372201
1.024273802
1.557252042
1.905507297
2.00312963
2.034491665
2.258652983
2.509716733
2.571302529
2.335766191
1.921696604
1.551691328
1.319561109
1.195239702
1.112368737
1.024383855
0.9144521119
0.7912258173
0.6835710209
0.8267894598
1.067963814
1.295241688
1.439593878
1.457126031
1.339200791
1.094330978
0.837641951
0.7305615939
1.03169281
1.614873289
2.082082769
2.222521887
2.119139505
2.372818232
2.637349508
2.706558198
2.424923047
1.922193958
1.50218649
1.258503477
1.127642996
1.038209435
0.9455825748
0.8336051062
0.7103407628
0.6039993359
0.712233357
0.9451401371
1.143949327
1.284636401
1.303309455
1.192974149
0.9810842481
0.7602320674
0.63391296
0.7894667192
1.25707906
1.77781126
1.951952984
1.73194982
1.943808584
2.281866841
2.407198372
2.11031755
1.619735479
1.274081569
1.093620854
0.9928884822
0.9147513457
0.827860366
0.7222318734
0.6081420645
0.5132912301
0.5898316579
0.7812882604
0.9271295875
1.040734188
1.060023751
0.9712968314
0.8105492324
0.6432433541
0.5271128648
0.5558662331
0.7497483441
1.107613692
1.242597046
1.052882713
1.234281084
1.585004649
1.755832202
1.511993463
1.185552909
0.9922405883
0.8892850724
0.8247493785
0.7644237817
0.6903892207
0.5995450964
0.5078841918
0.4265359681
0.4821667168
0.6375812355
0.7285631821
0.7998961302
0.8145228437
0.7516187679
0.6417743178
0.5240580333
0.4293554537
0.4015913707
0.4285837218
0.5727503494
0.6178556007
0.5639728493
0.6825943487
0.9270532988
1.072404136
0.9568390374
0.8391857904
0.7479964963
0.6934714356
0.6588916737
0.6171146331
0.5591192083
0.4878192099
0.419903111
0.3544493348
0.4016119919
0.5396930465
0.5942806545
0.6318850457
0.6308243077
0.5820358245
0.5058600022
0.4216029259
0.3475704642
0.3032347703
0.2776270421
0.3289546028
0.3302221201
0.3058830855
0.3897287236
0.5786426096
0.6392381832
0.6250580834
0.5933358081
0.5549685248
0.53484342
0.5220633663
0.4966089042
0.4549245967
0.402845127
0.3544042862
0.3036612651
0.3516466179
0.4984093515
0.577180547
0.7030738167
0.5556417108
0.4685735836
0.4033122689
0.3394416775
0.2834088342
0.2400345077
0.2081784866
0.2140660187
0.2037872527
0.2101703077
0.3021633575
0.4256595126
0.4559508033
0.4529594652
0.442996523
0.4289552299
0.4266279584
0.4245645055
0.4103561478
0.3826445821
0.3467544924
0.3115652703
0.2728624689
0.3271773101
0.5992710524
1.144361632
2.587481603
1.101926104
0.5101861562
0.3547299139
0.2856113923
0.2364882817
0.1990554428
0.1713664171
0.1604879392
0.1594103259
0.2245940819
0.3590434111
0.4542401023
0.4539898233
0.417587944
0.3862420851
0.3675112964
0.3635851735
0.3622540005
0.3537382672
0.3359020223
0.3108940536
0.2850495782
0.2559285634
0.3190911844
1.113153698
3.953044856
8.289470125
4.566523533
1.244487649
0.4210455202
0.256801602
0.2033609453
0.1710143564
0.1475559541
0.1339087547
0.1556364915
0.274572855
0.4387811401
0.5416399108
0.5332291255
0.4606095463
0.3896606667
0.3472367342
0.3299910368
0.3237583888
0.317092895
0.3052837389
0.2871979171
0.2677929488
0.2462196118
0.3187869977
1.332790073
5.056342275
12.61647152
5.508213071
1.420416381
0.4276460994
0.2330738523
0.1794203044
0.1497693024
0.1287979567
0.1171463666
0.1569054647
0.2965257735
0.4697933031
0.5845002491
0.5828453933
0.4982731822
0.4003454511
0.3371435898
0.3078773129
0.2967022348
0.290534582
0.2824067281
0.269285456
0.2541972374
0.238727811
0.3199010119
0.9867420285
2.241826139
5.738696377
2.414876332
0.6914514148
0.3040398656
0.2079032743
0.1657373879
0.1373670103
0.1249263701
0.1042170889
0.1421928973
0.2726218355
0.430511022
0.5452011316
0.5544272325
0.4789931419
0.3820960906
0.3169838411
0.2851451766
0.2724036585
0.2671665237
0.2617116979
0.252335245
0.2408274704
0.2304749838
0.3183339842
1.159835209
1.303225493
2.083866255
0.9675775884
0.4783409583
0.3100877529
0.2283175226
0.1762940733
0.1637031298
0.3024902477
0.1291412192
0.1250276442
0.2216968354
0.3410036101
0.4431137011
0.4625289755
0.407896216
0.3338389306
0.2847867493
0.2585506458
0.2474008175
0.243830604
0.2406176657
0.2342472111
0.2261609614
0.2201138549
0.3118212738
1.54477161
1.466772603
1.328723817
0.8784318827
0.5804639388
0.4002789065
0.2883077836
0.2279002973
0.3619049387
5.076298575
1.004286199
0.2791546734
0.2430723047
0.2810861651
0.3322571752
0.3467872612
0.3177067384
0.2778916468
0.2473311832
0.2293894206
0.2215446618
0.2199358368
0.2186025709
0.2146349458
0.2099330648
0.2073896454
0.2995229591
1.901079294
1.79353226
1.476235247
1.086052245
0.7564759993
0.5285759377
0.3875690226
0.2749781029
0.3977779312
2.894534868
0.685686588
0.9625545298
1.131921351
0.6318343027
0.3254889242
0.2629299207
0.244107486
0.2256940226
0.2097665198
0.2000419759
0.1960360255
0.1958217397
0.1959521836
0.194038529
0.192585544
0.1926814767
0.2816430434
2.113714807
2.004973399
1.65862963
1.244392414
0.8864609829
0.6248510072
0.4588068408
0.3516235291
0.2494007833
0.7254755515
0.3095146571
1.387703232
2.201576937
1.614566619
0.5549732346
0.2558501864
0.1999937338
0.1838858906
0.1762051832
0.1727938366
0.1721509056
0.1729716067
0.1738849079
0.1740971088
0.1749268959
0.1766423915
0.2590235636
2.12096152
2.022378523
1.683689669
1.285584348
0.9419709634
0.6795531073
0.4877859319
0.3353626454
0.2357233954
0.2301712076
0.2125269493
0.898582496
2.199362
1.385996471
0.386437771
0.1852206258
0.1541111837
0.1483138599
0.1476272506
0.1487684797
0.1506748075
0.152623821
0.1542825771
0.1555820268
0.1575642436
0.1598781064
0.232790201
1.941879255
1.884098865
1.608659655
1.276639669
0.9689054224
0.7126380789
0.5104559263
0.3532318138
0.2489347432
0.1940835657
0.1825055839
0.3343481292
0.9609554371
0.5158203415
0.178481222
0.1253397717
0.1185898562
0.121066565
0.124697492
0.1283554592
0.1317738849
0.1345601347
0.1366575834
0.1383413611
0.1405813427
0.1427630599
0.2041146522
1.69895753
1.712750771
1.537971236
1.281265193
1.004516281
0.7483100164
0.5366252208
0.3761113818
0.270172829
0.2070220882
0.1784793106
0.1663153372
0.2293814896
0.1601335167
0.09859895354
0.09071833918
0.0950527467
0.1019190377
0.1074612386
0.1115880196
0.1151916952
0.1181483136
0.1201336109
0.1216232318
0.1235056304
0.1252631187
0.1738751688
1.506413528
1.599537354
1.512713298
1.316723716
1.063370203
0.8059494497
0.5882231531
0.4288648742
0.3196231525
0.2461168442
0.1957244442
0.1483775499
0.1264845069
0.0917740164
0.07271090039
0.07296768741
0.08031484444
0.08955186364
0.09482330271
0.09772885544
0.1006684788
0.1032195569
0.1039660914
0.1052236197
0.1063733395
0.1077517367
0.1425231981
1.397055139
1.57998268
1.559410199
1.40495325
1.167760749
0.9148499159
0.7029190676
0.5391555057
0.4146925736
0.3185278816
0.2401759608
0.171081595
0.1190212326
0.08269524904
0.06552357724
0.0628893455
0.06802033008
0.07618193033
0.07982340837
0.08247855365
0.08519265899
0.08754461278
0.0876486408
0.08778201147
0.08770388652
0.08880929982
0.1086931917
1.800896351
2.12187011
2.158110741
2.000990494
1.733364945
1.430344898
1.14463338
0.9005735016
0.6982281262
0.529270299
0.3870982437
0.2692409956
0.1771408347
0.1140663561
0.07832504404
0.06337715197
0.06206870719
0.06659233686
0.07187516244
0.07603714397
0.07755261668
0.07275697016
0.07205763074
0.075962747
0.07757592985
0.07392794004
0.07287574722
0.07186875998
0.07535324431
0.07917647904
0.08396310063
0.08908518314
0.1036826582
0.1498102591
0.2379997948
0.321499031
0.3516920106
0.3420452964
0.3231997743
0.2876711704
0.2624366403
0.2598249907
0.1001506371
0.102678221
0.1002968151
0.09981187814
0.1029589082
0.1060351838
0.112173095
0.120118574
0.1580437486
0.2797831342
0.5094967543
0.6597263001
0.7257315794
0.7326407913
0.6851028285
0.5853297731
0.4844847281
0.4266592946
0.4104168284
0.4397128111
0.6779985533
1.255201646
1.508473677
1.456435398
1.121104785
0.6870354037
0.1015052692
0.1302783989
0.1396328583
0.1431044037
0.1434141267
0.1455675348
0.149793016
0.1515392652
0.16043779
0.1668477638
0.2339385191
0.4435065726
0.8094030799
1.001206145
1.093139705
1.11819121
1.062105006
0.9217774762
0.7604653768
0.6413673106
0.57447399
0.5478234828
0.6077502482
0.994915308
2.06037741
2.029771848
1.945644919
1.08169324
0.139951617
0.1748307951
0.1936939122
0.1976960731
0.1986139477
0.2023709535
0.2035489974
0.2030207213
0.2586127432
0.2223879111
0.293070559
0.5232178794
0.9034811173
1.113302398
1.199080233
1.216738788
1.171306087
1.058550862
0.9217607552
0.8100390145
0.7351162259
0.6805486101
0.6499860367
0.7751503794
1.804573237
4.021050145
5.320636942
2.769732002
0.2254651803
0.2536134316
0.2647954214
0.2682766099
0.2599261047
0.2561137393
0.245458225
0.2470520406
0.2587253508
0.3249250087
0.4903485402
0.7865934727
1.022931022
1.146324942
1.177766404
1.137518861
1.04580915
0.9506625711
0.8820585991
0.8362367817
0.7950525382
0.7685964536
1.034558691
3.681409267
7.435392304
7.403841106
5.562878643
0.283367401
0.3279113758
0.3575149082
0.3664070948
0.3460252284
0.3073362688
0.2852718208
0.2798844853
0.2993892135
0.351370208
0.4506627557
0.6147833246
0.7918948016
0.9240297776
0.9868110021
0.9859833551
0.9494366442
0.9137113653
0.8946674153
0.8839592743
0.864653257
0.8338286539
0.8567910216
1.382090623
3.361662421
4.949725877
1.84253392
0.362279483
0.437381215
0.4957263485
0.4882481823
0.4707110582
0.3873382802
0.3390821331
0.3251824182
0.3454748427
0.3955259005
0.4662075818
0.55164748
0.6566867085
0.7607635432
0.838420773
0.8721968265
0.8823925222
0.8886506887
0.9014180944
0.9137985091
0.9105542482
0.8821196684
0.8367845101
0.8224409816
0.944811399
1.035906075
0.8752020532
0.4779785915
0.5944850283
0.6666946519
0.6700509666
0.5987629091
0.4906369525
0.4102576887
0.3867690304
0.4265845265
0.5089574204
0.5927776488
0.6528087682
0.731920531
0.8269747019
0.9112641128
0.9470774343
0.9478219355
0.9393995663
0.9406232635
0.9474973967
0.9441572682
0.9163110431
0.8599793797
0.7868804526
0.7203078279
0.6956019746
0.9511176382
0.6071379629
0.7871826985
0.9065995459
0.913799589
0.8086477149
0.6416035725
0.5116468278
0.4888133668
0.5967556223
0.7811956192
0.9311871648
1.003285382
1.094889678
1.219143506
1.306962526
1.305521616
1.223675353
1.115627323
1.034041119
0.9880605106
0.9593015482
0.9246109399
0.8701885281
0.7983652582
0.725627067
0.693936665
0.9796265126
0.737377762
0.9522578625
1.097305339
1.128553238
1.025336147
0.8119723839
0.6362597738
0.642617696
0.8995533715
1.272291071
1.535524895
1.658659056
1.72223393
1.77939855
1.813746703
1.778680012
1.619757791
1.383678478
1.175979326
1.043461726
0.969360899
0.9178174171
0.8620959392
0.793735346
0.7223311375
0.6862096835
0.9687225647
0.8184268574
1.031177744
1.158605642
1.195776005
1.120996389
0.9149910558
0.7266470727
0.7749746865
1.17160234
1.616254925
1.856331653
1.983071018
2.037082098
2.073432265
2.095440244
2.057674257
1.879322916
1.57767342
1.281416724
1.079072722
0.9650225605
0.895209377
0.8327048333
0.761230016
0.684774896
0.6357437953
0.8771154835
0.8025108209
1.002631003
1.122658858
1.153759688
1.081358548
0.8897192136
0.7068531161
0.7444455394
1.162191386
1.639657925
1.881366882
1.998185488
2.065201263
2.149544104
2.189671809
2.138765615
1.92205177
1.57509436
1.247000684
1.029201515
0.9088029556
0.835564834
0.7704790315
0.6968640535
0.6173595108
0.5594195075
0.7497737568
0.7088480946
0.879945693
0.9978223803
1.022217888
0.9448695578
0.7725630746
0.6042765819
0.5807707947
0.8662937083
1.347112373
1.654887553
1.771418754
1.787294244
1.879544718
1.951519262
1.904602791
1.669645236
1.338419146
1.05890795
0.8874267769
0.7955110138
0.7354865735
0.6764586627
0.6079349562
0.534311554
0.4754118462
0.6198474391
0.5917066133
0.710267139
0.801766616
0.8160647994
0.747919222
0.6153984207
0.4827773702
0.4191544039
0.5131812373
0.8049208553
1.097275641
1.186845534
1.124490648
1.229581777
1.350699181
1.347956223
1.188910122
0.9749550346
0.8057491993
0.7082205892
0.655919514
0.6152921376
0.5686468716
0.5128042119
0.4527530208
0.3995519247
0.5113479256
0.5037574091
0.5718777838
0.6229416235
0.6184585712
0.5648979688
0.4737872239
0.3794044382
0.3113800134
0.30410029
0.3936752899
0.5533558242
0.5924765286
0.5337760195
0.640698653
0.7694284402
0.8062866546
0.7548281333
0.6635666172
0.5885538649
0.5478699369
0.5253443644
0.5017849454
0.4694695565
0.4293981002
0.3850151039
0.341109276
0.4364855242
0.4753146019
0.5294661736
0.5592279889
0.5026661814
0.4425424318
0.3731659928
0.3036085087
0.2440427589
0.2089327789
0.2115580621
0.2646168806
0.2713559129
0.2599792138
0.3567222309
0.4637007111
0.5076476694
0.5073960283
0.4771159402
0.4468658475
0.4326829121
0.4248329714
0.4126653314
0.3926990697
0.366467029
0.3355409483
0.3017775622
0.3942370175
0.5623991468
0.7901456549
1.025669473
0.6206250784
0.4066418784
0.3128528297
0.250859612
0.1998518399
0.1634675571
0.1460203428
0.1560429588
0.1613969249
0.2042323345
0.3172562496
0.4045756651
0.4329237394
0.4274883219
0.4019591981
0.3773753338
0.3649430108
0.3588473004
0.3516102459
0.3399430962
0.323699478
0.3026267716
0.278197917
0.3759365551
0.9978433294
2.338360106
3.998779933
2.049662446
0.6957537262
0.3259841086
0.2227585222
0.1712871629
0.1378622089
0.1196535033
0.1188018298
0.1423704932
0.2482027142
0.3947001658
0.4793798462
0.4909995781
0.4560932956
0.4035514191
0.3593459811
0.3331343018
0.3201444966
0.3126570566
0.30535666
0.2954793768
0.2814463746
0.2649657462
0.3716697337
1.873686667
5.312044264
7.465904249
5.722463699
2.00661832
0.567255997
0.2359781459
0.1548366636
0.1215100691
0.1052911596
0.1033506759
0.1493109089
0.2993143332
0.4625104165
0.5493713976
0.5572340008
0.5060929163
0.4294479901
0.3618146064
0.3183983183
0.2962278406
0.2864044309
0.2811831063
0.275442576
0.2665935622
0.2567865608
0.3732548044
1.874910083
5.730931475
7.963915797
6.184256837
1.646789714
0.4429124597
0.2023206812
0.1382673781
0.1087458923
0.09474212884
0.09347940009
0.1488221346
0.3069289392
0.4679346588
0.5566576838
0.5684413631
0.5169360687
0.4334076545
0.3551948119
0.302600937
0.2754143832
0.2645336753
0.2609653871
0.2583952898
0.253708969
0.2496129445
0.3746989322
1.220563496
2.735762101
5.08603489
2.707399656
0.7993336836
0.31446367
0.1852332949
0.1319788553
0.1090892203
0.1039394204
0.08686556392
0.1302685829
0.265053257
0.4096863153
0.4977214307
0.5166568408
0.4740156396
0.3986367392
0.3260644965
0.2765613661
0.2513076602
0.242235958
0.240869343
0.2411408689
0.2400769015
0.2408787264
0.3718728826
1.210595197
1.469193768
1.956290778
1.10366571
0.5439749918
0.3207436667
0.2093875973
0.1523519021
0.2377318817
0.6954160133
0.1746993211
0.1319823138
0.2154694434
0.3181345251
0.3918320106
0.4163472931
0.389026676
0.3334317762
0.278865625
0.2416720817
0.2234746097
0.2183185016
0.2195336817
0.2223796175
0.2244704867
0.2293069438
0.3622702996
1.433248029
1.421985935
1.334511941
0.9280336179
0.6174729514
0.4077552076
0.2902503808
0.2355060639
1.333462394
5.121126974
2.336343369
0.6272335156
0.4130889185
0.3203256118
0.3006999848
0.3054162698
0.2912331831
0.2595553494
0.2269596157
0.2047355561
0.1947343323
0.1936347175
0.1971510712
0.202109529
0.2067644176
0.2146431227
0.3449449938
1.658951468
1.602927419
1.3974079
1.053366566
0.742930988
0.541476932
0.8482893725
0.5583194925
0.6908140371
3.424551799
1.350771233
1.387144792
1.841326473
1.143779498
0.47736479
0.2649371415
0.2172994655
0.197467763
0.1817961594
0.1716882722
0.1682038151
0.1699632838
0.174859613
0.1810580244
0.1875435819
0.1973874143
0.3203939678
1.801591255
1.741274052
1.515064105
1.174055117
0.8420665271
0.6024827556
0.5608116107
1.412545965
0.255512825
0.9227700515
0.5746643163
2.063899084
2.410158657
1.778554407
0.7172686595
0.2736310648
0.171780209
0.1530944206
0.1474154279
0.1449634477
0.1454325436
0.1485721543
0.1537881756
0.1603436755
0.1678135147
0.1785088059
0.2901953719
1.810724562
1.766371844
1.554030621
1.234051416
0.9102975907
0.6435917855
0.4704467854
0.3682644394
0.1751765789
0.2022139567
0.3016500378
1.735169517
1.929508458
1.3269694
0.5126243316
0.1979613284
0.1293436293