/*--------------------------------*- C++ -*----------------------------------*\
  =========                 |
  \\      /  F ield         | OpenFOAM: The Open Source CFD Toolbox
   \\    /   O peration     | Website:  https://openfoam.org
    \\  /    A nd           | Version:  8
     \\/     M anipulation  |
\*---------------------------------------------------------------------------*/
FoamFile
{
    version     2.0;
    format      ascii;
    class       surfaceScalarField;
    location    "1";
    object      phi;
}
// * * * * * * * * * * * * * * * * * * * * * * * * * * * * * * * * * * * * * //

dimensions      [1 0 -1 0 0 0 0];

internalField   nonuniform List<scalar> 
197859
(
-1.165165932e-05
-4.197194828e-05
1.019410307e-05
-1.043287064e-05
-4.249825048e-05
9.082141436e-06
-1.218012891e-05
-4.040307889e-05
1.292567886e-05
-1.590936278e-05
-3.585463801e-05
1.390323127e-05
-1.827043193e-05
-2.926264961e-05
1.118637689e-05
-1.711956623e-05
-2.703044301e-05
5.840505998e-06
-1.199914384e-05
-3.00663291e-05
-3.614102772e-07
-4.765015224e-06
-3.648813421e-05
-1.722432576e-06
7.793169731e-06
-4.49656632e-05
-9.471528307e-06
2.357872706e-05
-4.751206064e-05
-1.390648737e-05
-5.094510119e-05
-1.055148588e-05
-1.440157631e-05
-4.836161378e-05
4.731345167e-06
-1.450113779e-05
-4.770486376e-05
5.12063342e-06
-1.342311068e-05
-4.663975025e-05
5.498979486e-06
-1.229355642e-05
-4.607040438e-05
5.365354637e-06
-9.684685473e-06
-4.82713577e-05
3.690475224e-06
-8.215398824e-06
-4.539460686e-05
1.42701627e-06
-1.2548878e-05
-4.71096153e-05
1.10399122e-05
-2.066997334e-05
-4.265168147e-05
1.491806905e-05
-2.539302252e-05
-3.653124342e-05
1.1991573e-05
-2.477454557e-05
-3.266277324e-05
5.013785338e-06
-1.709212062e-05
-3.215905692e-05
-5.589770551e-06
-4.84278301e-06
-3.506733326e-05
-1.367022752e-05
1.082317619e-05
-3.943990572e-05
-2.119183167e-05
2.68309153e-05
-4.227105554e-05
-2.124888221e-05
3.922843856e-05
-4.599139503e-05
-1.735140635e-05
4.644700116e-05
-4.996893239e-05
-1.193387698e-05
4.886012544e-05
-5.350575343e-05
-6.277450482e-06
4.708463032e-05
-5.623013727e-05
-1.323350209e-06
4.103071656e-05
-5.822781114e-05
3.321644956e-06
2.943898135e-05
-6.008492435e-05
8.397878093e-06
1.141507939e-05
-6.140898527e-05
1.384560549e-05
4.068398066e-06
-6.282016162e-05
2.889975176e-06
1.571256607e-05
-3.95306926e-05
-2.383422542e-05
1.986717549e-05
-2.882836939e-05
-2.522845694e-05
1.661713352e-05
-5.954634096e-05
-2.523078873e-06
-0.0001028462846
3.539237855e-05
-8.453067134e-06
-4.758009852e-05
1.409114043e-05
-1.650771231e-05
-5.087955091e-05
9.080738058e-06
-1.632432955e-05
-4.957143446e-05
1.026365217e-06
-1.465867504e-05
-4.903148615e-05
-3.391170589e-07
-1.240653049e-05
-5.007575185e-05
1.183761532e-06
-1.133801047e-05
-4.862268729e-05
1.483672779e-06
-7.729215402e-06
-5.078195309e-05
-1.098348191e-06
-5.032395197e-06
-4.396273039e-05
-4.128812022e-06
-1.01103728e-05
-4.953439261e-05
7.502447603e-06
-2.191374719e-05
-4.483556176e-05
1.398711111e-05
-2.981813111e-05
-3.978803098e-05
1.116104299e-05
-3.127778085e-05
-3.424623731e-05
3.043003537e-06
-2.340279113e-05
-2.934856015e-05
-1.068560005e-05
-7.882066882e-06
-2.680727767e-05
-2.378089879e-05
1.06273444e-05
-2.61137741e-05
-3.183567419e-05
2.771557669e-05
-2.76359214e-05
-3.172351489e-05
4.029052936e-05
-3.16664103e-05
-2.690012672e-05
4.736924322e-05
-3.701111879e-05
-2.003677565e-05
4.951845747e-05
-4.245006375e-05
-1.32052214e-05
4.793339067e-05
-4.696589816e-05
-7.679574e-06
4.318342372e-05
-5.033916695e-05
-3.139184887e-06
3.422941021e-05
-5.298669827e-05
1.855146334e-06
1.975686681e-05
-5.490192658e-05
7.964670796e-06
-5.363155129e-08
-5.623947715e-05
1.322873073e-05
-5.13714978e-06
-4.021557959e-05
5.76711577e-06
-5.223620398e-06
-3.110753046e-05
2.363605972e-06
2.197770802e-07
-7.327438094e-05
8.282543365e-06
-0.0001338173711
3.118820103e-05
-1.402416259e-05
1.23859427e-05
-2.055094468e-05
-5.106088052e-05
6.707986395e-06
-1.882807733e-05
-5.012014147e-05
-1.174294783e-06
-1.419561804e-05
-4.888650835e-05
-4.777579572e-06
-9.546773693e-06
-5.223105067e-05
-2.493704784e-06
-8.451856986e-06
-4.897405222e-05
-7.436876209e-07
-4.183562763e-06
-4.875984736e-05
-6.290760286e-06
-2.610280501e-06
-4.258973399e-05
-2.946507678e-06
-6.648847877e-06
-4.565076534e-05
1.536828897e-07
-1.898685386e-05
-4.328435901e-05
1.078652606e-05
-2.847850472e-05
-3.970127488e-05
9.404689373e-06
-3.203092006e-05
-3.341731547e-05
2.723333836e-06
-2.592957661e-05
-2.455753759e-05
-1.089252558e-05
-1.096054754e-05
-1.642680721e-05
-2.534966156e-05
7.902067013e-06
-1.038824812e-05
-3.458831314e-05
2.484729724e-05
-9.310628249e-06
-3.52707097e-05
3.645560279e-05
-1.324551832e-05
-3.002941957e-05
4.299495647e-05
-2.095336916e-05
-2.25973792e-05
4.537535844e-05
-2.878250655e-05
-1.604830726e-05
4.474572215e-05
-3.495938639e-05
-1.137731797e-05
4.126707942e-05
-3.940004344e-05
-7.461047397e-06
3.373849397e-05
-4.294661941e-05
-2.512225061e-06
1.986262564e-05
-4.599319707e-05
4.966183683e-06
-3.200571956e-06
-4.769571234e-05
1.451813595e-05
-2.433051692e-05
-4.261421512e-05
2.352686285e-05
-2.255752699e-05
-3.992918909e-05
7.046441985e-06
7.773869848e-06
-5.546809005e-05
-4.814032584e-05
-8.641115018e-05
-3.963571126e-05
-2.454557273e-05
-5.053356481e-05
3.013599064e-06
-2.045652082e-05
-5.030634771e-05
-3.903042287e-06
-1.249618138e-05
-4.901427458e-05
-7.83277003e-06
-3.610596098e-06
-5.444320575e-05
-6.673630266e-06
-8.944842365e-08
-5.10879689e-05
-1.407409356e-06
4.132704417e-07
-5.107121373e-05
1.808396422e-06
-1.172406604e-06
-4.550120892e-05
4.49695935e-06
-5.805368943e-06
-4.462805294e-05
3.609794674e-06
-1.464181066e-05
-4.172702906e-05
7.278875409e-06
-2.416291061e-05
-3.861680831e-05
8.436417351e-06
-3.022087995e-05
-3.319855314e-05
5.839011541e-06
-2.814466313e-05
-2.348975639e-05
-3.144194072e-06
-1.72698122e-05
-1.274984639e-05
-1.455200934e-05
-7.411407949e-07
-3.093804079e-06
-2.38233187e-05
1.452320097e-05
1.122565038e-06
-2.569775458e-05
2.551667596e-05
-3.832644629e-06
-2.040660029e-05
3.268500713e-05
-1.210673284e-05
-1.601527733e-05
3.694283847e-05
-1.900580097e-05
-1.403492209e-05
3.881255972e-05
-2.399761864e-05
-1.283197028e-05
3.738950533e-05
-2.754854522e-05
-1.0429055e-05
3.016711071e-05
-3.008771351e-05
-5.637304429e-06
1.250194677e-05
-3.053767664e-05
2.208593784e-06
-2.137688825e-05
-2.746571438e-05
1.364741422e-05
-6.049436423e-05
-1.684034403e-05
1.334157661e-05
-4.925235969e-05
-4.489825136e-06
-4.668398164e-05
1.571491628e-05
3.448428423e-05
-0.0001549221429
8.002061868e-05
-0.0001507166334
-2.785408434e-05
-4.960191176e-05
-3.826771995e-07
-2.240889619e-05
-5.065074135e-05
-5.101054516e-06
-1.183305769e-05
-4.937389991e-05
-1.021647177e-05
1.701732204e-06
-5.062572475e-05
-1.735256936e-05
6.946940981e-06
-5.186505532e-05
-4.468353376e-06
5.676115061e-06
-5.082353537e-05
1.022901116e-06
2.150631101e-06
-4.546713354e-05
3.491185428e-06
-2.997439591e-06
-4.156259656e-05
2.082305843e-06
-1.042017191e-05
-3.811278538e-05
3.808247826e-06
-1.955772275e-05
-3.492429173e-05
5.44480092e-06
-2.647741441e-05
-3.186679767e-05
5.587710558e-06
-2.818217285e-05
-2.328180276e-05
1.496576915e-06
-2.268821321e-05
-1.437137765e-05
-3.872661383e-06
-1.042926538e-05
-6.041999281e-06
-9.310995701e-06
4.517316839e-06
-1.635177138e-06
-1.218909724e-05
1.583318389e-05
-5.08843435e-06
-1.006036902e-05
2.482186642e-05
-9.181033167e-06
-1.191472625e-05
3.14707592e-05
-1.164228286e-05
-1.401282149e-05
3.589866665e-05
-1.396084514e-05
-1.446518027e-05
3.755472963e-05
-1.678775454e-05
-1.241747647e-05
3.549048579e-05
-2.001502616e-05
-8.009239719e-06
2.915067742e-05
-2.186511964e-05
-2.333792999e-06
1.833846429e-05
-2.006845458e-05
3.413562391e-06
4.820495634e-06
-1.092022347e-05
7.596022762e-06
-9.57044824e-06
3.15943572e-06
6.739457453e-06
3.537752248e-06
4.735557229e-05
-2.598216599e-05
0.0001052017085
-2.1646317e-05
-2.930375584e-05
-4.596123048e-05
-4.527355413e-06
-2.581931611e-05
-4.701256955e-05
-7.122928754e-06
-1.433015979e-05
-4.64119398e-05
-1.44514157e-05
1.245155254e-05
-3.558212884e-05
-4.182565697e-05
1.713322265e-05
-4.64066969e-05
-1.014029352e-05
1.286145074e-05
-4.537962006e-05
-1.172396411e-06
7.239539935e-06
-4.136438487e-05
1.518909815e-06
1.258806138e-06
-3.654454456e-05
9.624048965e-07
-5.086103952e-06
-3.310359928e-05
1.335462356e-06
-1.258909277e-05
-2.969914226e-05
2.277581084e-06
-1.807492616e-05
-3.00900068e-05
3.708786558e-06
-2.056687868e-05
-2.180794377e-05
1.017832855e-06
-1.863726976e-05
-1.434697678e-05
-1.954277182e-06
-1.158995836e-05
-9.027353113e-06
-4.062236513e-06
1.217378027e-06
-9.607583705e-06
-4.835221611e-06
1.227419969e-05
-8.128519306e-06
-8.01706001e-06
2.065595482e-05
-6.687093516e-06
-1.087605688e-05
2.750674543e-05
-5.114771601e-06
-1.337872089e-05
3.266362557e-05
-5.474711309e-06
-1.364351086e-05
3.531069609e-05
-8.062704865e-06
-1.137272591e-05
3.428220965e-05
-1.153454054e-05
-7.45275647e-06
2.879353892e-05
-1.341009383e-05
-2.967315132e-06
1.92362303e-05
-1.186025075e-05
1.347873879e-06
6.843042296e-06
-5.389872576e-06
6.861305594e-06
-8.321005634e-06
4.32773477e-06
1.399386641e-05
-9.160531455e-06
2.634301104e-05
2.184987422e-05
6.113785593e-05
3.490089145e-05
-2.631806478e-05
-3.923128523e-05
-1.105547521e-05
-1.89875587e-05
-4.161978867e-05
-1.272366364e-05
-7.81386489e-06
-4.231813583e-05
-1.526782788e-05
9.891760699e-06
-3.765321522e-05
-1.563481248e-05
1.725506684e-05
-4.280318517e-05
-1.096709908e-05
1.74373411e-05
-4.055114919e-05
-5.01101956e-06
1.281149157e-05
-3.599487889e-05
-7.439301464e-07
6.204361888e-06
-3.04466456e-05
5.089465692e-07
-7.27093973e-07
-2.696344456e-05
7.910179977e-07
-7.43482584e-06
-2.362959446e-05
6.378991762e-07
-1.142010432e-05
-2.939015867e-05
3.285146224e-06
-1.418151295e-05
-2.133386319e-05
2.287039379e-06
-1.488545271e-05
-1.26232607e-05
-1.020070198e-06
-1.10117668e-05
-9.139093878e-06
-3.762247482e-06
-3.233058405e-07
-1.534055149e-05
-4.955803009e-06
1.024554777e-05
-1.25700347e-05
-6.127678029e-06
1.797215777e-05
-6.862513252e-06
-7.551562313e-06
2.436426301e-05
-1.692225413e-06
-9.815072022e-06
2.958193711e-05
-4.189444799e-07
-1.027392627e-05
3.342073341e-05
-2.463414194e-06
-9.438663262e-06
3.527672814e-05
-5.290913311e-06
-8.100322522e-06
3.469385368e-05
-6.448364462e-06
-6.379718651e-06
3.138940844e-05
-4.330035216e-06
-4.226838343e-06
2.53682464e-05
1.970216897e-06
-1.340217066e-06
1.579185302e-05
9.954742712e-06
3.947840411e-06
6.571958361e-06
2.174778763e-05
1.381340287e-05
3.689504033e-05
3.081304108e-05
-2.409039932e-05
-2.631493774e-05
-1.674492643e-05
-1.57921251e-05
-3.060280704e-05
-1.931568449e-05
-3.088788327e-06
-3.285529066e-05
-2.216653979e-05
1.326311943e-05
-3.267052875e-05
-2.1334907e-05
2.204735224e-05
-3.46322925e-05
-1.695543064e-05
2.405810256e-05
-3.248897549e-05
-1.007322262e-05
1.991636512e-05
-2.827097443e-05
-3.582462544e-06
1.233665318e-05
-2.307978522e-05
2.125494633e-07
3.49159392e-06
-1.977412182e-05
1.655429552e-06
-3.291061504e-06
-1.66293179e-05
-2.179341924e-07
-5.565936897e-06
-2.806535442e-05
9.497638405e-07
-8.967980098e-06
-2.277349032e-05
4.841356699e-06
-1.276545885e-05
-1.002653229e-05
1.200432981e-06
-9.617869684e-06
-6.338729263e-06
-5.948271222e-06
1.828148597e-06
-1.455318947e-05
-1.223368261e-05
1.26049659e-05
-1.368060302e-05
-9.666588944e-06
1.959548775e-05
-6.940999746e-06
-6.912411328e-06
2.475302028e-05
1.042499164e-06
-7.892676392e-06
2.92420429e-05
5.047808029e-06
-9.956247407e-06
3.334045151e-05
5.442147653e-06
-1.200451475e-05
3.639016448e-05
4.747477622e-06
-1.30887429e-05
3.765550141e-05
4.856389092e-06
-1.25708484e-05
3.667285657e-05
6.887471095e-06
-1.023575999e-05
3.366987696e-05
1.105926394e-05
-6.087120864e-06
2.709623422e-05
1.665198686e-05
-1.248311395e-07
1.646017334e-05
2.308734523e-05
9.295180202e-06
2.921056209e-05
2.414327676e-05
-2.83542266e-05
-1.44319551e-05
-1.998624554e-05
-1.687036534e-05
-1.709724191e-05
-2.498983914e-05
-1.089433751e-06
-1.867771741e-05
-2.995887056e-05
1.603546135e-05
-1.965572483e-05
-3.014003472e-05
2.682085049e-05
-2.097074256e-05
-2.444726403e-05
3.041351338e-05
-1.975385954e-05
-1.632810279e-05
2.679213626e-05
-1.693522118e-05
-7.714697129e-06
1.833708383e-05
-1.374401246e-05
-8.810430062e-07
7.719570982e-06
-1.199377949e-05
2.836847456e-06
4.124578881e-07
-7.067674792e-06
-2.254862596e-06
4.744601637e-07
-1.865390485e-05
-9.473770307e-06
-2.256096231e-06
-2.080474878e-05
7.614900126e-07
-6.38493999e-06
-6.851764677e-06
9.537480535e-07
-2.096734644e-06
2.490480726e-06
-1.311773241e-05
9.62901258e-06
-2.061165505e-08
-2.625854681e-05
2.029541054e-05
-1.412008066e-06
-2.293529784e-05
2.558262443e-05
2.029651826e-06
-1.425822755e-05
2.834440673e-05
8.249283729e-06
-9.968975753e-06
3.112099533e-05
1.364907395e-05
-1.137831178e-05
3.484258958e-05
1.642824263e-05
-1.470820138e-05
3.910564114e-05
1.74775371e-05
-1.699369003e-05
4.279991401e-05
1.826452987e-05
-1.710307677e-05
4.473976213e-05
1.975772977e-05
-1.481087079e-05
4.361853215e-05
2.234374509e-05
-1.016412618e-05
3.765035324e-05
2.568879006e-05
-3.069611457e-06
2.460120388e-05
2.919540048e-05
6.940030683e-06
3.16467853e-05
2.216388139e-05
-3.194780169e-05
-5.613541353e-07
-2.236396339e-05
-1.865006493e-05
-5.176146824e-07
-2.987777286e-05
-6.000273576e-07
-5.065098254e-07
-3.622162567e-05
1.782672018e-05
-1.038924229e-06
-3.704390935e-05
3.022064163e-05
-2.086982919e-06
-3.127803234e-05
3.538102274e-05
-1.953485772e-06
-2.296110959e-05
3.255038413e-05
-5.046466074e-07
-1.360029202e-05
2.295287257e-05
1.063371397e-06
-5.210228107e-06
1.03313342e-05
2.02021701e-06
-1.392809062e-06
5.570320397e-06
9.660374832e-06
-1.196738346e-05
6.318464508e-06
6.912002964e-06
-2.631438458e-05
-2.011086068e-06
5.079979506e-06
-1.755551057e-05
-7.390742046e-06
1.225696249e-05
-1.372941843e-05
2.563773216e-06
2.008553251e-05
-2.754994717e-05
1.929007053e-05
2.349617142e-05
-4.024352885e-05
3.337751532e-05
2.330857696e-05
-3.880836479e-05
4.03379824e-05
2.493493692e-05
-2.986608762e-05
3.966537811e-05
2.74033645e-05
-1.848185043e-05
3.696121525e-05
2.960939485e-05
-1.325658511e-05
3.732287559e-05
3.052112751e-05
-1.445502066e-05
4.077647943e-05
3.079696291e-05
-1.677355208e-05
4.517063658e-05
3.111214557e-05
-1.724235334e-05
4.833772045e-05
3.183762605e-05
-1.524763183e-05
4.830472445e-05
3.318156383e-05
-1.080555161e-05
4.263191051e-05
3.501166414e-05
-3.650861614e-06
2.846496876e-05
3.67671144e-05
6.59437555e-06
3.815771069e-05
2.195317371e-05
-3.579205838e-05
1.237957096e-05
-2.24652468e-05
-2.126263931e-05
1.485379268e-05
-2.990125819e-05
-1.867706692e-06
1.643367762e-05
-3.633553694e-05
1.781375618e-05
1.698926048e-05
-3.771005326e-05
3.181770194e-05
1.648432504e-05
-3.257564788e-05
3.887243422e-05
1.615076462e-05
-2.51593787e-05
3.746403138e-05
1.699725097e-05
-1.609388986e-05
2.442543281e-05
1.956203222e-05
-5.46044799e-06
3.622406385e-06
2.239226471e-05
4.306069906e-07
3.631959702e-06
2.956934471e-05
-1.991888553e-05
1.707120731e-05
3.340128061e-05
-3.992889104e-05
2.056689866e-05
3.876481006e-05
-3.718085496e-05
1.286768783e-05
4.419660525e-05
-2.424074841e-05
9.216240486e-06
4.678510953e-05
-2.304846678e-05
2.282225089e-05
4.776602112e-05
-3.787620722e-05
3.75558429e-05
4.875623127e-05
-4.018155108e-05
4.601932914e-05
5.035344683e-05
-3.388232338e-05
4.605917075e-05
5.042186069e-05
-2.305869856e-05
4.191808802e-05
4.847772572e-05
-1.472764578e-05
3.977053212e-05
4.561628786e-05
-1.294804223e-05
4.173564531e-05
4.347539337e-05
-1.464401871e-05
4.584511178e-05
4.240628573e-05
-1.540412304e-05
4.934555151e-05
4.205846663e-05
-1.372184663e-05
4.970341987e-05
4.233871011e-05
-9.515634668e-06
4.410748377e-05
4.311836231e-05
-2.511430206e-06
2.94563881e-05
4.38092143e-05
7.608293608e-06
4.513810789e-05
2.247527876e-05
-3.595352071e-05
2.135865925e-05
-1.80893326e-05
-2.17970045e-05
2.520422709e-05
-2.45074604e-05
-2.524108955e-06
2.771199126e-05
-3.055170019e-05
1.736805838e-05
2.949351143e-05
-3.239689165e-05
3.219043006e-05
2.964072889e-05
-2.79792292e-05
4.079021044e-05
2.919063223e-05
-2.164009483e-05
4.186080146e-05
2.960336012e-05
-1.367713988e-05
3.285320529e-05
3.235290787e-05
-3.783710649e-06
1.10935885e-05
3.779026498e-05
6.36120971e-06
5.285366592e-06
4.413784478e-05
-8.760676824e-06
1.990898531e-05
5.062555916e-05
-3.184826167e-05
2.949008797e-05
5.892497708e-05
-2.974160381e-05
2.25949747e-05
6.66773706e-05
-1.55859921e-05
1.227120684e-05
6.824065007e-05
-1.113214658e-05
2.093975361e-05
6.736634633e-05
-2.82692312e-05
3.441592359e-05
6.835232254e-05
-3.307258369e-05
4.287343911e-05
6.95979026e-05
-2.770231022e-05
4.33052095e-05
6.757972138e-05
-1.758999081e-05
3.927553422e-05
6.240169396e-05
-9.894678997e-06
3.73275515e-05
5.668498129e-05
-9.121127976e-06
3.961353344e-05
5.283179983e-05
-1.164283091e-05
4.402785128e-05
5.072809247e-05
-1.273659433e-05
4.78818805e-05
4.943152995e-05
-1.12275967e-05
4.846720143e-05
4.891698718e-05
-7.164139176e-06
4.293314705e-05
4.902321846e-05
-3.713746354e-07
2.834177452e-05
4.905199018e-05
9.348000955e-06
5.043622165e-05
2.304305832e-05
-3.314411142e-05
2.545157455e-05
-1.277539655e-05
-2.010203912e-05
3.011616681e-05
-1.795463574e-05
-1.908830206e-06
3.287438557e-05
-2.335620956e-05
1.699497789e-05
3.652331855e-05
-2.593419178e-05
3.158461321e-05
3.751131856e-05
-2.24607652e-05
4.088655608e-05
3.729412381e-05
-1.740595195e-05
4.40275155e-05
3.737511148e-05
-1.091320915e-05
3.974847157e-05
3.927604661e-05
-2.64457725e-06
2.531156027e-05
4.448831995e-05
7.738393009e-06
1.713661453e-05
4.922236172e-05
3.089969188e-06
2.474110191e-05
5.951371517e-05
-1.649306799e-05
3.159203305e-05
6.879257725e-05
-1.67189445e-05
2.457562638e-05
7.609057716e-05
-2.397188193e-06
1.247850656e-05
7.646481207e-05
3.872566261e-06
1.701711185e-05
7.853405238e-05
-1.570670048e-05
2.769819563e-05
7.981044791e-05
-2.213957726e-05
3.406297562e-05
8.003986347e-05
-1.680710888e-05
3.383930348e-05
7.54795671e-05
-7.676537859e-06
3.103726032e-05
6.819956993e-05
-2.996214666e-06
3.131390846e-05
6.176616573e-05
-5.358237554e-06
3.5089458e-05
5.786649126e-05
-8.810659512e-06
4.003915351e-05
5.562512661e-05
-9.847165498e-06
4.422569729e-05
5.372881138e-05
-8.484284929e-06
4.498207638e-05
5.275936809e-05
-4.599245557e-06
3.963934183e-05
5.225624141e-05
2.109204245e-06
2.582685947e-05
5.190524208e-05
1.095870673e-05
5.317737543e-05
2.308517695e-05
-2.867691776e-05
2.460994481e-05
-7.5994446e-06
-1.712749505e-05
2.973884106e-05
-1.117285505e-05
3.014110087e-07
3.073881217e-05
-1.529408334e-05
1.758663182e-05
3.803116065e-05
-1.879377029e-05
3.103026613e-05
4.036586151e-05
-1.629881625e-05
4.01040672e-05
4.077360781e-05
-1.255387705e-05
4.427939968e-05
4.08028514e-05
-7.603632441e-06
4.308908211e-05
4.178727973e-05
-1.321452797e-06
3.538691138e-05
4.522451925e-05
6.965452644e-06
2.723963401e-05
4.819180333e-05
9.177329702e-06
2.803975532e-05
6.013094968e-05
-1.417821607e-06
3.042002162e-05
6.829952245e-05
-1.887662391e-06
2.200992993e-05
7.323337793e-05
1.12668637e-05
9.422763205e-06
7.262283293e-05
1.642871939e-05
1.136045639e-05
7.977313861e-05
-3.177182969e-06
1.88846671e-05
8.207251804e-05
-9.786666309e-06
2.246093144e-05
8.052273573e-05
-4.059506603e-06
2.144813988e-05
7.378790865e-05
2.704080862e-06
2.123040136e-05
6.60536242e-05
2.3632994e-06
2.451866499e-05
6.148566347e-05
-3.008158541e-06
2.963432541e-05
5.906593112e-05
-6.315502175e-06
3.46009157e-05
5.749968417e-05
-6.841561341e-06
3.878517591e-05
5.562937663e-05
-6.085256603e-06
3.98913745e-05
5.423198302e-05
-2.579264558e-06
3.512140591e-05
5.315802311e-05
3.867719516e-06
2.265800372e-05
5.256192932e-05
1.180623545e-05
5.34827094e-05
2.235218728e-05
-2.34410636e-05
1.892379669e-05
-2.965581255e-06
-1.351687651e-05
2.461750463e-05
-4.803797775e-06
4.333274601e-06
1.897698453e-05
-6.089413533e-06
1.952655619e-05
3.367124422e-05
-1.08342695e-05
3.123906709e-05
3.825305355e-05
-9.600455244e-06
3.933188682e-05
4.002728798e-05
-7.347159955e-06
4.34799391e-05
4.069340078e-05
-4.039221468e-06
4.364974564e-05
4.136972012e-05
2.471574955e-07
3.94516782e-05
4.335707184e-05
6.064940957e-06
3.216866725e-05
4.513338775e-05
1.034087409e-05
2.866774365e-05
5.478007849e-05
8.851282301e-06
2.579554015e-05
6.024633671e-05
1.092490452e-05
1.460985896e-05
6.264721415e-05
2.177139189e-05
2.35620938e-06
6.103956871e-05
2.383647623e-05
3.905953099e-06
6.94662586e-05
8.756728398e-06
9.392272235e-06
7.4023599e-05
2.562213187e-06
1.092990181e-05
7.147367607e-05
7.511053899e-06
1.074529166e-05
6.486562345e-05
9.106513306e-06
1.346590154e-05
5.905823844e-05
4.274385452e-06
1.881450565e-05
5.78639674e-05
-1.727300768e-06
2.463918329e-05
5.733846442e-05
-4.097605375e-06
2.965391915e-05
5.658103767e-05
-4.096493322e-06
3.380109649e-05
5.517316737e-05
-3.691386482e-06
3.505054287e-05
5.366862989e-05
-6.865280846e-07
3.081519674e-05
5.238473139e-05
5.008190076e-06
1.977589247e-05
5.179764589e-05
1.180313039e-05
5.232149647e-05
2.093664709e-05
-1.936013921e-05
1.039254762e-05
3.215009386e-07
-9.187642299e-06
1.520010935e-05
-7.563320876e-07
8.959597397e-06
-4.823497666e-07
1.309331909e-06
2.346712939e-05
2.262097284e-05
-3.458501829e-06
3.359061303e-05
3.103998518e-05
-2.911162399e-06
4.010069188e-05
3.573401652e-05
-2.21746406e-06
4.330125078e-05
3.807548431e-05
-5.833021677e-07
4.345652973e-05
3.907634133e-05
2.137448239e-06
4.05714901e-05
4.04067884e-05
5.834692561e-06
3.417352006e-05
4.158960958e-05
9.941144933e-06
2.797314448e-05
4.766308657e-05
1.331680189e-05
1.935680949e-05
5.067960892e-05
1.818253573e-05
5.327049327e-06
5.088824345e-05
2.578824298e-05
-4.839983269e-06
4.730556934e-05
2.390055808e-05
-3.048975681e-06
5.191134528e-05
1.576346406e-05
1.554042176e-06
5.759494151e-05
1.182522532e-05
3.311920034e-06
5.681000597e-05
1.290538738e-05
5.014002106e-06
5.324729851e-05
9.915840561e-06
9.196382855e-06
5.095498439e-05
3.920474152e-06
1.503885017e-05
5.288811125e-05
-8.670071984e-07
2.094049821e-05
5.390363823e-05
-2.467220189e-06
2.600769067e-05
5.384787089e-05
-2.334433289e-06
3.000005189e-05
5.308737004e-05
-1.906984227e-06
3.119551975e-05
5.188451463e-05
5.882132842e-07
2.745312794e-05
5.090785292e-05
5.218825157e-06
1.76669872e-05
5.059335667e-05
1.098997694e-05
5.08434034e-05
1.914462763e-05
-2.307989804e-05
-2.690354355e-07
6.170127562e-06
-1.429583538e-05
4.213174893e-06
2.203293425e-06
2.289085149e-05
-4.583851149e-05
8.17312903e-06
3.911371086e-05
1.714326642e-07
6.227355849e-06
4.235044049e-05
2.097739046e-05
6.825678978e-06
4.390016128e-05
2.994356836e-05
4.240101461e-06
4.458983816e-05
3.381370883e-05
3.571372683e-06
4.385819137e-05
3.531651816e-05
4.490751875e-06
4.103315483e-05
3.651375099e-05
6.717384104e-06
3.525680829e-05
3.724677501e-05
1.011852745e-05
2.736451871e-05
4.075445724e-05
1.480030482e-05
1.514537465e-05
4.254741692e-05
2.035076606e-05
1.501260351e-06
4.203344736e-05
2.249836895e-05
-5.293699845e-06
3.863104241e-05
1.546895022e-05
-2.993997042e-06
3.892674487e-05
1.068438636e-05
1.661606707e-06
4.287081945e-05
1.006805497e-05
4.196061235e-06
4.418584843e-05
1.008926663e-05
5.943042427e-06
4.402858265e-05
7.47131429e-06
8.937166271e-06
4.479934734e-05
3.161101276e-06
1.369815906e-05
4.839277376e-05
-2.660644944e-07
1.889833933e-05
5.036910946e-05
-1.666064183e-06
2.364339658e-05
5.089564813e-05
-1.793256331e-06
2.732631538e-05
5.073224512e-05
-1.328227735e-06
2.842047663e-05
5.010072326e-05
6.891831938e-07
2.514009656e-05
4.967439838e-05
4.513378376e-06
1.633452823e-05
4.970962859e-05
9.688833366e-06
4.980601587e-05
1.737145359e-05
-1.718431509e-05
-4.869524324e-06
1.029738349e-07
-1.471298267e-06
9.279447616e-06
-2.078049094e-05
1.886699901e-05
6.08827772e-06
-7.226673608e-05
3.753424405e-05
7.884137351e-06
-2.638105051e-05
4.428749603e-05
1.284550876e-05
1.377343934e-06
4.681028191e-05
2.105700926e-05
6.362825596e-06
4.689994126e-05
2.701780644e-05
6.705441435e-06
4.527372119e-05
2.979361269e-05
7.148359837e-06
4.158121191e-05
3.1556137e-05
8.649386105e-06
3.635866714e-05
3.102256338e-05
1.144606464e-05
2.687425804e-05
3.415005597e-05
1.608815704e-05
1.295856598e-05
3.613765718e-05
2.032484548e-05
2.53477369e-06
3.629532206e-05
1.61613312e-05
4.842105919e-07
3.536563098e-05
5.31539226e-06
4.413607065e-06
3.503360416e-05
-3.687205132e-08
9.786697041e-06
3.710674735e-05
3.904655545e-07
1.260454106e-05
3.921156895e-05
2.155970324e-06
1.279402677e-05
4.079711507e-05
3.041541698e-06
1.275098851e-05
4.27479352e-05
2.094020362e-06
1.490459164e-05
4.615633954e-05
8.240084081e-08
1.849045701e-05
4.819697318e-05
-1.414163822e-06
2.23742426e-05
4.898241057e-05
-1.970992111e-06
2.554052876e-05
4.919947097e-05
-1.633968874e-06
2.653008689e-05
4.911743975e-05
-6.749689254e-09
2.362601055e-05
4.915909248e-05
3.418903501e-06
1.551988121e-05
4.948268608e-05
8.332587166e-06
4.952304249e-05
1.580237053e-05
-8.426598029e-05
1.392996642e-05
1.450049788e-05
-5.255072806e-05
3.357241565e-05
-5.60099329e-05
9.449167641e-05
0.0001315219586
-0.0002724472562
0.0001195701894
6.017188546e-05
-7.736666885e-05
9.098099805e-05
3.323022696e-05
8.204328637e-06
6.716613968e-05
2.827871572e-05
1.65927847e-05
5.459532805e-05
2.678958368e-05
1.279831574e-05
4.832156473e-05
2.51029103e-05
1.096367895e-05
4.28169962e-05
2.553205966e-05
1.152786452e-05
3.742500031e-05
2.193909819e-05
1.447467564e-05
2.642143437e-05
2.687357689e-05
1.827934618e-05
1.183103408e-05
3.027010374e-05
2.045734075e-05
4.475223421e-06
3.172811666e-05
1.192242781e-05
6.199972338e-06
3.41186678e-05
-4.783606937e-07
1.18067496e-05
3.571489534e-05
-6.288612139e-06
1.769080403e-05
3.779978419e-05
-6.577596918e-06
2.079343233e-05
4.023086199e-05
-4.122399414e-06
2.019295481e-05
4.233148098e-05
-9.343487627e-07
1.786543209e-05
4.414978276e-05
9.252221586e-07
1.729753618e-05
4.639184023e-05
3.319399285e-07
1.898063041e-05
4.775400711e-05
-1.240590443e-06
2.177914088e-05
4.838672348e-05
-2.20329565e-06
2.435066567e-05
4.873186684e-05
-2.104405328e-06
2.519400274e-05
4.897733983e-05
-7.037353112e-07
2.256805233e-05
4.933950182e-05
2.445033246e-06
1.49576508e-05
4.988056413e-05
7.21200797e-06
4.994560714e-05
1.453457031e-05
-4.127367896e-05
1.866521814e-05
1.060514253e-05
-2.945720264e-05
2.794738263e-05
-6.193922315e-06
6.779967136e-05
0.0001182805146
-8.401450414e-05
8.3863347e-05
5.559018842e-05
-1.148469379e-05
6.745076013e-05
3.401167326e-05
1.563019028e-05
5.628425429e-05
2.431258707e-05
1.513176388e-05
4.958110395e-05
2.040576344e-05
1.308610953e-05
4.55366305e-05
1.666652054e-05
1.248002387e-05
3.760738432e-05
1.935681719e-05
1.410379344e-05
4.102788397e-05
1.779596853e-06
1.673855615e-05
3.042900391e-05
1.76547285e-05
1.981721909e-05
1.394780237e-05
2.542424851e-05
2.132656044e-05
8.090161491e-06
2.446464963e-05
1.312058307e-05
1.116705025e-05
3.141212305e-05
-3.70895954e-07
1.697255559e-05
3.702528404e-05
-7.116419682e-06
2.271563244e-05
4.037365249e-05
-8.31744959e-06
2.571354603e-05
4.325523953e-05
-6.022780402e-06
2.476282034e-05
4.542686785e-05
-2.145140216e-06
2.13754012e-05
4.674387916e-05
7.928451622e-07
1.913056746e-05
4.780612219e-05
8.300672085e-07
1.943226817e-05
4.832879926e-05
-8.769872862e-07
2.134986435e-05
4.862769034e-05
-2.159068952e-06
2.341954214e-05
4.896262389e-05
-2.300954288e-06
2.412660075e-05
4.937857492e-05
-1.108827142e-06
2.168713827e-05
4.994388544e-05
1.834533657e-06
1.446650858e-05
5.066283167e-05
6.437807798e-06
5.083138828e-05
1.358017182e-05
-1.167455656e-05
1.627922385e-05
-1.369172351e-06
-9.464644863e-07
1.659075631e-05
6.269125844e-07
4.499915303e-05
6.914956636e-05
3.1846489e-06
5.738211677e-05
3.118822716e-05
1.201740732e-05
5.4806524e-05
2.083551737e-05
1.57505458e-05
5.121998539e-05
1.392008204e-05
1.397790379e-05
4.780862204e-05
1.097198944e-05
1.284406062e-05
4.717931461e-05
3.814769053e-06
1.347981581e-05
3.800954916e-05
1.375585341e-05
1.47703148e-05
4.47906376e-05
-2.83515872e-05
2.334971402e-05
3.204817577e-05
7.578292516e-06
2.281847466e-05
1.704203952e-05
1.692634526e-05
2.35034846e-05
1.190398014e-05
1.20380015e-05
1.756411622e-05
1.376877833e-05
2.611905527e-05
3.427685227e-06
1.910982285e-05
3.62486181e-05
-4.564921588e-06
2.473083976e-05
4.108456323e-05
-6.332442321e-06
2.754882517e-05
4.486578269e-05
-4.429030092e-06
2.639055596e-05
4.737428664e-05
-7.896459105e-07
2.262865109e-05
4.849317013e-05
2.012111571e-06
1.977489645e-05
4.892417626e-05
1.735185069e-06
1.943015343e-05
4.896779914e-05
-2.947862079e-07
2.081098848e-05
4.904914255e-05
-1.8028307e-06
2.252029958e-05
4.938006037e-05
-2.127306858e-06
2.310551963e-05
4.990992496e-05
-1.117145343e-06
2.080065937e-05
5.062318332e-05
1.624973565e-06
1.394115862e-05
5.150990966e-05
6.011823464e-06
5.18626967e-05
1.29092488e-05
-2.25174851e-06
2.197015795e-05
-1.683251182e-05
8.680242912e-06
1.855628384e-05
-1.289881311e-05
3.631182142e-05
3.813897617e-05
3.378457177e-06
4.347444515e-05
2.055619171e-05
3.468134861e-06
4.409154813e-05
1.42598692e-05
5.957198025e-06
4.191949128e-05
9.209706026e-06
6.881047058e-06
3.690253077e-05
6.962976031e-06
9.024800763e-06
2.807603205e-05
2.673639307e-06
9.967079103e-06
1.470143786e-05
1.273762842e-05
1.439238596e-05
5.389302875e-05
-5.151652887e-06
-6.239079129e-05
4.883042907e-05
1.231842503e-05
3.215715073e-07
2.581047474e-05
1.824416292e-05
2.17018009e-05
2.18018068e-05
-1.306456322e-05
2.911078264e-05
2.724014722e-05
2.903873289e-06
1.777633645e-05
2.703434754e-05
3.122574052e-05
5.22817166e-06
2.885337929e-05
3.938042919e-05
-1.154014457e-07
2.934312917e-05
4.439304658e-05
-1.751713336e-08
2.682485809e-05
4.73577567e-05
2.534290772e-06
2.264871521e-05
4.863140897e-05
4.037377646e-06
1.968034066e-05
4.901632418e-05
2.875680319e-06
1.909897421e-05
4.905543525e-05
4.93165608e-07
2.014803166e-05
4.917224625e-05
-1.172743765e-06
2.156790765e-05
4.957104717e-05
-1.611464827e-06
2.201980181e-05
5.020654926e-05
-7.49139255e-07
1.981515553e-05
5.103755358e-05
1.789639684e-06
1.332513913e-05
5.2095525e-05
5.90375288e-06
5.270553548e-05
1.248164921e-05
1.097566893e-06
3.240019979e-05
-2.773168818e-05
1.58804859e-05