/*--------------------------------*- C++ -*----------------------------------*\
  =========                 |
  \\      /  F ield         | OpenFOAM: The Open Source CFD Toolbox
   \\    /   O peration     | Website:  https://openfoam.org
    \\  /    A nd           | Version:  8
     \\/     M anipulation  |
\*---------------------------------------------------------------------------*/
FoamFile
{
    version     2.0;
    format      ascii;
    class       volVectorField;
    location    "0.9/wallFilmRegion";
    object      contactForce:contactAngle;
}
// * * * * * * * * * * * * * * * * * * * * * * * * * * * * * * * * * * * * * //

dimensions      [1 -2 -2 0 0 0 0];

internalField   nonuniform List<vector> 
1369
(
(0 0 0)
(0 0 0)
(0 0 0)
(0 0 0)
(0 0 0)
(0 0 0)
(0 0 0)
(0 0 0)
(-530.9218853 0 0)
(-321.5721315 0 0)
(-497.3994199 0 0)
(-441.6673283 0 0)
(-426.8323334 0 0)
(-345.7314093 0 0)
(-473.4440471 0 0)
(-509.3939511 0 0)
(-586.5268581 0 0)
(0 0 0)
(0 0 0)
(-449.4070053 0 0)
(-572.1050355 0 0)
(-383.7684091 0 0)
(-307.5286118 0 0)
(-311.7105878 0 0)
(-445.8062709 0 0)
(0 0 0)
(0 0 0)
(0 0 0)
(-498.6939976 0 0)
(-715.9176193 0 0)
(-242.241112 0 0)
(-614.3960406 0 0)
(-718.9113679 0 0)
(-572.718935 0 0)
(-236.518007 0 0)
(0 0 0)
(0 0 0)
(0 0 0)
(0 0 0)
(-474.1798127 0 0)
(-297.1913143 0 0)
(0 0 0)
(0 0 0)
(0 0 0)
(0 0 0)
(0 0 0)
(0 0 0)
(0 0 0)
(0 0 0)
(0 0 0)
(-334.1259326 0 0)
(-487.1288211 0 0)
(-326.6852347 0 0)
(-553.258272 0 0)
(0 0 0)
(0 0 0)
(0 0 0)
(0 0 0)
(0 0 0)
(0 0 0)
(0 0 0)
(0 0 0)
(0 0 0)
(0 0 0)
(0 0 0)
(0 0 0)
(0 0 0)
(-842.8514989 -772.6138726 0)
(0 0 0)
(0 0 0)
(0 0 0)
(0 0 0)
(0 0 0)
(0 0 0)
(0 0 0)
(0 0 0)
(0 0 0)
(0 306.5336516 0)
(0 -622.8908629 0)
(0 0 0)
(0 0 0)
(0 0 0)
(0 0 0)
(0 0 0)
(0 0 0)
(0 759.5739695 0)
(0 0 0)
(0 -401.0525411 0)
(0 0 0)
(0 0 0)
(0 0 0)
(0 0 0)
(0 0 0)
(0 0 0)
(0 0 0)
(0 305.132131 0)
(-657.0508678 0 0)
(0 0 0)
(0 -429.04191 0)
(0 0 0)
(0 0 0)
(-823.9876108 755.3219752 0)
(0 0 0)
(0 0 0)
(0 0 0)
(0 0 0)
(0 0 0)
(0 0 0)
(0 0 0)
(0 -533.8868273 0)
(0 0 0)
(0 0 0)
(0 0 0)
(0 0 0)
(0 244.118923 0)
(0 0 0)
(0 0 0)
(0 0 0)
(0 0 0)
(0 0 0)
(0 0 0)
(0 0 0)
(0 0 0)
(0 0 0)
(0 0 0)
(0 0 0)
(0 -449.1279046 1.32803304e-12)
(0 0 0)
(0 0 0)
(0 0 0)
(0 0 0)
(0 0 0)
(0 0 0)
(0 0 0)
(0 0 0)
(0 0 0)
(0 0 0)
(0 725.8458666 2.146264534e-12)
(0 0 0)
(512.78724 -470.0549691 1.389912591e-12)
(0 0 0)
(0 0 0)
(0 0 0)
(0 0 0)
(0 0 0)
(0 675.638432 1.997805418e-12)
(0 0 0)
(0 -447.7446311 1.323942818e-12)
(0 0 0)
(0 0 0)
(0 0 0)
(0 0 0)
(0 0 0)
(0 0 0)
(719.6301247 659.6609464 1.950561351e-12)
(-778.0567724 -713.2187106 2.108927107e-12)
(0 0 0)
(0 748.7986291 2.214133902e-12)
(0 -256.378495 7.580894188e-13)
(0 0 0)
(0 0 0)
(0 0 0)
(-655.0858464 600.4953614 1.775613745e-12)
(0 0 0)
(0 0 0)
(0 0 0)
(0 0 0)
(0 0 0)
(0 0 0)
(0 0 0)
(469.8555093 -430.7008827 0)
(0 0 0)
(0 0 0)
(0 0 0)
(0 398.6054521 0)
(0 0 0)
(0 0 0)
(0 0 0)
(0 0 0)
(0 0 0)
(0 0 0)
(0 0 0)
(0 0 0)
(0 0 0)
(0 0 0)
(0 0 0)
(0 -525.8460704 0)
(0 0 0)
(0 0 0)
(0 0 0)
(0 0 0)
(0 0 0)
(0 0 0)
(0 0 0)
(0 0 0)
(0 0 0)
(0 0 0)
(0 666.6589726 0)
(0 0 0)
(0 -661.8931799 0)
(0 0 0)
(0 0 0)
(0 0 0)
(0 0 0)
(0 0 0)
(0 433.1066649 0)
(0 0 0)
(0 -608.4592701 0)
(0 0 0)
(0 0 0)
(0 0 0)
(0 0 0)
(0 0 0)
(-1.298320013e-05 2181.901039 0)
(0 -365.4705407 0)
(0 0 0)
(0 0 0)
(0 541.7241683 0)
(0 0 0)
(553.5593342 -507.4293915 0)
(0 0 0)
(0 0 0)
(0 0 0)
(0 663.9004577 0)
(0 0 0)
(0 0 0)
(0 0 0)
(0 0 0)
(0 0 0)
(0 0 0)
(0 -678.6743995 0)
(0 0 0)
(0 0 0)
(0 0 0)
(0 457.6209665 0)
(0 0 0)
(0 0 0)
(0 0 0)
(0 0 0)
(0 0 0)
(0 0 0)
(0 0 0)
(0 0 0)
(0 0 0)
(0 0 0)
(0 0 0)
(0 -714.9708428 0)
(0 0 0)
(0 0 0)
(0 0 0)
(0 0 0)
(0 0 0)
(0 0 0)
(0 0 0)
(0 0 0)
(0 0 0)
(819.3175485 751.0410848 0)
(0 0 0)
(0 0 0)
(0 -300.5004571 0)
(0 0 0)
(0 0 0)
(0 0 0)
(0 0 0)
(1042.381986 955.5168187 0)
(0 0 0)
(0 0 0)
(0 0 0)
(4.109414605e-11 -2078.152046 0)
(0 0 0)
(0 0 0)
(0 0 0)
(0 0 0)
(0 0 0)
(0 -526.764841 0)
(0 0 0)
(647.7178693 593.7413791 0)
(0 0 0)
(0 0 0)
(0 0 0)
(1102.901682 -1010.993206 0)
(0 0 0)
(0 0 0)
(-792.4116589 726.3773527 0)
(0 0 0)
(0 0 0)
(0 0 0)
(0 0 0)
(0 0 0)
(0 0 0)
(0 -742.2737424 0)
(0 0 0)
(0 0 0)
(0 0 0)
(0 514.4589362 0)
(0 0 0)
(0 0 0)
(0 0 0)
(0 0 0)
(0 0 0)
(0 0 0)
(0 0 0)
(0 0 0)
(0 0 0)
(0 0 0)
(0 0 0)
(-375.4477333 -344.1604235 0)
(0 0 0)
(0 0 0)
(0 0 0)
(0 0 0)
(0 0 0)
(0 0 0)
(0 0 0)
(0 0 0)
(0 0 0)
(-558.2591878 511.7375907 0)
(0 0 0)
(0 0 0)
(0 -413.0560244 0)
(0 0 0)
(0 0 0)
(0 0 0)
(0 0 0)
(-988.6556618 906.2676933 0)
(-408.6002435 0 0)
(-631.0390473 0 0)
(-378.7121136 -347.152772 0)
(0 0 0)
(0 0 0)
(0 0 0)
(1174.67259 1.193983656e-11 0)
(0 0 0)
(394.7208244 361.8274217 0)
(-480.8445397 0 0)
(425.2728788 0 0)
(0 0 0)
(-324.4804707 0 0)
(-258.5942387 0 0)
(0 0 0)
(0 -517.2106109 0)
(0 0 0)
(0 0 0)
(0 0 0)
(-1005.500126 921.7084526 0)
(-692.1958362 0 0)
(-251.8803438 0 0)
(0 0 0)
(0 0 0)
(0 0 0)
(-1010.741503 -926.5130476 0)
(0 0 0)
(0 0 0)
(0 0 0)
(-937.3421822 859.2303368 0)
(0 0 0)
(0 0 0)
(0 0 0)
(0 0 0)
(0 0 0)
(0 0 0)
(-681.1224362 0 0)
(0 0 0)
(0 0 0)
(0 0 0)
(0 -314.7008911 0)
(0 0 0)
(0 0 0)
(0 0 0)
(0 0 0)
(0 0 0)
(0 0 0)
(0 0 0)
(0 0 0)
(0 0 0)
(0 0 0)
(0 0 0)
(-885.8723838 812.0496836 0)
(-570.1252206 0 0)
(-572.7095313 -524.9837361 0)
(0 0 0)
(0 0 0)
(0 0 0)
(0 0 0)
(0 0 0)
(0 0 0)
(0 0 0)
(0 0 0)
(0 0 0)
(0 0 0)
(0 0 0)
(0 512.5226295 0)
(489.1999844 0 0)
(-804.8600068 -737.7883383 0)
(0 0 0)
(0 309.2408284 0)
(0 -433.9476814 1.28314641e-12)
(0 0 0)
(0 0 0)
(-730.9638244 670.0501712 0)
(0 0 0)
(552.5210353 0 0)
(307.1471202 0 0)
(-5.776421914e-06 -970.7618564 0)
(0 0 0)
(0 0 0)
(0 0 0)
(-775.3217341 710.7115883 0)
(-580.9175671 0 0)
(-633.7267283 -580.9161665 0)
(0 0 0)
(0 0 0)
(0 0 0)
(0 0 0)
(0 0 0)
(0 400.1961228 0)
(-239.0125609 0 0)
(0 0 0)
(0 0 0)
(0 0 0)
(0 -412.5768891 -1.219954807e-12)
(0 0 0)
(-708.098173 649.0899907 0)
(0 0 0)
(0 0 0)
(0 0 0)
(494.6546041 -453.4333863 0)
(0 0 0)
(0 0 0)
(0 0 0)
(0 0 0)
(0 0 0)
(0 0 0)
(0 0 0)
(0 0 0)
(0 0 0)
(0 0 0)
(0 0 0)
(0 0 0)
(0 0 0)
(0 0 0)
(0 0 0)
(0 0 0)
(0 0 0)
(0 0 0)
(0 0 0)
(0 0 0)
(0 0 0)
(0 0 0)
(0 0 0)
(0 0 0)
(0 376.1099774 0)
(0 -479.7554906 0)
(0 0 0)
(0 0 0)
(0 257.677245 0)
(0 -344.9569127 0)
(0 0 0)
(0 0 0)
(0 0 0)
(-797.0156312 730.5976606 0)
(0 0 0)
(0 -509.0587251 0)
(0 0 0)
(0 0 0)
(0 0 0)
(0 0 0)
(0 0 0)
(0 0 0)
(0 0 0)
(0 0 0)
(0 0 0)
(0 0 0)
(0 0 0)
(0 0 0)
(-1513.739023 -7.693120998e-11 0)
(0 0 0)
(0 567.1182741 0)
(-362.2671381 0 0)
(0 0 0)
(0 -564.5324189 0)
(0 0 0)
(0 0 0)
(-375.6872365 344.379968 0)
(0 0 0)
(0 0 0)
(0 -305.2006802 0)
(0 0 0)
(0 0 0)
(0 0 0)
(0 0 0)
(0 0 0)
(0 0 0)
(0 0 0)
(0 0 0)
(0 0 0)
(0 0 0)
(0 0 0)
(0 0 0)
(0 0 0)
(0 0 0)
(0 0 0)
(0 0 0)
(0 0 0)
(0 0 0)
(0 0 0)
(0 0 0)
(0 0 0)
(0 0 0)
(0 0 0)
(0 0 0)
(0 264.4077544 0)
(0 -445.1487109 0)
(0 0 0)
(0 0 0)
(0 492.0942691 0)
(-784.4470404 -719.0764563 2.126247964e-12)
(0 0 0)
(0 0 0)
(0 0 0)
(0 0 0)
(-1069.93584 980.7745239 0)
(0 -336.3184151 0)
(0 0 0)
(0 0 0)
(0 0 0)
(0 0 0)
(0 0 0)
(0 0 0)
(0 0 0)
(0 0 0)
(0 0 0)
(0 0 0)
(0 0 0)
(0 0 0)
(0 0 0)
(0 0 0)
(0 -1128.710224 0)
(0 0 0)
(0 728.4977185 0)
(0 -532.1774171 0)
(0 0 0)
(0 0 0)
(0 0 0)
(-515.99809 472.9982483 -1.398615618e-12)
(0 0 0)
(0 -449.6797049 -1.329664667e-12)
(0 0 0)
(0 0 0)
(0 0 0)
(0 0 0)
(0 0 0)
(0 0 0)
(0 0 0)
(0 0 0)
(0 0 0)
(0 0 0)
(0 0 0)
(0 0 0)
(0 0 0)
(0 0 0)
(0 0 0)
(0 0 0)
(0 0 0)
(0 0 0)
(0 0 0)
(0 0 0)
(0 0 0)
(0 0 0)
(0 0 0)
(0 0 0)
(0 641.5994532 -1.89715505e-12)
(0 -555.1347624 -1.641486309e-12)
(0 0 0)
(0 0 0)
(-1922.610258 -1.954217069e-11 -5.211245518e-12)
(0 0 0)
(0 0 0)
(0 0 0)
(0 0 0)
(0 0 0)
(0 0 0)
(0 394.3515134 -1.166063907e-12)
(342.2876571 0 -9.277725537e-13)
(512.2736722 0 -1.388520571e-12)
(630.3710485 0 -1.708624151e-12)
(-1.089973536e-05 -1831.764973 -5.416373333e-12)
(0 0 0)
(0 0 0)
(0 0 0)
(0 0 0)
(0 0 0)
(921.2134603 844.445675 -2.496954087e-12)
(408.1405013 0 1.106267045e-12)
(497.8404103 0 -1.349399136e-12)
(612.6337305 -561.5809216 1.660547054e-12)
(0 0 0)
(0 1140.13371 309.1888026)
(0 0 0)
(0 580.5980828 1.716779183e-12)
(0 -348.9579895 -1.031839126e-12)
(0 0 0)
(0 0 0)
(0 0 0)
(0 0 0)
(-383.7651239 351.7846963 0)
(-396.613244 -363.5621396 0)
(0 0 0)
(0 0 0)
(0 0 0)
(0 0 0)
(0 0 0)
(0 0 0)
(0 0 0)
(0 0 0)
(0 0 0)
(0 0 0)
(0 0 0)
(0 0 0)
(0 0 0)
(0 0 0)
(0 0 0)
(0 0 0)
(0 0 0)
(0 0 0)
(0 0 0)
(0 0 0)
(0 0 0)
(0 0 0)
(0 0 0)
(0 0 0)
(0 464.762216 0)
(0 -571.0103464 0)
(0 0 0)
(0 0 0)
(0 0 0)
(0 0 0)
(0 0 0)
(0 0 0)
(0 0 0)
(0 0 0)
(0 0 0)
(-1092.592603 1001.543218 0)
(-599.4674688 0 0)
(-232.276219 0 0)
(-657.1927033 -602.4266436 0)
(0 0 0)
(0 0 0)
(0 0 0)
(0 0 0)
(0 0 0)
(-9.351512139e-12 702.797944 0)
(0 0 0)
(0 0 0)
(0 0 0)
(0 0 0)
(418.1437746 0 0)
(-963.7216638 -883.4115235 0)
(0 0 0)
(0 569.4326119 0)
(0 -372.8524154 0)
(0 0 0)
(0 0 0)
(0 0 0)
(0 0 0)
(0 0 0)
(0 0 0)
(0 0 0)
(0 0 0)
(0 0 0)
(0 0 0)
(0 0 0)
(0 0 0)
(0 0 0)
(0 0 0)
(0 0 0)
(0 0 0)
(0 0 0)
(0 0 0)
(0 0 0)
(0 0 0)
(0 0 0)
(0 0 0)
(0 0 0)
(0 0 0)
(0 0 0)
(0 0 0)
(0 0 0)
(0 0 0)
(1075.778216 986.1300298 0)
(719.5413848 0 0)
(0 0 0)
(0 -287.7773807 0)
(0 0 0)
(0 0 0)
(0 0 0)
(0 0 0)
(616.5086156 565.1328966 0)
(442.6735478 -405.7840848 0)
(0 0 0)
(0 0 0)
(0 0 0)
(0 0 0)
(0 0 0)
(0 0 0)
(0 0 0)
(0 0 0)
(0 0 0)
(0 0 0)
(0 0 0)
(0 0 0)
(0 0 0)
(0 273.7692729 0)
(0 0 0)
(0 0 0)
(0 0 0)
(-406.2404748 -372.3871033 0)
(0 0 0)
(0 0 0)
(0 287.2311995 0)
(0 0 0)
(0 0 0)
(0 0 0)
(0 0 0)
(0 0 0)
(0 0 0)
(0 0 0)
(0 0 0)
(0 0 0)
(0 0 0)
(0 0 0)
(0 0 0)
(0 0 0)
(0 0 0)
(0 0 0)
(0 0 0)
(0 0 0)
(554.5586917 508.3454693 0)
(433.4654243 0 0)
(848.506094 -777.7972557 0)
(0 0 0)
(813.1123111 745.3529545 0)
(-550.7203978 0 0)
(-493.2517274 0 0)
(0 0 0)
(0 0 0)
(520.7922534 0 0)
(712.6220977 0 0)
(608.5899335 0 0)
(422.2419517 0 1.144489103e-12)
(0 0 0)
(-945.0279049 -866.275578 0)
(0 0 0)
(0 0 0)
(0 0 0)
(0 0 0)
(0 0 0)
(0 0 0)
(0 0 0)
(0 0 0)
(0 0 0)
(0 0 0)
(0 0 0)
(0 0 0)
(0 0 0)
(0 614.0922191 0)
(0 0 0)
(0 0 0)
(-684.2255459 -627.2067492 0)
(0 0 0)
(0 0 0)
(0 0 0)
(0 312.2603417 0)
(0 0 0)
(1113.619644 1020.818006 0)
(406.2167359 0 0)
(408.2684371 0 0)
(583.4133892 0 0)
(920.0882467 -843.4142246 0)
(0 0 0)
(637.3083192 584.1992916 0)
(611.5135173 0 0)
(1189.223338 0 0)
(1052.689561 -964.9654289 0)
(0 0 0)
(6.810800335e-12 1023.709621 0)
(-481.6750178 0 0)
(0 0 0)
(-525.4409882 0 -1.42421066e-12)
(552.3352717 0 0)
(-650.1971835 -596.0140838 0)
(0 0 0)
(0 0 0)
(0 403.3746248 0)
(-494.3741372 0 0)
(0 0 0)
(0 0 0)
(0 0 0)
(0 0 0)
(0 -344.3198223 0)
(0 0 0)
(0 0 0)
(0 0 0)
(0 0 0)
(0 0 0)
(0 0 0)
(0 0 0)
(0 0 0)
(0 0 0)
(0 0 0)
(0 0 0)
(0 0 0)
(0 0 0)
(361.4442598 331.3239042 0)
(0 0 0)
(0 0 0)
(0 -469.4773144 0)
(0 0 0)
(0 0 0)
(0 0 0)
(0 0 0)
(0 639.9354503 0)
(0 0 0)
(-241.5599576 0 0)
(-600.2464226 0 -1.626971189e-12)
(-535.2320164 0 -1.450749287e-12)
(888.0733468 0 -0.0004413062016)
(-772.9690959 -708.5550071 -2.095136933e-12)
(0 0 0)
(0 0 0)
(-1027.112695 941.5199742 -2.783994539e-12)
(9.99264338e-06 -1679.317274 -4.965598446e-12)
(0 0 0)
(0 0 0)
(0 -1049.35085 -141.08919)
(0 0 0)
(0 0 0)
(0 0 0)
(0 0 0)
(0 0 0)
(-1281.310427 0 -3.472998862e-12)
(0 0 0)
(0 618.7423607 -1.829568571e-12)
(0 0 0)
(0 0 0)
(0 0 0)
(-342.308642 -313.782923 -9.278294333e-13)
(0 0 0)
(0 0 0)
(0 0 0)
(0 0 0)
(0 0 0)
(0 0 0)
(0 0 0)
(0 0 0)
(0 0 0)
(0 0 0)
(0 0 0)
(0 0 0)
(0 0 0)
(0 484.4487158 1.432473677e-12)
(0 0 0)
(0 0 0)
(0 -771.4169376 -2.281014318e-12)
(0 0 0)
(0 0 0)
(0 0 0)
(0 0 0)
(0 727.0040017 2.149689041e-12)
(0 0 0)
(0 0 0)
(0 0 0)
(0 0 0)
(0 0 0)
(0 0 0)
(770.0891725 705.9150774 0)
(268.8108903 0 0)
(0 -444.1753639 0)
(0 0 0)
(0 0 0)
(0 0 0)
(0 0 0)
(0 0 0)
(0 0 0)
(861.3703725 789.5895117 0)
(0 0 0)
(0 0 0)
(0 0 0)
(0 -517.697455 1.530787373e-12)
(0 0 0)
(0 0 0)
(0 0 0)
(0 0 0)
(0 0 0)
(0 0 0)
(0 0 0)
(0 0 0)
(0 0 0)
(0 0 0)
(0 0 0)
(0 0 0)
(0 0 0)
(934.2139052 856.3627496 0)
(0 0 0)
(0 0 0)
(0 0 0)
(0 -661.3872232 0)
(0 0 0)
(0 0 0)
(0 0 0)
(0 0 0)
(0 480.3163112 0)
(0 0 0)
(0 0 0)
(0 0 0)
(0 0 0)
(0 667.1796942 0)
(0 0 0)
(-694.2828985 -636.4259897 0)
(0 0 0)
(0 0 0)
(0 0 0)
(0 0 0)
(1367.290191 -1.139469236e-06 0)
(0 0 0)
(0 602.3207782 0)
(0 0 0)
(0 0 0)
(0 0 0)
(0 -696.6270919 0)
(0 0 0)
(0 0 0)
(0 0 0)
(0 0 0)
(0 0 0)
(0 0 0)
(0 0 0)
(0 0 0)
(0 0 0)
(753.436838 690.6504336 0)
(399.563426 -366.2664732 0)
(0 0 0)
(0 0 0)
(0 542.7143804 0)
(0 0 0)
(0 0 0)
(0 0 0)
(-707.3989159 -648.449005 0)
(0 0 0)
(0 0 0)
(0 0 0)
(0 0 0)
(0 701.234031 0)
(0 515.8291478 0)
(0 -616.5047216 0)
(0 0 0)
(0 0 0)
(0 0 0)
(0 0 0)
(7.756443205e-06 1303.514684 0)
(0 0 0)
(391.8570686 0 0)
(0 0 0)
(0 0 0)
(0 0 0)
(0 0 0)
(0 -729.311689 2.156512676e-12)
(0 0 0)
(0 0 0)
(0 0 0)
(0 0 0)
(0 0 0)
(0 0 0)
(0 0 0)
(0 0 0)
(745.6665284 683.5276498 0)
(0 0 0)
(0 0 0)
(357.9280703 0 0)
(610.5963721 0 0)
(0 0 0)
(0 0 0)
(0 0 0)
(0 -292.3296323 0)
(0 0 0)
(0 0 0)
(0 0 0)
(0 0 0)
(0 0 0)
(0 665.262582 0)
(0 0 0)
(0 0 0)
(0 0 0)
(0 0 0)
(0 0 0)
(0 701.6125188 0)
(0 0 0)
(0 0 0)
(0 0 0)
(0 0 0)
(0 0 0)
(0 0 0)
(570.9077983 -523.3321503 0)
(0 0 0)
(0 0 0)
(0 0 0)
(0 0 0)
(0 0 0)
(0 0 0)
(0 0 0)
(0 340.3073737 0)
(0 0 0)
(0 0 0)
(0 0 0)
(0 0 0)
(0 0 0)
(0 0 0)
(0 0 0)
(0 -673.5274766 0)
(0 0 0)
(0 0 0)
(0 0 0)
(0 0 0)
(0 0 0)
(0 394.598498 0)
(0 0 0)
(0 0 0)
(0 0 0)
(0 0 0)
(-484.4202041 444.051853 0)
(-504.7334034 0 0)
(0 0 0)
(0 0 0)
(0 0 0)
(0 0 0)
(0 0 0)
(0 0 0)
(684.3673227 -627.3367113 0)
(0 0 0)
(0 0 0)
(0 0 0)
(0 0 0)
(0 0 0)
(850.5069362 779.6313568 0)
(0 0 0)
(0 0 0)
(0 0 0)
(0 0 0)
(0 0 0)
(0 0 0)
(0 0 0)
(0 0 0)
(0 -507.5241207 0)
(0 0 0)
(0 0 0)
(0 0 0)
(0 0 0)
(0 0 0)
(0 471.531409 0)
(0 0 0)
(0 0 0)
(0 0 0)
(0 0 0)
(0 0 0)
(0 0 0)
(0 550.0838804 0)
(0 0 0)
(0 0 0)
(0 0 0)
(0 0 0)
(0 0 0)
(-357.5491232 -327.7533641 0)
(0 0 0)
(0 0 0)
(0 0 0)
(0 0 0)
(0 0 0)
(0 504.4335474 0)
(0 0 0)
(0 0 0)
(0 0 0)
(0 0 0)
(0 0 0)
(0 0 0)
(0 0 0)
(0 0 0)
(0 0 0)
(369.0024599 0 0)
(490.3729176 0 0)
(358.9826402 0 0)
(943.2546235 -864.6500699 0)
(0 0 0)
(0 760.7865956 0)
(928.0214221 850.6863067 0)
(407.4660145 0 0)
(569.6784752 -522.2052708 0)
(0 0 0)
(0 0 0)
(0 350.4950634 0)
(0 0 0)
(0 0 0)
(0 0 0)
(0 0 0)
(-908.6761542 -832.9531398 0)
(0 0 0)
(0 0 0)
(0 0 0)
(0 0 0)
(0 0 0)
(0 0 0)
(0 345.5813158 0)
(0 0 0)
(0 0 0)
(0 0 0)
(0 0 0)
(0 0 0)
(0 0 0)
(0 0 0)
(0 0 0)
(0 0 0)
(0 0 0)
(0 0 0)
(0 0 0)
(0 -250.2445071 0)
(0 0 0)
(0 255.5500428 0)
(0 0 0)
(0 0 0)
(0 -258.1759395 0)
(0 0 0)
(0 0 0)
(-351.2458617 321.9753726 0)
(-424.4956975 0 0)
(0 0 0)
(0 0 0)
(0 -355.3815364 -1.050833009e-12)
(0 0 0)
(0 0 0)
(0 0 0)
(0 0 0)
(0 0 0)
(0 0 0)
(0 0 0)
(0 680.037635 0)
(0 0 0)
(0 0 0)
(0 0 0)
(0 0 0)
(0 0 0)
(0 0 0)
(0 0 0)
(0 0 0)
(0 0 0)
(0 0 0)
(0 0 0)
(0 0 0)
(0 0 0)
(240.2994301 0 0)
(0 0 0)
(0 0 0)
(0 0 0)
(0 -578.6820399 0)
(0 0 0)
(0 0 0)
(0 0 0)
(0 0 0)
(0 342.0337659 0)
(0 0 0)
(0 -300.6383258 8.889619766e-13)
(0 0 0)
(0 0 0)
(0 0 0)
(0 0 0)
(0 0 0)
(0 0 0)
(0 0 0)
(-477.578875 437.780637 0)
(-677.2979823 0 0)
(0 0 0)
(0 0 0)
(0 0 0)
(0 0 0)
(0 0 0)
(0 0 0)
(0 0 0)
(0 0 0)
(0 0 0)
(0 0 0)
(0 0 0)
(0 0 0)
(0 0 0)
(0 0 0)
(-628.2848521 -2.128711868e-13 0)
(0 0 0)
(690.2113311 -632.6937225 0)
(0 0 0)
(0 0 0)
(0 0 0)
(0 619.9026019 0)
(0 0 0)
(0 -491.1296101 0)
(0 0 0)
(0 0 0)
(0 0 0)
(0 0 0)
(0 0 0)
(0 0 0)
(0 0 0)
(0 0 0)
(0 0 0)
(-1105.336553 1013.225171 0)
(0 0 0)
(0 0 0)
(0 0 0)
(0 0 0)
(-268.5158607 0 0)
(-570.2191912 0 0)
(-511.9068757 0 0)
(-666.0740672 0 0)
(-550.6869653 0 0)
(0 0 0)
(0 0 0)
(0 0 0)
(0 0 0)
(-469.5602541 430.4302333 0)
(0 -254.2782523 0)
(0 0 0)
(1083.617334 993.3158881 0)
(390.4424292 0 0)
(0 0 0)
(0 0 0)
(0 -319.603705 0)
(0 0 0)
(0 0 0)
(0 0 0)
(0 0 0)
(0 0 0)
(0 0 0)
(0 0 0)
(0 0 0)
(0 0 0)
(0 0 0)
(0 346.1327024 1.023484993e-12)
(0 0 0)
(0 0 0)
(-775.8972024 -711.2391009 2.103073593e-12)
(0 0 0)
(0 0 0)
(0 0 0)
(0 0 0)
(0 0 0)
(-869.0804617 796.6570884 2.355647324e-12)
(0 0 0)
(0 0 0)
(0 0 0)
(0 0 0)
(0 537.24619 -1.588591321e-12)
(637.6227645 0 0.0003168498933)
(-498.7015311 0 1.351733201e-12)
(0 0 0)
(0 0 0)
(0 0 0)
(0 0 0)
(368.361935 0 0)
(5.862019341e-06 -985.1437668 0)
(0 0 0)
(2912.712137 -0.01085552907 0)
(0 0 0)
(0 0 0)
(0 0 0)
(0 0 0)
(0 0 0)
(642.7909144 589.2250038 0)
(0 0 0)
(0 0 0)
(0 -773.6250829 0)
(0 0 0)
(0 0 0)
(0 0 0)
(0 0 0)
(0 0 0)
(0 0 0)
(0 0 0)
(-1089.568665 998.7712801 0)
(-380.9652419 0 0)
(0 0 0)
(0 0 0)
(-1667.587882 1.528625114e-05 -4.520005974e-12)
(0 0 0)
(0 0 0)
(-504.7849479 462.7195347 0)
(0 0 0)
(0 0 0)
(0 0 0)
(0 -334.2115587 0)
(0 0 0)
(0 0 0)
(0 0 0)
(-4.460856161e-06 749.6715768 0)
(311.6220805 0 0)
(499.1166561 0 0)
(-539.4294798 0 0)
(-782.0563121 0 0)
(-705.3104947 0 0)
(-355.5281289 0 0)
(-243.4823736 0 0)
(0 0 0)
(799.7107427 -733.0681835 0)
(0 0 0)
(0 0 0)
(0 0 0)
(0 0 0)
(0 0 0)
(0 0 0)
(0 0 0)
(0 0 0)
(0 658.0026713 0)
(0 421.0175444 0)
(0 0 0)
(0 0 0)
(0 -748.0951492 0)
(0 0 0)
(0 0 0)
(0 0 0)
(0 0 0)
(-876.9000372 803.8250326 0)
(-489.7167176 -448.9069903 0)
(0 0 0)
(0 0 0)
(0 0 0)
(0 0 0)
(0 0 0)
(0 498.1112974 0)
(0 -445.0926419 0)
(0 0 0)
(0 0 0)
(0 0 0)
(0 0 0)
(0 0 0)
(0 0 0)
(0 0 0)
(0 0 0)
(0 240.3066931 0)
(-721.0670779 660.9781572 0)
(0 0 0)
(0 0 0)
(-347.0423309 0 0)
(6.258553778e-06 -1051.782295 0)
(0 0 0)
(0 0 0)
(0 0 0)
(0 0 0)
(0 0 0)
(0 0 0)
(0 0 0)
(0 0 0)
(0 0 0)
(0 0 0)
(0 266.9929045 0)
(0 0 0)
(375.6170989 0 0)
(655.5459148 -600.9170875 0)
(0 0 0)
(0 0 0)
(848.3554706 -3.449208147e-11 0)
(0 0 0)
(0 0 0)
(0 0 0)
(0 339.2904705 0)
)
;

boundaryField
{
    walls
    {
        type            calculated;
        value           uniform (0 0 0);
    }
    wallFilmFace_top
    {
        type            calculated;
        value           uniform (0 0 0);
    }
    region0_to_wallFilmRegion_wallFilmFace
    {
        type            calculated;
        value           uniform (0 0 0);
    }
    mirrorFace_top
    {
        type            calculated;
        value           nonuniform List<vector> 0();
    }
    region0_to_wallFilmRegion_mirrorFace
    {
        type            calculated;
        value           nonuniform List<vector> 0();
    }
    procBoundary0to1
    {
        type            processor;
        value           uniform (0 0 0);
    }
    procBoundary0to2
    {
        type            processor;
        value           uniform (0 0 0);
    }
}


// ************************************************************************* //
