/*--------------------------------*- C++ -*----------------------------------*\
  =========                 |
  \\      /  F ield         | OpenFOAM: The Open Source CFD Toolbox
   \\    /   O peration     | Website:  https://openfoam.org
    \\  /    A nd           | Version:  8
     \\/     M anipulation  |
\*---------------------------------------------------------------------------*/
FoamFile
{
    version     2.0;
    format      ascii;
    class       volScalarField;
    location    "0.9/wallFilmRegion";
    object      mu;
}
// * * * * * * * * * * * * * * * * * * * * * * * * * * * * * * * * * * * * * //

dimensions      [1 -1 -1 0 0 0 0];

internalField   nonuniform List<scalar> 
1369
(
0.0008861473735
0.000886147365
0.0008861473626
0.0008861473648
0.0008861473683
0.0008861473699
0.0008861473712
0.0008861473737
0.0008861473765
0.000886147379
0.0008861473809
0.0008861473816
0.0008861473809
0.000886147379
0.0008861473761
0.0008861473727
0.0008861473698
0.0008861473693
0.0008861473716
0.0008861473723
0.0008861473631
0.0008861473662
0.0008861473694
0.0008861473696
0.0008861473577
0.0008861473505
0.0008861473523
0.0008861473591
0.0008861473715
0.0008861473842
0.000886147391
0.0008861473963
0.0008861474026
0.0008861474121
0.0008861474089
0.0008861474474
0.0008861474264
0.0008861474162
0.000886147415
0.000886147418
0.0008861474191
0.0008861474163
0.000886147412
0.0008861474078
0.0008861474071
0.0008861474094
0.0008861474117
0.0008861474125
0.0008861474112
0.0008861474076
0.0008861474019
0.0008861473951
0.0008861473894
0.0008861473915
0.0008861474232
0.0008861474459
0.0008861474456
0.0008861474119
0.0008861473846
0.000886147373
0.0008861473735
0.0008861473715
0.0008861473657
0.0008861473612
0.0008861473578
0.0008861473578
0.0008861473584
0.0008861473356
0.0008861473102
0.0008861473022
0.0008861472946
0.0008861472932
0.0008861473066
0.0008861473296
0.0008861473555
0.0008861473771
0.0008861473914
0.0008861473992
0.0008861474021
0.0008861473992
0.0008861472753
0.0008861472708
0.0008861473049
0.0008861473449
0.000886147356
0.0008861473592
0.0008861473602
0.0008861473604
0.0008861473558
0.000886147351
0.0008861473649
0.0008861473784
0.0008861473723
0.0008861473689
0.0008861473857
0.000886147411
0.0008861474209
0.000886147413
0.0008861474107
0.000886147408
0.00088614741
0.0008861474087
0.0008861474099
0.000886147411
0.0008861474143
0.0008861474199
0.0008861474256
0.0008861474281
0.0008861474245
0.0008861474142
0.0008861473977
0.0008861473766
0.000886147355
0.0008861473517
0.0008861475768
0.0008861475722
0.0008861474902
0.000886147407
0.000886147375
0.0008861473705
0.0008861473632
0.0008861473684
0.0008861473677
0.0008861473644
0.000886147354
0.0008861473524
0.0008861473601
0.0008861473203
0.0008861472863
0.0008861472777
0.0008861472806
0.0008861472956
0.0008861473213
0.0008861473505
0.0008861473746
0.0008861473901
0.0008861473986
0.0008861474028
0.0008861474043
0.0008861474024
0.0008861473022
0.000886147286
0.0008861472986
0.0008861473449
0.0008861473567
0.0008861473576
0.0008861473559
0.000886147352
0.0008861473362
0.0008861473022
0.0008861473221
0.0008861473623
0.0008861473627
0.0008861473677
0.0008861474959
0.0008861474248
0.0008861474405
0.0008861474153
0.0008861474116
0.0008861474106
0.0008861474114
0.0008861474068
0.0008861474088
0.0008861474102
0.0008861474123
0.0008861474154
0.0008861474183
0.0008861474187
0.0008861474149
0.0008861474062
0.0008861473922
0.0008861473723
0.0008861473482
0.0008861473422
0.0008861476058
0.0008861475344
0.0008861475266
0.0008861473821
0.000886147369
0.0008861473663
0.0008861473604
0.0008861473675
0.0008861473679
0.0008861473662
0.0008861473625
0.0008861473602
0.0008861473617
0.0008861473028
0.0008861472665
0.0008861472669
0.0008861472854
0.0008861473148
0.0008861473455
0.0008861473705
0.0008861473872
0.0008861473967
0.0008861474019
0.0008861474046
0.0008861474058
0.0008861474051
0.0008861473351
0.0008861473136
0.0008861472769
0.0008861473344
0.0008861473574
0.0008861473582
0.0008861473553
0.0008861473523
0.0008861473388
0.0008861472867
0.0008861473106
0.0008861474001
0.0008861474346
0.0008861475167
0.0008861475582
0.0008861474667
0.0008861474853
0.0008861474211
0.000886147415
0.000886147415
0.0008861474154
0.0008861474052
0.0008861474082
0.0008861474097
0.0008861474107
0.0008861474115
0.0008861474115
0.0008861474097
0.0008861474053
0.0008861473979
0.0008861473869
0.0008861473708
0.0008861473477
0.0008861473359
0.0008861476032
0.0008861474229
0.0008861474103
0.0008861473741
0.0008861473663
0.0008861473632
0.0008861473612
0.0008861473678
0.0008861473665
0.0008861473652
0.0008861473632
0.0008861473612
0.0008861473622
0.0008861472849
0.0008861472626
0.0008861472744
0.0008861472998
0.0008861473312
0.0008861473599
0.0008861473807
0.000886147393
0.0008861473997
0.0008861474034
0.0008861474055
0.0008861474066
0.0008861474065
0.0008861473569
0.000886147345
0.0008861472733
0.0008861473101
0.0008861473641
0.0008861473648
0.0008861473588
0.0008861473576
0.0008861473503
0.0008861473163
0.000886147322
0.0008861474821
0.0008861474864
0.0008861475566
0.000886147612
0.0008861475142
0.0008861475306
0.0008861474292
0.0008861474195
0.0008861474192
0.0008861474205
0.0008861474057
0.0008861474085
0.0008861474097
0.0008861474097
0.000886147409
0.0008861474073
0.0008861474043
0.0008861473996
0.0008861473929
0.0008861473841
0.0008861473719
0.0008861473546
0.0008861473412
0.0008861474605
0.0008861473966
0.0008861473725
0.0008861473688
0.0008861473668
0.0008861473666
0.0008861473656
0.0008861473895
0.0008861473726
0.0008861473646
0.0008861473626
0.0008861473689
0.0008861473508
0.000886147269
0.0008861472638
0.0008861472827
0.0008861473104
0.0008861473405
0.0008861473667
0.0008861473845
0.0008861473948
0.0008861474004
0.0008861474037
0.0008861474056
0.0008861474067
0.0008861474069
0.0008861473616
0.0008861473608
0.0008861473008
0.0008861471987
0.0008861473575
0.0008861473873
0.0008861473623
0.0008861473642
0.000886147366
0.0008861473555
0.0008861473365
0.0008861476582
0.0008861474855
0.000886147519
0.0008861476684
0.0008861477298
0.0008861475702
0.0008861474464
0.0008861474266
0.0008861474233
0.0008861474258
0.0008861474124
0.0008861474109
0.0008861474107
0.0008861474091
0.000886147407
0.0008861474041
0.0008861474003
0.0008861473951
0.0008861473889
0.0008861473819
0.000886147374
0.0008861473647
0.0008861473577
0.0008861474372
0.000886147422
0.0008861473899
0.0008861473798
0.0008861473771
0.000886147374
0.00088614737
0.0008861473916
0.0008861473949
0.0008861473932
0.0008861473787
0.0008861473886
0.0008861473523
0.0008861472657
0.0008861472668
0.0008861472863
0.0008861473109
0.0008861473378
0.0008861473624
0.0008861473801
0.0008861473911
0.0008861473977
0.0008861474017
0.0008861474042
0.0008861474057
0.0008861474061
0.000886147345
0.0008861473564
0.000886147316
0.0008861471141
0.0008861472825
0.000886147319
0.0008861473281
0.000886147435
0.0008861474365
0.0008861474058
0.0008861473594
0.0008861474816
0.0008861475699
0.0008861475713
0.0008861476678
0.0008861476943
0.000886147628
0.0008861476001
0.0008861475526
0.0008861474355
0.0008861474297
0.0008861474272
0.0008861474208
0.0008861474145
0.0008861474082
0.000886147403
0.0008861473985
0.0008861473935
0.0008861473879
0.0008861473825
0.0008861473787
0.0008861473779
0.0008861473801
0.000886147387
0.0008861474076
0.0008861474319
0.0008861473902
0.0008861473761
0.0008861473905
0.0008861473783
0.0008861473703
0.0008861473823
0.0008861473924
0.0008861473976
0.0008861473982
0.0008861473909
0.0008861473597
0.0008861472638
0.000886147267
0.0008861472801
0.0008861472946
0.0008861473115
0.0008861473307
0.0008861473505
0.0008861473682
0.0008861473817
0.0008861473909
0.0008861473966
0.0008861474002
0.0008861474025
0.0008861472549
0.0008861473018
0.0008861472744
0.0008861471013
0.0008861472424
0.0008861473152
0.000886147336
0.0008861474507
0.0008861474637
0.0008861474366
0.0008861473907
0.0008861474495
0.0008861475753
0.0008861476871
0.0008861476883
0.0008861477017
0.0008861476253
0.0008861476033
0.000886147571
0.0008861474557
0.0008861474198
0.0008861474235
0.000886147416
0.0008861474057
0.0008861473984
0.0008861473959
0.0008861473915
0.0008861473853
0.0008861473783
0.0008861473741
0.0008861473772
0.0008861473877
0.0008861474027
0.0008861474209
0.0008861474419
0.0008861474363
0.0008861474551
0.0008861474269
0.0008861473965
0.0008861473801
0.00088614737
0.0008861473625
0.0008861473829
0.0008861473936
0.0008861473972
0.0008861473926
0.0008861473634
0.0008861472612
0.0008861472648
0.000886147268
0.0008861472608
0.0008861472342
0.0008861471667
0.0008861470192
0.0008861468139
0.000886146695
0.000886146655
0.0008861466081
0.0008861465303
0.0008861464589
0.0008861465033
0.0008861467955
0.0008861470331
0.0008861471918
0.0008861472967
0.0008861473479
0.0008861473535
0.0008861474263
0.0008861474264
0.0008861474279
0.0008861474318
0.0008861474458
0.0008861475506
0.0008861476975
0.0008861476986
0.0008861476932
0.0008861476203
0.0008861476009
0.0008861475702
0.000886147428
0.0008861474019
0.0008861474172
0.0008861474119
0.0008861474035
0.0008861473985
0.0008861473943
0.0008861473883
0.000886147379
0.0008861473693
0.0008861473679
0.0008861473807
0.0008861474019
0.000886147425
0.000886147448
0.0008861474688
0.0008861474838
0.0008861474859
0.0008861474451
0.0008861473671
0.0008861473814
0.0008861473696
0.0008861473441
0.0008861473661
0.0008861473833
0.0008861473931
0.0008861473915
0.0008861473628
0.0008861472556
0.0008861472629
0.0008861472663
0.0008861472597
0.0008861472345
0.0008861471681
0.0008861470104
0.0008861467892
0.0008861466945
0.0008861466515
0.0008861465554
0.0008861464867
0.0008861466112
0.0008861465783
0.0008861469015
0.0008861471436
0.0008861472785
0.0008861473484
0.0008861473757
0.0008861473621
0.000886147353
0.0008861473273
0.0008861474389
0.0008861474954
0.0008861475065
0.0008861475574
0.0008861473157
0.000886147661
0.0008861476884
0.0008861476179
0.0008861475988
0.0008861475641
0.0008861473712
0.0008861473895
0.0008861473968
0.0008861474023
0.0008861474039
0.0008861474022
0.0008861473981
0.0008861473917
0.0008861473809
0.0008861473689
0.0008861473675
0.0008861473851
0.0008861474123
0.0008861474394
0.0008861474634
0.0008861474825
0.0008861474938
0.000886147494
0.0008861474563
0.0008861473613
0.0008861473829
0.0008861473689
0.0008861473392
0.0008861473434
0.0008861473595
0.0008861473809
0.0008861473861
0.0008861473599
0.0008861472355
0.0008861472452
0.0008861472485
0.0008861472421
0.0008861472201
0.0008861471565
0.0008861470095
0.0008861468679
0.00088614688
0.0008861468675
0.0008861467188
0.0008861462296
0.0008861462429
0.0008861466618
0.0008861470002
0.0008861472292
0.0008861473383
0.0008861473869
0.0008861473939
0.0008861473671
0.0008861473373
0.000886147259
0.0008861475243
0.0008861475587
0.0008861475675
0.0008861475891
0.0008861470798
0.0008861473578
0.0008861476759
0.0008861475267
0.0008861474693
0.000886147451
0.0008861473187
0.00088614738
0.0008861473957
0.0008861474043
0.0008861474036
0.0008861474011
0.0008861473972
0.0008861473903
0.0008861473798
0.0008861473689
0.0008861473676
0.0008861473865
0.0008861474167
0.0008861474448
0.0008861474677
0.0008861474846
0.0008861474937
0.0008861474924
0.0008861474596
0.0008861473622
0.0008861473843
0.000886147368
0.0008861473387
0.0008861473259
0.000886147324
0.0008861473514
0.0008861473689
0.0008861473508
0.0008861471822
0.0008861472052
0.0008861472363
0.0008861472543
0.0008861472608
0.0008861472478
0.0008861472009
0.0008861471344
0.0008861471176
0.0008861471133
0.0008861470159
0.0008861464983
0.0008861464256
0.0008861468866
0.0008861471428
0.0008861473002
0.0008861473775
0.00088614741
0.0008861474018
0.0008861474383
0.0008861472251
0.0008861465069
0.0008861475725
0.0008861475944
0.0008861476103
0.0008861475795
0.0008861473817
0.0008861473004
0.0008861475049
0.0008861474276
0.0008861474275
0.000886147416
0.0008861473215
0.0008861473754
0.0008861473955
0.0008861474027
0.0008861474031
0.0008861474015
0.0008861473982
0.0008861473926
0.0008861473844
0.0008861473752
0.0008861473717
0.0008861473859
0.0008861474142
0.0008861474405
0.0008861474613
0.0008861474764
0.0008861474837
0.0008861474803
0.0008861474514
0.0008861473856
0.0008861473857
0.0008861472547
0.0008861472416
0.0008861472907
0.0008861473248
0.0008861473508
0.0008861473642
0.0008861473671
0.0008861473595
0.0008861473248
0.0008861472905
0.0008861472075
0.0008861472018
0.0008861471575
0.0008861471798
0.0008861472865
0.0008861473709
0.000886147424
0.00088614745
0.0008861474597
0.0008861474999
0.0008861475001
0.0008861475567
0.0008861475918
0.0008861476233
0.000886147657
0.0008861475335
0.0008861474448
0.0008861474862
0.0008861474695
0.0008861474447
0.0008861474304
0.0008861474134
0.0008861473127
0.000886147374
0.0008861473941
0.0008861474009
0.0008861474037
0.0008861474042
0.0008861474027
0.0008861473989
0.0008861473925
0.0008861473844
0.000886147379
0.0008861473873
0.0008861474093
0.0008861474306
0.0008861474468
0.000886147458
0.0008861474618
0.0008861474533
0.0008861474156
0.0008861473546
0.0008861473869
0.0008861473903
0.0008861473965
0.0008861473959
0.0008861473926
0.0008861473862
0.0008861473806
0.0008861473683
0.0008861473724
0.0008861473689
0.0008861473781
0.0008861473896
0.0008861474251
0.0008861474555
0.0008861474756
0.0008861474944
0.0008861475222
0.0008861475413
0.000886147567
0.0008861475992
0.0008861476387
0.0008861476658
0.0008861476473
0.0008861475876
0.0008861475195
0.0008861474833
0.0008861474662
0.0008861474539
0.0008861473883
0.0008861472651
0.000886147372
0.0008861473919
0.0008861474006
0.000886147405
0.0008861474071
0.0008861474072
0.000886147405
0.0008861474003
0.0008861473935
0.0008861473879
0.0008861473941
0.0008861474115
0.0008861474264
0.0008861474359
0.00088614744
0.0008861474357
0.0008861474154
0.0008861473655
0.000886147305
0.0008861473882
0.0008861474071
0.0008861474037
0.000886147398
0.0008861473947
0.0008861473895
0.0008861473872
0.0008861473742
0.0008861473607
0.0008861473549
0.000886147401
0.0008861474363
0.0008861474497
0.0008861474621
0.0008861474721
0.0008861474864
0.0008861475304
0.0008861476071
0.0008861476535
0.0008861476754
0.0008861475988
0.0008861476012
0.0008861475208
0.0008861474934
0.0008861474738
0.0008861474518
0.0008861473921
0.0008861472763
0.000886147367
0.0008861473904
0.0008861474007
0.0008861474064
0.00088614741
0.0008861474116
0.0008861474109
0.0008861474078
0.0008861474023
0.0008861473973
0.0008861474034
0.0008861474185
0.0008861474292
0.0008861474344
0.0008861474336
0.0008861474216
0.0008861473886
0.0008861473292
0.0008861472716
0.0008861473897
0.0008861473319
0.0008861473279
0.0008861472811
0.0008861472072
0.0008861471803
0.0008861473041
0.0008861474205
0.000886147453
0.0008861474581
0.0008861474352
0.0008861473686
0.0008861473626
0.0008861473752
0.0008861474339
0.000886147516
0.000886147564
0.0008861475653
0.0008861474812
0.0008861475096
0.0008861474858
0.0008861474566
0.0008861474145
0.0008861473235
0.0008861473651
0.0008861473903
0.0008861474014
0.0008861474082
0.0008861474131
0.000886147416
0.0008861474168
0.0008861474151
0.0008861474108
0.0008861474064
0.0008861474124
0.0008861474247
0.0008861474321
0.0008861474343
0.00088614743
0.0008861474123
0.0008861473691
0.0008861473103
0.0008861472563
0.0008861473911
0.0008861470908
0.0008861469136
0.0008861471316
0.00088614723
0.000886147447
0.0008861474678
0.0008861474654
0.0008861474171
0.0008861473841
0.0008861473931
0.0008861473148
0.000886147385
0.0008861474655
0.0008861475624
0.0008861474373
0.0008861474636
0.000886147487
0.0008861474946
0.0008861474738
0.0008861474594
0.0008861473937
0.0008861473658
0.0008861473911
0.0008861474025
0.0008861474102
0.0008861474163
0.0008861474206
0.0008861474227
0.0008861474223
0.0008861474191
0.0008861474153
0.0008861474206
0.0008861474298
0.0008861474343
0.000886147434
0.0008861474268
0.000886147404
0.0008861473547
0.0008861473123
0.0008861472536
0.0008861473923
0.0008861474617
0.0008861474708
0.0008861474439
0.0008861473744
0.0008861473965
0.0008861474182
0.0008861474317
0.000886147431
0.0008861474432
0.0008861474532
0.0008861474384
0.0008861474725
0.0008861475028
0.0008861475144
0.0008861474993
0.0008861475042
0.0008861474619
0.0008861473662
0.0008861473918
0.0008861474035
0.0008861474122
0.0008861474198
0.0008861474256
0.000886147429
0.0008861474297
0.0008861474272
0.0008861474237
0.0008861474277
0.0008861474342
0.0008861474365
0.0008861474343
0.0008861474245
0.0008861473977
0.0008861473523
0.0008861473346
0.0008861472569
0.0008861473932
0.0008861473756
0.0008861473234
0.0008861473801
0.0008861474316
0.0008861474549
0.0008861474717
0.0008861474615
0.0008861475004
0.0008861474312
0.0008861474701
0.0008861475098
0.0008861475244
0.00088614752
0.0008861475338
0.0008861475094
0.0008861473608
0.000886147391
0.0008861474037
0.0008861474138
0.0008861474236
0.0008861474313
0.0008861474363
0.0008861474375
0.0008861474345
0.0008861474306
0.0008861474335
0.0008861474381
0.0008861474392
0.0008861474361
0.0008861474249
0.0008861474012
0.0008861473752
0.0008861473664
0.0008861472672
0.0008861473938
0.0008861472299
0.000886147397
0.0008861474923
0.0008861475371
0.0008861475721
0.0008861475885
0.0008861474417
0.0008861474009
0.0008861474353
0.0008861474926
0.0008861475099
0.0008861475241
0.0008861475435
0.0008861475267
0.0008861473403
0.0008861473866
0.0008861474025
0.0008861474151
0.000886147428
0.0008861474384
0.0008861474451
0.0008861474458
0.00088614744
0.0008861474343
0.0008861474357
0.0008861474383
0.0008861474393
0.0008861474385
0.0008861474347
0.0008861474268
0.000886147414
0.0008861473955
0.0008861472974
0.000886147394
0.0008861473349
0.0008861474529
0.0008861475174
0.0008861474301
0.0008861474517
0.0008861475453
0.0008861474137
0.0008861473664
0.0008861474324
0.0008861474876
0.0008861474958
0.0008861475131
0.0008861475341
0.0008861475137
0.0008861473034
0.0008861473761
0.0008861473991
0.000886147416
0.0008861474335
0.0008861474476
0.000886147456
0.0008861474533
0.0008861474415
0.0008861474318
0.0008861474291
0.0008861474256
0.0008861474264
0.0008861474309
0.000886147434
0.0008861474319
0.0008861474234
0.0008861474084
0.0008861473492
0.0008861473937
0.0008861474987
0.0008861475317
0.0008861474897
0.0008861474318
0.0008861474958
0.0008861474012
0.0008861473745
0.0008861474897
0.0008861474781
0.0008861474617
0.0008861474824
0.0008861474771
0.0008861474103
0.0008861472703
0.000886147365
0.0008861473946
0.0008861474165
0.0008861474404
0.0008861474597
0.0008861474691
0.0008861474576
0.0008861474375
0.000886147422
0.0008861474162
0.0008861474086
0.0008861474043
0.0008861474054
0.0008861474081
0.0008861474073
0.000886147401
0.0008861473905
0.0008861473764
0.0008861473922
0.000886147479
0.0008861475128
0.0008861475428
0.0008861475234
0.0008861474419
0.0008861474093
0.0008861474638
0.0008861475921
0.0008861474266
0.0008861474283
0.00088614738
0.00088614715
0.000886146766
0.0008861472652
0.0008861473595
0.0008861473897
0.0008861474161
0.0008861474484
0.0008861474752
0.0008861474833
0.0008861474564
0.0008861474288
0.0008861474116
0.0008861474067
0.0008861473956
0.0008861473843
0.0008861473773
0.0008861473743
0.0008861473726
0.0008861473706
0.0008861473672
0.0008861473635
0.0008861473882
0.0008861474715
0.0008861474962
0.0008861475085
0.0008861474727
0.0008861474181
0.0008861474029
0.000886147393
0.0008861474908
0.0008861473924
0.0008861475203
0.000886147321
0.0008861466268
0.0008861451628
0.0008861472757
0.0008861473563
0.0008861473822
0.0008861474112
0.0008861474542
0.0008861474921
0.0008861474944
0.0008861474491
0.000886147419
0.0008861473985
0.0008861473839
0.0008861473761
0.0008861473733
0.0008861473732
0.0008861473736
0.0008861473736
0.0008861473728
0.0008861473712
0.0008861473694
0.0008861473842
0.0008861474951
0.0008861475056
0.0008861474957
0.0008861474177
0.0008861473899
0.0008861473538
0.0008861474215
0.0008861474198
0.0008861474075
0.0008861473565
0.0008861472767
0.0008861472766
0.0008861473308
0.0008861473396
0.0008861473513
0.0008861473724
0.0008861474002
0.0008861474232
0.0008861474386
0.0008861474309
0.0008861474195
0.000886147408
0.0008861473938
0.0008861473778
0.0008861473695
0.0008861473692
0.0008861473706
0.0008861473718
0.0008861473723
0.0008861473721
0.0008861473714
0.0008861473792
0.0008861475023
0.0008861474961
0.0008861474456
0.0008861474219
0.0008861473826
0.0008861473652
0.0008861473884
0.0008861473992
0.000886147377
0.0008861473546
0.0008861473514
0.0008861473666
0.0008861473324
0.0008861473415
0.000886147372
0.0008861473975
0.0008861474163
0.0008861474287
0.0008861474272
0.0008861474186
0.0008861474079
0.0008861473934
0.0008861473712
0.0008861473511
0.0008861473491
0.0008861473549
0.0008861473614
0.0008861473664
0.0008861473696
0.0008861473708
0.0008861473796
0.0008861474775
0.0008861474889
0.0008861474224
0.0008861474139
0.0008861473821
0.0008861474704
0.0008861473866
0.0008861474166
0.0008861475172
0.0008861475363
0.0008861473959
0.0008861474065
0.0008861473948
0.0008861473712
0.0008861473813
0.0008861474042
0.000886147419
0.0008861474272
0.0008861474288
0.0008861474267
0.0008861474122
0.0008861474006
0.0008861473819
0.0008861473472
0.0008861473122
0.0008861473122
0.0008861473345
0.0008861473516
0.0008861473631
0.0008861473679
0.00088614738
0.0008861472338
0.0008861474399
0.000886147211
0.0008861266896
0.0008861473872
0.0008861474807
0.000886147392
0.0008861473996
0.0008861474508
0.0008861474344
0.0008861473993
0.000886147404
0.0008861473985
0.000886147407
0.0008861474226
0.000886147434
0.0008861474404
0.0008861474438
0.0008861474441
0.0008861474383
0.0008861474116
0.0008861474036
0.0008861473929
0.0008861473698
0.0008861473275
0.0008861472932
0.0008861473166
0.0008861473396
0.0008861473561
0.0008861473617
0.0008861473782
0.00088614744
0.0008861474041
0.0008861474247
0.0008861474641
0.0008861473966
0.0008861473943
0.0008861473953
0.0008861473889
0.0008861473773
0.0008861473803
0.0008861474083
0.0008861474401
0.000886147441
0.0008861474037
0.0008861473321
0.0008861474062
0.0008861474056
0.000886147401
0.0008861473896
0.0008861473655
0.0008861473269
0.0008861473287
0.000886147343
0.0008861473566
0.0008861473575
0.0008861473808
0.0008861474063
0.0008861474095
0.0008861474447
0.0008861475004
0.0008861473828
0.000886147371
0.0008861473974
0.0008861473962
0.0008861473896
0.000886147377
0.0008861473588
0.0008861473354
0.0008861472889
0.0008861472648
0.0008861472416
0.0008861474083
0.0008861474081
0.0008861474061
0.0008861474014
0.0008861473908
0.0008861473657
0.0008861473527
0.0008861473536
0.0008861473605
0.0008861473574
0.0008861473825
)
;

boundaryField
{
    walls
    {
        type            zeroGradient;
    }
    wallFilmFace_top
    {
        type            zeroGradient;
    }
    region0_to_wallFilmRegion_wallFilmFace
    {
        type            zeroGradient;
    }
    mirrorFace_top
    {
        type            zeroGradient;
    }
    region0_to_wallFilmRegion_mirrorFace
    {
        type            zeroGradient;
    }
    procBoundary0to1
    {
        type            processor;
        value           nonuniform List<scalar> 
52
(
0.0008861473671
0.0008861473403
0.000886147311
0.0008861472811
0.0008861472957
0.0008861473097
0.0008861472891
0.0008861472891
0.0008861473943
0.0008861472859
0.0008861473389
0.0008861473715
0.0008861473715
0.0008861474071
0.0008861474087
0.0008861474087
0.000886147404
0.0008861473994
0.0008861473951
0.0008861473645
0.0008861473645
0.000886147236
0.0008861472502
0.0008861472502
0.0008861470634
0.0008861468365
0.0008861472906
0.0008861472676
0.0008861472676
0.0008861474599
0.0008861474594
0.0008861474594
0.0008861472179
0.0008861472179
0.000886147413
0.0008861474706
0.0008861474706
0.0008861474545
0.0008861474183
0.000886147468
0.000886147468
0.000886146864
0.000886146864
0.0008861454865
0.0008861471471
0.0008861462197
0.000886147092
0.0008861004072
0.0008861043062
0.0008861473989
0.0008861473989
0.0008861473818
)
;
    }
    procBoundary0to2
    {
        type            processor;
        value           nonuniform List<scalar> 
26
(
0.0008861473218
0.000886147431
0.000886147443
0.0008861474357
0.0008861473357
0.0008861472275
0.0008861473986
0.0008861473993
0.0008861473954
0.0008861473877
0.0008861473745
0.0008861473518
0.0008861472964
0.0008861473371
0.0008861473312
0.0008861474102
0.0008861474101
0.0008861474094
0.0008861474079
0.0008861474022
0.0008861473857
0.000886147371
0.0008861473634
0.0008861473619
0.0008861473681
0.0008861473827
)
;
    }
}


// ************************************************************************* //
