/*--------------------------------*- C++ -*----------------------------------*\
  =========                 |
  \\      /  F ield         | OpenFOAM: The Open Source CFD Toolbox
   \\    /   O peration     | Website:  https://openfoam.org
    \\  /    A nd           | Version:  8
     \\/     M anipulation  |
\*---------------------------------------------------------------------------*/
FoamFile
{
    version     2.0;
    format      ascii;
    class       volScalarField;
    location    "0.9/wallFilmRegion";
    object      sigma;
}
// * * * * * * * * * * * * * * * * * * * * * * * * * * * * * * * * * * * * * //

dimensions      [1 0 -2 0 0 0 0];

internalField   nonuniform List<scalar> 
1369
(
0.07244713444
0.07244713435
0.07244713433
0.07244713435
0.07244713439
0.0724471344
0.07244713442
0.07244713444
0.07244713447
0.0724471345
0.07244713452
0.07244713452
0.07244713452
0.0724471345
0.07244713447
0.07244713443
0.0724471344
0.0724471344
0.07244713442
0.07244713443
0.07244713433
0.07244713437
0.0724471344
0.0724471344
0.07244713428
0.0724471342
0.07244713422
0.07244713429
0.07244713442
0.07244713455
0.07244713462
0.07244713468
0.07244713474
0.07244713484
0.07244713481
0.07244713521
0.07244713499
0.07244713488
0.07244713487
0.0724471349
0.07244713492
0.07244713489
0.07244713484
0.0724471348
0.07244713479
0.07244713481
0.07244713484
0.07244713485
0.07244713483
0.07244713479
0.07244713474
0.07244713467
0.07244713461
0.07244713463
0.07244713496
0.07244713519
0.07244713519
0.07244713484
0.07244713456
0.07244713444
0.07244713444
0.07244713442
0.07244713436
0.07244713431
0.07244713428
0.07244713428
0.07244713428
0.07244713405
0.07244713378
0.0724471337
0.07244713362
0.07244713361
0.07244713375
0.07244713399
0.07244713425
0.07244713448
0.07244713463
0.07244713471
0.07244713474
0.07244713471
0.07244713342
0.07244713337
0.07244713373
0.07244713414
0.07244713426
0.07244713429
0.0724471343
0.07244713431
0.07244713426
0.07244713421
0.07244713435
0.07244713449
0.07244713443
0.07244713439
0.07244713457
0.07244713483
0.07244713493
0.07244713485
0.07244713483
0.0724471348
0.07244713482
0.07244713481
0.07244713482
0.07244713483
0.07244713486
0.07244713492
0.07244713498
0.07244713501
0.07244713497
0.07244713486
0.07244713469
0.07244713447
0.07244713425
0.07244713422
0.07244713655
0.0724471365
0.07244713565
0.07244713479
0.07244713446
0.07244713441
0.07244713433
0.07244713439
0.07244713438
0.07244713435
0.07244713424
0.07244713422
0.0724471343
0.07244713389
0.07244713354
0.07244713345
0.07244713348
0.07244713363
0.0724471339
0.0724471342
0.07244713445
0.07244713461
0.0724471347
0.07244713475
0.07244713476
0.07244713474
0.0724471337
0.07244713353
0.07244713366
0.07244713414
0.07244713427
0.07244713428
0.07244713426
0.07244713422
0.07244713405
0.0724471337
0.07244713391
0.07244713432
0.07244713433
0.07244713438
0.07244713571
0.07244713497
0.07244713514
0.07244713487
0.07244713484
0.07244713483
0.07244713483
0.07244713479
0.07244713481
0.07244713482
0.07244713484
0.07244713488
0.07244713491
0.07244713491
0.07244713487
0.07244713478
0.07244713464
0.07244713443
0.07244713418
0.07244713412
0.07244713685
0.07244713611
0.07244713603
0.07244713453
0.07244713439
0.07244713437
0.0724471343
0.07244713438
0.07244713438
0.07244713436
0.07244713433
0.0724471343
0.07244713432
0.07244713371
0.07244713333
0.07244713333
0.07244713353
0.07244713383
0.07244713415
0.07244713441
0.07244713458
0.07244713468
0.07244713474
0.07244713476
0.07244713478
0.07244713477
0.07244713404
0.07244713382
0.07244713344
0.07244713403
0.07244713427
0.07244713428
0.07244713425
0.07244713422
0.07244713408
0.07244713354
0.07244713379
0.07244713472
0.07244713508
0.07244713593
0.07244713636
0.07244713541
0.0724471356
0.07244713494
0.07244713487
0.07244713487
0.07244713488
0.07244713477
0.0724471348
0.07244713482
0.07244713483
0.07244713484
0.07244713484
0.07244713482
0.07244713477
0.07244713469
0.07244713458
0.07244713441
0.07244713417
0.07244713405
0.07244713683
0.07244713495
0.07244713482
0.07244713445
0.07244713437
0.07244713433
0.07244713431
0.07244713438
0.07244713437
0.07244713436
0.07244713433
0.07244713431
0.07244713432
0.07244713352
0.07244713329
0.07244713341
0.07244713368
0.072447134
0.0724471343
0.07244713452
0.07244713464
0.07244713471
0.07244713475
0.07244713477
0.07244713478
0.07244713478
0.07244713427
0.07244713415
0.0724471334
0.07244713378
0.07244713434
0.07244713435
0.07244713429
0.07244713428
0.0724471342
0.07244713385
0.07244713391
0.07244713557
0.07244713561
0.07244713634
0.07244713692
0.0724471359
0.07244713607
0.07244713502
0.07244713492
0.07244713492
0.07244713493
0.07244713478
0.0724471348
0.07244713482
0.07244713482
0.07244713481
0.07244713479
0.07244713476
0.07244713471
0.07244713464
0.07244713455
0.07244713442
0.07244713424
0.07244713411
0.07244713534
0.07244713468
0.07244713443
0.07244713439
0.07244713437
0.07244713437
0.07244713436
0.07244713461
0.07244713443
0.07244713435
0.07244713433
0.07244713439
0.07244713421
0.07244713336
0.0724471333
0.0724471335
0.07244713379
0.0724471341
0.07244713437
0.07244713456
0.07244713466
0.07244713472
0.07244713475
0.07244713477
0.07244713479
0.07244713479
0.07244713432
0.07244713431
0.07244713369
0.07244713263
0.07244713428
0.07244713458
0.07244713432
0.07244713434
0.07244713436
0.07244713425
0.07244713406
0.0724471374
0.0724471356
0.07244713595
0.0724471375
0.07244713814
0.07244713648
0.0724471352
0.07244713499
0.07244713496
0.07244713498
0.07244713485
0.07244713483
0.07244713483
0.07244713481
0.07244713479
0.07244713476
0.07244713472
0.07244713467
0.0724471346
0.07244713453
0.07244713445
0.07244713435
0.07244713428
0.0724471351
0.07244713494
0.07244713461
0.07244713451
0.07244713448
0.07244713445
0.07244713441
0.07244713463
0.07244713466
0.07244713465
0.0724471345
0.0724471346
0.07244713422
0.07244713332
0.07244713333
0.07244713354
0.07244713379
0.07244713407
0.07244713433
0.07244713451
0.07244713462
0.07244713469
0.07244713473
0.07244713476
0.07244713478
0.07244713478
0.07244713415
0.07244713426
0.07244713384
0.07244713175
0.0724471335
0.07244713388
0.07244713397
0.07244713508
0.0724471351
0.07244713478
0.07244713429
0.07244713556
0.07244713648
0.07244713649
0.0724471375
0.07244713777
0.07244713708
0.07244713679
0.0724471363
0.07244713509
0.07244713503
0.072447135
0.07244713493
0.07244713487
0.0724471348
0.07244713475
0.0724471347
0.07244713465
0.07244713459
0.07244713453
0.0724471345
0.07244713449
0.07244713451
0.07244713458
0.0724471348
0.07244713505
0.07244713461
0.07244713447
0.07244713462
0.07244713449
0.07244713441
0.07244713453
0.07244713464
0.07244713469
0.0724471347
0.07244713462
0.0724471343
0.0724471333
0.07244713334
0.07244713347
0.07244713362
0.0724471338
0.072447134
0.0724471342
0.07244713439
0.07244713453
0.07244713462
0.07244713468
0.07244713472
0.07244713474
0.07244713321
0.0724471337
0.07244713341
0.07244713161
0.07244713308
0.07244713384
0.07244713405
0.07244713524
0.07244713538
0.0724471351
0.07244713462
0.07244713523
0.07244713654
0.0724471377
0.07244713771
0.07244713785
0.07244713706
0.07244713683
0.07244713649
0.07244713529
0.07244713492
0.07244713496
0.07244713488
0.07244713478
0.0724471347
0.07244713467
0.07244713463
0.07244713456
0.07244713449
0.07244713445
0.07244713448
0.07244713459
0.07244713474
0.07244713493
0.07244713515
0.07244713509
0.07244713529
0.072447135
0.07244713468
0.07244713451
0.0724471344
0.07244713433
0.07244713454
0.07244713465
0.07244713469
0.07244713464
0.07244713434
0.07244713327
0.07244713331
0.07244713335
0.07244713327
0.07244713299
0.07244713229
0.07244713076
0.07244712863
0.0724471274
0.07244712698
0.07244712649
0.07244712569
0.07244712494
0.07244712541
0.07244712844
0.07244713091
0.07244713255
0.07244713364
0.07244713418
0.07244713423
0.07244713499
0.07244713499
0.07244713501
0.07244713505
0.07244713519
0.07244713628
0.07244713781
0.07244713782
0.07244713776
0.072447137
0.0724471368
0.07244713648
0.07244713501
0.07244713474
0.07244713489
0.07244713484
0.07244713475
0.0724471347
0.07244713466
0.07244713459
0.0724471345
0.0724471344
0.07244713438
0.07244713452
0.07244713474
0.07244713498
0.07244713522
0.07244713543
0.07244713559
0.07244713561
0.07244713518
0.07244713437
0.07244713452
0.0724471344
0.07244713414
0.07244713436
0.07244713454
0.07244713464
0.07244713463
0.07244713433
0.07244713322
0.07244713329
0.07244713333
0.07244713326
0.072447133
0.07244713231
0.07244713067
0.07244712837
0.07244712739
0.07244712694
0.07244712595
0.07244712523
0.07244712653
0.07244712618
0.07244712954
0.07244713205
0.07244713346
0.07244713418
0.07244713446
0.07244713432
0.07244713423
0.07244713396
0.07244713512
0.07244713571
0.07244713582
0.07244713635
0.07244713384
0.07244713743
0.07244713771
0.07244713698
0.07244713678
0.07244713642
0.07244713442
0.07244713461
0.07244713468
0.07244713474
0.07244713476
0.07244713474
0.0724471347
0.07244713463
0.07244713452
0.07244713439
0.07244713438
0.07244713456
0.07244713484
0.07244713513
0.07244713537
0.07244713557
0.07244713569
0.07244713569
0.0724471353
0.07244713431
0.07244713454
0.07244713439
0.07244713409
0.07244713413
0.0724471343
0.07244713452
0.07244713457
0.0724471343
0.07244713301
0.07244713311
0.07244713314
0.07244713308
0.07244713285
0.07244713219
0.07244713066
0.07244712919
0.07244712932
0.07244712919
0.07244712764
0.07244712256
0.0724471227
0.07244712705
0.07244713057
0.07244713294
0.07244713408
0.07244713458
0.07244713465
0.07244713437
0.07244713407
0.07244713325
0.07244713601
0.07244713636
0.07244713645
0.07244713668
0.07244713139
0.07244713428
0.07244713758
0.07244713603
0.07244713544
0.07244713525
0.07244713387
0.07244713451
0.07244713467
0.07244713476
0.07244713475
0.07244713473
0.07244713469
0.07244713462
0.07244713451
0.07244713439
0.07244713438
0.07244713458
0.07244713489
0.07244713518
0.07244713542
0.07244713559
0.07244713569
0.07244713568
0.07244713534
0.07244713432
0.07244713455
0.07244713438
0.07244713408
0.07244713395
0.07244713393
0.07244713421
0.07244713439
0.0724471342
0.07244713245
0.07244713269
0.07244713302
0.0724471332
0.07244713327
0.07244713314
0.07244713265
0.07244713196
0.07244713178
0.07244713174
0.07244713073
0.07244712535
0.0724471246
0.07244712939
0.07244713205
0.07244713368
0.07244713448
0.07244713482
0.07244713474
0.07244713511
0.0724471329
0.07244712544
0.07244713651
0.07244713674
0.0724471369
0.07244713658
0.07244713453
0.07244713368
0.07244713581
0.072447135
0.072447135
0.07244713488
0.0724471339
0.07244713446
0.07244713467
0.07244713474
0.07244713475
0.07244713473
0.0724471347
0.07244713464
0.07244713455
0.07244713446
0.07244713442
0.07244713457
0.07244713486
0.07244713514
0.07244713535
0.07244713551
0.07244713558
0.07244713555
0.07244713525
0.07244713457
0.07244713457
0.07244713321
0.07244713307
0.07244713358
0.07244713394
0.07244713421
0.07244713434
0.07244713437
0.0724471343
0.07244713393
0.07244713358
0.07244713272
0.07244713266
0.0724471322
0.07244713243
0.07244713354
0.07244713441
0.07244713496
0.07244713524
0.07244713534
0.07244713575
0.07244713576
0.07244713634
0.07244713671
0.07244713703
0.07244713738
0.0724471361
0.07244713518
0.07244713561
0.07244713544
0.07244713518
0.07244713503
0.07244713486
0.07244713381
0.07244713445
0.07244713465
0.07244713473
0.07244713475
0.07244713476
0.07244713474
0.0724471347
0.07244713464
0.07244713455
0.0724471345
0.07244713458
0.07244713481
0.07244713503
0.0724471352
0.07244713532
0.07244713536
0.07244713527
0.07244713488
0.07244713425
0.07244713458
0.07244713462
0.07244713468
0.07244713467
0.07244713464
0.07244713457
0.07244713451
0.07244713439
0.07244713443
0.07244713439
0.07244713449
0.07244713461
0.07244713498
0.07244713529
0.0724471355
0.0724471357
0.07244713599
0.07244713618
0.07244713645
0.07244713678
0.07244713719
0.07244713748
0.07244713728
0.07244713666
0.07244713596
0.07244713558
0.0724471354
0.07244713528
0.07244713459
0.07244713332
0.07244713443
0.07244713463
0.07244713472
0.07244713477
0.07244713479
0.07244713479
0.07244713477
0.07244713472
0.07244713465
0.07244713459
0.07244713465
0.07244713484
0.07244713499
0.07244713509
0.07244713513
0.07244713509
0.07244713488
0.07244713436
0.07244713373
0.07244713459
0.07244713479
0.07244713475
0.0724471347
0.07244713466
0.07244713461
0.07244713458
0.07244713445
0.07244713431
0.07244713425
0.07244713473
0.07244713509
0.07244713523
0.07244713536
0.07244713546
0.07244713561
0.07244713607
0.07244713687
0.07244713735
0.07244713758
0.07244713678
0.07244713681
0.07244713597
0.07244713569
0.07244713548
0.07244713525
0.07244713463
0.07244713343
0.07244713437
0.07244713462
0.07244713472
0.07244713478
0.07244713482
0.07244713484
0.07244713483
0.0724471348
0.07244713474
0.07244713469
0.07244713475
0.07244713491
0.07244713502
0.07244713507
0.07244713506
0.07244713494
0.0724471346
0.07244713398
0.07244713338
0.07244713461
0.07244713401
0.07244713397
0.07244713348
0.07244713271
0.07244713244
0.07244713372
0.07244713493
0.07244713527
0.07244713532
0.07244713508
0.07244713439
0.07244713433
0.07244713446
0.07244713507
0.07244713592
0.07244713642
0.07244713643
0.07244713556
0.07244713585
0.07244713561
0.0724471353
0.07244713487
0.07244713392
0.07244713435
0.07244713462
0.07244713473
0.0724471348
0.07244713485
0.07244713488
0.07244713489
0.07244713487
0.07244713483
0.07244713478
0.07244713485
0.07244713497
0.07244713505
0.07244713507
0.07244713503
0.07244713484
0.0724471344
0.07244713378
0.07244713322
0.07244713462
0.07244713151
0.07244712967
0.07244713193
0.07244713295
0.0724471352
0.07244713542
0.0724471354
0.07244713489
0.07244713455
0.07244713464
0.07244713383
0.07244713456
0.0724471354
0.0724471364
0.0724471351
0.07244713538
0.07244713562
0.0724471357
0.07244713548
0.07244713533
0.07244713465
0.07244713436
0.07244713462
0.07244713474
0.07244713482
0.07244713489
0.07244713493
0.07244713495
0.07244713495
0.07244713491
0.07244713487
0.07244713493
0.07244713503
0.07244713507
0.07244713507
0.07244713499
0.07244713476
0.07244713425
0.07244713381
0.0724471332
0.07244713464
0.07244713536
0.07244713545
0.07244713517
0.07244713445
0.07244713468
0.07244713491
0.07244713504
0.07244713504
0.07244713516
0.07244713527
0.07244713511
0.07244713547
0.07244713578
0.0724471359
0.07244713575
0.0724471358
0.07244713536
0.07244713437
0.07244713463
0.07244713475
0.07244713484
0.07244713492
0.07244713498
0.07244713502
0.07244713502
0.072447135
0.07244713496
0.072447135
0.07244713507
0.0724471351
0.07244713507
0.07244713497
0.07244713469
0.07244713422
0.07244713404
0.07244713323
0.07244713465
0.07244713446
0.07244713392
0.07244713451
0.07244713504
0.07244713529
0.07244713546
0.07244713535
0.07244713576
0.07244713504
0.07244713544
0.07244713586
0.07244713601
0.07244713596
0.07244713611
0.07244713585
0.07244713431
0.07244713462
0.07244713475
0.07244713486
0.07244713496
0.07244713504
0.07244713509
0.07244713511
0.07244713507
0.07244713503
0.07244713506
0.07244713511
0.07244713512
0.07244713509
0.07244713497
0.07244713473
0.07244713446
0.07244713437
0.07244713334
0.07244713465
0.07244713295
0.07244713469
0.07244713567
0.07244713614
0.0724471365
0.07244713667
0.07244713515
0.07244713473
0.07244713508
0.07244713568
0.07244713586
0.072447136
0.07244713621
0.07244713603
0.0724471341
0.07244713458
0.07244713474
0.07244713487
0.07244713501
0.07244713511
0.07244713518
0.07244713519
0.07244713513
0.07244713507
0.07244713509
0.07244713511
0.07244713512
0.07244713512
0.07244713508
0.07244713499
0.07244713486
0.07244713467
0.07244713365
0.07244713465
0.07244713404
0.07244713527
0.07244713594
0.07244713503
0.07244713525
0.07244713623
0.07244713486
0.07244713437
0.07244713505
0.07244713563
0.07244713571
0.07244713589
0.07244713611
0.0724471359
0.07244713371
0.07244713447
0.07244713471
0.07244713488
0.07244713506
0.07244713521
0.0724471353
0.07244713527
0.07244713515
0.07244713505
0.07244713502
0.07244713498
0.07244713499
0.07244713504
0.07244713507
0.07244713505
0.07244713496
0.0724471348
0.07244713419
0.07244713465
0.07244713574
0.07244713608
0.07244713565
0.07244713505
0.07244713571
0.07244713473
0.07244713445
0.07244713565
0.07244713553
0.07244713536
0.07244713557
0.07244713552
0.07244713482
0.07244713337
0.07244713435
0.07244713466
0.07244713489
0.07244713514
0.07244713534
0.07244713543
0.07244713531
0.07244713511
0.07244713495
0.07244713488
0.07244713481
0.07244713476
0.07244713477
0.0724471348
0.07244713479
0.07244713473
0.07244713462
0.07244713447
0.07244713464
0.07244713554
0.07244713589
0.0724471362
0.072447136
0.07244713515
0.07244713481
0.07244713538
0.07244713671
0.07244713499
0.07244713501
0.07244713451
0.07244713212
0.07244712813
0.07244713332
0.0724471343
0.07244713461
0.07244713488
0.07244713522
0.0724471355
0.07244713558
0.0724471353
0.07244713502
0.07244713484
0.07244713479
0.07244713467
0.07244713455
0.07244713448
0.07244713445
0.07244713443
0.07244713441
0.07244713438
0.07244713434
0.07244713459
0.07244713546
0.07244713572
0.07244713584
0.07244713547
0.0724471349
0.07244713475
0.07244713464
0.07244713566
0.07244713464
0.07244713597
0.0724471339
0.07244712669
0.07244711149
0.07244713343
0.07244713426
0.07244713453
0.07244713483
0.07244713528
0.07244713567
0.0724471357
0.07244713523
0.07244713491
0.0724471347
0.07244713455
0.07244713447
0.07244713444
0.07244713444
0.07244713444
0.07244713444
0.07244713443
0.07244713442
0.0724471344
0.07244713455
0.0724471357
0.07244713581
0.07244713571
0.0724471349
0.07244713461
0.07244713424
0.07244713494
0.07244713492
0.07244713479
0.07244713426
0.07244713344
0.07244713343
0.072447134
0.07244713409
0.07244713421
0.07244713443
0.07244713472
0.07244713496
0.07244713512
0.07244713504
0.07244713492
0.0724471348
0.07244713465
0.07244713449
0.0724471344
0.0724471344
0.07244713441
0.07244713442
0.07244713443
0.07244713443
0.07244713442
0.0724471345
0.07244713578
0.07244713571
0.07244713519
0.07244713494
0.07244713454
0.07244713435
0.0724471346
0.07244713471
0.07244713448
0.07244713424
0.07244713421
0.07244713437
0.07244713401
0.07244713411
0.07244713443
0.07244713469
0.07244713489
0.07244713501
0.072447135
0.07244713491
0.0724471348
0.07244713465
0.07244713442
0.07244713421
0.07244713419
0.07244713425
0.07244713432
0.07244713437
0.0724471344
0.07244713441
0.0724471345
0.07244713552
0.07244713564
0.07244713495
0.07244713486
0.07244713453
0.07244713545
0.07244713458
0.07244713489
0.07244713593
0.07244713613
0.07244713467
0.07244713478
0.07244713466
0.07244713442
0.07244713452
0.07244713476
0.07244713491
0.072447135
0.07244713502
0.07244713499
0.07244713484
0.07244713472
0.07244713453
0.07244713417
0.0724471338
0.0724471338
0.07244713404
0.07244713421
0.07244713433
0.07244713438
0.07244713451
0.07244713299
0.07244713513
0.07244713275
0.07244691967
0.07244713458
0.07244713555
0.07244713463
0.07244713471
0.07244713524
0.07244713507
0.07244713471
0.07244713476
0.0724471347
0.07244713479
0.07244713495
0.07244713507
0.07244713514
0.07244713517
0.07244713517
0.07244713511
0.07244713484
0.07244713475
0.07244713464
0.0724471344
0.07244713396
0.07244713361
0.07244713385
0.07244713409
0.07244713426
0.07244713432
0.07244713449
0.07244713513
0.07244713476
0.07244713497
0.07244713538
0.07244713468
0.07244713466
0.07244713467
0.0724471346
0.07244713448
0.07244713451
0.0724471348
0.07244713513
0.07244713514
0.07244713475
0.07244713401
0.07244713478
0.07244713477
0.07244713473
0.07244713461
0.07244713436
0.07244713396
0.07244713398
0.07244713412
0.07244713427
0.07244713428
0.07244713452
0.07244713478
0.07244713481
0.07244713518
0.07244713576
0.07244713454
0.07244713442
0.07244713469
0.07244713468
0.07244713461
0.07244713448
0.07244713429
0.07244713405
0.07244713356
0.07244713331
0.07244713307
0.0724471348
0.0724471348
0.07244713478
0.07244713473
0.07244713462
0.07244713436
0.07244713423
0.07244713423
0.07244713431
0.07244713427
0.07244713453
)
;

boundaryField
{
    walls
    {
        type            zeroGradient;
    }
    wallFilmFace_top
    {
        type            zeroGradient;
    }
    region0_to_wallFilmRegion_wallFilmFace
    {
        type            zeroGradient;
    }
    mirrorFace_top
    {
        type            zeroGradient;
    }
    region0_to_wallFilmRegion_mirrorFace
    {
        type            zeroGradient;
    }
    procBoundary0to1
    {
        type            processor;
        value           nonuniform List<scalar> 
52
(
0.07244713437
0.0724471341
0.07244713379
0.07244713348
0.07244713363
0.07244713378
0.07244713356
0.07244713356
0.07244713466
0.07244713353
0.07244713408
0.07244713442
0.07244713442
0.07244713479
0.07244713481
0.07244713481
0.07244713476
0.07244713471
0.07244713467
0.07244713435
0.07244713435
0.07244713301
0.07244713316
0.07244713316
0.07244713122
0.07244712886
0.07244713358
0.07244713334
0.07244713334
0.07244713534
0.07244713533
0.07244713533
0.07244713283
0.07244713283
0.07244713485
0.07244713545
0.07244713545
0.07244713528
0.07244713491
0.07244713542
0.07244713542
0.07244712915
0.07244712915
0.07244711485
0.07244713209
0.07244712246
0.07244713152
0.07244664675
0.07244668724
0.0724471347
0.0724471347
0.07244713453
)
;
    }
    procBoundary0to2
    {
        type            processor;
        value           nonuniform List<scalar> 
26
(
0.0724471339
0.07244713504
0.07244713516
0.07244713509
0.07244713405
0.07244713292
0.0724471347
0.07244713471
0.07244713467
0.07244713459
0.07244713445
0.07244713422
0.07244713364
0.07244713406
0.072447134
0.07244713482
0.07244713482
0.07244713481
0.0724471348
0.07244713474
0.07244713457
0.07244713442
0.07244713434
0.07244713432
0.07244713439
0.07244713454
)
;
    }
}


// ************************************************************************* //
