/*--------------------------------*- C++ -*----------------------------------*\
  =========                 |
  \\      /  F ield         | OpenFOAM: The Open Source CFD Toolbox
   \\    /   O peration     | Website:  https://openfoam.org
    \\  /    A nd           | Version:  8
     \\/     M anipulation  |
\*---------------------------------------------------------------------------*/
FoamFile
{
    version     2.0;
    format      ascii;
    class       volScalarField;
    location    "0.8/wallFilmRegion";
    object      alpha;
}
// * * * * * * * * * * * * * * * * * * * * * * * * * * * * * * * * * * * * * //

dimensions      [0 0 0 0 0 0 0];

internalField   nonuniform List<scalar> 
1342
(
0.1997239561
0.2899395887
0.1702673112
0.06693656111
0.003542664811
0.03830606357
0.100810577
0.01878779998
0.01923921932
0.03856472109
0.07215322253
0.00242806551
0.002288043998
0.006209409501
0.01767066298
0.03714126583
0.06355856671
0.9200410263
0.03654256194
0.0216403936
0.004818315343
0.0002081436773
2.937890923e-08
5.895524483e-06
9.205357731e-05
0.009789058005
0.02824006613
0.06559314499
0.09622896937
0.0003185959159
0.0004933621883
0.002302526185
0.005049371647
0.007109163642
0.007124795309
0.004483671866
0.02055824618
0.01382379698
0.01572665239
0.0005787918029
6.745436246e-07
2.12503363e-09
1.224240266e-05
0.1129356556
0.1624426924
0.0001102561844
0.0006904692858
0.001973118262
0.00268628187
0.002357506199
0.001440801734
0.05211769984
0.05336945744
0.04745932285
0.03447089768
0.02007118999
0.01133044105
0.01281263605
0.01009144807
0.005095241705
0.02370965943
3.600319094e-10
4.282288283e-10
3.262737424e-09
0.01588129337
0.02746718177
0.04019627231
0.05209541149
0.05800283465
0.05323841065
0.04472813669
0.02468305212
0.004735300699
0.0890591676
4.096229616e-11
5.211235278e-11
0.03309226543
0.05003422613
0.04306783367
0.04076043967
0.04559166473
0.05712173913
0.07664519624
0.1218598399
0.1194148773
0.1459046419
0.0628100602
2.745210242e-13
3.905325515e-13
0.1559177347
0.248809811
2.587694849e-11
1.393158501e-12
6.892390229e-13
2.6898045e-13
3.084188001e-13
7.732619844e-13
1.677786099e-12
0.0432582165
0.2366723016
0.04311893975
0.04029391933
0.03731655368
0.03650899359
0.2715681531
0.1099702707
0.01106093254
0.004185927917
0.08202401582
0.00128167334
0.0003336300329
0.01022902395
0.007205752834
0.00790845002
0.007982872423
0.008071424159
0.007587422031
0.006607073665
0.007001118612
0.005890111594
0.007251870281
0.004069149857
0.003917573407
0.01124618101
0.005496023609
0.006819590147
0.01246859697
0.007922930983
0.008767149688
0.0125779994
0.009323360635
0.009914911737
0.01360706216
0.01049093276
0.01089491854
0.01949131557
0.01034516524
0.007725334382
0.1694207109
0.01750997494
0.04103124262
0.002706694061
0.006400743693
0.001926662034
0.001963451575
0.001510854031
0.001051827335
0.00571315354
0.0009998432997
0.001338254544
0.006137518326
0.000571093645
0.0002430083884
0.005634854764
0.000478931804
0.0009181347574
0.007373357042
0.001599722663
0.002381491208
0.009297361697
0.003259613113
0.003917213662
0.01086400245
0.004512283026
0.005397358483
0.01203694764
0.005723799062
0.006329895261
0.00938096487
0.007414254868
0.003877398171
0.01268937968
0.002320263821
0.002449458218
0.09328503018
0.01008536881
0.0300269629
0.9098899289
0.1102403284
0.4071862263
0.00277343096
0.01608393051
0.003457928833
0.0009390808651
0.001307345557
0.0008946914484
0.0008079816029
0.0007623684793
0.0006922896842
0.000909313899
0.0006764912397
0.001091158977
1.901079649e-07
0.002105089962
9.921730799e-05
5.210275236e-06
5.715176654e-13
2.363597633e-13
3.025984324e-05
2.609535679e-12
1.011109917e-11
9.479936727e-05
3.371739648e-11
1.693727036e-10
0.0001545375711
2.076287204e-10
5.262984754e-10
2.327838511e-05
6.197675897e-10
2.008369323e-12
8.627977503e-05
1.410303223e-09
2.844045199e-09
0.008050018867
0.000320353663
0.001641654934
0.2015218002
0.01320695974
0.09667260949
0.003249962039
0.01699418446
0.001975356539
0.0008369799723
0.001065511557
0.0007771987041
0.000636930606
0.0006518236719
0.0006053978521
0.001037977725
0.0006739707223
0.001070959446
0.0035002553
0.002114813981
0.003982049066
7.324791558e-09
0.005090491183
0.0005825287745
2.372124803e-27
2.871746345e-08
1.991896077e-17
1.300506561e-20
1.382547766e-26
2.478551949e-30
9.725081294e-20
5.851265115e-30
3.179931477e-29
3.385864993e-22
4.212512e-29
1.084298539e-31
1.273525441e-18
4.089796306e-28
9.167367143e-28
0.000216160633
5.784415172e-10
3.769637434e-07
0.04396072152
0.001126415881
0.0164703906
3.209060629
0.2908251116
4.62385424
0.001986432886
0.4843915086
0.01139494228
0.0007368761445
0.001132971432
0.0007405360935
0.0005986519421
0.0005486312603
0.0006183372135
0.001171480075
0.0008408050272
0.001368572118
0.004345093653
0.002490788143
0.004765923897
0.005483343064
0.008828190835
0.01118331098
9.525431135e-10
0.00442432055
3.811703583e-05
5.22599768e-28
2.127628883e-12
2.057310321e-21
1.514931313e-38
1.851788752e-30
6.853300428e-37
5.349527264e-41
2.922604011e-36
3.298311001e-35
8.067777738e-33
7.820129765e-25
2.733917218e-30
1.060782995e-15
5.114464902e-17
5.224507873e-21
0.008186316856
0.0005291870846
0.006913058775
7.334760193
0.9152448846
8.680876042
0.5120737889
0.9592133049
0.8641503663
0.0008193362405
0.1075767462
0.001310406177
0.0006599401742
0.0005865515071
0.0006893481826
0.001721359418
0.001410034237
0.002365133329
0.005401747637
0.003909278516
0.006799010965
0.01500915178
0.01476739056
0.02962833862
0.0003378151589
0.0205238196
0.001916778652
1.036154912e-18
5.757984773e-05
0.0001002848312
2.867313449e-07
0.0002526212868
0.0005395626334
3.548094363e-08
0.001217099326
0.002951101736
5.165546949e-06
0.007806662412
0.02187342224
0.0001344019458
0.05573040069
0.1255460054
0.3645671233
0.2468306958
0.4427632113
0.149699591
0.06092907923
0.1330145235
0.01323368903
0.08541692703
0.01452087458
0.3909605162
0.2285041024
0.0008069268567
0.01994684297
0.002423259608
0.004237016344
0.006126488937
0.01674887596
0.01586340939
0.03179412738
0.03890147361
0.02110001625
0.02797569521
0.002566570926
0.0003934796493
0.0006879490318
0.0007088866743
0.0002921167827
0.001320143607
0.002537711275
0.001512042762
0.005003869394
0.0115331792
0.00734718345
0.02750341685
0.05701543393
0.039522755
0.1060920128
0.1645987289
0.1843424695
0.2347449942
0.3697936512
0.4807235184
0.5213220956
0.5746397399
0.02488805789
0.008416674694
0.2712180635
0.1076269409
0.2859017033
0.6041627493
0.4069945849
0.4587626925
0.01555124405
0.6640277404
0.04756213425
0.03616639158
0.02903161306
0.03531354889
0.02135858031
0.03339709496
0.01949744761
0.001925704054
0.01141303533
0.01377258777
0.00762329377
0.0260960778
0.0511958024
0.06009510779
0.09488894034
0.1615273436
0.4573120305
0.3597787447
0.651799383
1.253314345
0.757063703
0.8592081552
1.501844719
0.1498518539
2.42023316
0.06640513321
0.06228734855
0.04864314989
0.05245053513
0.04391389991
0.03690428778
0.03703319725
0.03176206211
0.03021574054
0.02785713289
0.02501004157
0.02583787488
0.02288624948
0.02115970325
0.02053173523
0.01945593501
0.01719845637
0.01958440192
0.01325949315
0.01735717716
0.03344640014
0.02476168023
0.02787300885
0.0377410563
0.02958062938
0.03058731097
0.02844529818
0.02767516705
0.02408890133
0.02225625873
0.02520417518
0.01995438155
0.06332655393
0.04474703908
0.03067443949
0.02185706697
0.01711181164
0.01380209866
0.01490723835
0.02216572174
0.06484412973
0.05839533014
0.02457907595
0.01989860324
0.01635565668
0.01384130637
0.01737620472
0.02205077628
0.01719863299
0.01447158106
0.0197489024
0.01356958332
0.01683899049
0.01088354446
0.009818917089
0.0483714157
0.05363495464
0.05136097854
0.04562281839
0.04909020095
0.04165180616
0.05111079854
0.02679024298
0.01484718675
0.03731415938
0.02951986319
0.01201604219
0.02299897961
0.01990019864
0.01160289655
0.009174360485
0.00699816425
0.004779541761
0.005981385594
0.003972628
0.006372561106
0.04976672827
0.01143706139
0.0281608295
0.04645371444
0.0314053765
0.05270846025
0.05921249586
0.04963946576
0.06507593418
0.07064330338
0.03602021801
0.0766888578
0.01327578495
0.1310293261
0.08579216994
0.08002331616
0.06541091189
0.0493470734
0.1422663072
0.09200746542
0.66614096
0.1870215491
0.6279605382
0.1480167405
0.5884648565
0.1205574166
0.5570144748
0.1011947019
0.5055352435
0.08233439525
0.3112782216
0.05145256791
0.638721519
0.09643848102
0.8668869353
0.1373829805
0.2143756505
1.270743968
0.1792969798
0.01170798823
0.008998146472
0.007177052446
0.006351553613
0.009697736669
0.01234737799
0.01135631713
0.01388622917
0.01288647934
0.08454420466
0.5107259052
0.2434494109
1.814817791
0.2122934684
0.002470882858
0.002429849294
0.002033490522
0.006202819282
0.005839962052
0.006487307107
0.008326284507
0.01014554873
0.01151044024
0.01221384569
0.008566463911
0.03935403741
0.2917151107
0.2739705161
0.2995588125
2.712562039
0.01248535802
0.001369441181
0.0008353583054
0.0007853275901
4.246622969e-06
1.275690954e-06
1.597063894e-05
5.091628362e-05
0.0001099161307
0.0001740972187
0.000182128498
0.002235725099
0.04063007581
1.08263097
0.01952042362
0.001180313015
0.0007050827943
0.0006597063021
0.002105530387
0.00037080747
4.127629643e-18
9.097228015e-22
2.359920485e-20
1.1676544e-19
6.192212623e-19
2.305883062e-05
0.003430478008
0.3885863368
0.05989089744
0.001026265895
0.0005988165829
0.0007265025175
0.002231199178
0.00733602425
0.0002591741979
7.020323166e-19
4.007056165e-37
2.227842603e-38
6.053154204e-31
4.880117612e-14
0.0001682247031
0.4826762725
2.019343075
0.02870994927
0.0005261804135
0.001051914928
0.00297210138
0.01022074389
0.007821725442
1.469723222e-09
5.942884444e-28
9.287875781e-07
5.925979556e-07
2.7754481e-05
0.005460992136
1.020000407
0.1404854133
0.1925191098
0.001266342949
0.002263352399
0.007331698462
0.05980305321
0.002309334339
0.0001519392946
0.0006705950445
0.003330317543
0.01703011796
0.08693197527
0.3271341871
0.8978946565
0.5934043726
0.07432569783
0.5154518536
0.2083757642
0.02081922315
0.03787202633
0.006356226941
0.003314153059
0.02007202107
0.1850707421
0.8287197304
1.55056601
1.314213102
0.8412337677
0.3726190242
0.7064007221
0.8500369224
0.05597355052
0.05352312403
0.02382121623
0.04195766717
0.1765711961
0.5517730212
1.463484631
0.7940976175
0.4520270011
0.9002982226
0.07590092062
0.05690384899
0.04199332556
0.03309321056
0.02791336137
0.0235837939
0.01553291264
0.02883592525
0.0363204074
0.03851115936
0.03707642501
0.02940120612
0.03285820505
0.02902990656
0.02608887145
0.02020523873
0.0001567036384
0.0006048853846
0.05368980231
0.03703603178
0.04392037904
0.02564880654
0.03034685805
0.0191049408
0.01553010361
0.01090725706
0.009452997237
0.02044788229
0.01671015013
0.02307782899
2.540667461e-08
8.976162392e-08
2.891058107e-07
0.0001519931167
0.007555245261
0.01506770133
0.007717358112
0.003168944653
0.007769286457
8.67820207e-11
0.1705081639
0.1883289044
0.2535449418
1.525930817e-05
7.478876995e-06
0.001463889029
0.0005576760066
1.571770423e-10
0.0002322554362
3.789420283e-06
2.114547434e-11
2.60185466e-07
0.06885058546
0.008825264117
0.02301916196
1.008764106e-11
9.51645831e-12
2.273174458e-12
0.3248117095
0.3446784235
2.660715984e-05
4.973192743e-12
6.129658808e-12
2.321574435e-12
5.110458598e-11
1.280660702e-11
0.1188370582
0.1289455904
0.05542575509
0.04553784494
0.04218469898
0.0463419895
0.04180621854
0.0475466339
0.05808454491
0.07335459213
0.1145618637
0.1313998144
0.009261512612
0.007234436866
0.009064389152
0.0133260277
0.02028206459
0.0302456455
0.04132311737
0.09693222807
0.138263379
3.73685257e-14
1.852935464e-14
8.638878036e-15
3.345677242e-15
3.911607913e-15
1.028343633e-14
2.248459666e-14
0.08521763426
0.1317752852
1.018369131e-14
5.225491852e-15
2.528009818e-15
1.022533425e-15
1.182675118e-15
2.904637109e-15
5.617990027e-15
0.6742271398
0.2080872919
0.03113106141
0.07112959147
0.6489546334
0.1662752152
0.03157641998
0.03221708133
0.06181059636
0.05348055509
0.607153496
0.1329133129
0.03295848522
0.03362965568
0.0466258019
0.04126190426
0.5722579763
0.1102775433
0.03434651715
0.03519192713
0.03714763449
0.03395096908
0.5380339297
0.09227794637
0.03620922355
0.0370904006
0.03128753384
0.02879330463
0.4416731877
0.06967107343
0.03664966012
0.0327089601
0.02603401294
0.02237748747
0.4327999583
0.06242473939
0.02209629774
0.03379340288
0.01674246562
0.02046215008
0.7460038564
0.1170138911
0.04693044648
0.0525066554
0.0307347648
0.03636448299
1.050473578
0.1607506404
0.06696633963
0.1346819191
0.04013572436
0.04224520252
0.460999761
0.7508543926
0.04352908658
1.120214054
0.9364968136
0.1404456578
0.2727203359
0.7868528662
1.945911059
0.04022391862
1.794035711
0.03508466782
0.03348085053
3.012373034
0.6110601755
0.2389527921
2.763978048
0.03015418645
0.02179701211
4.465309565
0.9365711775
0.0028018965
0.005430520444
2.49363869
6.818796396e-07
2.632313653e-06
1.166322022e-05
0.01851535689
0.335544224
6.2502502e-05
1.134158683
2.12577053
0.2015954911
0.4914188901
0.07152002922
0.6416408635
1.016699987
0.0001511826976
0.0004372651558
0.001324674841
0.1237574664
0.8624230595
0.02011055872
0.005889364166
0.633392352
0.9173541873
0.9679285588
0.01803370694
0.00637994653
0.00846392495
0.7054665134
1.011217631
0.9474750342
0.02493877698
0.0137869507
0.02439639045
0.1105602428
0.1148758656
0.3962626273
0.05944720245
0.04089102192
0.06016230938
0.05773074258
0.3648692825
0.3306152127
0.001207792441
0.06798562806
0.0002444578135
0.04115090742
0.3345586515
0.3486080783
0.00220683317
0.0004437586237
0.0003224811093
0.02944915899
0.3230858372
0.2686028005
0.003491211385
0.0004968028357
0.001111168021
0.07943060386
0.2390775775
0.2723466638
0.01083548169
0.002217779312
0.003787290537
0.3271331799
0.3146665399
0.2905249624
0.02663898617
0.005725619753
0.0077693095
0.9174236434
0.3506137954
0.5380470037
0.04857969957
0.009551472578
0.01084838817
1.855517926
1.895127976
4.754608479
0.1039738525
0.01151238288
0.01171037548
0.7788843412
0.3711361313
6.126015806
0.01054079933
0.01424083539
0.002565463744
0.006728905621
0.03274738669
0.02066708566
0.02795838988
0.01976026005
0.01414782007
0.01352065708
0.01610946524
0.01332124443
0.008665957729
0.001103578462
0.001749937052
0.0002153885505
2.85590915e-05
2.491862642e-05
1.868556747e-06
1.015708288e-07
3.246058298e-07
6.334364596e-09
2.338345863e-08
2.305178854e-07
1.79289131e-06
8.372340064e-08
2.11764309e-05
6.540901069e-06
4.376150844e-06
1.50749602e-06
0.006933089907
0.01636339407
0.0451615063
0.06804044292
0.08769417501
0.09017779503
0.1163043373
0.0001897102347
0.1283616122
0.0001296140505
0.0002077395043
0.0001943669187
0.0001150950663
0.001217864423
0.0005477751728
0.001327814008
0.003624179875
0.002231753048
0.003131497413
0.006293615241
0.003935280674
0.004400587856
0.007439590091
0.004466265025
0.004208284648
0.005897441904
0.003469728141
0.002696632724
0.001353823195
0.0006094676015
0.0002548484862
3.432418246e-05
0.0001434821987
0.05116278154
0.03689864346
0.01182311873
0.01283677125
0.01674671216
0.01119608352
0.008601809266
0.01059500453
0.01261485653
0.012802462
0.01645616361
0.0168811797
0.006859829226
0.01666101402
0.005051568635
0.0008783424847
4.169027595e-05
0.0001032429315
4.859159069e-10
1.317377088e-08
2.463756569e-10
2.206502497e-10
9.935119098e-11
3.816172282e-09
4.947497138e-10
7.548535406e-10
1.494794754e-09
1.002809099e-08
4.226657951e-10
2.827577886e-07
1.474448261e-06
7.574808873e-06
3.5667776e-08
1.828275727e-07
0.1049755907
0.08797227015
0.1448561607
0.1336957311
0.1715128017
0.1949318221
5.942207457e-05
8.512223057e-05
6.257940571e-05
3.384342351e-05
6.144703473e-05
0.001404460051
0.0009174449176
0.00136114724
0.001534197754
0.001627503393
0.002407996011
0.001356799485
0.002627714864
0.001612943289
0.001092527113
0.001932517215
0.0007566345398
0.0003604628268
0.0003858537789
0.0001053895067
6.418818331e-05
4.189251545e-05
1.91767985e-05
2.962049217e-06
0.02985266617
0.03578252305
0.04109462593
0.05118290539
0.04893173627
0.04410818677
0.01727987827
0.01320587751
0.00951190103
0.006998222761
0.02134798646
0.03378906096
0.0562641103
0.05666282259
0.003981525709
0.01752226482
0.0305750188
0.02651962727
0.01817383588
0.01182244862
0.02175324261
4.591346636e-09
1.31123562e-09
3.087047718e-11
7.531885275e-12
3.145097724e-11
7.904214184e-12
7.064613681e-11
1.063905853e-10
2.362075583e-11
3.405654636e-11
4.082076979e-11
1.562664062e-10
1.342507472e-10
0.2142062415
0.2427053937
0.275948124
0.2828739714
4.20383491e-05
8.926510001e-07
3.193480146e-07
0.001986585939
0.0003167158347
1.501654426e-11
1.039544121e-10
1.066058786e-11
3.721394724e-11
9.293628912e-12
7.386246291e-12
1.313689505e-11
6.193217924e-11
2.125190124e-11
6.615057052e-10
2.567303984e-09
1.152315781e-10
1.115332427e-10
6.143483432e-10
1.360700637e-10
1.325821974e-10
0.1345130123
0.1485554988
0.2192767685
3.815588558e-05
7.693396607e-06
3.694635065e-06
0.0009044827399
8.318884598e-08
0.0004045617783
3.196565153e-05
9.068640083e-07
3.833837299e-11
9.651733228e-08
9.51217879e-11
0.008759839358
0.01359477695
0.01942490024
0.0246083733
0.03526986034
0.0401877748
0.0461379164
0.08250380917
0.08443160405
0.07089353473
0.03762322674
0.02148186374
0.04694625333
0.04479390507
0.06391784569
0.04674244918
0.08157323292
0.04099174389
0.05452289255
0.04840372806
0.04231398197
0.04500731433
0.05055521912
0.06541875932
0.05392601651
0.06015063508
0.09414084884
0.06875997087
0.08233424767
0.1532325186
0.1060165597
0.1121192091
0.185158439
0.1536438596
0.2136858759
0.1337026499
0.05663613598
0.1313684745
0.1311103929
0.0968315962
0.05087928715
0.07949151218
0.04846337884
0.05881526096
2.541879181e-08
1.370018421e-08
1.86403334e-12
4.366653043e-13
4.078298939e-13
1.976958534e-12
6.834343207e-13
1.661993683e-12
5.301242357e-12
6.584718806e-12
8.802211126e-13
0.1670391531
0.2244569871
0.2117258571
0.2897169993
0.2753362654
0.3323469188
9.946204909e-05
2.948557147e-12
1.94829357e-08
3.208648293e-11
5.059092953e-12
2.910538149e-12
2.024263945e-10
1.829512254e-12
4.513151298e-13
1.281393704e-12
8.366613796e-13
1.478606567e-13
1.964702372e-12
4.966670877e-13
1.070060292e-12
2.728263725e-13
5.727726876e-13
9.632725248e-13
6.292477315e-12
1.43423499e-12
2.067905542e-12
6.324376759e-12
1.007140696e-11
3.53326015e-11
1.95914395e-12
9.127585003e-12
1.315716642e-11
0.1694994279
0.1778252688
5.347600937e-05
6.521650787e-05
1.295345998e-09
1.586566884e-09
3.367549186e-12
3.315152054e-12
4.026005201e-12
3.32820523e-11
1.055685215e-11
0.1012037967
0.1133691998
0.1388486376
0.1270463434
0.1459397916
0.07627827486
0.1342367259
0.05064501191
0.04619115619
0.0328152498
0.02685220178
0.04104846819
0.02505344465
0.0253517789
0.04403169383
0.02705262723
0.0298707936
0.05225764942
0.03372918114
0.03854955159
0.06503840147
0.04427265328
0.05085685094
0.08626671835
0.0585152139
0.06680361898
0.07594668566
0.1007628421
0.0849098644
0.1317186135
0.1011747766
0.1213490416
0.01714243574
0.1339793392
4.994750508e-07
0.007432882961
1.301141754e-08
1.283792404e-08
0.007842357824
1.283920746e-08
1.278457972e-08
0.01087744363
1.256699748e-08
1.206562204e-08
0.01645671138
1.106231981e-08
1.116996346e-08
0.02482771019
1.502959169e-08
1.915692556e-08
0.03609640002
2.310647172e-08
2.666576291e-08
0.04511276694
2.772380588e-08
2.873694491e-08
2.940865278e-08
0.07867398966
0.07468609994
0.120593527
0.09356824382
0.1189882782
4.016884076e-07
0.1397447618
3.69580381e-07
2.640780029e-14
2.075251683e-14
1.473558612e-14
1.281089351e-14
1.040020515e-14
7.23649587e-15
5.587092041e-15
4.916700986e-15
3.207136213e-15
1.941942674e-15
1.941524822e-15
1.137797151e-15
6.606648521e-15
2.261887596e-15
3.764380736e-15
1.541297643e-14
5.751032232e-15
8.509860457e-15
3.67526293e-14
1.218740813e-14
2.774785984e-14
3.085269948e-13
2.733191739e-13
0.06719763704
0.05462386324
0.1222072252
0.110239183
0.06953715246
0.09046253992
0.2042650864
2.88388431e-07
0.1088465476
2.942728122e-07
0.0001002137082
7.313648632e-15
6.869055838e-15
4.753654561e-15
3.678128164e-15
3.419679015e-15
2.419676246e-15
9.98162917e-13
1.668851427e-15
1.668671264e-15
1.102462413e-15
6.015056129e-16
6.720282401e-16
3.846043085e-16
1.938475214e-15
7.676479147e-16
1.261494986e-15
5.161323834e-13
4.246913587e-15
1.908609468e-15
2.547021758e-15
4.783965222e-13
1.317795874e-12
)
;

boundaryField
{
    walls
    {
        type            zeroGradient;
    }
    wallFilmFace_top
    {
        type            zeroGradient;
    }
    region0_to_wallFilmRegion_wallFilmFace
    {
        type            zeroGradient;
    }
    mirrorFace_top
    {
        type            zeroGradient;
    }
    region0_to_wallFilmRegion_mirrorFace
    {
        type            zeroGradient;
    }
    procBoundary3to2
    {
        type            processor;
        value           nonuniform List<scalar> 
64
(
0.02532127741
0.00674630236
0.01915404247
0.04906531993
0.0685854963
0.04202437038
0.008017229617
0.01180397341
0.09898716936
0.01349106609
0.006269693714
0.006671787658
0.006671787658
0.004325871857
0.02292192366
0.02724357491
0.02516329151
0.03361148534
0.08847991222
0.844348126
2.192094758
3.150939176
0.6603835071
0.6603835071
0.2419959969
0.3172219705
0.3172219705
0.3713929758
0.3912766234
0.3912766234
0.08339019278
0.07225868211
0.07225868211
0.07223409367
0.06890755013
0.6675244549
0.2251890865
0.03110823108
0.2442844045
0.07998602368
0.1090450119
0.02946131531
0.08130430789
0.08937877088
0.06496281047
0.05436090791
0.03110823108
0.07998602368
1.348596134
0.006579463844
0.01108271946
0.03228236426
0.04906531993
0.0840878649
0.02355545176
0.1205629509
0.1383375445
0.005306692961
0.1452910072
0.1361124454
0.1002631058
0.07229883587
0.06093400968
0.044041583
)
;
    }
}


// ************************************************************************* //
