/*--------------------------------*- C++ -*----------------------------------*\
  =========                 |
  \\      /  F ield         | OpenFOAM: The Open Source CFD Toolbox
   \\    /   O peration     | Website:  https://openfoam.org
    \\  /    A nd           | Version:  8
     \\/     M anipulation  |
\*---------------------------------------------------------------------------*/
FoamFile
{
    version     2.0;
    format      ascii;
    class       volScalarField;
    location    "0.8/wallFilmRegion";
    object      Cp;
}
// * * * * * * * * * * * * * * * * * * * * * * * * * * * * * * * * * * * * * //

dimensions      [0 2 -2 -1 0 0 0];

internalField   nonuniform List<scalar> 
1342
(
4182.948099
4182.948099
4182.9481
4182.9481
4182.948105
4182.948102
4182.9481
4182.9481
4182.9481
4182.9481
4182.948099
4182.948106
4182.948104
4182.948102
4182.948101
4182.9481
4182.9481
4182.948101
4182.948099
4182.9481
4182.948101
4182.948105
4182.948566
4182.94822
4182.948117
4182.9481
4182.948099
4182.948099
4182.948099
4182.948125
4182.948111
4182.948103
4182.948102
4182.948101
4182.948101
4182.948101
4182.9481
4182.9481
4182.9481
4182.948105
4182.948477
4182.948769
4182.948178
4182.948099
4182.948099
4182.948167
4182.948109
4182.948104
4182.948103
4182.948103
4182.948103
4182.9481
4182.9481
4182.9481
4182.9481
4182.948101
4182.948102
4182.9481
4182.9481
4182.948101
4182.948102
4182.948879
4182.948849
4182.948972
4182.948099
4182.948099
4182.9481
4182.9481
4182.9481
4182.948101
4182.948101
4182.948102
4182.948102
4182.948102
4182.948943
4182.948989
4182.948099
4182.948099
4182.948099
4182.948099
4182.9481
4182.9481
4182.948101
4182.948101
4182.948101
4182.948102
4182.948102
4182.949105
4182.949059
4182.948099
4182.948099
4182.9494
4182.949324
4182.949088
4182.949027
4182.948996
4182.949007
4182.949042
4182.948099
4182.948099
4182.948099
4182.948099
4182.948099
4182.948099
4182.948099
4182.9481
4182.9481
4182.948101
4182.9481
4182.948101
4182.948105
4182.948105
4182.948101
4182.948101
4182.948106
4182.948101
4182.948101
4182.948107
4182.948101
4182.948101
4182.948108
4182.948101
4182.948102
4182.948106
4182.948102
4182.948101
4182.948106
4182.948101
4182.948101
4182.948105
4182.948101
4182.948101
4182.948105
4182.948102
4182.948102
4182.948108
4182.948102
4182.948104
4182.948109
4182.948109
4182.948112
4182.948101
4182.948101
4182.9481
4182.9481
4182.9481
4182.9481
4182.9481
4182.948099
4182.948099
4182.9481
4182.948092
4182.948085
4182.948102
4182.948088
4182.94809
4182.948103
4182.948095
4182.948098
4182.948103
4182.9481
4182.948101
4182.948103
4182.948102
4182.948102
4182.948103
4182.948103
4182.948102
4182.948104
4182.948102
4182.948102
4182.948111
4182.948104
4182.948109
4182.948114
4182.948114
4182.948114
4182.948111
4182.948113
4182.948112
4182.9481
4182.948102
4182.948101
4182.948099
4182.948099
4182.948099
4182.948098
4182.948098
4182.948098
4182.948095
4182.948097
4182.948098
4182.947929
4182.948101
4182.948066
4182.947973
4182.947929
4182.948041
4182.948039
4182.947926
4182.947925
4182.948069
4182.947924
4182.947923
4182.948078
4182.94792
4182.947916
4182.948038
4182.947909
4182.947902
4182.948101
4182.947895
4182.947892
4182.948114
4182.948109
4182.948112
4182.948111
4182.948111
4182.94811
4182.948101
4182.948102
4182.9481
4182.948098
4182.948098
4182.948098
4182.948097
4182.948097
4182.948097
4182.948098
4182.948097
4182.948098
4182.948104
4182.948101
4182.948103
4182.947931
4182.948105
4182.948097
4182.948099
4182.947932
4182.948099
4182.948099
4182.948099
4182.948099
4182.948099
4182.948099
4182.948099
4182.948099
4182.948099
4182.948099
4182.948099
4182.948099
4182.948099
4182.948107
4182.947877
4182.947913
4182.948108
4182.948108
4182.948107
4182.948104
4182.948105
4182.948103
4182.9481
4182.948102
4182.948101
4182.948097
4182.948098
4182.948097
4182.948097
4182.948097
4182.948097
4182.948099
4182.948097
4182.948099
4182.948103
4182.9481
4182.948102
4182.948106
4182.948105
4182.948107
4182.947933
4182.948106
4182.948059
4182.948099
4182.947933
4182.948099
4182.948099
4182.948099
4182.948099
4182.948099
4182.948099
4182.948099
4182.948099
4182.948099
4182.948099
4182.947929
4182.947947
4182.947921
4182.948105
4182.948099
4182.948101
4182.948102
4182.948101
4182.948102
4182.948106
4182.948109
4182.948106
4182.948097
4182.948105
4182.948098
4182.948097
4182.948097
4182.948097
4182.948099
4182.948098
4182.948099
4182.948102
4182.9481
4182.948102
4182.948107
4182.948105
4182.948108
4182.948096
4182.948108
4182.948107
4182.948099
4182.948074
4182.948085
4182.947927
4182.948097
4182.948099
4182.947915
4182.9481
4182.9481
4182.948042
4182.9481
4182.9481
4182.948098
4182.9481
4182.9481
4182.9481
4182.9481
4182.9481
4182.94811
4182.948109
4182.948107
4182.948109
4182.948105
4182.948101
4182.948104
4182.948103
4182.948098
4182.948101
4182.9481
4182.9481
4182.948101
4182.948103
4182.948103
4182.948104
4182.948106
4182.948108
4182.948108
4182.948107
4182.948099
4182.948103
4182.9481
4182.948096
4182.9481
4182.948101
4182.9481
4182.948101
4182.948102
4182.9481
4182.948102
4182.948102
4182.9481
4182.948101
4182.948101
4182.9481
4182.948101
4182.948101
4182.948101
4182.948101
4182.948101
4182.948108
4182.948107
4182.948105
4182.948104
4182.948105
4182.948103
4182.948104
4182.948103
4182.948104
4182.948102
4182.948105
4182.948105
4182.948105
4182.948106
4182.948106
4182.948106
4182.948105
4182.948103
4182.948103
4182.948102
4182.948102
4182.948102
4182.948102
4182.948102
4182.948102
4182.948102
4182.948102
4182.948102
4182.948102
4182.948102
4182.948102
4182.948102
4182.948102
4182.948102
4182.948102
4182.948099
4182.948099
4182.948099
4182.948099
4182.948099
4182.948099
4182.948099
4182.948099
4182.948099
4182.948099
4182.948099
4182.948099
4182.948099
4182.9481
4182.948099
4182.9481
4182.9481
4182.948099
4182.9481
4182.9481
4182.948099
4182.948099
4182.948099
4182.948099
4182.948099
4182.948099
4182.948099
4182.948099
4182.948099
4182.9481
4182.9481
4182.9481
4182.948099
4182.9481
4182.9481
4182.9481
4182.9481
4182.9481
4182.9481
4182.9481
4182.9481
4182.9481
4182.9481
4182.9481
4182.9481
4182.9481
4182.9481
4182.948099
4182.9481
4182.9481
4182.9481
4182.9481
4182.9481
4182.9481
4182.9481
4182.9481
4182.9481
4182.9481
4182.9481
4182.9481
4182.9481
4182.9481
4182.948101
4182.948101
4182.948101
4182.948101
4182.948101
4182.948101
4182.948101
4182.9481
4182.9481
4182.9481
4182.948101
4182.948101
4182.948101
4182.948101
4182.948102
4182.948099
4182.948099
4182.9481
4182.948099
4182.9481
4182.9481
4182.948101
4182.9481
4182.948101
4182.948102
4182.948101
4182.948102
4182.948102
4182.948102
4182.948099
4182.948099
4182.9481
4182.948101
4182.948101
4182.948105
4182.948099
4182.948105
4182.948099
4182.948105
4182.948099
4182.948105
4182.948099
4182.948105
4182.948099
4182.948104
4182.948099
4182.948102
4182.948099
4182.948103
4182.948099
4182.948099
4182.948103
4182.948099
4182.948105
4182.948105
4182.948107
4182.948108
4182.948107
4182.948106
4182.948105
4182.948105
4182.948107
4182.948107
4182.948108
4182.948099
4182.948109
4182.948099
4182.948101
4182.948101
4182.9481
4182.9481
4182.948102
4182.948102
4182.948103
4182.948103
4182.948103
4182.948103
4182.948107
4182.948113
4182.948113
4182.948099
4182.948099
4182.948111
4182.948102
4182.9481
4182.948099
4182.948097
4182.947947
4182.947941
4182.948015
4182.948055
4182.948073
4182.948081
4182.948043
4182.948113
4182.948113
4182.948108
4182.948102
4182.948099
4182.948098
4182.948097
4182.948101
4182.948091
4182.948099
4182.948099
4182.948099
4182.948099
4182.948099
4182.947945
4182.94811
4182.948106
4182.948101
4182.948098
4182.948097
4182.948097
4182.9481
4182.948105
4182.948091
4182.948099
4182.948099
4182.948099
4182.948099
4182.948099
4182.948102
4182.948102
4182.948106
4182.948105
4182.948096
4182.948098
4182.9481
4182.948105
4182.948107
4182.947935
4182.948099
4182.947921
4182.947941
4182.948086
4182.9481
4182.9481
4182.948109
4182.948104
4182.948099
4182.948099
4182.948101
4182.948108
4182.948107
4182.948091
4182.948099
4182.9481
4182.9481
4182.9481
4182.9481
4182.948101
4182.948108
4182.948106
4182.948104
4182.948102
4182.948104
4182.948106
4182.948107
4182.948102
4182.948102
4182.948102
4182.948102
4182.948102
4182.948102
4182.948102
4182.948103
4182.948103
4182.948102
4182.948104
4182.948104
4182.948103
4182.948102
4182.948101
4182.948101
4182.948102
4182.948102
4182.948101
4182.948102
4182.948099
4182.948099
4182.948099
4182.948099
4182.948099
4182.948099
4182.9481
4182.948099
4182.948099
4182.948099
4182.948099
4182.948099
4182.948099
4182.948099
4182.9481
4182.9481
4182.948111
4182.948104
4182.948099
4182.9481
4182.9481
4182.9481
4182.9481
4182.9481
4182.9481
4182.9481
4182.948101
4182.9481
4182.9481
4182.9481
4182.948736
4182.948726
4182.948613
4182.948112
4182.9481
4182.948101
4182.948101
4182.948102
4182.948102
4182.948898
4182.948099
4182.948099
4182.948099
4182.948403
4182.948539
4182.948106
4182.948107
4182.949287
4182.948111
4182.948291
4182.94912
4182.948939
4182.948101
4182.948101
4182.948102
4182.948964
4182.948933
4182.949009
4182.948099
4182.948099
4182.94823
4182.949263
4182.949201
4182.949081
4182.949044
4182.949045
4182.948099
4182.948099
4182.948099
4182.948099
4182.948099
4182.9481
4182.948099
4182.9481
4182.9481
4182.948101
4182.948099
4182.948099
4182.948099
4182.948099
4182.9481
4182.9481
4182.9481
4182.948101
4182.948101
4182.948099
4182.948099
4182.948749
4182.948785
4182.94886
4182.948947
4182.949011
4182.949064
4182.949124
4182.948099
4182.948099
4182.948872
4182.94873
4182.948828
4182.948931
4182.949
4182.949047
4182.949076
4182.948105
4182.948099
4182.948111
4182.948099
4182.948105
4182.948099
4182.948111
4182.948111
4182.948099
4182.948099
4182.948105
4182.948099
4182.948111
4182.948111
4182.948099
4182.948099
4182.948105
4182.948099
4182.948111
4182.948112
4182.948099
4182.948099
4182.948105
4182.948099
4182.948111
4182.948111
4182.948099
4182.948099
4182.948105
4182.948099
4182.948111
4182.948111
4182.948099
4182.948099
4182.948102
4182.948099
4182.948111
4182.948107
4182.948099
4182.948099
4182.948102
4182.948099
4182.948106
4182.948106
4182.948099
4182.948099
4182.948103
4182.948099
4182.948106
4182.948106
4182.948099
4182.948099
4182.948105
4182.948106
4182.948099
4182.948106
4182.948109
4182.948111
4182.948112
4182.948111
4182.948111
4182.948099
4182.948109
4182.948099
4182.9481
4182.948107
4182.948108
4182.9481
4182.948105
4182.9481
4182.9481
4182.948101
4182.9481
4182.948104
4182.948103
4182.948101
4182.948331
4182.948214
4182.948146
4182.948102
4182.948101
4182.948125
4182.948102
4182.948102
4182.948101
4182.948101
4182.948101
4182.948101
4182.948101
4182.948115
4182.948106
4182.948103
4182.948103
4182.9481
4182.9481
4182.948101
4182.948103
4182.9481
4182.948101
4182.9481
4182.948101
4182.9481
4182.948102
4182.948101
4182.948101
4182.9481
4182.9481
4182.948099
4182.948104
4182.948102
4182.9481
4182.948099
4182.948099
4182.948099
4182.948104
4182.948099
4182.948099
4182.948109
4182.948099
4182.948123
4182.948103
4182.948099
4182.948099
4182.948106
4182.948116
4182.948117
4182.948102
4182.948099
4182.948099
4182.948103
4182.94811
4182.948105
4182.948101
4182.948099
4182.948099
4182.948101
4182.948103
4182.948102
4182.948101
4182.948099
4182.948099
4182.9481
4182.948101
4182.948101
4182.948102
4182.9481
4182.9481
4182.9481
4182.948101
4182.9481
4182.948102
4182.948101
4182.948101
4182.9481
4182.9481
4182.9481
4182.948101
4182.948102
4182.948102
4182.948101
4182.9481
4182.948102
4182.948101
4182.948099
4182.9481
4182.948099
4182.9481
4182.9481
4182.9481
4182.9481
4182.948101
4182.948101
4182.948102
4182.948102
4182.948107
4182.948124
4182.948124
4182.948269
4182.94857
4182.948467
4182.948695
4182.948683
4182.948567
4182.948313
4182.948641
4182.948153
4182.948226
4182.948268
4182.948393
4182.948101
4182.9481
4182.948099
4182.948099
4182.948099
4182.948099
4182.948099
4182.948134
4182.948099
4182.948154
4182.948128
4182.948141
4182.948149
4182.948106
4182.948111
4182.948106
4182.948102
4182.948104
4182.948103
4182.948101
4182.948102
4182.948102
4182.948101
4182.948102
4182.948102
4182.948101
4182.948102
4182.948102
4182.948103
4182.948105
4182.948109
4182.948139
4182.948113
4182.9481
4182.9481
4182.9481
4182.9481
4182.9481
4182.9481
4182.9481
4182.9481
4182.9481
4182.9481
4182.9481
4182.9481
4182.948101
4182.948101
4182.948102
4182.948104
4182.948125
4182.948108
4182.948957
4182.948774
4182.948761
4182.948863
4182.948926
4182.9487
4182.94882
4182.948836
4182.948761
4182.948804
4182.948833
4182.948631
4182.948411
4182.948213
4182.948826
4182.948756
4182.948099
4182.948099
4182.948099
4182.948099
4182.948099
4182.948099
4182.948217
4182.948183
4182.948203
4182.948236
4182.948185
4182.948106
4182.948108
4182.948106
4182.948105
4182.948104
4182.948103
4182.948104
4182.948103
4182.948104
4182.948104
4182.948103
4182.948105
4182.948107
4182.948106
4182.948111
4182.948122
4182.948121
4182.948137
4182.948265
4182.948099
4182.9481
4182.9481
4182.9481
4182.9481
4182.9481
4182.948101
4182.948101
4182.948101
4182.948101
4182.948099
4182.9481
4182.9481
4182.948101
4182.948101
4182.948102
4182.948101
4182.9481
4182.9481
4182.948102
4182.948102
4182.949081
4182.949021
4182.948985
4182.94904
4182.948951
4182.948997
4182.948923
4182.948833
4182.948874
4182.948922
4182.948946
4182.948898
4182.948885
4182.948099
4182.948099
4182.948099
4182.948099
4182.948277
4182.949221
4182.949305
4182.948107
4182.948124
4182.949287
4182.949258
4182.949251
4182.94921
4182.949155
4182.949111
4182.949092
4182.949086
4182.94908
4182.948889
4182.948949
4182.948977
4182.949062
4182.948904
4182.948914
4182.948999
4182.948099
4182.948099
4182.948099
4182.948287
4182.948518
4182.948683
4182.948106
4182.949294
4182.948108
4182.948135
4182.948627
4182.949101
4182.94904
4182.949066
4182.948099
4182.948099
4182.948099
4182.948099
4182.948099
4182.9481
4182.9481
4182.948101
4182.948102
4182.948102
4182.948102
4182.948099
4182.948099
4182.948099
4182.948099
4182.948099
4182.948099
4182.948099
4182.948099
4182.948099
4182.948099
4182.948099
4182.9481
4182.9481
4182.9481
4182.9481
4182.948101
4182.9481
4182.948101
4182.948102
4182.948101
4182.948102
4182.948102
4182.948101
4182.948101
4182.948101
4182.948101
4182.948102
4182.948102
4182.948102
4182.948102
4182.948102
4182.948102
4182.948102
4182.949152
4182.94912
4182.949082
4182.949123
4182.949084
4182.949035
4182.949046
4182.948975
4182.948996
4182.948977
4182.949045
4182.948099
4182.948099
4182.948099
4182.948099
4182.948099
4182.948099
4182.948193
4182.948886
4182.94961
4182.950111
4182.953164
4182.949892
4182.949318
4182.949368
4182.949053
4182.949209
4182.94915
4182.949003
4182.949161
4182.949111
4182.949114
4182.94908
4182.94906
4182.949053
4182.949058
4182.949051
4182.949052
4182.948997
4182.94902
4182.948992
4182.949043
4182.948997
4182.949013
4182.948099
4182.948099
4182.948248
4182.948218
4182.949496
4182.949307
4182.949212
4182.949148
4182.949065
4182.949064
4182.949052
4182.948099
4182.948099
4182.948099
4182.948099
4182.948099
4182.948099
4182.948099
4182.948099
4182.948099
4182.948099
4182.948099
4182.948099
4182.948099
4182.948099
4182.9481
4182.948099
4182.9481
4182.9481
4182.9481
4182.9481
4182.9481
4182.9481
4182.9481
4182.948101
4182.948101
4182.948101
4182.948101
4182.948099
4182.948099
4182.948099
4182.948099
4182.948099
4182.948099
4182.948099
4182.948704
4182.948099
4182.948794
4182.948829
4182.948099
4182.948856
4182.948881
4182.9481
4182.948902
4182.948927
4182.9481
4182.948953
4182.94898
4182.9481
4182.949007
4182.949038
4182.948101
4182.949072
4182.949106
4182.948101
4182.949137
4182.949153
4182.949129
4182.948099
4182.948099
4182.948099
4182.948099
4182.948099
4182.948694
4182.948099
4182.94876
4182.948758
4182.948754
4182.948713
4182.948823
4182.94873
4182.948777
4182.948904
4182.948829
4182.948882
4182.948991
4182.948933
4182.948979
4182.949036
4182.949005
4182.94903
4182.949095
4182.949055
4182.949074
4182.949144
4182.949094
4182.949108
4182.949066
4182.949004
4182.948099
4182.948099
4182.948099
4182.948099
4182.948099
4182.948099
4182.948099
4182.948868
4182.948099
4182.94893
4182.948183
4182.94874
4182.949107
4182.948947
4182.948769
4182.948836
4182.948821
4182.94916
4182.948888
4182.948876
4182.948923
4182.948972
4182.948955
4182.948974
4182.949027
4182.948996
4182.949022
4182.948998
4182.949066
4182.949043
4182.949054
4182.948989
4182.949026
)
;

boundaryField
{
    walls
    {
        type            zeroGradient;
    }
    wallFilmFace_top
    {
        type            zeroGradient;
    }
    region0_to_wallFilmRegion_wallFilmFace
    {
        type            zeroGradient;
    }
    mirrorFace_top
    {
        type            zeroGradient;
    }
    region0_to_wallFilmRegion_mirrorFace
    {
        type            zeroGradient;
    }
    procBoundary3to2
    {
        type            processor;
        value           nonuniform List<scalar> 
64
(
4182.9481
4182.948101
4182.9481
4182.948099
4182.948099
4182.9481
4182.948099
4182.948099
4182.948099
4182.948105
4182.948102
4182.948102
4182.948102
4182.948101
4182.948102
4182.948102
4182.948102
4182.948102
4182.948102
4182.948102
4182.948103
4182.948107
4182.94811
4182.94811
4182.94811
4182.948109
4182.948109
4182.948106
4182.948106
4182.948106
4182.948099
4182.948099
4182.948099
4182.948099
4182.948099
4182.948105
4182.948099
4182.948111
4182.948101
4182.948099
4182.948099
4182.948099
4182.948099
4182.948099
4182.948099
4182.948099
4182.948111
4182.948099
4182.9481
4182.948101
4182.9481
4182.948099
4182.948099
4182.948099
4182.948099
4182.948099
4182.948099
4182.948099
4182.948099
4182.948099
4182.948099
4182.948099
4182.948099
4182.948099
)
;
    }
}


// ************************************************************************* //
