/*--------------------------------*- C++ -*----------------------------------*\
  =========                 |
  \\      /  F ield         | OpenFOAM: The Open Source CFD Toolbox
   \\    /   O peration     | Website:  https://openfoam.org
    \\  /    A nd           | Version:  8
     \\/     M anipulation  |
\*---------------------------------------------------------------------------*/
FoamFile
{
    version     2.0;
    format      ascii;
    class       surfaceScalarField;
    location    "0.8/wallFilmRegion";
    object      phi;
}
// * * * * * * * * * * * * * * * * * * * * * * * * * * * * * * * * * * * * * //

dimensions      [1 0 -1 0 0 0 0];

internalField   nonuniform List<scalar> 
2727
(
0.001256598025
-0.0004700739192
-0.0008603278174
0.0002720494688
-0.002380178737
0.000316420445
0.002728300702
-0.0004739439988
0.001582595853
-0.0002496050425
0.001042303812
-0.002263267627
-0.0009524854058
0.0005258447649
-4.140704964e-05
0.0004881992313
-7.603461284e-06
2.119073391e-05
-2.131073615e-05
-2.001743541e-08
0.0001803501638
2.307373785e-05
-0.0003507475883
4.692196243e-05
-4.091985125e-06
-0.001064970394
0.0006387866949
6.878735525e-05
-1.945895369e-05
0.0001174620862
8.376689527e-05
-0.0001009507783
-7.823514034e-05
9.649317584e-05
8.654261158e-05
-0.0001114740816
-0.0001758913797
0.0001512456286
0.0001921743854
-0.0001940155215
-0.0006464811168
0.0001770419992
0.0004893504881
-1.106320423e-07
-0.001336807708
-2.747453707e-06
1.289200185e-05
7.504011555e-06
-6.422486286e-06
-1.024613071e-05
1.185809011e-05
1.571870546e-05
-7.03161554e-06
-2.96413494e-05
3.03629286e-05
5.803025172e-05
-3.020216877e-05
-0.0001059324019
8.657747227e-05
0.0001765495439
-7.825324072e-05
-0.0002686006466
0.0001855998225
0.0003745939496
-0.0001333376821
-0.0004823383238
0.0003059611073
0.0005917560683
-0.0001656843362
-0.0007152559428
0.005366344374
-0.004299599334
-9.438374202e-05
0.0003877855689
-0.000286239378
-0.0002401097561
0.0002537394058
-0.0002152755841
0.0003741993575
0.0001671496058
-0.0002842951752
0.0001279931704
-0.0001017260561
3.864807701e-05
-5.47366964e-05
9.285331636e-06
-8.690770538e-06
1.03886991e-06
-1.08629545e-06
1.164814284e-09
4.780143674e-11
-7.274470482e-10
-2.48216624e-10
3.109817578e-07
-3.590712405e-09
5.943727126e-08
-2.857174711e-07
-5.124145414e-08
-3.07709901e-06
2.44933653e-06
9.854367563e-07
-1.133822276e-07
0.000111829725
9.350035365e-05
-0.0001451137951
0.0003685136642
0.0002359776618
-0.0003479374955
0.001149261167
0.0004324687325
-0.0004464549309
-0.00167094272
0.00197217303
0.0003380498103
-8.655440542e-08
-0.002616360327
4.30463836e-06
-5.058553785e-07
1.339469208e-06
-2.537852088e-06
6.563065616e-06
-1.698645503e-06
6.086674354e-06
-7.153217245e-06
3.041482929e-05
-1.646991942e-05
3.209288501e-05
-2.931976749e-05
6.778254496e-05
-5.105076914e-05
7.104331499e-05
-5.28657623e-05
9.867930912e-05
-8.798457894e-05
9.834119537e-05
-6.26168305e-05
0.0001060893864
-0.0001008282865
9.113416924e-05
-5.487467913e-05
6.889771949e-05
-8.557542203e-05
4.216100871e-05
-8.765526239e-06
-0.0001136067367
0.0001436213407
-0.0001572736465
0.0002244854719
-9.3796546e-05
-0.0001145607619
0.0003067291287
9.591195802e-05
-8.842229522e-05
0.000395369894
-0.0001520391518
-0.0001874179951
-9.956391204e-05
0.0001050771637
2.146820884e-05
-7.491520278e-06
-3.364682741e-05
1.240084375e-07
2.786750612e-08
-6.881751105e-08
1.117735366e-09
-8.798741879e-12
8.803395848e-11
3.994333774e-12
-5.504824443e-11
-1.511225027e-11
2.75718682e-07
2.278914435e-07
2.649605917e-07
-5.036661404e-07
-1.533667877e-07
0.002099357488
0.0007200067806
-0.0006743039639
-0.002427344042
0.003209755768
0.000496346679
-0.003704130174
-8.340069938e-08
1.406794604e-06
-1.235648907e-07
-7.873496328e-07
3.593489411e-07
8.996728912e-06
-4.770467478e-07
8.136337446e-06
-1.1992466e-05
2.595610892e-05
-1.6905528e-05
-2.022987147e-05
2.398949144e-05
3.65325357e-05
-2.903613432e-05
3.163837039e-05
-2.240260202e-05
3.381179181e-05
-3.03612231e-05
-1.60984289e-05
2.649439423e-05
2.926916731e-05
-1.992650447e-05
3.761372393e-06
-6.712462433e-06
0.0007706799488
-0.0004089829063
0.000467139198
-0.0005902395134
-0.0005010279496
0.0005050315181
-0.0006792571116
0.0007221639111
-0.0004715414987
0.0003978851667
-0.0006867039675
0.0005892512623
0.0003965180343
-0.0002917040346
0.0001753664944
-0.0005932431657
0.0002196760685
-8.000657087e-05
2.581431033e-05
-0.0004154789679
-8.992995104e-06
1.631657774e-05
-0.0002417465986
0.0001206903998
-2.9951333e-05
3.845309959e-05
0.0001211465077
-0.0001533158108
9.749218528e-05
-4.24824736e-05
4.251848836e-05
-8.43087719e-05
3.066730942e-05
-2.370661303e-05
5.836057896e-05
-4.477080174e-05
4.995050079e-05
-3.62203019e-05
-0.001659901483
0.0002311397318
0.0004998344598
-3.553833814e-05
0.0001576301783
-0.0003859399275
1.482703344e-11
-6.187534005e-12
1.360730025e-12
-4.459311932e-12
5.105059587e-12
1.295879595e-11
6.702334129e-12
-2.423668002e-12
-4.274662319e-12
-3.982602279e-12
8.226142365e-11
1.000073211e-10
-3.595111785e-12
-1.364599116e-10
-1.671960956e-12
-0.0004252077763
0.0002987170647
0.0006239318488
-0.0002618030003
0.0004635158844
-0.0008731483133
0.001161522513
-0.0004277883445
0.000610072258
0.001788302634
-0.0004991556118
-0.001470670634
-0.002094748128
0.0007080039424
0.002357643401
-0.0005790702596
0.0007065439359
-0.0006845449918
-0.002530653952
0.002567341976
0.0005859059208
0.002197626048
-0.0007602158934
-0.002444054791
-0.001891222498
0.001490034046
-0.0007616338281
0.0003990864579
-0.0009786019994
0.0005015918653
0.0001980230491
-0.000684092763
3.106308217e-05
-0.0002008276756
4.674849539e-05
3.178815547e-05
-0.0001280761584
0.003348553823
-8.244528418e-05
-0.005067420455
0.001078857746
-0.001508583817
-1.758870706e-14
-4.652033993e-13
1.154410897e-12
7.124225728e-13
-2.432504977e-13
5.296102091e-13
1.413585371e-12
8.791344536e-13
-1.249668028e-12
-1.845775687e-13
0.0005634595757
-0.0003605645482
0.0004999346968
-0.001044109775
0.0008176511898
-0.0006801246259
0.0008569754372
-0.00132755715
0.0006553287727
-0.0009552374453
0.001039695176
-0.0008222412285
-0.0006163844745
0.0005653419035
-0.001139290131
0.001268206459
0.0005740364022
-0.0005624190916
-0.001436617798
0.001653318066
0.0006551820439
-0.001921563739
0.002239156662
-0.0005926958793
0.0007977855518
-0.00260531057
0.003044703369
-0.0006949735209
0.00106651075
-0.003621255002
0.004356803645
-0.0009865870936
-0.002934826692
0.002431322914
0.000771420615
0.005775143186
-0.003539593397
-0.001231028969
0.002082109989
-0.006420092634
0.004900617103
-0.0003888828058
-0.001732445532
0.0002247794282
0.003644662902
-0.001960359684
3.673137896e-10
8.738233633e-15
8.702903193e-15
-9.995421346e-16
-7.866080218e-15
1.37326368e-14
2.492415427e-16
3.766510317e-15
-9.835255915e-15
0.001138443562
0.001866036003
1.704359772e-05
-0.001696607856
0.001816960316
0.001245659816
2.410833557e-05
-3.011707766e-07
-1.014426585e-13
3.541882311e-13
3.738913147e-13
-4.651979988e-17
5.625991056e-14
2.21797534e-14
-2.86338344e-17
-3.509544965e-14
-1.046981446e-14
1.166382761e-14
2.031737191e-14
-1.458801009e-17
4.287469756e-15
-7.871748157e-16
4.924860952e-15
-6.205686805e-18
-1.022089796e-15
5.66321275e-15
-7.105792667e-18
4.993996337e-15
1.314613885e-14
-1.180170988e-14
-1.655416307e-17
2.178870385e-14
3.327665304e-14
3.986469417e-14
-5.50828078e-15
-3.413507104e-14
0.0002818274751
0.0008297842659
-0.000677966429
-0.0002459537515
-0.0008175943555
0.000997305849
0.0005794397072
0.0008915394631
0.000311262874
0.0003180139625
-0.0006321549875
0.0003423248871
0.0007685647569
-0.0006063279142
-0.0003206893843
0.0007838764883
0.0003380949572
-0.0006013949265
-0.002718322445
0.001399043723
-0.0008343740114
0.0001052610511
-0.0001142905273
0.0008053898011
9.822238663e-05
-0.0001904894187
3.670663673e-05
-4.171788148e-05
-9.504244621e-06
0.0004311014702
7.708724623e-06
-1.09685187e-09
-1.199142301e-06
2.176872854e-06
4.197875248e-05
-3.219539297e-05
-7.240718268e-06
-1.301706445e-05
-2.510391458e-06
3.055414102e-06
-1.111408836e-05
1.832175711e-06
1.661957287e-06
2.419025629e-05
-1.772613212e-05
-7.451551743e-06
-8.37543228e-06
-1.894471571e-06
8.332622948e-07
-5.859458251e-06
8.29783014e-07
1.3896037e-06
1.264736702e-05
-8.870070583e-06
-7.765171384e-06
-3.48586837e-06
-1.487690408e-06
7.614424634e-07
-1.38532788e-06
6.611400881e-07
1.585940522e-06
6.358027337e-06
-5.011023384e-06
-8.199000483e-06
1.893167675e-07
-1.389414366e-06
5.039791643e-07
1.596251828e-06
5.109796738e-07
2.459601365e-06
3.697059794e-06
-1.241485013e-06
-8.511169543e-06
3.333944088e-06
-2.128657771e-06
7.901995652e-07
5.311250972e-06
1.055058282e-06
2.699917393e-06
-2.184325719e-06
6.622784108e-06
-7.280440905e-06
7.475736686e-06
-2.683241022e-06
1.292901272e-06
9.746140901e-06
1.486348055e-06
2.760242902e-06
-1.110962691e-05
1.820915913e-05
-7.949672286e-06
1.199280425e-05
-2.443390011e-06
1.626668566e-06
1.454195445e-05
1.779209056e-06
3.173253114e-06
-2.649569223e-05
3.57095832e-05
-1.429577424e-05
1.735687193e-05
-3.104213705e-06
1.940747953e-06
2.046586496e-05
2.096823666e-06
7.950559677e-06
-5.246134021e-05
0.0001143143852
-7.243887298e-05
2.484252403e-05
-3.553429532e-06
2.125586291e-06
3.424626946e-05
1.919070899e-06
0.0002152611399
-0.0006134687443
0.00129189052
-0.0008477090123
0.0001190099963
-8.601059901e-05
1.076558568e-05
4.140538529e-05
0.0003277587952
3.055609746e-06
2.255394359e-06
-1.839180163e-06
1.751874396e-07
-2.943114755e-06
9.8200211e-06
1.585498457e-07
3.1670802e-06
1.448995436e-06
9.848226057e-07
-4.445619751e-07
4.42665205e-07
-2.437001927e-06
2.32292978e-06
4.942784787e-07
1.49840679e-06
4.92844299e-07
7.417271146e-07
-8.060439588e-07
3.012466835e-07
-1.042688798e-06
1.230081856e-06
5.220725321e-08
7.009983719e-07
9.621474194e-08
5.120685795e-07
-1.832178986e-07
1.449456585e-11
-9.240929176e-08
6.784732526e-08
-1.569880161e-12
3.796330697e-10
1.551246245e-07
-3.781254664e-07
1.07646827e-06
1.100060781e-10
-1.242667537e-07
1.603541529e-11
1.404912518e-09
1.178425468e-10
3.538648427e-07
-2.049683513e-06
3.265154941e-06
9.033116636e-09
-2.475198256e-07
7.310029051e-10
3.617198285e-08
2.820531846e-09
5.952929061e-07
-4.709653618e-06
6.350953077e-06
9.824715748e-08
-4.730380554e-07
8.20531002e-09
1.963632293e-07
1.565567553e-08
8.37027306e-07
-8.118345146e-06
9.997922274e-06
3.639767968e-07
-7.133177552e-07
2.591295907e-08
6.064319666e-07
4.548098425e-08
1.062324978e-06
-1.201960858e-05
1.415345134e-05
8.426411407e-07
-9.461812359e-07
5.588205034e-08
1.170047629e-06
7.577794715e-08
8.504767052e-07
-1.632094223e-05
1.978809931e-05
1.055045188e-06
-1.141143583e-06
9.572669856e-08
9.610607499e-07
1.838229326e-08
6.333637189e-06
-3.415396047e-05
8.159831303e-05
2.248941279e-06
-1.698060149e-06
4.329197465e-08
9.1502487e-06
2.288931649e-07
0.0001762139548
-0.0003158950975
0.0007753824824
-0.0005195184241
6.73097781e-05
-5.811854961e-05
1.153811075e-05
0.0002327349277
4.717946591e-05
0.003062152052
-0.002331842647
0.007407938151
-0.007632842376
0.0008716233854
-0.00079399979
0.0002925921647
0.001584600426
0.002786569001
5.302118765e-06
-3.530899726e-06
6.916279297e-07
4.722908413e-06
-2.154823222e-05
3.204199681e-05
7.118124805e-07
7.199690386e-06
1.650146537e-06
-5.612308499e-07
5.014400557e-07
4.568868809e-07
-2.508326128e-06
2.655409869e-06
4.268978372e-07
1.75020288e-06
8.971731835e-07
-4.356388598e-07
2.48494734e-07
4.092489057e-07
-1.318744959e-06
1.368015405e-06
3.349246309e-07
9.988926753e-07
1.47414754e-07
-6.06662928e-08
8.674154864e-10
2.255065824e-07
-4.01218281e-07
6.471322772e-07
1.399918582e-07
5.485646907e-07
8.223500314e-16
1.301374078e-17
-4.362699878e-18
1.900304547e-08
-4.84529574e-11
3.856904723e-07
-4.146348438e-22
2.693304841e-09
3.153818302e-16
1.259780793e-17
2.313554149e-16
2.026722237e-25
-1.386428142e-17
1.786613801e-20
1.06612047e-25
-3.754391187e-22
1.22323069e-14
-3.434208332e-15
2.109742611e-14
1.500379103e-24
-3.141531954e-15
-2.729359513e-31
7.190759892e-24
-1.100424344e-41
1.931242725e-13
-1.278120444e-13
4.527196432e-13
2.818110201e-23
-4.02269301e-14
1.914140709e-24
1.610871323e-22
2.138393562e-23
6.156684219e-13
-1.041459686e-12
2.397050585e-12
2.199758652e-22
-2.51327651e-13
3.865881789e-23
6.254385996e-22
1.489359402e-22
3.244886133e-15
-1.55999431e-12
1.162936877e-12
8.403539187e-22
-8.151918449e-13
1.945844902e-22
3.182613082e-24
6.736605886e-25
2.000942645e-12
-4.764979566e-11
1.854479584e-07
2.694997268e-21
-8.607494471e-13
5.611236321e-22
1.178485693e-13
1.085674424e-21
9.964613012e-06
-1.099882405e-05
5.195356819e-05
7.363199268e-07
-1.10348596e-06
3.080125878e-09
8.646332109e-06
9.740860966e-07
0.0007396661058
-0.0003033028512
0.001466212657
8.561668228e-05
-9.60582128e-05
2.882873214e-05
0.0003260852888
0.0006508581195
7.163922903e-06
-4.068421261e-06
4.000900493e-07
-2.022347386e-08
-4.275774433e-05
3.464333566e-05
1.431792489e-07
4.512588743e-06
1.780123493e-06
-2.963120156e-07
3.229275129e-07
1.623453581e-07
-2.594330072e-06
2.486033897e-06
2.140901023e-07
1.784121356e-06
1.057161799e-06
-3.423333712e-07
3.273507663e-07
2.641450154e-07
-1.382517935e-06
1.371930848e-06
2.920310319e-07
1.097133646e-06
8.476675965e-07
-3.051384525e-07
3.570497671e-07
3.336190054e-07
-8.220298953e-07
9.726796999e-07
4.743012082e-07
1.120733673e-06
6.636032568e-07
-3.337088873e-07
8.157560233e-08
7.048651832e-07
-9.863777919e-07
1.468835222e-06
6.578280039e-07
1.659766123e-06
4.900083551e-16
-4.840963495e-12
3.851119623e-21
1.637051402e-07
-1.333957318e-08
9.026162916e-07
2.504792457e-11
1.398800914e-08
4.193956859e-40
-2.839806506e-30
1.962175636e-39
2.301199558e-20
-1.343551363e-30
3.300758111e-16
1.985579809e-29
7.218336236e-30
4.859220064e-33
-8.831090361e-34
1.431198898e-32
1.606510598e-38
-2.504194368e-34
6.712987023e-39
3.282874622e-42
1.542612489e-42
5.707293138e-32
-2.905992971e-32
1.342403299e-31
8.622192837e-42
-1.128439648e-32
4.5421431e-42
5.089958305e-41
3.062405452e-41
2.486740308e-34
-1.778935968e-31
5.613222545e-34
7.18635613e-41
-8.071670955e-32
4.736903327e-41
1.952123863e-43
1.363465278e-43
1.044418962e-30
-1.128778752e-30
1.165469436e-26
7.406647026e-40
-4.800475655e-31
5.689991109e-40
1.177185782e-39
1.372120203e-39
1.524576548e-09
-6.351329035e-10
6.256581636e-07
3.327269048e-20
-8.452349946e-14
7.129587108e-22
9.818759941e-10
2.200940694e-18
0.0001277318113
-2.054179771e-05
0.0002614197135
5.948906151e-06
-7.936184247e-06
7.494535407e-07
7.838347178e-05
4.729708288e-05
0.01831336962
-0.00190839983
-0.01419494177
0.001103581737
-0.001940868492
0.001055530866
0.02263450494
4.275064862e-06
-9.96394867e-06
1.28396896e-07
4.07853011e-05
-9.168877004e-05
0.0003058327185
-2.630620074e-08
1.316930593e-05
1.813232286e-06
-6.650660698e-08
1.051605791e-07
-5.168789256e-09
-2.505616916e-06
2.178526939e-06
-1.835631674e-08
1.939416626e-06
1.13948051e-06
-1.818630257e-07
2.533909061e-07
9.17978577e-08
-1.351909121e-06
1.332353615e-06
2.284299872e-07
1.197473607e-06
1.42518997e-06
-3.502980701e-07
5.648622159e-07
3.809666837e-07
-1.142554282e-06
1.387324875e-06
6.681654365e-07
1.831884845e-06
2.5490971e-06
-9.379430545e-07
1.332580267e-06
1.16093401e-06
-1.960237167e-06
2.552221246e-06
1.842597434e-06
3.483480359e-06
7.819444378e-07
-1.03794722e-06
1.192963349e-07
2.384834114e-06
-2.601332689e-06
4.279843405e-06
1.233715055e-06
3.17908561e-06
5.369925895e-19
-1.197139937e-12
1.114228164e-21
3.27205267e-08
-2.135963571e-09
1.966341696e-07
2.449196807e-15
6.460113424e-13
4.507700147e-40
-9.630628598e-31
8.200246234e-40
3.426917962e-24
-4.91546542e-31
2.055738704e-24
3.846141735e-33
2.314914773e-33
1.871262027e-50
-7.093815956e-49
2.936704179e-50
3.869950965e-42
-4.171132943e-49
2.429108743e-42
1.509335996e-48
2.441402971e-44
8.655037162e-53
-4.585701898e-50
1.170361953e-52
6.708681537e-48
-3.227287176e-50
3.282116019e-41
7.779874566e-47
6.158710281e-39
1.827449612e-44
-1.399467858e-42
1.823117102e-44
1.907336805e-36
-1.128500899e-42
5.404800809e-28
4.662433724e-39
3.274777409e-33
-1.418016654e-29
-1.139394959e-25
1.36991241e-18
4.974188627e-24
-4.967518801e-23
8.707436767e-20
6.344273564e-24
7.63586486e-24
1.172602421e-05
-7.666701351e-07
2.21058966e-05
2.362089321e-06
6.811137498e-07
-6.838015738e-06
1.479235733e-05
1.488445681e-07
0.02418412647
-0.0003560533274
-0.0007518257859
-0.001000396641
0.0008908756262
0.01885775189
0.0001297856415
-0.001189567008
0.0001751531678
0.0004456044618
0.0002093825283
-0.0001487307432
0.0002582606666
-1.16508802e-05
2.236434175e-06
1.707516846e-08
-1.265397623e-07
-6.526331405e-08
-2.967904715e-05
0.000123298387
-2.53927546e-07
3.392513122e-06
1.303725168e-06
-6.052668805e-09
2.117039907e-07
-1.144775493e-07
-1.348965993e-06
1.520856538e-06
1.6297053e-07
1.449471575e-06
2.437792026e-06
-4.372362315e-07
8.176439451e-07
5.310836583e-07
-1.777441757e-06
2.37679873e-06
1.075558424e-06
3.400640641e-06
4.610784358e-06
-1.443205904e-06
2.355253019e-06
1.914002836e-06
-3.36426979e-06
4.627567882e-06
3.099519109e-06
6.313464991e-06
5.864205397e-06
-3.441469295e-06
2.560713097e-06
5.260618327e-06
-6.013893088e-06
8.671100467e-06
6.853561235e-06
1.039883967e-05
5.293445276e-10
-2.49608465e-07
2.956318094e-12
1.74177352e-06
-1.302254068e-06
2.630406681e-06
1.50216665e-09
5.003932136e-07
1.465424455e-22
-2.596038471e-21
2.0480037e-30
-1.714547965e-08
-3.999721762e-16
5.195410804e-08
-3.041224358e-07
1.315131753e-07
4.050803906e-10
-1.431279634e-35
-1.009184817e-11
-1.451783093e-06
-5.097080056e-31
5.903562208e-07
-4.122263844e-06
1.68821375e-06
6.68957528e-11
8.170473069e-12
-6.141797249e-10
-1.021354689e-05
-1.462537224e-09
4.231975068e-06
-2.504330531e-05
1.107984422e-05
1.101925357e-08
1.149565082e-08
-9.328291828e-08
-5.694638702e-05
-1.338978891e-09
2.357794996e-05
-0.0001164133732
4.139426278e-05
2.826414297e-07
4.815657446e-07
-2.090774069e-06
-0.0002232657273
-6.713224084e-08
7.908545213e-05
-0.0004044132755
0.0001453246159
5.078333554e-05
-4.225893406e-06
-0.001195872787
-0.0006177865454
3.930726661e-05
0.0001471691868
-6.177769236e-05
-0.0006343496471
-8.062561066e-05
0.000142987458
4.298932196e-05
-1.00404976e-05
1.338768348e-05
-8.639015442e-05
2.830250673e-05
1.503636901e-05
1.285799846e-05
4.885357966e-06
8.375991422e-05
5.3075954e-05
3.045226642e-05
2.779735482e-06
-6.297976343e-07
0.0001062584404
-0.0002626465251
0.0003918292231
-7.644255484e-06
0.0003584249056
1.694957508e-06
3.016364136e-07
6.943998371e-08
-1.415172252e-06
-3.170039053e-06
4.335565179e-05
-1.088922147e-06
4.189099523e-06
5.476164688e-06
-7.410417322e-07
1.719549397e-06
5.161262948e-07
-3.488501388e-06
7.271376368e-06
1.48145475e-06
1.6930789e-05
1.274211337e-05
-3.130042052e-06
4.316262136e-06
-9.887952429e-07
-7.612046169e-06
2.583615162e-05
-5.971584688e-06
2.567012707e-05
5.821221468e-06
-2.813270435e-06
-1.584102915e-07
-3.048285269e-06
-2.915886225e-05
1.8029079e-05
-1.39319214e-06
2.709038232e-06
4.98263033e-07
1.36792338e-07
-2.000589508e-07
-1.456761127e-06
-1.596197894e-06
1.298947277e-06
-3.143677035e-06
1.676905824e-06
8.044198288e-07
6.708003033e-07
-1.870368515e-06
-6.981010856e-06
-3.374153063e-07
3.148184834e-06
-1.385292868e-05
6.173694715e-06
4.799054075e-06
4.671047686e-06
-1.026747781e-05
-2.684480838e-05
-2.158425164e-06
1.258275761e-05
-5.068389445e-05
2.378262572e-05
2.44882498e-05
2.144223618e-05
-4.374406177e-05
-9.457262731e-05
-1.071166152e-05
4.997181354e-05
-0.0001632642326
0.0001008274104
7.81461551e-05
8.375072237e-05
-0.0001549872814
-0.0002741476719
-4.617174879e-05
0.000185956672
-0.000421629284
0.0002526721199
0.000195483506
0.0002766417009
-0.0004280886601
-0.0005996610275
-0.0001324066438
0.0002913985212
-0.0006897749404
0.0002257727244
-0.0002676757287
0.0004854137108
-0.0001305783718
-0.0003276176438
-0.0001616004254
-0.0002215364092
0.0001956924816
-0.0007031882408
4.872642319e-06
-7.348424614e-05
2.496921704e-05
4.986008978e-06
3.26326557e-06
0.0001056687974
-0.0001043913863
0.0002394411158
7.535181649e-05
-2.793737079e-05
9.547842459e-06
0.0001229346839
0.0001048528814
0.0007866299099
-0.0002608146771
-2.457568626e-05
0.0001770464286
-0.0003937307919
0.0003114425206
-4.157482113e-05
0.000548450826
2.124077119e-05
9.88209517e-06
-1.011763952e-05
-2.997330606e-05
-0.0003584247464
0.0009516793443
-2.410380233e-05
5.207663933e-05
3.089413135e-05
9.316887029e-06
-8.821399976e-06
-2.701370639e-05
-1.814530167e-05
1.493335714e-05
-2.613777623e-05
1.878427362e-05
2.308951063e-05
9.161114686e-06
-7.368403986e-06
-2.419018376e-05
-3.253633022e-05
1.86281262e-05
-2.295676357e-05
1.550326268e-05
4.387711598e-06
4.030947161e-06
-8.243870064e-06
-3.264261437e-05
-1.076092276e-05
1.567973998e-05
-5.444501346e-05
2.063354994e-05
1.710859497e-05
1.909958803e-05
-4.472901046e-05
-8.773677794e-05
-7.567206359e-06
3.201160944e-05
-0.0001287573907
5.123694091e-05
8.827374396e-05
0.0001072151407
-0.0002896642001
-0.0001406633285
-3.570572318e-05
6.70192253e-05
-4.334826129e-07
7.374330914e-05
0.0001444347728
0.0007529041351
-0.001495657307
0.0004952773871
-0.0001584401856
-0.0001031790291
0.001689780155
-0.0005999634493
-1.531236447e-05
0.002295026855
-0.002848231922
0.002337414366
-7.942442281e-05
-0.001291003298
0.002679322171
-0.002098693818
0.0004339492904
0.002795415041
-0.002424552723
0.0001752344313
1.992563863e-06
-0.001036197861
-0.000767495013
-0.0003137328326
-0.0007095533882
0.0008654047967
-0.00072532724
0.0007624538311
-0.0005608297819
-0.0007434717507
-0.000501134015
0.0005967936739
-0.0004877329782
0.000565800161
-0.0004625551108
0.000597487895
-0.0006224262677
-0.0003789241521
-0.0005135232532
-0.0003651043678
0.0003984821848
-0.0003257925356
0.0004349688944
-0.0003101338675
0.0004238997295
-0.0004219380745
-0.0002537521709
-0.0003480700577
-0.0002899181565
0.0002655564044
-0.0002138293125
0.0003599362861
-0.0002067076876
0.000321559186
-0.000290701155
-0.0001664083729
-0.0002480009313
-0.0002465172954
0.000167667883
-0.0001246719976
0.0003098004595
-0.0001306154869
0.000266052272
-0.0002171457662
-9.754238427e-05
-0.0001948089811
-0.0002007052575
8.322864079e-05
-4.264393513e-05
0.0002473806269
-6.559733235e-05
0.0002269104467
-0.0001768568181
-3.386071897e-05
-0.000157031441
-0.0001963922844
5.010887166e-06
4.105446223e-05
0.0002324047197
-3.083387266e-06
0.0001549297194
-0.0001238746299
3.552725586e-05
-0.0001611566811
-0.000313561312
-9.037005325e-05
0.0001345633634
0.0003928196234
7.414507524e-05
0.0002793592115
-0.0002201873117
0.0001012978209
-0.0002346643478
-0.0003610639267
-0.0001666704121
0.0002439011029
0.0004168723743
0.0001539221175
0.0003273054336
-0.0002630042201
-0.0001651052918
5.536585077e-05
0.0002343431382
-0.0002350830278
0.0003201950675
-0.0001954313942
0.0001434676172
-0.0001102013031
-0.0001941300082
0.0005141309427
0.0001444762938
-0.0001532947681
0.0002668120992
-0.0002728879611
0.0001519101362
-7.482708571e-05
-0.0005538203955
-0.0002106686887
0.0006649763268
-0.0002364002283
0.0001236109203
-9.415289816e-05
-0.0002830912451
-0.000814882267
-0.0003305769896
0.0002807762523
-0.0002382901576
-0.0006123132408
0.0002028016614
-0.0001721326407
-0.0004246204407
-0.0002767253689
0.000143880778
-0.0001174357444
-0.0001831320794
9.254137298e-05
-6.914126e-05
4.660976838e-05
-2.422466314e-05
-0.0001319343678
1.126083024e-06
2.838380329e-05
-0.0001335432658
-0.0001735882879
-5.630260523e-05
7.317931546e-05
-6.991445317e-05
-0.0007509003613
0.0007153127939
-5.121143015e-05
-0.0001131494413
-0.0004962746867
0.0001072972513
-0.0001038810272
0.0002230978318
-8.404189135e-05
-0.0002994704411
0.0001547608742
-5.852718488e-05
0.0001132181491
-0.000111439278
-7.840873006e-05
-0.0001061784365
-0.0001594285955
0.0001578876286
-1.46018523e-05
7.449487656e-05
0.0001348470762
8.376266746e-05
-0.0001004140458
6.218809015e-05
-7.84605189e-05
-5.227499583e-05
3.205338832e-05
-0.0001747777106
-5.010896315e-05
0.0001349249917
-0.0001014690544
4.371407967e-05
-3.697159237e-05
-0.0001070803263
6.35741191e-05
-0.0005206060884
0.000758334115
-0.0006435595345
-0.0006943129093
0.000665308118
0.001234285289
-0.001064300855
0.001362798924
-0.0005408332957
-0.000652377969
0.001425035488
-0.0005106239578
-0.0003188316
0.0001602020896
0.0007643004675
-0.001040978495
0.0005088504841
-0.0006557778672
-0.000183303045
0.0001145901265
0.0003345802257
-0.0004908881648
0.0002376086831
-0.0001180139517
1.289401368e-05
-4.899114412e-05
-5.990873263e-05
8.397272961e-05
-2.257705356e-05
5.644407664e-05
-4.137568862e-05
1.226620478e-05
-2.883155398e-05
3.17540634e-05
7.338994671e-05
1.951392597e-05
-4.217061927e-05
-3.741827924e-05
4.719491265e-05
7.990938036e-05
-0.0001004127723
-0.000150409107
4.438362098e-05
0.0003774633831
-0.0009157470689
0.0002278719857
-0.0001801415043
0.00136399624
0.0004682120025
-0.00111452149
-0.0007400014004
0.0006673606724
-0.000534080544
0.001626828253
0.003152530386
-0.002712567076
0.003569776892
0.0007296101879
-0.000607122599
-0.0007721286024
0.003919106046
0.004194756173
-0.0007168037625
0.0002980770281
-0.000725288552
0.004401923911
0.0001050135191
-0.0004759285716
-0.00110381583
-7.388915119e-05
-0.004470193085
0.00666371893
-0.002547502691
-0.0001234847551
-0.005065991188
0.004587944194
0.001217274308
-0.001191551798
0.001314639058
-0.0009164812479
0.001308547068
-0.002442257126
0.001031428459
-0.001715360962
0.001838446839
-0.001284744195
-0.002893636882
0.0005690018061
0.003307474571
-0.0004786527152
0.0005633129063
-0.00735399763
0.006648429345
-0.0006171002015
0.0006255634915
0.00506003931
-0.003358664067
-0.0008441340481
-0.0008190408354
0.00529760172
-0.00485588035
6.767569969e-05
0.001733219883
-0.001466572248
-0.000741730578
-0.0006633277315
0.004363719936
-0.003861758022
6.405299226e-05
0.00122416087
-0.001016173672
-0.0005710220097
-0.0005510052516
0.003370740876
-0.002897147756
6.035816667e-05
0.0008387793177
-0.0006845614185
-0.0004628539189
-0.0004674051814
0.002437168711
-0.001978700971
6.038935092e-05
0.000548497358
-0.0004256169411
-0.0003937825057
-0.0003834381274
0.001505371616
-0.001005641979
5.696823312e-05
0.0003115452856
-0.0002039223815
-0.0003300934536
-0.0002425564269
0.0004882127217
1.844657124e-06
2.933103718e-05
0.0001027518074
-1.357477041e-05
-0.0002145579884
-0.0004568840906
-0.0006718279368
0.001407257153
8.778911554e-05
-9.19371904e-05
0.000214436699
-0.0003907972163
-0.0006364424035
-0.002100848343
0.002691036099
0.0001784249758
-0.000329731757
0.0004184123104
-0.0005043553333
0.0003590879256
-0.0009127893145
0.0008870256174
-0.000236280527
-0.002821399652
0.003422217781
-0.0005079498472
-0.0004532410691
-7.329561842e-06
-7.597578441e-06
-8.009606056e-06
-8.378086743e-06
-8.323165719e-06
-4.49890709e-06
-1.192339943e-05
-2.355109126e-05
-0.0005864838923
-0.004560088645
0.005110966312
0.001008325688
0.0005347065142
-0.001495980148
0.001887644675
0.0002105262935
-0.000117214081
-0.005192186087
0.006062875451
-0.0004310541771
-0.0002434920791
-0.002078567027
0.002283502148
0.0001196587
0.000633448917
0.0002309828598
-0.0004510956581
0.007689640377
-0.01234932788
0.009294969154
0.005411679907
-0.003151539397
0.0002022161124
-0.0003208209265
0.001565784422
-5.923820822e-05
-0.000364812491
-0.001914789573
0.0001408131428
0.001013286727
0.0001099059336
-0.0009302903367
0.0003711196216
-0.0005797286996
9.307163781e-05
0.0005497872961
-0.0004475752563
0.0004183388905
0.0005314330672
-0.0001630172812
0.0009791530228
0.0001244493299
-0.0001210680715
5.381204094e-06
0.0001070510333
-7.622125119e-05
3.615808547e-06
3.730647462e-05
-1.878465806e-06
3.002349812e-06
-4.631789242e-05
0.0001149803197
6.94090039e-06
-0.0003217099763
0.0008392765143
-5.043110885e-06
-0.001701370847
0.002876828698
-9.220845482e-05
-0.004392004931
0.006487394343
-0.0006456879256
-0.008835447406
0.005283442467
-0.0147883145
-0.0001560588665
0.002745200052
-0.004004984643
-7.027696298e-05
0.001879527254
-0.0001706901936
-0.001108361069
0.0006574387439
0.0004917201067
0.000392282224
0.0003337351242
0.0002834257953
0.0001879950461
0.0003406100151
0.0004241466735
0.0001660344973
-0.0002067724875
0.0003811961502
-0.0002313107053
0.0002127972009
0.0003329971293
-0.0003403793504
-0.0001191786771
-0.0002178351485
0.0002623366229
-0.0002838549569
0.0003458725691
-0.0002063136161
0.0001078258504
-0.0001189589463
-8.047428676e-06
7.936301783e-06
-1.91181253e-06
1.584145555e-05
-1.752527369e-05
-4.044733826e-06
-0.0005146946594
4.947461911e-05
-6.477936004e-05
-0.0003446816379
8.819786193e-05
-0.0001051115109
3.083388438e-05
1.241785794e-06
-0.0001729478542
-4.170173714e-05
-8.899134256e-10
9.210107522e-10
1.25779941e-10
-4.6740994e-11
-5.120877678e-09
5.297822153e-09
-2.317951422e-11
-3.514145892e-10
4.682954315e-09
8.238759987e-09
-1.390773206e-08
-1.842616459e-09
4.677766449e-06
-4.450546435e-06
1.78886143e-06
-1.180942824e-06
6.005168982e-05
-4.786135747e-05
7.86481583e-05
0.0002030621654
-0.0004357789388
0.0001175196734
-0.000326078139
0.0001028630809
5.882836619e-05
-0.0002665134743
0.0001192711775
-3.1103487e-12
1.504535032e-05
-0.0008698620422
0.0001330540705
-2.050788825e-11
3.578345624e-12
5.143675737e-13
-1.714782018e-12
-1.047198205e-12
-0.002972486482
0.002856831967
0.001089254514
-0.0009974435338
-0.002993603435
-0.001926386759
0.002113258255
0.004376484659
-0.004573594432
0.000725999142
-6.181336195e-08
-9.133578224e-08
1.879802216e-07
-9.447415204e-09
4.018849505e-08
2.411784728e-09
-1.085287986e-08
3.090723176e-08
1.93238483e-05
-2.637054279e-05
-5.572228971e-08
1.647089735e-05
-2.934606227e-12
7.39986904e-06
-1.024865624e-05
6.354107795e-06
-3.965119649e-13
-1.827163388e-12
3.890167966e-12
4.123709146e-06
-8.746085237e-13
-3.447064009e-06
7.432832026e-07
-6.453347585e-13
9.577582205e-08
-9.965107606e-08
2.652837447e-08
-5.119066237e-14
-2.077534605e-13
2.635908923e-13
7.342044851e-09
-1.660971883e-12
-8.600432761e-09
2.754815804e-09
0.0002429596589
0.00111813544
-0.002785673217
-2.443065345e-06
-0.0003717890575
7.698260726e-05
-7.736053706e-12
0.0002931667472
-0.00218522633
-1.590289771e-13
-6.767951028e-14
7.997648586e-14
1.303517633e-13
3.140130379e-13
-2.79366292e-14
3.964534025e-13
-2.057286397e-13