/*--------------------------------*- C++ -*----------------------------------*\
  =========                 |
  \\      /  F ield         | OpenFOAM: The Open Source CFD Toolbox
   \\    /   O peration     | Website:  https://openfoam.org
    \\  /    A nd           | Version:  8
     \\/     M anipulation  |
\*---------------------------------------------------------------------------*/
FoamFile
{
    version     2.0;
    format      ascii;
    class       volScalarField;
    location    "0.8/wallFilmRegion";
    object      rho;
}
// * * * * * * * * * * * * * * * * * * * * * * * * * * * * * * * * * * * * * //

dimensions      [1 -3 0 0 0 0 0];

internalField   nonuniform List<scalar> 
1342
(
994.5114685
994.5114686
994.5114687
994.5114688
994.5114706
994.5114694
994.511469
994.5114689
994.5114689
994.5114687
994.5114685
994.5114708
994.5114703
994.5114694
994.511469
994.5114688
994.5114687
994.5114692
994.5114686
994.5114688
994.5114691
994.5114704
994.5116209
994.5115081
994.5114742
994.5114689
994.5114686
994.5114685
994.5114685
994.5114769
994.5114725
994.5114699
994.5114693
994.5114691
994.5114691
994.5114692
994.5114687
994.5114687
994.5114688
994.5114704
994.5115918
994.5116871
994.5114943
994.5114685
994.5114684
994.5114906
994.5114718
994.5114702
994.5114698
994.5114697
994.51147
994.5114687
994.5114687
994.5114688
994.511469
994.5114691
994.5114693
994.511469
994.5114689
994.5114691
994.5114694
994.511723
994.5117132
994.5117532
994.5114686
994.5114686
994.5114687
994.5114688
994.5114689
994.5114691
994.5114693
994.5114694
994.5114694
994.5114694
994.511744
994.5117587
994.5114685
994.5114685
994.5114685
994.5114686
994.5114687
994.5114688
994.511469
994.5114693
994.5114693
994.5114694
994.5114693
994.5117968
994.5117816
994.5114684
994.5114684
994.5118931
994.511868
994.5117911
994.5117713
994.5117613
994.5117648
994.5117762
994.5114685
994.5114685
994.5114685
994.5114685
994.5114686
994.5114686
994.5114686
994.5114687
994.5114689
994.511469
994.5114689
994.5114693
994.5114704
994.5114704
994.5114693
994.5114692
994.5114707
994.5114692
994.5114692
994.5114712
994.5114692
994.5114692
994.5114714
994.5114693
994.5114694
994.5114708
994.5114693
994.5114693
994.5114707
994.5114693
994.5114693
994.5114704
994.5114693
994.5114693
994.5114706
994.5114693
994.5114694
994.5114715
994.5114696
994.5114703
994.5114717
994.5114718
994.5114726
994.511469
994.5114692
994.5114688
994.5114689
994.5114688
994.5114687
994.5114689
994.5114686
994.5114685
994.5114689
994.5114664
994.5114638
994.5114695
994.5114649
994.5114656
994.5114696
994.5114672
994.5114682
994.5114697
994.5114688
994.5114692
994.5114698
994.5114694
994.5114696
994.5114699
994.5114697
994.5114695
994.51147
994.5114696
994.5114694
994.5114725
994.5114701
994.5114719
994.5114733
994.5114733
994.5114734
994.5114725
994.5114731
994.5114726
994.511469
994.5114694
994.511469
994.5114685
994.5114686
994.5114683
994.5114682
994.5114682
994.5114681
994.5114673
994.5114679
994.5114682
994.511413
994.5114692
994.5114576
994.5114275
994.511413
994.5114494
994.5114489
994.5114121
994.5114118
994.5114587
994.5114115
994.511411
994.5114615
994.5114102
994.5114087
994.5114485
994.5114066
994.5114041
994.5114692
994.5114019
994.5114009
994.5114732
994.5114719
994.5114727
994.5114724
994.5114725
994.511472
994.511469
994.5114693
994.5114688
994.5114682
994.5114683
994.5114681
994.5114679
994.5114679
994.5114678
994.5114682
994.5114678
994.5114683
994.51147
994.511469
994.5114698
994.5114135
994.5114705
994.5114678
994.5114684
994.5114141
994.5114684
994.5114684
994.5114684
994.5114684
994.5114684
994.5114684
994.5114684
994.5114684
994.5114684
994.5114684
994.5114684
994.5114684
994.5114684
994.5114712
994.5113959
994.5114077
994.5114715
994.5114714
994.511471
994.5114701
994.5114705
994.5114698
994.5114687
994.5114696
994.5114693
994.511468
994.5114682
994.5114679
994.5114677
994.5114677
994.5114677
994.5114683
994.511468
994.5114684
994.5114697
994.5114689
994.5114696
994.5114707
994.5114705
994.511471
994.5114142
994.5114709
994.5114556
994.5114684
994.5114144
994.5114684
994.5114684
994.5114684
994.5114684
994.5114684
994.5114684
994.5114684
994.5114684
994.5114684
994.5114684
994.511413
994.5114189
994.5114103
994.5114704
994.5114686
994.5114692
994.5114696
994.5114691
994.5114693
994.5114708
994.5114716
994.5114709
994.5114679
994.5114706
994.5114682
994.5114678
994.5114677
994.5114679
994.5114685
994.5114683
994.5114686
994.5114695
994.5114689
994.5114694
994.511471
994.5114704
994.5114713
994.5114676
994.5114716
994.5114711
994.5114684
994.5114602
994.511464
994.5114123
994.5114677
994.5114685
994.5114085
994.5114687
994.5114688
994.5114497
994.5114688
994.5114688
994.511468
994.5114688
994.5114688
994.5114688
994.5114688
994.5114689
994.5114721
994.5114719
994.5114711
994.5114718
994.5114705
994.5114693
994.51147
994.5114697
994.5114681
994.5114692
994.5114689
994.5114688
994.5114691
994.5114697
994.5114697
994.5114703
994.5114707
994.5114715
994.5114714
994.511471
994.5114685
994.5114697
994.5114687
994.5114676
994.5114689
994.5114691
994.5114687
994.5114693
994.5114693
994.5114689
994.5114693
994.5114693
994.5114689
994.5114693
994.5114692
994.5114689
994.5114692
994.5114692
994.511469
994.5114692
994.5114692
994.5114715
994.5114711
994.5114706
994.5114703
994.5114705
994.5114698
994.5114702
994.5114698
994.51147
994.5114695
994.5114703
994.5114704
994.5114705
994.5114706
994.5114708
994.5114707
994.5114704
994.5114697
994.5114699
994.5114696
994.5114694
994.5114696
994.5114696
994.5114695
994.5114696
994.5114696
994.5114695
994.5114695
994.5114696
994.5114694
994.5114696
994.5114696
994.5114694
994.5114695
994.5114694
994.5114686
994.5114686
994.5114686
994.5114686
994.5114686
994.5114686
994.5114686
994.5114686
994.5114686
994.5114686
994.5114686
994.5114686
994.5114686
994.5114687
994.5114686
994.5114687
994.5114687
994.5114686
994.5114688
994.5114687
994.5114686
994.5114686
994.5114686
994.5114686
994.5114686
994.5114686
994.5114686
994.5114686
994.5114686
994.5114687
994.5114687
994.5114688
994.5114686
994.5114687
994.5114687
994.5114687
994.5114688
994.5114688
994.5114687
994.5114687
994.5114687
994.5114687
994.5114688
994.5114689
994.5114689
994.5114689
994.5114687
994.5114686
994.5114687
994.5114687
994.5114687
994.5114687
994.5114687
994.5114688
994.5114689
994.5114687
994.5114687
994.5114688
994.5114687
994.5114687
994.5114689
994.5114688
994.511469
994.5114692
994.511469
994.5114691
994.5114691
994.5114692
994.5114692
994.5114689
994.5114689
994.5114689
994.5114691
994.511469
994.5114693
994.5114691
994.5114694
994.5114686
994.5114686
994.5114687
994.5114686
994.5114688
994.5114689
994.5114692
994.511469
994.511469
994.5114693
994.5114692
994.5114694
994.5114693
994.5114694
994.5114685
994.5114685
994.5114687
994.5114693
994.5114693
994.5114703
994.5114685
994.5114704
994.5114685
994.5114704
994.5114685
994.5114705
994.5114685
994.5114704
994.5114685
994.5114702
994.5114686
994.5114696
994.5114685
994.5114696
994.5114685
994.5114685
994.5114697
994.5114685
994.5114704
994.5114705
994.5114709
994.5114714
994.511471
994.5114707
994.5114704
994.5114704
994.511471
994.5114712
994.5114715
994.5114685
994.5114718
994.5114685
994.511469
994.511469
994.5114688
994.5114689
994.5114693
994.5114696
994.5114697
994.5114698
994.5114698
994.5114699
994.511471
994.5114731
994.511473
994.5114685
994.5114686
994.5114723
994.5114693
994.5114687
994.5114684
994.5114678
994.5114189
994.511417
994.511441
994.511454
994.5114601
994.5114625
994.5114501
994.5114731
994.5114729
994.5114715
994.5114694
994.5114685
994.511468
994.5114678
994.5114691
994.5114658
994.5114684
994.5114684
994.5114684
994.5114684
994.5114684
994.5114183
994.511472
994.5114709
994.5114693
994.5114682
994.5114678
994.5114679
994.511469
994.5114705
994.5114659
994.5114684
994.5114684
994.5114684
994.5114684
994.5114684
994.5114694
994.5114695
994.5114709
994.5114706
994.5114676
994.5114681
994.5114689
994.5114704
994.5114711
994.5114149
994.5114684
994.5114103
994.511417
994.5114643
994.5114688
994.5114689
994.5114718
994.5114701
994.5114683
994.5114685
994.5114691
994.5114713
994.511471
994.5114657
994.5114684
994.5114688
994.5114689
994.5114689
994.5114689
994.5114691
994.5114715
994.5114709
994.5114702
994.5114694
994.5114702
994.5114707
994.5114711
994.5114694
994.5114694
994.5114695
994.5114694
994.5114694
994.5114694
994.5114693
994.5114697
994.5114697
994.5114695
994.5114702
994.5114701
994.5114698
994.5114694
994.5114692
994.5114692
994.5114695
994.5114694
994.5114691
994.5114694
994.5114686
994.5114686
994.5114686
994.5114686
994.5114686
994.5114686
994.5114687
994.5114686
994.5114686
994.5114686
994.5114686
994.5114686
994.5114686
994.5114686
994.5114687
994.5114688
994.5114726
994.5114702
994.5114686
994.5114687
994.5114687
994.5114687
994.5114688
994.5114687
994.5114688
994.5114689
994.511469
994.5114687
994.5114687
994.5114686
994.5116764
994.5116729
994.5116362
994.5114726
994.5114689
994.511469
994.511469
994.5114696
994.5114695
994.511729
994.5114684
994.5114684
994.5114684
994.5115677
994.5116121
994.5114709
994.511471
994.511856
994.5114724
994.5115312
994.5118016
994.5117424
994.5114693
994.5114693
994.5114694
994.5117506
994.5117405
994.5117653
994.5114684
994.5114684
994.5115114
994.5118482
994.5118281
994.511789
994.5117767
994.511777
994.5114685
994.5114685
994.5114685
994.5114686
994.5114686
994.5114687
994.5114686
994.5114687
994.5114689
994.511469
994.5114685
994.5114684
994.5114685
994.5114686
994.5114687
994.5114688
994.5114689
994.511469
994.5114691
994.5114684
994.5114684
994.5116804
994.5116923
994.5117169
994.5117451
994.5117661
994.5117834
994.511803
994.5114684
994.5114684
994.5117207
994.5116743
994.5117064
994.5117401
994.5117624
994.5117779
994.5117874
994.5114703
994.5114685
994.5114724
994.5114685
994.5114703
994.5114685
994.5114724
994.5114725
994.5114685
994.5114685
994.5114704
994.5114685
994.5114725
994.5114725
994.5114685
994.5114685
994.5114704
994.5114685
994.5114726
994.5114726
994.5114685
994.5114685
994.5114705
994.5114685
994.5114726
994.5114725
994.5114686
994.5114686
994.5114704
994.5114685
994.5114725
994.5114724
994.5114686
994.5114686
994.5114696
994.5114685
994.5114722
994.511471
994.5114686
994.5114686
994.5114696
994.5114685
994.5114709
994.5114709
994.5114686
994.5114686
994.5114698
994.5114685
994.5114708
994.5114707
994.5114685
994.5114685
994.5114704
994.5114706
994.5114685
994.5114706
994.5114717
994.5114725
994.5114727
994.5114725
994.5114723
994.5114686
994.5114717
994.5114686
994.5114687
994.5114711
994.5114713
994.5114687
994.5114706
994.5114687
994.5114688
994.5114692
994.511469
994.51147
994.5114697
994.5114692
994.5115443
994.511506
994.511484
994.5114695
994.5114692
994.511477
994.5114693
994.5114694
994.511469
994.5114693
994.5114691
994.5114692
994.5114693
994.5114736
994.5114709
994.5114697
994.5114697
994.5114688
994.5114689
994.5114691
994.5114697
994.5114689
994.511469
994.511469
994.5114691
994.5114689
994.5114696
994.5114691
994.5114691
994.5114688
994.5114688
994.5114686
994.51147
994.5114693
994.5114687
994.5114686
994.5114685
994.5114685
994.5114702
994.5114686
994.5114686
994.5114718
994.5114685
994.5114764
994.5114699
994.5114686
994.5114686
994.5114706
994.5114741
994.5114743
994.5114694
994.5114686
994.5114686
994.5114698
994.511472
994.5114705
994.5114693
994.5114686
994.5114686
994.5114691
994.5114698
994.5114694
994.5114692
994.5114686
994.5114686
994.5114689
994.5114692
994.5114691
994.5114693
994.5114687
994.5114687
994.5114688
994.511469
994.511469
994.5114695
994.511469
994.5114692
994.5114687
994.5114689
994.5114689
994.5114692
994.5114694
994.5114693
994.511469
994.5114689
994.5114693
994.5114691
994.5114686
994.5114687
994.5114686
994.5114687
994.5114688
994.5114689
994.5114689
994.5114691
994.5114691
994.5114694
994.5114695
994.511471
994.5114767
994.5114766
994.5115241
994.5116221
994.5115885
994.511663
994.5116591
994.5116212
994.5115382
994.5116455
994.5114861
994.51151
994.5115235
994.5115644
994.511469
994.5114687
994.5114685
994.5114685
994.5114685
994.5114685
994.5114685
994.5114801
994.5114685
994.5114864
994.511478
994.5114822
994.511485
994.5114706
994.5114724
994.5114707
994.5114696
994.51147
994.5114697
994.5114692
994.5114695
994.5114694
994.5114691
994.5114694
994.5114694
994.5114692
994.5114694
994.5114695
994.5114697
994.5114704
994.5114716
994.5114817
994.5114729
994.5114687
994.5114688
994.511469
994.5114688
994.5114687
994.5114688
994.5114689
994.5114689
994.5114689
994.5114689
994.511469
994.5114689
994.5114693
994.5114692
994.5114696
994.51147
994.5114769
994.5114715
994.5117483
994.5116888
994.5116843
994.5117179
994.5117384
994.5116645
994.5117036
994.5117091
994.5116845
994.5116984
994.511708
994.5116419
994.5115704
994.5115058
994.5117057
994.511683
994.5114685
994.5114685
994.5114684
994.5114684
994.5114684
994.5114684
994.5115071
994.5114958
994.5115026
994.5115133
994.5114967
994.5114706
994.5114713
994.5114706
994.5114703
994.5114702
994.5114699
994.5114701
994.5114697
994.5114701
994.5114702
994.5114698
994.5114704
994.5114711
994.5114708
994.5114725
994.5114759
994.5114757
994.5114809
994.5115227
994.5114686
994.5114687
994.5114687
994.5114688
994.5114689
994.511469
994.5114692
994.5114691
994.5114691
994.5114691
994.5114686
994.5114687
994.5114689
994.511469
994.5114693
994.5114693
994.5114691
994.511469
994.5114689
994.5114695
994.5114695
994.5117889
994.5117694
994.5117574
994.5117754
994.5117464
994.5117615
994.5117373
994.5117081
994.5117212
994.511737
994.5117447
994.511729
994.511725
994.5114684
994.5114684
994.5114684
994.5114684
994.5115264
994.5118345
994.5118618
994.511471
994.5114766
994.511856
994.5118467
994.5118444
994.511831
994.5118132
994.5117988
994.5117926
994.5117904
994.5117884
994.5117262
994.5117458
994.5117549
994.5117827
994.5117312
994.5117344
994.5117622
994.5114684
994.5114684
994.5114684
994.5115298
994.5116053
994.511659
994.5114708
994.5118583
994.5114714
994.5114801
994.5116408
994.5117955
994.5117755
994.5117841
994.5114686
994.5114686
994.5114686
994.5114686
994.5114686
994.5114687
994.5114687
994.5114693
994.5114693
994.5114694
994.5114694
994.5114685
994.5114685
994.5114685
994.5114685
994.5114685
994.5114685
994.5114686
994.5114685
994.5114686
994.5114686
994.5114686
994.5114688
994.5114689
994.5114688
994.5114689
994.5114691
994.5114689
994.5114691
994.5114693
994.5114692
994.5114693
994.5114693
994.5114693
994.5114693
994.5114692
994.5114691
994.5114693
994.5114694
994.5114693
994.5114695
994.5114694
994.5114694
994.5114693
994.5118121
994.5118016
994.5117892
994.5118025
994.5117898
994.5117739
994.5117775
994.5117543
994.5117613
994.5117548
994.5117773
994.5114684
994.5114684
994.5114684
994.5114684
994.5114684
994.5114684
994.5114992
994.5117252
994.5119614
994.512125
994.5131207
994.5120534
994.5118661
994.5118825
994.5117797
994.5118306
994.5118114
994.5117636
994.5118151
994.5117987
994.5117997
994.5117887
994.5117821
994.5117797
994.5117814
994.511779
994.5117794
994.5117616
994.5117689
994.5117599
994.5117764
994.5117616
994.5117667
994.5114684
994.5114684
994.511517
994.5115073
994.5119243
994.5118627
994.5118317
994.5118108
994.5117838
994.5117832
994.5117793
994.5114685
994.5114685
994.5114685
994.5114685
994.5114685
994.5114685
994.5114685
994.5114685
994.5114685
994.5114685
994.5114685
994.5114686
994.5114686
994.5114686
994.5114687
994.5114686
994.5114687
994.5114688
994.5114687
994.5114688
994.5114689
994.5114688
994.5114689
994.5114691
994.511469
994.5114691
994.5114691
994.5114685
994.5114684
994.5114684
994.5114684
994.5114684
994.5114685
994.5114684
994.511666
994.5114685
994.5116954
994.5117066
994.5114686
994.5117154
994.5117236
994.5114687
994.5117305
994.5117387
994.5114688
994.5117472
994.5117558
994.5114689
994.5117648
994.5117748
994.5114691
994.511786
994.511797
994.5114692
994.5118072
994.5118125
994.5118045
994.5114684
994.5114684
994.5114684
994.5114684
994.5114684
994.5116626
994.5114684
994.5116842
994.5116835
994.5116821
994.5116689
994.5117047
994.5116742
994.5116897
994.5117311
994.5117068
994.5117238
994.5117597
994.5117405
994.5117555
994.5117741
994.511764
994.5117722
994.5117934
994.5117803
994.5117867
994.5118093
994.5117931
994.5117977
994.511784
994.5117637
994.5114684
994.5114684
994.5114684
994.5114684
994.5114684
994.5114684
994.5114684
994.5117195
994.5114684
994.5117395
994.5114957
994.5116777
994.5117974
994.5117453
994.5116872
994.511709
994.511704
994.5118148
994.5117259
994.5117218
994.5117375
994.5117533
994.5117479
994.5117541
994.5117713
994.5117612
994.5117696
994.5117617
994.5117839
994.5117765
994.51178
994.5117587
994.5117708
)
;

boundaryField
{
    walls
    {
        type            zeroGradient;
    }
    wallFilmFace_top
    {
        type            zeroGradient;
    }
    region0_to_wallFilmRegion_wallFilmFace
    {
        type            zeroGradient;
    }
    mirrorFace_top
    {
        type            zeroGradient;
    }
    region0_to_wallFilmRegion_mirrorFace
    {
        type            zeroGradient;
    }
    procBoundary3to2
    {
        type            processor;
        value           nonuniform List<scalar> 
64
(
994.5114688
994.5114691
994.5114687
994.5114685
994.5114685
994.5114686
994.5114686
994.5114686
994.5114684
994.5114703
994.5114693
994.5114693
994.5114693
994.511469
994.5114694
994.5114694
994.5114694
994.5114694
994.5114694
994.5114693
994.5114699
994.5114711
994.5114722
994.5114722
994.5114719
994.5114717
994.5114717
994.5114707
994.5114709
994.5114709
994.5114686
994.5114686
994.5114686
994.5114686
994.5114686
994.5114703
994.5114685
994.5114724
994.5114693
994.5114685
994.5114684
994.5114685
994.5114685
994.5114685
994.5114684
994.5114684
994.5114724
994.5114685
994.5114687
994.5114691
994.5114688
994.5114686
994.5114685
994.5114685
994.5114686
994.5114684
994.5114684
994.5114686
994.5114684
994.5114684
994.5114685
994.5114685
994.5114684
994.5114684
)
;
    }
}


// ************************************************************************* //
