/*--------------------------------*- C++ -*----------------------------------*\
  =========                 |
  \\      /  F ield         | OpenFOAM: The Open Source CFD Toolbox
   \\    /   O peration     | Website:  https://openfoam.org
    \\  /    A nd           | Version:  8
     \\/     M anipulation  |
\*---------------------------------------------------------------------------*/
FoamFile
{
    version     2.0;
    format      ascii;
    class       volScalarField;
    location    "0.8/wallFilmRegion";
    object      sigma;
}
// * * * * * * * * * * * * * * * * * * * * * * * * * * * * * * * * * * * * * //

dimensions      [1 0 -2 0 0 0 0];

internalField   nonuniform List<scalar> 
1342
(
0.07244713489
0.07244713498
0.07244713503
0.07244713508
0.07244713648
0.07244713554
0.07244713524
0.07244713522
0.07244713522
0.07244713503
0.0724471349
0.07244713665
0.07244713622
0.07244713556
0.07244713525
0.07244713512
0.07244713506
0.07244713544
0.07244713493
0.07244713513
0.07244713533
0.0724471363
0.0724472511
0.07244716508
0.07244713924
0.07244713518
0.07244713497
0.07244713488
0.07244713486
0.07244714132
0.07244713793
0.07244713596
0.07244713553
0.07244713537
0.07244713535
0.07244713542
0.072447135
0.07244713507
0.07244713513
0.0724471363
0.07244722892
0.07244730153
0.07244715458
0.07244713485
0.07244713484
0.07244715174
0.07244713739
0.07244713616
0.07244713587
0.07244713582
0.07244713599
0.07244713502
0.07244713506
0.07244713513
0.07244713523
0.07244713536
0.07244713549
0.07244713524
0.07244713518
0.07244713531
0.07244713554
0.07244732892
0.07244732143
0.07244735198
0.07244713497
0.07244713499
0.07244713504
0.07244713511
0.07244713521
0.07244713533
0.07244713548
0.07244713555
0.0724471356
0.07244713556
0.07244734492
0.07244735615
0.0724471349
0.07244713489
0.07244713492
0.07244713496
0.07244713503
0.07244713513
0.07244713528
0.07244713546
0.07244713546
0.07244713554
0.07244713549
0.07244738519
0.07244737361
0.07244713484
0.07244713483
0.07244745863
0.07244743948
0.07244738085
0.07244736574
0.07244735813
0.07244736083
0.07244736948
0.07244713491
0.07244713489
0.07244713491
0.07244713492
0.07244713494
0.07244713496
0.07244713495
0.07244713505
0.07244713519
0.07244713528
0.07244713517
0.07244713547
0.07244713632
0.07244713636
0.07244713547
0.07244713544
0.07244713657
0.07244713542
0.07244713541
0.07244713695
0.07244713541
0.07244713542
0.07244713708
0.07244713547
0.07244713553
0.07244713664
0.0724471355
0.07244713548
0.07244713652
0.07244713548
0.07244713548
0.0724471363
0.07244713547
0.07244713548
0.07244713648
0.07244713552
0.07244713557
0.07244713714
0.0724471357
0.07244713622
0.0724471373
0.07244713739
0.07244713799
0.07244713528
0.07244713542
0.07244713514
0.07244713521
0.07244713511
0.07244713502
0.07244713519
0.07244713493
0.0724471349
0.0724471352
0.07244713325
0.07244713131
0.07244713565
0.07244713214
0.07244713266
0.07244713574
0.07244713389
0.07244713464
0.07244713581
0.07244713515
0.07244713544
0.07244713587
0.07244713558
0.07244713571
0.07244713592
0.07244713579
0.07244713565
0.072447136
0.07244713569
0.07244713557
0.07244713791
0.07244713607
0.07244713746
0.07244713854
0.07244713851
0.07244713865
0.07244713797
0.07244713842
0.07244713802
0.07244713524
0.07244713553
0.07244713529
0.07244713488
0.07244713495
0.07244713477
0.07244713469
0.07244713465
0.07244713454
0.07244713399
0.0724471344
0.07244713463
0.07244709259
0.07244713543
0.07244712658
0.07244710361
0.0724470926
0.07244712035
0.07244711996
0.07244709187
0.07244709162
0.07244712739
0.0724470914
0.07244709107
0.07244712955
0.07244709041
0.07244708931
0.07244711965
0.07244708769
0.07244708577
0.07244713545
0.0724470841
0.07244708335
0.0724471385
0.07244713748
0.0724471381
0.07244713785
0.07244713795
0.07244713753
0.07244713526
0.07244713551
0.07244713508
0.07244713467
0.07244713474
0.07244713457
0.07244713443
0.07244713443
0.07244713434
0.07244713469
0.07244713438
0.07244713472
0.07244713599
0.07244713527
0.07244713589
0.07244709296
0.07244713639
0.07244713433
0.07244713482
0.07244709341
0.07244713482
0.07244713482
0.07244713482
0.07244713482
0.07244713482
0.07244713482
0.07244713482
0.07244713482
0.07244713482
0.07244713482
0.07244713482
0.07244713482
0.07244713482
0.07244713695
0.07244707955
0.07244708854
0.07244713714
0.07244713709
0.07244713679
0.07244713613
0.07244713641
0.07244713588
0.07244713505
0.0724471357
0.07244713549
0.07244713448
0.07244713463
0.07244713442
0.07244713429
0.07244713425
0.07244713429
0.07244713476
0.07244713449
0.07244713481
0.07244713581
0.07244713521
0.07244713573
0.0724471366
0.07244713637
0.07244713681
0.07244709351
0.07244713668
0.07244712504
0.07244713482
0.07244709361
0.07244713482
0.07244713482
0.07244713482
0.07244713482
0.07244713482
0.07244713482
0.07244713482
0.07244713482
0.07244713482
0.07244713482
0.07244709254
0.07244709703
0.07244709054
0.07244713636
0.07244713496
0.07244713543
0.07244713569
0.07244713538
0.0724471355
0.07244713661
0.07244713725
0.07244713669
0.07244713442
0.07244713646
0.07244713462
0.07244713435
0.07244713426
0.07244713443
0.07244713489
0.07244713474
0.07244713497
0.07244713565
0.07244713521
0.0724471356
0.0724471368
0.07244713632
0.07244713703
0.07244713422
0.07244713723
0.07244713689
0.07244713482
0.07244712859
0.07244713146
0.07244709202
0.07244713431
0.07244713487
0.07244708916
0.07244713502
0.07244713509
0.07244712058
0.07244713511
0.07244713512
0.07244713452
0.07244713512
0.07244713513
0.07244713514
0.07244713515
0.07244713518
0.07244713764
0.07244713744
0.07244713689
0.07244713736
0.07244713639
0.07244713546
0.07244713606
0.07244713579
0.07244713454
0.0724471354
0.0724471352
0.07244713509
0.07244713536
0.07244713579
0.07244713581
0.07244713623
0.07244713653
0.07244713718
0.07244713708
0.07244713682
0.07244713491
0.07244713579
0.07244713501
0.0724471342
0.07244713519
0.07244713538
0.07244713504
0.07244713546
0.07244713549
0.07244713516
0.0724471355
0.0724471355
0.07244713519
0.07244713548
0.07244713544
0.0724471352
0.0724471354
0.07244713539
0.07244713526
0.07244713539
0.07244713541
0.07244713721
0.07244713686
0.07244713645
0.07244713623
0.0724471364
0.07244713585
0.07244713616
0.07244713588
0.07244713604
0.07244713565
0.07244713628
0.07244713633
0.07244713643
0.0724471365
0.07244713665
0.07244713653
0.07244713635
0.07244713583
0.07244713599
0.0724471357
0.07244713556
0.0724471357
0.07244713571
0.07244713561
0.07244713572
0.07244713572
0.07244713561
0.07244713567
0.07244713573
0.0724471356
0.07244713574
0.07244713572
0.07244713557
0.07244713568
0.0724471356
0.07244713492
0.07244713495
0.07244713492
0.07244713495
0.07244713496
0.07244713493
0.07244713496
0.07244713497
0.07244713494
0.07244713498
0.07244713499
0.07244713496
0.072447135
0.07244713501
0.072447135
0.07244713502
0.07244713505
0.07244713499
0.07244713508
0.07244713501
0.07244713495
0.07244713499
0.07244713498
0.07244713493
0.07244713497
0.07244713495
0.07244713496
0.07244713496
0.07244713498
0.07244713501
0.07244713507
0.07244713513
0.07244713498
0.072447135
0.07244713503
0.07244713506
0.07244713508
0.07244713513
0.07244713505
0.07244713501
0.072447135
0.07244713501
0.07244713514
0.07244713517
0.07244713519
0.07244713521
0.07244713505
0.07244713499
0.07244713504
0.07244713506
0.072447135
0.07244713506
0.07244713503
0.0724471351
0.07244713515
0.07244713501
0.07244713504
0.07244713509
0.07244713504
0.07244713507
0.07244713518
0.0724471351
0.07244713529
0.07244713543
0.0724471353
0.07244713537
0.07244713533
0.07244713545
0.07244713545
0.0724471352
0.07244713517
0.0724471352
0.07244713535
0.07244713528
0.07244713546
0.07244713536
0.07244713556
0.07244713497
0.07244713494
0.07244713507
0.07244713496
0.07244713511
0.07244713517
0.07244713541
0.07244713523
0.0724471353
0.07244713552
0.07244713538
0.07244713557
0.07244713553
0.07244713556
0.07244713488
0.07244713489
0.07244713505
0.07244713548
0.07244713546
0.07244713626
0.0724471349
0.07244713631
0.07244713489
0.07244713635
0.07244713489
0.07244713638
0.0724471349
0.07244713637
0.07244713491
0.0724471362
0.07244713493
0.0724471357
0.07244713491
0.07244713576
0.07244713489
0.07244713488
0.07244713583
0.07244713488
0.0724471363
0.07244713645
0.07244713674
0.07244713713
0.07244713678
0.07244713657
0.07244713635
0.07244713636
0.07244713678
0.07244713697
0.07244713715
0.07244713491
0.07244713742
0.0724471349
0.07244713529
0.07244713527
0.07244713514
0.07244713516
0.07244713551
0.07244713571
0.07244713578
0.07244713584
0.0724471359
0.07244713594
0.07244713682
0.07244713837
0.0724471383
0.07244713492
0.07244713493
0.07244713778
0.07244713551
0.07244713501
0.07244713477
0.07244713437
0.07244709705
0.07244709558
0.07244711394
0.07244712386
0.07244712846
0.07244713034
0.07244712087
0.0724471384
0.07244713828
0.07244713718
0.07244713554
0.07244713485
0.07244713454
0.07244713439
0.07244713533
0.07244713279
0.07244713482
0.07244713482
0.07244713482
0.07244713482
0.07244713482
0.07244709663
0.07244713759
0.07244713673
0.07244713549
0.07244713466
0.07244713434
0.07244713442
0.07244713523
0.07244713641
0.07244713287
0.07244713482
0.07244713482
0.07244713482
0.07244713482
0.07244713482
0.07244713557
0.07244713567
0.07244713668
0.07244713647
0.0724471342
0.07244713461
0.0724471352
0.0724471363
0.07244713688
0.07244709404
0.07244713482
0.07244709053
0.07244709564
0.07244713169
0.07244713512
0.07244713517
0.07244713738
0.07244713609
0.07244713476
0.07244713491
0.07244713531
0.07244713703
0.07244713683
0.07244713276
0.07244713483
0.07244713512
0.07244713518
0.07244713519
0.07244713522
0.07244713531
0.07244713719
0.07244713669
0.07244713615
0.07244713557
0.07244713616
0.07244713653
0.07244713687
0.07244713554
0.07244713559
0.07244713561
0.0724471356
0.07244713559
0.07244713555
0.07244713552
0.07244713582
0.07244713579
0.07244713567
0.07244713619
0.07244713608
0.07244713588
0.07244713557
0.07244713543
0.07244713539
0.07244713562
0.07244713556
0.07244713535
0.07244713558
0.07244713493
0.07244713492
0.07244713493
0.07244713494
0.07244713495
0.07244713497
0.07244713503
0.07244713497
0.07244713494
0.07244713492
0.07244713493
0.07244713495
0.07244713495
0.07244713497
0.07244713503
0.07244713508
0.07244713797
0.07244713621
0.07244713499
0.07244713501
0.07244713505
0.07244713504
0.07244713511
0.07244713507
0.0724471351
0.07244713517
0.07244713528
0.07244713502
0.07244713507
0.072447135
0.07244729343
0.07244729076
0.07244726275
0.072447138
0.07244713519
0.07244713527
0.07244713525
0.07244713574
0.07244713565
0.07244733353
0.07244713484
0.07244713484
0.07244713484
0.07244721048
0.07244724435
0.07244713672
0.07244713677
0.07244743036
0.07244713782
0.07244718268
0.07244738882
0.07244734372
0.07244713547
0.07244713548
0.0724471356
0.07244734994
0.07244734228
0.07244736118
0.07244713484
0.07244713484
0.07244716757
0.07244742437
0.07244740902
0.07244737923
0.07244736986
0.07244737009
0.07244713487
0.07244713486
0.07244713489
0.07244713494
0.07244713493
0.072447135
0.07244713498
0.07244713506
0.07244713515
0.07244713527
0.07244713485
0.07244713484
0.07244713489
0.07244713494
0.072447135
0.07244713507
0.07244713516
0.07244713527
0.07244713537
0.07244713483
0.07244713483
0.07244729645
0.07244730551
0.07244732425
0.07244734577
0.07244736178
0.072447375
0.07244738992
0.07244713483
0.07244713483
0.07244732716
0.07244729183
0.07244731625
0.07244734195
0.07244735899
0.07244737077
0.07244737799
0.07244713624
0.0724471349
0.07244713788
0.07244713491
0.07244713628
0.07244713489
0.07244713789
0.07244713792
0.07244713491
0.07244713491
0.07244713633
0.07244713489
0.07244713794
0.07244713796
0.07244713491
0.07244713491
0.07244713637
0.07244713489
0.07244713798
0.07244713798
0.07244713491
0.07244713492
0.07244713638
0.0724471349
0.07244713798
0.07244713796
0.07244713493
0.07244713493
0.07244713631
0.07244713492
0.07244713791
0.07244713785
0.07244713494
0.07244713496
0.07244713573
0.07244713492
0.07244713773
0.07244713682
0.07244713499
0.07244713496
0.07244713571
0.0724471349
0.07244713672
0.07244713672
0.07244713495
0.07244713493
0.07244713585
0.07244713489
0.07244713667
0.07244713658
0.07244713492
0.07244713491
0.07244713629
0.07244713651
0.07244713491
0.07244713649
0.07244713735
0.07244713792
0.0724471381
0.07244713791
0.07244713776
0.07244713492
0.0724471373
0.07244713498
0.07244713503
0.07244713687
0.07244713699
0.072447135
0.07244713648
0.07244713507
0.07244713513
0.07244713544
0.07244713524
0.07244713601
0.07244713579
0.07244713538
0.07244719266
0.07244716344
0.07244714668
0.07244713566
0.07244713541
0.07244714137
0.07244713553
0.07244713559
0.07244713527
0.07244713547
0.07244713536
0.07244713542
0.07244713548
0.07244713881
0.07244713673
0.07244713577
0.07244713582
0.07244713511
0.07244713519
0.07244713534
0.07244713583
0.07244713518
0.07244713525
0.07244713524
0.07244713531
0.07244713521
0.0724471357
0.07244713531
0.07244713535
0.07244713514
0.07244713508
0.07244713498
0.07244713605
0.07244713553
0.07244713503
0.07244713495
0.07244713492
0.07244713489
0.07244713615
0.07244713498
0.07244713498
0.07244713742
0.07244713487
0.07244714087
0.07244713599
0.07244713498
0.07244713497
0.0724471365
0.07244713915
0.07244713934
0.0724471356
0.07244713496
0.07244713497
0.07244713585
0.07244713758
0.07244713638
0.07244713549
0.07244713497
0.07244713498
0.07244713537
0.07244713585
0.07244713558
0.0724471354
0.07244713499
0.07244713499
0.07244713517
0.07244713542
0.07244713532
0.0724471355
0.07244713502
0.07244713504
0.07244713509
0.07244713526
0.07244713523
0.07244713564
0.0724471353
0.07244713544
0.07244713504
0.07244713522
0.07244713522
0.0724471354
0.07244713558
0.0724471355
0.07244713527
0.07244713522
0.07244713552
0.07244713533
0.07244713494
0.07244713501
0.07244713499
0.07244713504
0.0724471351
0.07244713522
0.07244713522
0.07244713532
0.07244713535
0.07244713558
0.07244713562
0.07244713675
0.07244714115
0.07244714107
0.07244717724
0.07244725201
0.07244722641
0.07244728321
0.07244728023
0.07244725128
0.07244718806
0.07244726981
0.07244714831
0.07244716652
0.07244717685
0.07244720804
0.0724471353
0.07244713506
0.07244713492
0.07244713488
0.07244713487
0.07244713486
0.07244713485
0.0724471437
0.07244713485
0.07244714852
0.0724471421
0.07244714529
0.07244714743
0.0724471365
0.07244713783
0.07244713653
0.07244713569
0.07244713606
0.07244713582
0.07244713543
0.07244713568
0.07244713559
0.07244713535
0.07244713555
0.07244713554
0.07244713538
0.0724471356
0.07244713565
0.07244713576
0.07244713637
0.07244713726
0.07244714494
0.07244713827
0.07244713503
0.07244713508
0.07244713524
0.07244713511
0.07244713503
0.07244713509
0.07244713517
0.07244713518
0.07244713518
0.07244713521
0.07244713523
0.07244713517
0.07244713546
0.0724471354
0.07244713569
0.07244713602
0.07244714126
0.07244713718
0.0724473482
0.07244730288
0.07244729944
0.07244732502
0.07244734063
0.07244728429
0.07244731414
0.07244731833
0.07244729956
0.0724473102
0.07244731747
0.07244726713
0.0724472126
0.07244716331
0.0724473157
0.07244729842
0.07244713485
0.07244713486
0.07244713484
0.07244713484
0.07244713484
0.07244713484
0.07244716433
0.07244715568
0.07244716087
0.07244716904
0.07244715636
0.07244713651
0.07244713701
0.07244713652
0.07244713629
0.07244713616
0.07244713597
0.07244713614
0.07244713582
0.07244713612
0.07244713619
0.07244713587
0.07244713633
0.07244713687
0.07244713667
0.07244713791
0.07244714051
0.07244714036
0.07244714437
0.0724471762
0.07244713499
0.07244713501
0.07244713502
0.07244713514
0.07244713518
0.07244713524
0.0724471354
0.07244713536
0.07244713534
0.07244713531
0.07244713498
0.07244713501
0.07244713515
0.07244713527
0.07244713548
0.07244713552
0.07244713537
0.07244713524
0.0724471352
0.07244713563
0.07244713563
0.07244737913
0.07244736429
0.07244735516
0.07244736887
0.07244734676
0.07244735828
0.07244733983
0.07244731755
0.07244732755
0.07244733961
0.07244734547
0.07244733353
0.07244733043
0.07244713484
0.07244713483
0.07244713484
0.07244713484
0.07244717903
0.07244741396
0.07244743475
0.0724471368
0.07244714106
0.07244743035
0.07244742324
0.07244742145
0.07244741127
0.07244739766
0.07244738669
0.07244738198
0.07244738028
0.07244737878
0.07244733138
0.07244734632
0.07244735328
0.07244737446
0.07244733514
0.07244733761
0.07244735879
0.07244713484
0.07244713484
0.07244713484
0.07244718164
0.07244723917
0.07244728016
0.07244713665
0.07244743212
0.07244713706
0.07244714371
0.07244726628
0.07244738417
0.07244736894
0.07244737551
0.07244713495
0.07244713493
0.07244713493
0.07244713493
0.07244713499
0.07244713502
0.07244713506
0.07244713546
0.07244713552
0.07244713556
0.07244713558
0.07244713491
0.07244713489
0.07244713489
0.07244713489
0.0724471349
0.07244713488
0.07244713494
0.0724471349
0.07244713492
0.07244713499
0.07244713497
0.07244713508
0.0724471352
0.07244713509
0.07244713515
0.07244713537
0.07244713522
0.07244713531
0.07244713552
0.0724471354
0.0724471355
0.0724471355
0.07244713547
0.07244713549
0.07244713543
0.07244713533
0.07244713551
0.07244713554
0.07244713551
0.07244713561
0.07244713559
0.07244713557
0.07244713552
0.07244739683
0.07244738889
0.07244737939
0.07244738957
0.07244737987
0.07244736775
0.07244737048
0.07244735277
0.07244735813
0.07244735318
0.07244737031
0.07244713484
0.07244713484
0.07244713484
0.07244713484
0.07244713484
0.07244713484
0.07244715831
0.0724473306
0.07244751067
0.07244763545
0.07244839458
0.07244758086
0.07244743806
0.07244745055
0.07244737216
0.072447411
0.07244739635
0.07244735985
0.07244739912
0.07244738665
0.07244738743
0.072447379
0.072447374
0.07244737212
0.07244737345
0.07244737161
0.07244737191
0.07244735833
0.07244736392
0.07244735703
0.07244736963
0.07244735834
0.0724473622
0.07244713484
0.07244713484
0.07244717185
0.07244716446
0.0724474824
0.07244743547
0.07244741183
0.07244739584
0.07244737525
0.07244737485
0.07244737185
0.07244713488
0.07244713487
0.07244713486
0.07244713486
0.07244713485
0.07244713487
0.07244713485
0.07244713487
0.07244713491
0.07244713489
0.07244713491
0.07244713496
0.07244713493
0.07244713496
0.07244713502
0.07244713499
0.07244713502
0.0724471351
0.07244713506
0.0724471351
0.07244713521
0.07244713515
0.0724471352
0.07244713533
0.07244713525
0.07244713531
0.07244713536
0.07244713485
0.07244713484
0.07244713484
0.07244713484
0.07244713483
0.07244713486
0.07244713483
0.07244728549
0.07244713491
0.07244730786
0.07244731639
0.07244713497
0.0724473231
0.07244732937
0.07244713504
0.07244733462
0.07244734089
0.07244713512
0.07244734738
0.07244735397
0.07244713521
0.07244736076
0.07244736839
0.07244713532
0.07244737692
0.07244738537
0.0724471354
0.07244739312
0.07244739715
0.07244739105
0.07244713484
0.07244713484
0.07244713483
0.07244713483
0.07244713483
0.07244728289
0.07244713483
0.07244729938
0.07244729881
0.07244729772
0.07244728771
0.07244731494
0.07244729173
0.07244730354
0.07244733508
0.07244731658
0.07244732957
0.07244735688
0.07244734224
0.07244735374
0.07244736786
0.0724473602
0.07244736643
0.07244738261
0.0724473726
0.0724473775
0.07244739473
0.07244738237
0.07244738586
0.07244737542
0.07244735998
0.07244713484
0.07244713484
0.07244713484
0.07244713483
0.07244713484
0.07244713483
0.07244713484
0.07244732623
0.07244713483
0.07244734152
0.07244715566
0.07244729435
0.07244738568
0.07244734589
0.07244730163
0.07244731822
0.07244731447
0.0724473989
0.0724473311
0.07244732804
0.07244733997
0.07244735202
0.07244734792
0.07244735263
0.07244736574
0.07244735805
0.07244736448
0.07244735841
0.07244737538
0.07244736968
0.07244737239
0.07244735618
0.07244736538
)
;

boundaryField
{
    walls
    {
        type            zeroGradient;
    }
    wallFilmFace_top
    {
        type            zeroGradient;
    }
    region0_to_wallFilmRegion_wallFilmFace
    {
        type            zeroGradient;
    }
    mirrorFace_top
    {
        type            zeroGradient;
    }
    region0_to_wallFilmRegion_mirrorFace
    {
        type            zeroGradient;
    }
    procBoundary3to2
    {
        type            processor;
        value           nonuniform List<scalar> 
64
(
0.07244713515
0.07244713535
0.07244713502
0.07244713491
0.07244713487
0.072447135
0.07244713498
0.07244713494
0.07244713484
0.07244713627
0.07244713552
0.07244713549
0.07244713549
0.07244713527
0.07244713553
0.07244713557
0.07244713559
0.07244713559
0.07244713559
0.07244713551
0.07244713595
0.07244713684
0.0724471377
0.0724471377
0.0724471375
0.07244713733
0.07244713733
0.07244713654
0.07244713671
0.07244713671
0.07244713493
0.07244713495
0.07244713495
0.07244713498
0.07244713499
0.07244713624
0.07244713491
0.07244713786
0.07244713547
0.07244713491
0.07244713484
0.07244713491
0.07244713489
0.07244713486
0.07244713484
0.07244713484
0.07244713786
0.07244713491
0.07244713504
0.07244713531
0.07244713514
0.07244713495
0.07244713491
0.07244713486
0.07244713499
0.07244713484
0.07244713484
0.07244713498
0.07244713484
0.07244713484
0.07244713487
0.07244713485
0.07244713484
0.07244713484
)
;
    }
}


// ************************************************************************* //
