/*--------------------------------*- C++ -*----------------------------------*\
  =========                 |
  \\      /  F ield         | OpenFOAM: The Open Source CFD Toolbox
   \\    /   O peration     | Website:  https://openfoam.org
    \\  /    A nd           | Version:  8
     \\/     M anipulation  |
\*---------------------------------------------------------------------------*/
FoamFile
{
    version     2.0;
    format      ascii;
    class       volScalarField;
    location    "0.8/wallFilmRegion";
    object      T;
}
// * * * * * * * * * * * * * * * * * * * * * * * * * * * * * * * * * * * * * //

dimensions      [0 0 0 1 0 0 0];

internalField   nonuniform List<scalar> 
1342
(
299.9999997
299.9999992
299.999999
299.9999987
299.9999917
299.9999964
299.9999979
299.999998
299.999998
299.999999
299.9999996
299.9999908
299.999993
299.9999963
299.9999979
299.9999985
299.9999988
299.9999969
299.9999995
299.9999984
299.9999975
299.9999926
299.9994172
299.9998483
299.9999779
299.9999982
299.9999993
299.9999997
299.9999998
299.9999674
299.9999844
299.9999943
299.9999965
299.9999972
299.9999974
299.999997
299.9999991
299.9999987
299.9999985
299.9999926
299.9995284
299.9991645
299.999901
299.9999999
299.9999999
299.9999152
299.9999871
299.9999933
299.9999948
299.999995
299.9999942
299.999999
299.9999988
299.9999985
299.999998
299.9999973
299.9999966
299.9999979
299.9999982
299.9999976
299.9999964
299.9990272
299.9990647
299.9989116
299.9999993
299.9999992
299.9999989
299.9999986
299.9999981
299.9999974
299.9999967
299.9999964
299.9999961
299.9999963
299.998947
299.9988908
299.9999996
299.9999996
299.9999995
299.9999993
299.999999
299.9999985
299.9999977
299.9999968
299.9999968
299.9999964
299.9999966
299.9987452
299.9988032
299.9999999
299.9999999
299.9983772
299.9984731
299.998767
299.9988427
299.9988808
299.9988673
299.998824
299.9999996
299.9999997
299.9999996
299.9999995
299.9999994
299.9999993
299.9999993
299.9999989
299.9999982
299.9999977
299.9999983
299.9999968
299.9999925
299.9999923
299.9999968
299.9999969
299.9999912
299.999997
299.999997
299.9999893
299.9999971
299.999997
299.9999887
299.9999967
299.9999964
299.9999909
299.9999966
299.9999967
299.9999915
299.9999967
299.9999967
299.9999926
299.9999968
299.9999967
299.9999917
299.9999965
299.9999963
299.9999884
299.9999956
299.999993
299.9999876
299.9999872
299.9999841
299.9999977
299.999997
299.9999984
299.9999981
299.9999986
299.999999
299.9999982
299.9999995
299.9999996
299.9999981
300.0000079
300.0000176
299.9999959
300.0000135
300.0000108
299.9999954
300.0000047
300.0000009
299.9999951
299.9999984
299.9999969
299.9999948
299.9999962
299.9999955
299.9999945
299.9999952
299.9999959
299.9999941
299.9999957
299.9999963
299.9999845
299.9999938
299.9999868
299.9999814
299.9999815
299.9999808
299.9999842
299.999982
299.999984
299.9999979
299.9999964
299.9999977
299.9999997
299.9999994
300.0000003
300.0000007
300.0000009
300.0000014
300.0000042
300.0000021
300.000001
300.0002117
299.999997
300.0000413
300.0001564
300.0002116
300.0000726
300.0000745
300.0002153
300.0002166
300.0000372
300.0002176
300.0002193
300.0000264
300.0002226
300.0002281
300.000076
300.0002362
300.0002459
299.9999969
300.0002542
300.000258
299.9999816
299.9999867
299.9999836
299.9999848
299.9999843
299.9999864
299.9999978
299.9999965
299.9999987
300.0000008
300.0000004
300.0000013
300.000002
300.000002
300.0000024
300.0000007
300.0000022
300.0000005
299.9999941
299.9999978
299.9999946
300.0002098
299.9999922
300.0000025
300
300.0002076
300
300
300
300
300
300
300
300
300
300
300
300
300
299.9999894
300.000277
300.000232
299.9999884
299.9999887
299.9999902
299.9999935
299.999992
299.9999947
299.9999989
299.9999956
299.9999967
300.0000017
300.000001
300.000002
300.0000027
300.0000029
300.0000027
300.0000003
300.0000017
300
299.9999951
299.9999981
299.9999955
299.9999911
299.9999922
299.99999
300.000207
299.9999907
300.000049
300
300.0002065
300
300
300
300
300
300
300
300
300
300
300.0002119
300.0001894
300.000222
299.9999923
299.9999993
299.999997
299.9999957
299.9999972
299.9999966
299.999991
299.9999879
299.9999907
300.000002
299.9999918
300.000001
300.0000024
300.0000028
300.000002
299.9999997
300.0000004
299.9999993
299.9999958
299.9999981
299.9999961
299.9999901
299.9999925
299.9999889
300.000003
299.9999879
299.9999897
300
300.0000313
300.0000169
300.0002145
300.0000026
299.9999998
300.0002289
299.999999
299.9999987
300.0000714
299.9999986
299.9999985
300.0000015
299.9999985
299.9999984
299.9999984
299.9999984
299.9999982
299.9999859
299.9999869
299.9999897
299.9999873
299.9999921
299.9999968
299.9999938
299.9999952
300.0000014
299.9999971
299.9999981
299.9999987
299.9999973
299.9999952
299.999995
299.999993
299.9999915
299.9999882
299.9999887
299.99999
299.9999995
299.9999952
299.9999991
300.0000031
299.9999981
299.9999972
299.9999989
299.9999968
299.9999966
299.9999983
299.9999966
299.9999966
299.9999982
299.9999967
299.9999969
299.9999981
299.9999971
299.9999972
299.9999978
299.9999972
299.9999971
299.9999881
299.9999898
299.9999919
299.9999929
299.9999921
299.9999948
299.9999933
299.9999947
299.9999939
299.9999959
299.9999927
299.9999925
299.9999919
299.9999916
299.9999908
299.9999915
299.9999923
299.999995
299.9999942
299.9999956
299.9999963
299.9999956
299.9999956
299.9999961
299.9999955
299.9999955
299.9999961
299.9999958
299.9999955
299.9999961
299.9999954
299.9999955
299.9999962
299.9999957
299.9999961
299.9999995
299.9999994
299.9999995
299.9999994
299.9999993
299.9999995
299.9999993
299.9999993
299.9999994
299.9999992
299.9999992
299.9999993
299.9999991
299.9999991
299.9999991
299.999999
299.9999989
299.9999992
299.9999987
299.999999
299.9999994
299.9999992
299.9999992
299.9999995
299.9999993
299.9999993
299.9999993
299.9999993
299.9999992
299.9999991
299.9999987
299.9999985
299.9999992
299.9999991
299.999999
299.9999988
299.9999987
299.9999985
299.9999989
299.9999991
299.9999991
299.9999991
299.9999984
299.9999983
299.9999982
299.999998
299.9999989
299.9999992
299.9999989
299.9999988
299.9999991
299.9999988
299.999999
299.9999986
299.9999984
299.9999991
299.9999989
299.9999987
299.9999989
299.9999988
299.9999982
299.9999986
299.9999977
299.999997
299.9999976
299.9999973
299.9999975
299.9999969
299.9999969
299.9999981
299.9999983
299.9999981
299.9999974
299.9999977
299.9999968
299.9999973
299.9999963
299.9999993
299.9999994
299.9999988
299.9999993
299.9999986
299.9999983
299.9999971
299.999998
299.9999976
299.9999965
299.9999972
299.9999963
299.9999965
299.9999963
299.9999997
299.9999997
299.9999989
299.9999967
299.9999968
299.9999928
299.9999996
299.9999926
299.9999997
299.9999923
299.9999997
299.9999922
299.9999996
299.9999923
299.9999996
299.9999931
299.9999995
299.9999956
299.9999996
299.9999953
299.9999997
299.9999997
299.999995
299.9999997
299.9999926
299.9999919
299.9999904
299.9999885
299.9999902
299.9999912
299.9999923
299.9999923
299.9999902
299.9999892
299.9999883
299.9999996
299.999987
299.9999996
299.9999977
299.9999978
299.9999984
299.9999983
299.9999966
299.9999956
299.9999952
299.9999949
299.9999946
299.9999944
299.99999
299.9999822
299.9999826
299.9999995
299.9999995
299.9999852
299.9999966
299.999999
300.0000002
300.0000023
300.0001893
300.0001967
300.0001047
300.000055
300.0000319
300.0000225
300.0000699
299.9999821
299.9999827
299.9999882
299.9999964
299.9999999
300.0000014
300.0000022
299.9999975
300.0000102
300
300
300
300
300
300.0001914
299.9999861
299.9999904
299.9999967
300.0000008
300.0000024
300.000002
299.999998
299.999992
300.0000098
300
300
300
300
300
299.9999962
299.9999958
299.9999907
299.9999918
300.0000031
300.0000011
299.9999981
299.9999926
299.9999897
300.0002044
300
300.000222
300.0001964
300.0000157
299.9999985
299.9999983
299.9999872
299.9999937
300.0000003
299.9999996
299.9999976
299.999989
299.99999
300.0000103
300
299.9999985
299.9999982
299.9999982
299.999998
299.9999976
299.9999881
299.9999906
299.9999934
299.9999963
299.9999933
299.9999915
299.9999898
299.9999964
299.9999961
299.999996
299.9999961
299.9999962
299.9999964
299.9999965
299.999995
299.9999952
299.9999958
299.9999932
299.9999937
299.9999947
299.9999963
299.999997
299.9999972
299.999996
299.9999963
299.9999974
299.9999962
299.9999995
299.9999995
299.9999995
299.9999994
299.9999994
299.9999992
299.999999
299.9999993
299.9999994
299.9999995
299.9999995
299.9999994
299.9999994
299.9999993
299.999999
299.9999987
299.9999842
299.9999931
299.9999992
299.999999
299.9999989
299.9999989
299.9999986
299.9999988
299.9999986
299.9999983
299.9999977
299.999999
299.9999988
299.9999991
299.9992051
299.9992185
299.9993588
299.9999841
299.9999982
299.9999978
299.9999979
299.9999954
299.9999959
299.9990041
299.9999999
299.9999999
299.9999999
299.9996208
299.9994511
299.9999905
299.9999902
299.9985188
299.999985
299.9997601
299.998727
299.998953
299.9999968
299.9999967
299.9999961
299.9989219
299.9989603
299.9988655
299.9999999
299.9999999
299.9998359
299.9985488
299.9986258
299.9987751
299.998822
299.9988209
299.9999998
299.9999998
299.9999997
299.9999994
299.9999995
299.9999991
299.9999992
299.9999988
299.9999984
299.9999978
299.9999999
299.9999999
299.9999997
299.9999994
299.9999991
299.9999987
299.9999983
299.9999978
299.9999973
299.9999999
300
299.99919
299.9991446
299.9990506
299.9989428
299.9988625
299.9987963
299.9987215
299.9999999
300
299.999036
299.9992131
299.9990907
299.9989619
299.9988765
299.9988175
299.9987813
299.9999929
299.9999996
299.9999847
299.9999996
299.9999927
299.9999996
299.9999846
299.9999845
299.9999996
299.9999996
299.9999924
299.9999997
299.9999844
299.9999843
299.9999996
299.9999996
299.9999922
299.9999996
299.9999842
299.9999842
299.9999995
299.9999995
299.9999922
299.9999996
299.9999842
299.9999843
299.9999995
299.9999994
299.9999925
299.9999995
299.9999845
299.9999848
299.9999994
299.9999993
299.9999954
299.9999995
299.9999854
299.99999
299.9999992
299.9999993
299.9999956
299.9999996
299.9999905
299.9999905
299.9999994
299.9999995
299.9999948
299.9999997
299.9999907
299.9999912
299.9999995
299.9999996
299.9999926
299.9999916
299.9999996
299.9999916
299.9999873
299.9999845
299.9999836
299.9999845
299.9999853
299.9999995
299.9999876
299.9999992
299.999999
299.9999897
299.9999891
299.9999991
299.9999917
299.9999988
299.9999984
299.9999969
299.9999979
299.999994
299.9999951
299.9999972
299.9997101
299.9998566
299.9999406
299.9999958
299.999997
299.9999672
299.9999965
299.9999962
299.9999978
299.9999968
299.9999973
299.999997
299.9999967
299.99998
299.9999905
299.9999952
299.999995
299.9999986
299.9999982
299.9999974
299.999995
299.9999982
299.9999978
299.9999979
299.9999976
299.9999981
299.9999956
299.9999975
299.9999973
299.9999984
299.9999987
299.9999992
299.9999938
299.9999965
299.999999
299.9999994
299.9999995
299.9999997
299.9999934
299.9999992
299.9999992
299.999987
299.9999998
299.9999697
299.9999942
299.9999992
299.9999993
299.9999916
299.9999783
299.9999774
299.9999961
299.9999993
299.9999993
299.9999948
299.9999862
299.9999922
299.9999967
299.9999993
299.9999992
299.9999973
299.9999949
299.9999962
299.9999971
299.9999992
299.9999991
299.9999983
299.999997
299.9999975
299.9999966
299.999999
299.9999989
299.9999987
299.9999978
299.999998
299.9999959
299.9999976
299.9999969
299.9999989
299.999998
299.999998
299.9999971
299.9999962
299.9999966
299.9999978
299.999998
299.9999965
299.9999975
299.9999994
299.9999991
299.9999992
299.9999989
299.9999986
299.999998
299.999998
299.9999975
299.9999974
299.9999962
299.999996
299.9999903
299.9999683
299.9999687
299.9997874
299.9994127
299.999541
299.9992563
299.9992712
299.9994163
299.9997332
299.9993235
299.9999324
299.9998411
299.9997894
299.9996331
299.9999976
299.9999988
299.9999995
299.9999997
299.9999998
299.9999998
299.9999999
299.9999555
299.9999999
299.9999314
299.9999635
299.9999475
299.9999368
299.9999916
299.999985
299.9999915
299.9999957
299.9999938
299.999995
299.999997
299.9999957
299.9999961
299.9999974
299.9999964
299.9999964
299.9999972
299.9999961
299.9999959
299.9999953
299.9999922
299.9999878
299.9999493
299.9999827
299.999999
299.9999987
299.9999979
299.9999986
299.999999
299.9999986
299.9999983
299.9999982
299.9999982
299.9999981
299.9999979
299.9999983
299.9999968
299.9999971
299.9999957
299.999994
299.9999678
299.9999882
299.9989306
299.9991577
299.999175
299.9990468
299.9989685
299.9992509
299.9991013
299.9990803
299.9991744
299.999121
299.9990846
299.9993369
299.9996102
299.9998572
299.9990935
299.9991801
299.9999999
299.9999998
299.9999999
299.9999999
299.9999999
299.9999999
299.9998521
299.9998955
299.9998695
299.9998285
299.9998921
299.9999916
299.999989
299.9999915
299.9999926
299.9999933
299.9999942
299.9999934
299.999995
299.9999935
299.9999932
299.9999947
299.9999924
299.9999897
299.9999907
299.9999845
299.9999715
299.9999722
299.9999522
299.9997927
299.9999991
299.9999991
299.999999
299.9999984
299.9999982
299.9999979
299.9999971
299.9999973
299.9999974
299.9999975
299.9999992
299.9999991
299.9999983
299.9999978
299.9999967
299.9999965
299.9999972
299.9999979
299.9999981
299.9999959
299.9999959
299.9987756
299.9988499
299.9988957
299.998827
299.9989378
299.9988801
299.9989725
299.9990842
299.9990341
299.9989736
299.9989443
299.9990041
299.9990197
299.9999999
299.9999999
299.9999999
299.9999999
299.9997784
299.998601
299.9984968
299.9999901
299.9999687
299.9985189
299.9985545
299.9985635
299.9986145
299.9986827
299.9987377
299.9987613
299.9987698
299.9987773
299.9990149
299.99894
299.9989051
299.998799
299.9989961
299.9989837
299.9988775
299.9999999
299.9999999
299.9999999
299.9997653
299.999477
299.9992716
299.9999908
299.99851
299.9999888
299.9999555
299.9993412
299.9987503
299.9988267
299.9987937
299.9999994
299.9999994
299.9999995
299.9999995
299.9999992
299.999999
299.9999988
299.9999968
299.9999965
299.9999963
299.9999962
299.9999995
299.9999996
299.9999996
299.9999997
299.9999996
299.9999997
299.9999994
299.9999996
299.9999995
299.9999992
299.9999993
299.9999987
299.9999981
299.9999986
299.9999984
299.9999973
299.999998
299.9999976
299.9999965
299.9999971
299.9999966
299.9999966
299.9999968
299.9999966
299.999997
299.9999975
299.9999965
299.9999964
299.9999966
299.9999961
299.9999962
299.9999963
299.9999965
299.9986869
299.9987267
299.9987743
299.9987233
299.9987719
299.9988326
299.9988189
299.9989077
299.9988808
299.9989056
299.9988198
299.9999999
299.9999999
299.9999999
299.9999999
299.9999999
299.9999999
299.9998823
299.9990188
299.9981163
299.997491
299.9936863
299.9977646
299.9984802
299.9984176
299.9988105
299.9986159
299.9986893
299.9988722
299.9986754
299.9987379
299.998734
299.9987762
299.9988013
299.9988107
299.9988041
299.9988133
299.9988118
299.9988798
299.9988518
299.9988863
299.9988232
299.9988798
299.9988604
299.9999999
299.9999999
299.9998144
299.9998515
299.998258
299.9984932
299.9986117
299.9986918
299.998795
299.998797
299.9988121
299.9999997
299.9999998
299.9999998
299.9999998
299.9999999
299.9999997
299.9999999
299.9999998
299.9999996
299.9999997
299.9999996
299.9999993
299.9999995
299.9999993
299.999999
299.9999992
299.999999
299.9999986
299.9999988
299.9999986
299.9999981
299.9999984
299.9999981
299.9999975
299.9999979
299.9999976
299.9999973
299.9999999
299.9999999
299.9999999
299.9999999
299.9999999
299.9999998
300
299.9992449
299.9999995
299.9991328
299.99909
299.9999993
299.9990564
299.999025
299.9999989
299.9989987
299.9989672
299.9999985
299.9989347
299.9989017
299.999998
299.9988677
299.9988294
299.9999975
299.9987867
299.9987443
299.9999971
299.9987055
299.9986852
299.9987158
299.9999999
299.9999999
300
299.9999999
300
299.9992579
300
299.9991753
299.9991781
299.9991836
299.9992337
299.9990973
299.9992136
299.9991544
299.9989964
299.999089
299.999024
299.9988871
299.9989605
299.9989028
299.9988321
299.9988704
299.9988393
299.9987581
299.9988083
299.9987837
299.9986974
299.9987594
299.9987419
299.9987942
299.9988716
299.9999999
299.9999999
299.9999999
300
299.9999999
299.9999999
299.9999999
299.9990407
300
299.9989641
299.9998956
299.9992005
299.9987428
299.9989422
299.999164
299.9990809
299.9990997
299.9986765
299.9990163
299.9990316
299.9989718
299.9989115
299.998932
299.9989084
299.9988427
299.9988812
299.998849
299.9988794
299.9987944
299.9988229
299.9988093
299.9988906
299.9988445
)
;

boundaryField
{
    walls
    {
        type            zeroGradient;
    }
    wallFilmFace_top
    {
        type            zeroGradient;
    }
    region0_to_wallFilmRegion_wallFilmFace
    {
        type            zeroGradient;
    }
    mirrorFace_top
    {
        type            zeroGradient;
    }
    region0_to_wallFilmRegion_mirrorFace
    {
        type            zeroGradient;
    }
    procBoundary3to2
    {
        type            processor;
        value           nonuniform List<scalar> 
64
(
299.9999984
299.9999974
299.999999
299.9999996
299.9999998
299.9999991
299.9999992
299.9999994
299.9999999
299.9999928
299.9999965
299.9999966
299.9999966
299.9999978
299.9999965
299.9999963
299.9999962
299.9999961
299.9999962
299.9999966
299.9999944
299.9999899
299.9999856
299.9999856
299.9999866
299.9999874
299.9999874
299.9999914
299.9999905
299.9999905
299.9999994
299.9999994
299.9999994
299.9999992
299.9999992
299.9999929
299.9999996
299.9999848
299.9999968
299.9999995
299.9999999
299.9999996
299.9999997
299.9999998
299.9999999
299.9999999
299.9999848
299.9999995
299.9999989
299.9999976
299.9999984
299.9999994
299.9999996
299.9999998
299.9999992
299.9999999
299.9999999
299.9999992
299.9999999
299.9999999
299.9999997
299.9999999
299.9999999
299.9999999
)
;
    }
}


// ************************************************************************* //
