/*--------------------------------*- C++ -*----------------------------------*\
  =========                 |
  \\      /  F ield         | OpenFOAM: The Open Source CFD Toolbox
   \\    /   O peration     | Website:  https://openfoam.org
    \\  /    A nd           | Version:  8
     \\/     M anipulation  |
\*---------------------------------------------------------------------------*/
FoamFile
{
    version     2.0;
    format      ascii;
    class       volScalarField;
    location    "1.2";
    object      epsilon;
}
// * * * * * * * * * * * * * * * * * * * * * * * * * * * * * * * * * * * * * //

dimensions      [0 2 -3 0 0 0 0];

internalField   nonuniform List<scalar> 
67193
(
0.5984230472
0.6463268174
0.7002924711
0.7610737573
0.8277139686
0.8977814009
0.9260116851
0.9310144076
0.9128084844
0.8715661905
0.8086294
0.7267518977
0.6314241461
0.5318477877
0.4407469901
0.3702559082
0.3260844643
0.3052850593
0.2997470881
0.301005576
0.3028544632
0.3016714585
0.2956859435
0.2841467962
0.2667691672
0.2435155345
0.2146810936
0.1812863359
0.145666953
0.1116582512
0.08332006127
0.06247625796
0.04672694984
0.03394278097
0.822693819
0.9071824757
0.9975191337
1.091174985
1.186799063
1.276799645
1.30607562
1.297517191
1.254032366
1.179732032
1.078648223
0.9570621237
0.8248310497
0.6941715985
0.5798328495
0.4942476981
0.4422596592
0.4184692386
0.4117191178
0.4111215199
0.4091134903
0.4017001411
0.3874262363
0.3661985589
0.3384683726
0.3048792113
0.2662613733
0.2239111549
0.1801653961
0.1388496258
0.1042168191
0.07819719907
0.0579301388
0.04142051835
1.002379644
1.11610962
1.236173329
1.355465421
1.472419465
1.579112675
1.609255745
1.591207166
1.528971052
1.432772974
1.303946594
1.152065078
0.9913300457
0.8366240116
0.7058280831
0.6095774391
0.552062487
0.5265166411
0.5195813299
0.5183682011
0.5139793234
0.5019155698
0.4809711144
0.451669359
0.4150703779
0.372276744
0.3244454085
0.2730631515
0.2204345476
0.1703572948
0.1276622798
0.09525576912
0.07036408282
0.05163831441
1.135087234
1.269868821
1.417957747
1.562094193
1.698992673
1.797305317
1.82358967
1.801462316
1.730860241
1.6121627
1.449927307
1.269760112
1.089208068
0.9245791343
0.7986594896
0.7032189536
0.6433402341
0.6159801901
0.6083519653
0.6066957011
0.60073453
0.5849507122
0.5581583414
0.5216452063
0.4773709461
0.4270183713
0.3719254818
0.3135921695
0.2542236434
0.1974041223
0.1481612662
0.1103502216
0.0817941046
0.06205033565
1.260413814
1.397892712
1.54613187
1.68508015
1.814836379
1.899627186
1.921074543
1.895667513
1.821506672
1.697583276
1.526445454
1.324141434
1.134128244
0.9920006694
0.9185750645
0.8290738416
0.7501009248
0.7059243225
0.6895761103
0.6848824996
0.6777394431
0.6593027233
0.626932317
0.5825899228
0.5300364722
0.4722271417
0.4107601505
0.3469051344
0.282530554
0.2207868987
0.1664075747
0.1238296151
0.09183324613
0.07075303864
1.391118329
1.481576405
1.618605617
1.745184866
1.863418348
1.932752624
1.947892787
1.917965531
1.839629747
1.710538028
1.531730076
1.324623385
1.147629893
1.204962293
1.256009428
1.13839325
0.9607115736
0.838897989
0.7818228874
0.7609830651
0.7495598258
0.7297987397
0.6925957713
0.6385403446
0.5755866586
0.5090763061
0.4411123337
0.372521055
0.3045323433
0.2395817731
0.1816337997
0.135063733
0.09961325502
0.07651769346
1.658571044
1.553834772
1.661474649
1.772014236
1.874198721
1.926652367
1.933550147
1.897306857
1.813134287
1.677056618
1.488438202
1.289664719
1.203572997
2.543092164
2.374526722
1.978505065
1.477057509
1.116146629
0.9293531785
0.8513549018
0.8190976367
0.7930542695
0.750352132
0.688775605
0.6142709137
0.5377170439
0.4627946192
0.3898145237
0.3192697604
0.2527181688
0.1930243212
0.1437732178
0.1052028367
0.07965091592
2.56955645
1.639325072
1.68848191
1.786324216
1.867360317
1.900140182
1.896206236
1.851823295
1.760337912
1.615710108
1.419678782
1.258546379
1.683824773
9.574206739
5.865216924
3.926381948
2.596440051
1.703877223
1.214526224
0.9920000668
0.8977486502
0.8472562442
0.7940027167
0.7244841719
0.6417134108
0.5559971416
0.4746003886
0.3977760121
0.3256466445
0.2590386512
0.1996562123
0.1497615197
0.1092270675
0.08123994411
1.531977579
1.56748809
1.693719627
1.815881898
1.863573039
1.868262626
1.848185759
1.79312492
1.693352195
1.540252372
1.344022424
1.399314711
4.568222209
24.17952999
13.34168173
7.289968266
4.445837127
2.70189251
1.710977639
1.23034165
1.012628156
0.903678814
0.8246105271
0.7422577715
0.6513447791
0.5602969888
0.4746351697
0.3954462919
0.3231129306
0.2580956016
0.2011004715
0.1529017992
0.1122411616
0.08248917249
1.432503376
1.560917444
1.749201337
1.932675123
1.905584362
1.854156306
1.80197348
1.729685957
1.620246961
1.461428045
1.269409516
1.257696229
2.838806008
10.76560143
11.13087399
8.632636401
5.911357952
3.715327697
2.305190809
1.553269539
1.182292937
0.9828633409
0.8522707107
0.7443211506
0.6436062543
0.5492292595
0.4620559143
0.383019798
0.3126779707
0.2512006869
0.1983695935
0.1535786419
0.1143420489
0.08393067185
1.426058121
1.631807832
1.934325517
2.2339521
2.078526446
1.908129948
1.780145641
1.670825367
1.54575922
1.380823445
1.201006565
1.28088264
2.861255636
6.824127892
10.05072979
8.522778229
5.964523974
3.878823981
2.559208544
1.808450825
1.374963233
1.097431464
0.9015889844
0.7523574986
0.6316832173
0.5295596321
0.4410542755
0.3641889908
0.2980862697
0.2418192334
0.1939613038
0.152791765
0.1152610717
0.0851955124
1.492138535
1.840831889
2.332225399
2.764554829
2.487569992
2.125896331
1.835273958
1.637039808
1.47860623
1.309587568
1.142057084
1.128958659
1.738062209
4.34072728
5.780510084
4.914430408
3.703442941
2.840048579
2.287981631
1.889363606
1.549814536
1.243966779
0.9884539062
0.7887164792
0.6349019783
0.5160143744
0.422244431
0.3467592605
0.2851132273
0.2338840254
0.1899952577
0.1510593122
0.114438065
0.08569432522
1.698482491
2.266740994
2.942616115
3.438949883
3.133941644
2.596154603
2.059200821
1.675246484
1.429368651
1.230979676
1.072443885
1.063169348
1.588210548
2.823043031
3.40670626
3.299529913
3.036237212
2.742155891
2.434371762
2.107251932
1.763247781
1.418183694
1.103790373
0.8532879188
0.6615163285
0.5192432659
0.4147988622
0.3371671198
0.2774239031
0.2287364022
0.1863227466
0.1477572688
0.111608774
0.08655676342
2.063423471
2.84651302
3.611789726
4.091086303
3.838166647
3.243694765
2.503882665
1.862647563
1.446236653
1.179428542
1.031295372
1.131319879
1.815877878
2.684855233
3.168809368
3.218338087
3.092931516
2.868574429
2.578782513
2.245607125
1.888573058
1.527190018
1.186587264
0.9043102703
0.6879618715
0.5284279289
0.414544997
0.333482053
0.2731021967
0.2240848415
0.1810231449
0.142325854
0.1082435139
0.09252037609
2.514530869
3.369033209
4.12254688
4.553449
4.367830357
3.813466303
3.037591548
2.242550802
1.604951936
1.196460445
1.034758469
1.406651531
2.184506188
2.816755095
3.188254916
3.22539759
3.109291709
2.884268164
2.584569106
2.241347677
1.880916254
1.52409098
1.190139292
0.9059923618
0.688698465
0.5276204321
0.4120854684
0.3295437276
0.2673989688
0.2164671705
0.1726356948
0.1358005407
0.1077225292
0.1076368891
2.744082526
3.583976604
4.284778838
4.675626299
4.534955327
4.033402071
3.276286316
2.439909216
1.703567238
1.204077808
1.020543753
1.442209848
2.244182268
2.818772623
3.136327057
3.137310846
2.99455772
2.742558107
2.424965638
2.079252622
1.733174986
1.40521054
1.107613061
0.8529476049
0.6570852754
0.5096184244
0.4004546473
0.319220377
0.2556530604
0.2035087485
0.1615083143
0.13057042
0.1124073308
0.1278939936
2.374920506
3.172902377
3.868901389
4.292699905
4.148885256
3.646913863
2.936072769
2.184910311
1.529077255
1.100397866
0.9588264581
1.361282794
2.083154922
2.601111779
2.872087312
2.817895565
2.625744596
2.370695953
2.083619463
1.779826715
1.488782422
1.222454796
0.9844223153
0.7768326786
0.609709632
0.4795004583
0.3785253327
0.2994851475
0.2356248645
0.1852689796
0.1497471049
0.1285425059
0.1211477017
0.1470894895
1.87693062
2.570186757
3.20291661
3.677846775
3.53217039
3.057878518
2.426074384
1.793151435
1.265385234
0.9548489291
0.8718844821
1.224687789
1.807898061
2.259986399
2.481876865
2.39447669
2.190894842
1.947147254
1.700304749
1.474759679
1.260402103
1.059593206
0.8731531366
0.7025001642
0.5574084561
0.4399414968
0.3455414419
0.2690753362
0.207373877
0.1643068373
0.1403134709
0.1300530557
0.1315912311
0.1640426821
1.416660264
1.961074898
2.511440318
2.949887725
2.815702139
2.401623514
1.882924471
1.386785534
1.017791107
0.8102422514
0.7799431716
1.058021865
1.486341364
1.860318606
2.035585139
1.944579901
1.770581805
1.586100273
1.406006147
1.23338544
1.07046612
0.9126044888
0.7582192144
0.611893872
0.4874570142
0.3838524918
0.2986172155
0.2278704755
0.1744849537
0.1476677263
0.1378283688
0.1357903996
0.1434775784
0.1802882368
1.070081682
1.450298371
1.90010529
2.23960532
2.119566452
1.781337432
1.386283261
1.044530536
0.8090134842
0.6828132205
0.6885456045
0.8910998264
1.181771652
1.468002693
1.6058473
1.555546305
1.433390442
1.305438621
1.171423762
1.030562122
0.8865839363
0.7449886015
0.611251675
0.4965466786
0.397536755
0.3133485435
0.2421475851
0.1823189499
0.1513049503
0.151329601
0.1515194394
0.1499103175
0.1590349363
0.1976458798
0.8373739041
1.050043985
1.377501269
1.603133683
1.504134594
1.26037182
1.000743797
0.7869833085
0.6432892769
0.5758222509
0.5993867931
0.7398676483
0.9359519876
1.121279868
1.233920278
1.226426933
1.164744175
1.066592214
0.9528439973
0.8231651832
0.6864685663
0.5713117607
0.4740197246
0.3881039101
0.3119242049
0.2460437529
0.1897873114
0.1508220174
0.1626802549
0.1919044392
0.1916404762
0.1787217369
0.1810694967
0.2183545069
0.6738640039
0.7816743577
0.9513692154
1.094470278
1.042460481
0.8885071299
0.7256370772
0.5958138915
0.5126947473
0.4843514666
0.5109421893
0.6057877257
0.7342230652
0.8486408329
0.9128542328
0.9286294253
0.9205557222
0.8587314084
0.7764319811
0.6775582708
0.5796445912
0.493705861
0.412422658
0.3363998315
0.2691463326
0.2134448354
0.1707233093
0.1621429736
0.2145674506
0.2615686532
0.2537228725
0.2220505202
0.2113328279
0.2473619689
0.538583936
0.5901841588
0.6677479564
0.7436841699
0.7174795845
0.6269881873
0.5274235678
0.4510341012
0.4052197404
0.3986295048
0.4204523117
0.4834488339
0.5642303537
0.6320958034
0.668075394
0.6764211365
0.6935180606
0.7477651008
0.8049968472
0.7707244148
0.679807355
0.5766069736
0.4792909655
0.3905278404
0.3157655649
0.2579430611
0.2160297858
0.21843622
0.2828386889
0.3321119706
0.3152215936
0.2694475305
0.2529567462
0.2942757659
0.3921419359
0.4171091027
0.4591098354
0.4992442671
0.4921293978
0.4404391567
0.3763138466
0.3367266983
0.3269311914
0.3104424686
0.3251218132
0.3651389365
0.4122977405
0.4494211633
0.473282599
0.4973900946
0.5574978739
0.7504258585
0.9160051625
0.8995439714
0.7955317123
0.6659643951
0.5492666543
0.4611369499
0.3949703046
0.3461557238
0.2978039637
0.2869882866
0.3398233235
0.379565009
0.3561294127
0.3138550112
0.3155200701
0.3688813347
0.2115230596
0.2120364431
0.2416427164
0.2766112102
0.3092582286
0.3242918333
0.296242595
0.2543630545
0.2265500188
0.2216383684
0.2136279365
0.2265909748
0.2465826952
0.2694547313
0.2916721864
0.3265781073
0.3879779738
0.4801908313
0.7088639604
0.9129611729
0.9060737766
0.7837222379
0.6444887524
0.5470210977
0.4953497806
0.4641687896
0.4572054157
0.3912764057
0.345667698
0.3664149955
0.3924606376
0.3791028001
0.3722981288
0.4142481446
0.4692147086
0.1705649739
0.2799015096
0.1777213315
0.1538992276
0.166088174
0.1845621947
0.1751976486
0.1356670695
0.095825127
0.1017322569
0.1056279368
0.1190304018
0.1205418014
0.1214916341
0.1397464784
0.2092105439
0.3146034191
0.3701861635
0.5006145167
0.6946541618
0.7256738323
0.5964031408
0.4940311192
0.5152871357
0.549573744
0.621700091
0.7579617116
0.6100513666
0.4453978467
0.3755815817
0.3909582516
0.4299831003
0.4865345386
0.5558315332
0.5915135826
0.2343158212
0.1712438956
0.1807516929
0.1670300833
0.1476873329
0.1311021642
0.1171918503
0.1015434911
0.09049696689
0.08019829666
0.07666794881
0.08289963194
0.09759380532
0.1303161535
0.2099086447
0.3528727604
0.5466343781
0.4761327932
0.3272836061
0.396134539
0.4312808834
0.3356416745
0.3809726481
0.5358888708
0.6412118622
1.241326914
1.690418073
1.265749073
0.7531675485
0.4435652044
0.4457434332
0.5722836794
0.6754286842
0.742799133
0.7556772505
0.1907021123
0.2847327542
0.2625936743
0.2581187113
0.2343685441
0.2030336385
0.1724377997
0.1455244614
0.1211660407
0.1038652934
0.0992732846
0.1099610202
0.1369396662
0.2055565908
0.3562491731
0.6034094071
0.8941673907
0.8449022189
0.4194410307
0.2839985729
0.2405333271
0.2035026387
0.2535864958
0.4501712222
0.9459434674
3.205354992
3.893732552
2.744570657
1.495975412
0.6862695109
0.5860005216
0.7804442199
0.9145075256
0.9873203072
0.9834268792
0.3721489551
0.4505451686
0.4838929167
0.3847238632
0.3074163319
0.2442551844
0.1902567325
0.1477965869
0.1253528748
0.1209319775
0.1326492579
0.1714645982
0.272932071
0.471967141
0.8052101238
1.204439297
1.368991351
0.6246130069
0.2985210682
0.205856818
0.2381395854
0.3790063088
0.9127457956
2.50915656
6.072773427
7.093905546
5.07284373
2.550460125
1.061904288
0.7382451462
0.9721790177
1.149702748
1.261021305
1.231953669
0.6397816927
0.6128031803
0.5093214176
0.4688085546
0.3873450425
0.2963598224
0.2206508558
0.1673146085
0.1451650727
0.1427024404
0.150395917
0.1853311367
0.6164582323
1.270044924
2.850422152
1.442414567
0.7438496234
0.5705177497
0.8159881581
1.084359528
1.29607894
1.413302225
1.360624455
0.609028882
0.5146565614
0.3837233439
0.2900261334
0.2187924246
0.1765785839
0.9861933
1.060390158
1.139518444
1.228362042
1.328299314
1.401617718
1.432088689
1.423546848
1.372645132
1.279307353
1.149385143
0.9957751605
0.8371679504
0.6935127772
0.5804903008
0.5050529998
0.4644662624
0.4492399738
0.447651102
0.4494126406
0.4473850439
0.437602116
0.4184660927
0.3898912371
0.3527902804
0.3089058304
0.2607908863
0.2117216041
0.165430256
0.1255315946
0.09435291409
0.07171814813
0.05374046042
0.03803442915
0.7858009347
0.8474716405
0.9101224045
0.9722926424
1.030196113
1.074107367
1.095223099
1.091559328
1.062617964
1.009970349
0.9355370848
0.8432679644
0.7404601271
0.6380478547
0.5484422945
0.4815030579
0.439162032
0.4161199435
0.4041182906
0.3958324545
0.3864313823
0.373401012
0.355740671
0.3332063728
0.3058563216
0.2739437504
0.2381360138
0.1999516346
0.1620971411
0.1281609519
0.1009960365
0.08139621571
0.06483672003
0.05284979154
0.8033370457
0.8625241383
0.9214734256
0.9773577304
1.024160014
1.061965178
1.081537867
1.08014316
1.057052372
1.014758636
0.9526802834
0.8741178204
0.7842677756
0.6912392682
0.6051598511
0.5379471487
0.4931634882
0.466567599
0.4505238951
0.4382723541
0.4254923762
0.410025841
0.3910379492
0.3682210348
0.3412852954
0.309808939
0.273533544
0.2331455155
0.1911988999
0.1521504766
0.1201951597
0.09696477674
0.07699171312
0.06500961512
0.8033975241
0.8561907068
0.9117421205
0.9661999575
1.010989707
1.044287912
1.061860338
1.061391
1.04049389
0.9983549148
0.9354545634
0.8621284214
0.7841942196
0.7086902061
0.6321181004
0.5692643984
0.5244314841
0.4953554733
0.476047766
0.4607835257
0.4457612753
0.4289736662
0.4095768966
0.3872029012
0.3614505875
0.331610564
0.2967959224
0.2567827078
0.2133825527
0.1712022331
0.1355341668
0.109307654
0.08717086137
0.0786264579
0.8279705482
0.86169261
0.9050623484
0.9538521917
0.9924927753
1.021220026
1.036596454
1.03583784
1.016192871
0.9766303324
0.918678349
0.8486001114
0.790010773
0.7711303958
0.692079579
0.6214188592
0.5671141882
0.5291556075
0.5029778447
0.4828943539
0.4647381819
0.4459823029
0.4252980528
0.402175217
0.3763928827
0.3473394715
0.3138645819
0.2750418379
0.2316756763
0.1877347369
0.1489308733
0.1197196717
0.09610454689
0.09174272284
0.9956304948
0.8973469751
0.902355606
0.9427901147
0.9738891333
0.9971160591
1.009078888
1.006728139
0.9873468257
0.9500730766
0.8979067633
0.8433146123
0.8576397359
1.1493281
0.9338198206
0.768751423
0.6614795795
0.5906848589
0.5448393886
0.5132711084
0.4884983385
0.4659526317
0.4423492254
0.4162754603
0.3884391012
0.3586264463
0.3256026632
0.2879491661
0.2455244683
0.2011514406
0.1601046423
0.12799752
0.1026559465
0.1006591617
2.025213417
1.062666571
0.9193475076
0.9400471819
0.9619119541
0.9780160286
0.9846343537
0.9790128048
0.9588568001
0.924090322
0.8821444021
0.8737720309
1.22154869
3.023903614
1.899691013
1.210054471
0.8898409643
0.7184347734
0.6204195928
0.5612110526
0.5213269952
0.4904150197
0.4612080557
0.4309541975
0.3989584358
0.3666376666
0.3328333479
0.2957236948
0.2545271522
0.2108880568
0.1689687478
0.1345885676
0.1070784475
0.1047759529
6.542172323
1.553519999
0.9744049859
0.9518596755
0.9631224413
0.9696078581
0.9678017098
0.9564836384
0.9343503977
0.9032559768
0.8821317628
1.015985026
2.806374744
8.886966828
4.98316092
2.384639531
1.385378356
0.9625724472
0.7516951333
0.6369594946
0.5676405253
0.5202217722
0.4812447006
0.4445864518
0.4077115127
0.3715261796
0.335688071
0.2981472474
0.2579377794
0.2159137202
0.1748455355
0.1396724196
0.1103400093
0.1059466909
1.34558962
1.013073954
0.9577819874
0.983028223
0.987027577
0.9795316386
0.9638724047
0.9426692968
0.9162645227
0.8892681221
0.9016802971
1.394060253
7.196232773
12.02137801
9.971387109
4.343778728
2.199430161
1.33366221
0.941579569
0.7444314667
0.6318474649
0.5593313069
0.5053417118
0.4588073356
0.4150221527
0.3741759131
0.3350489205
0.2958933388
0.2560148502
0.215961057
0.1772422602
0.1432011054
0.1132565765
0.1065287154
0.9268905817
0.9510963515
1.005316962
1.050180582
1.046248255
1.018430789
0.9802179488
0.9417094031
0.9058145864
0.8772679764
0.8998448722
1.2592387
3.571039681
8.981751469
6.137007414
4.045560902
2.597356295
1.653774801
1.130896598
0.8607954877
0.7084219493
0.6090621584
0.5361119098
0.4763211644
0.4237017116
0.3764552125
0.3325453836
0.2906522332
0.2504525572
0.2123382894
0.1767502795
0.1452381985
0.1157971686
0.1075477832
0.9429001443
1.013284683
1.107353354
1.168092563
1.155905963
1.099893877
1.026673006
0.9591064432
0.9051341846
0.8696180482
0.8982518474
1.187571785
2.293936038
4.019121511
4.16563049
3.472398065
2.503627364
1.712195992
1.224650612
0.9479299353
0.7792552767
0.6631764837
0.5746885738
0.5006991461
0.4366271847
0.3803458403
0.3300875479
0.2847636209
0.2439860789
0.2076437492
0.1750570728
0.1461106719
0.1170889256
0.1079975554
1.039604825
1.12650459
1.261641046
1.341124011
1.323483136
1.233304969
1.112071547
1.000855923
0.9168298629
0.8646461928
0.8781795113
1.095442408
1.783245535
2.648881225
2.947283726
2.637027466
2.063744184
1.552606162
1.207758675
0.9872079096
0.8327106466
0.7118987185
0.613940767
0.528364173
0.4522669106
0.3860182835
0.3290692481
0.2804282593
0.2390868661
0.2040120776
0.1733449236
0.1456393139
0.1156825438
0.1055067745
1.128542337
1.27509254
1.459905953
1.55810908
1.537979855
1.411943464
1.235196942
1.068602398
0.9431253308
0.8669398867
0.8621237508
0.9965604204
1.394661737
1.879199743
2.143328226
1.996208551
1.697026663
1.417925457
1.200499128
1.028411416
0.8830447709
0.7559726618
0.6463482942
0.5518564377
0.4662995803
0.3919063476
0.3295303057
0.278214991
0.2361027318
0.2011954252
0.1707867896
0.1426874195
0.1107347127
0.1005822163
1.200031356
1.433852729
1.666173496
1.775206621
1.755652941
1.600738221
1.372299661
1.149888716
0.9791903156
0.8777106113
0.8636467018
0.9673581945
1.199456907
1.463952943
1.624419539
1.601136516
1.485764242
1.339912017
1.188885869
1.041296753
0.9015301208
0.7727600433
0.6578617689
0.5595269881
0.4710413284
0.3934381893
0.3285248625
0.2756294088
0.2323679659
0.1963672818
0.1649631104
0.1361621283
0.1043814243
0.1030038706
1.249858535
1.542031366
1.801899163
1.912217232
1.895908774
1.728556646
1.464750995
1.199506862
0.9942162887
0.8799881356
0.8771723087
0.9896271151
1.178800083
1.366469429
1.472520981
1.472629419
1.402756396
1.290337641
1.156151736
1.015863976
0.8800812962
0.7546097157
0.6423191707
0.5457503801
0.4608733372
0.3856589116
0.3217316812
0.2686433057
0.2241154582
0.1864254522
0.1541996412
0.1268882316
0.1023742483
0.1230494821
1.233092536
1.545159138
1.809034275
1.91733309
1.900396357
1.727183325
1.44841063
1.170561648
0.9614525723
0.8535502019
0.8642092431
0.9859951161
1.171801276
1.328973846
1.40339442
1.391522989
1.319568727
1.208950175
1.078911676
0.9451595859
0.8181023695
0.7027725545
0.6005785901
0.5117251642
0.4351148699
0.3663108154
0.3061647634
0.2543794581
0.2093165972
0.1709101198
0.1402000296
0.1189489259
0.1085926083
0.1533957737
1.120055813
1.42195198
1.687722582
1.802602863
1.777704951
1.593594846
1.319840989
1.061552714
0.8771935322
0.7929843768
0.8173010771
0.9461855461
1.119440969
1.257180678
1.311862387
1.284217804
1.201648914
1.088474945
0.9641017691
0.8419198235
0.7297815344
0.6305060676
0.5434722759
0.4667529302
0.3993805212
0.3379364133
0.2826457092
0.2333476968
0.1894026125
0.1531778267
0.12805685
0.116716656
0.1195762471
0.1815286391
0.9612496515
1.216546586
1.455507015
1.578677274
1.550536832
1.372123387
1.128535534
0.9126760928
0.7683818497
0.7105576189
0.7426061696
0.8687623823
1.017987598
1.131962903
1.166749688
1.126792782
1.042688002
0.9368109448
0.8276155749
0.7250521655
0.6331621677
0.552681711
0.4817105818
0.4174725763
0.358788533
0.3040696564
0.2538108854
0.2080288094
0.1676576977
0.1379395187
0.1218200536
0.1196499037
0.1300494674
0.2036638004
0.7997347287
0.9835382385
1.153508419
1.284699649
1.266350573
1.112785947
0.9198848968
0.7587557185
0.6621776097
0.6212006347
0.654306828
0.767264133
0.8869159976
0.9753655967
0.9943810592
0.9450132995
0.8700892425
0.7846144077
0.6986592449
0.6171239607
0.5431181865
0.4776241671
0.4190360776
0.3649771532
0.314372603
0.2662772098
0.221666133
0.1804958088
0.1469676508
0.1284266471
0.1217025762
0.1246022768
0.13811959
0.220006499
0.670989275
0.7840882518
0.8870158208
1.006675971
1.000065303
0.8793500714
0.7365301614
0.6310928941
0.564562833
0.5374549109
0.5675892936
0.6590044324
0.7540372486
0.8184128588
0.8292373815
0.7872925918
0.7265855684
0.6658972948
0.6025441742
0.5365790395
0.4723600636
0.4145305297
0.3628291591
0.3164276163
0.2714617605
0.2287301228
0.1890906967
0.1531100785
0.1321834223
0.1293678484
0.1291976205
0.1321075226
0.1455249762
0.2321695232
0.5735342758
0.6315149466
0.6891130681
0.7833098496
0.7861686322
0.7002165191
0.6022833803
0.5299019528
0.4827824227
0.465983829
0.4903892874
0.5593056366
0.6354284804
0.6789233851
0.686548974
0.6592498967
0.6216500477
0.5852530689
0.5422866262
0.4866180789
0.4263285639
0.3753160098
0.3272821266
0.2805183932
0.2356754708
0.1948989588
0.1586161879
0.1331264121
0.1358991512
0.1509485736
0.1514847944
0.1471712735
0.1558420488
0.2427429907
0.5021005557
0.5324583833
0.5569345087
0.6239795792
0.6306280374
0.5683427745
0.4999350799
0.449621973
0.417695779
0.4067004862
0.4235772207
0.4724840604
0.5304150852
0.5646386266
0.5660049051
0.5509581818
0.5398720034
0.5340145786
0.516022417
0.4703877299
0.4110768846
0.3548525495
0.3031866952
0.2547135304
0.2102090263
0.1717998157
0.143125053
0.1409370334
0.1704579418
0.1980176551
0.1923051563
0.1724499425
0.1713902987
0.2540403758
0.4351359422
0.4567873068
0.4757496623
0.5070486258
0.5027330107
0.4598552612
0.4150135863
0.3845644863
0.3683667878
0.3536115487
0.361471082
0.3952786556
0.4369449238
0.4636496308
0.4668777427
0.461025748
0.4769004683
0.523559761
0.542021503
0.5122074619
0.4475349883
0.3788177143
0.3192495267
0.2649791655
0.2189748343
0.1829435574
0.1665990484
0.1865778306
0.2292096228
0.2584718216
0.2417436598
0.2039155185
0.1929346247
0.2681682787
0.3538018999
0.36630487
0.3594706178
0.3965963623
0.3926163237
0.3649320342
0.337538111
0.3209394208
0.3175041995
0.2943108755
0.2963429467
0.3178874611
0.3447689514
0.3625441093
0.368612518
0.3815482584
0.4320761487
0.543084209
0.5957467475
0.5787185314
0.5119942344
0.43361391
0.3633106018
0.307553922
0.2666023529
0.2309363463
0.2218596881
0.2485355698
0.2897626792
0.3105469592
0.2824663691
0.2357929324
0.2215989275
0.2885603402
0.2175303661
0.248457628
0.2496649888
0.2606535716
0.2824997596
0.2869413575
0.2695622699
0.2531465578
0.2406224894
0.2224895868
0.2143185148
0.2175642525
0.2289092039
0.2431760385
0.2516693258
0.2649204761
0.3072549262
0.3817314295
0.5195690796
0.5929272685
0.5793849736
0.5027693174
0.4332013959
0.3928786024
0.3572300531
0.3382228828
0.2894633191
0.2769694125
0.2963646332
0.3262451799
0.3353066158
0.3034707716
0.2655425458
0.2593175603
0.3290394819
0.1890712442
0.2241593065
0.1929260102
0.1861164527
0.2049573527
0.1947756598
0.1719608426
0.1352145966
0.09916126538
0.1012288605
0.1132084717
0.1244853058
0.1267531854
0.1246478891
0.1259300977
0.165788721
0.277669816
0.3004330883
0.3883829342
0.4724082938
0.4718028396
0.397180097
0.3878658156
0.4185682608
0.4377296449
0.5076982045
0.4116748021
0.3616665939
0.335256374
0.3317711898
0.3304269693
0.3123750951
0.2968567471
0.3165658252
0.4230898497
0.1687158158
0.1761477499
0.1597771423
0.1548487117
0.1569786307
0.1481842302
0.1255170638
0.1036560941
0.08974243888
0.08194207987
0.08420523498
0.09515246334
0.1080461908
0.1219628312
0.1602390623
0.2751633883
0.4587225616
0.366757828
0.2691194247
0.2754185135
0.2776623981
0.2552023934
0.3110128786
0.3973050713
0.586053974
1.017980627
0.8836794429
0.638698693
0.4270028776
0.3364200392
0.3281414065
0.3400295413
0.3622411251
0.4346092742
0.6241466193
0.1708811411
0.2065519747
0.1869273898
0.196425477
0.1801911615
0.1657884784
0.1492169285
0.130523523
0.1113505169
0.1003199105
0.100091955
0.1116849709
0.1286212203
0.1601475231
0.2431926451
0.4192298392
0.5991974201
0.5621702278
0.323769937
0.2135657437
0.1852076349
0.1738505707
0.2239845241
0.3778374098
1.175813194
2.332816675
2.403104351
1.612606599
0.7010283882
0.400861753
0.3748168077
0.4073507465
0.4933653588
0.6613713666
0.9726392832
0.2572970783
0.2896252634
0.2915238538
0.2657211744
0.214054636
0.1832209211
0.1527247985
0.1275193951
0.1169440393
0.1154779642
0.1231351103
0.143099548
0.1925740488
0.3056498517
0.51727204
0.6986058815
0.7818825833
0.3811161922
0.211966073
0.1833614976
0.191563427
0.2607528541
0.5179585318
2.218904116
3.526721945
3.747425159
2.754867015
1.115331499
0.5203656597
0.4480223382
0.4796584271
0.6535979288
0.9225089472
1.357193819
0.3710189251
0.3354761079
0.3446198914
0.3100403493
0.2528602545
0.2050024329
0.165630826
0.1403346789
0.1324802095
0.1309707342
0.1343190499
0.1521638073
0.7408334028
2.064833038
1.851722005
1.0726247
0.5993689243
0.4642511033
0.4826130689
0.521173603
0.735278542
1.019162542
1.486045883
0.4056869699
0.4034930805
0.2741811323
0.2053073431
0.1689896246
0.152140291
1.246167063
1.332220003
1.422819797
1.521330173
1.622414863
1.681575508
1.701444197
1.677142799
1.603428882
1.480810873
1.318571403
1.135518995
0.9561244418
0.8032870645
0.6902780903
0.6190509894
0.5821238922
0.5673684779
0.5624220642
0.5573759736
0.5456913001
0.5239240233
0.4909954878
0.44754385
0.3955500824
0.3381245299
0.2791973366
0.2229520922
0.173111295
0.1322595029
0.1011254858
0.07818166265
0.05898964493
0.04179038733
0.8086086979
0.8640946851
0.9220826475
0.9805170954
1.030441505
1.06755742
1.085734919
1.07982908
1.047342883
0.9888648205
0.9084226239
0.8133239726
0.7135416
0.6204170027
0.5429236112
0.4865097559
0.4501858128
0.4284037873
0.4143992879
0.4025401414
0.3891054408
0.3720741824
0.3505930485
0.3245017492
0.2940622732
0.2599265625
0.2233072375
0.1862045589
0.151362714
0.1216415018
0.0985695365
0.08182262569
0.06673451787
0.06040916488
0.7703818937
0.8143682578
0.8628991308
0.9103296738
0.9503210906
0.9826730527
1.00207999
1.003759214
0.9843203534
0.942904486
0.8818517512
0.8062248338
0.7238774576
0.6445265289
0.5734033589
0.5183722386
0.4805275777
0.4557113291
0.4381718915
0.4230800184
0.4073180814
0.3892348316
0.3680944696
0.343569807
0.3154364863
0.2835537705
0.2481878535
0.2106198225
0.1736140505
0.1409254265
0.1151011314
0.09606381836
0.07813218774
0.07256310715
0.758969433
0.7801799371
0.8158054343
0.8550079038
0.8896479461
0.9183413464
0.9370149853
0.941300995
0.9273618057
0.8934776974
0.8422562583
0.7785050395
0.7118794172
0.6538906484
0.5891848061
0.5346975066
0.4954533724
0.4685541186
0.4489688317
0.4322725739
0.4155772516
0.3973544028
0.3769083598
0.3538442668
0.3277289451
0.2980354022
0.2644485805
0.2275844441
0.1898398248
0.1553501381
0.1274683534
0.106672348
0.08725769569
0.08639441354
0.8635672843
0.781644937
0.7814491571
0.8098289608
0.8375075525
0.8616505183
0.8782856915
0.8833534262
0.873149123
0.8457418378
0.8025646588
0.7529418374
0.7201361401
0.7334274143
0.6560767029
0.5767749055
0.5211159362
0.4845241628
0.4594633345
0.43972399
0.4214021717
0.4025058266
0.382164815
0.3599147749
0.3352574205
0.3074834538
0.2759006344
0.2405273121
0.2030983493
0.1675374495
0.137732183
0.1152546065
0.09571280398
0.1017451726
1.656481523
0.928158878
0.7743600144
0.7773364165
0.7964163751
0.8152795051
0.8287424967
0.8331362415
0.8251379337
0.8032888291
0.7718985301
0.7537838607
0.8487106541
1.169422354
0.9681714114
0.7358839283
0.599341451
0.5240575988
0.480810677
0.4524314962
0.4297271943
0.4084504838
0.386848259
0.3642051949
0.3400496426
0.3136158144
0.2839436318
0.2505011951
0.214181018
0.1781751808
0.1465012377
0.1220517315
0.102075066
0.1129430366
5.857294904
1.689000438
0.8554377733
0.766492222
0.7713617454
0.7834862857
0.79216651
0.7942709187
0.7873930819
0.7718312603
0.7616212427
0.8428073568
1.463202393
2.849682977
2.119042103
1.259543149
0.8245766948
0.6244116112
0.5284655354
0.4774758579
0.4443465877
0.4176176854
0.3927477653
0.3681818027
0.3433276695
0.317368437
0.2891698557
0.2577430049
0.2231380177
0.1874799744
0.1543728859
0.1276632499
0.1060682993
0.1180974817
10.8168124
4.202004495
1.095279066
0.7851868781
0.7673196557
0.7703207883
0.7715008849
0.7689188448
0.7619687444
0.7552251403
0.7901607704
1.176656585
3.508706296
6.97009322
4.966640356
2.541915116
1.342531582
0.8392831323
0.6224217113
0.5224770674
0.4683882492
0.4314717217
0.4008090676
0.3724584858
0.3454882845
0.3187973887
0.2911349641
0.2612641696
0.2286403139
0.1943170453
0.1609508208
0.132534684
0.1088335673
0.1193989294
3.637154809
1.305521964
0.8469532905
0.7942879149
0.78790797
0.7808484633
0.7700998245
0.7588162064