/*--------------------------------*- C++ -*----------------------------------*\
  =========                 |
  \\      /  F ield         | OpenFOAM: The Open Source CFD Toolbox
   \\    /   O peration     | Website:  https://openfoam.org
    \\  /    A nd           | Version:  8
     \\/     M anipulation  |
\*---------------------------------------------------------------------------*/
FoamFile
{
    version     2.0;
    format      ascii;
    class       volScalarField;
    location    "1.2";
    object      htcConv;
}
// * * * * * * * * * * * * * * * * * * * * * * * * * * * * * * * * * * * * * //

dimensions      [1 0 -1 1 0 0 0];

internalField   uniform 0;

boundaryField
{
    walls
    {
        type            calculated;
        value           uniform 0;
    }
    region0_to_wallFilmRegion_wallFilmFace
    {
        type            convectiveHeatTransfer;
        L               1;
        value           nonuniform List<scalar> 
1019
(
1.707135959
1.51150986
1.8546268
1.917300137
2.286808201
2.472379986
2.803267494
3.012231402
3.175926365
3.321248127
3.454696305
3.078245967
2.089334711
2.390811753
2.319264592
2.07204318
1.789957589
1.818469026
1.976397542
2.225427401
2.366419398
2.557197694
2.712898026
2.788341916
2.792050346
2.709943989
2.439175496
2.108802935
1.198969885
1.889837625
1.296790651
1.998815211
1.882376767
2.239811145
2.171931507
2.408555649
2.768527997
2.955706359
3.059121331
3.08224624
3.010681454
2.808955576
2.532415815
2.482751474
2.405072163
2.256803576
2.138046771
2.104006366
2.166764675
2.304724932
2.409862777
2.587637837
2.735357558
2.810871072
2.820731488
2.719498779
2.446293569
2.062241329
1.433197571
1.485147592
1.533448252
2.121143091
2.361329726
2.270099176
2.064439862
2.365733747
2.752709109
2.927685834
3.018870677
3.038956447
2.976159631
2.762898225
2.562662889
2.516154733
2.481084849
2.437973921
2.382132684
2.323532984
2.308948571
2.361608606
2.430202577
2.558706669
2.684430322
2.778043075
2.818291883
2.75030709
2.427940371
2.129069639
1.867317929
1.354616084
1.612957131
2.495879914
3.237872381
1.867318669
2.1441865
1.983568342
2.349614354
2.750361087
2.906897552
2.978073031
2.974984948
2.910983594
2.792401969
2.675915679
2.634888883
2.636564498
2.635571585
2.594594314
2.519468486
2.462119337
2.477950656
2.553922278
2.717644464
2.893638353
3.012202923
3.057102875
2.98689031
2.777899289
2.535488148
2.109929067
1.532928554
1.779933007
2.41441626
2.754405964
2.463125034
2.666795766
1.95244369
2.361801705
2.762112739
2.901861714
2.959365297
2.944935245
2.876786712
2.767750531
2.65192204
2.574865281
2.549197223
2.561969778
2.566039598
2.540513712
2.530253031
2.558897891
2.63052316
2.790179217
2.963790081
3.092611022
3.145428804
3.069003293
2.883484768
2.643536608
2.344151966
1.868264877
1.859499673
2.365291772
2.666102793
2.642136879
2.815996916
1.973971045
2.391361616
2.781994729
2.913988239
2.963897697
2.944222084
2.875475791
2.77125403
2.652987334
2.552337602
2.496269508
2.500554294
2.538434439
2.571049567
2.613724863
2.6693008
2.7314407
2.863870632
2.991582558
3.079548699
3.100332415
3.013710717
2.845791272
2.623068949
2.345015333
1.977912552
1.956519181
2.37496785
2.602584465
2.668326988
2.769413816
2.090958314
2.454869794
2.818564408
2.940897075
2.98525197
2.962327722
2.892534627
2.78801294
2.665230031
2.549372883
2.467528027
2.449121928
2.495650113
2.572218458
2.645276755
2.730843369
2.794049668
2.89781912
2.986332621
3.039517901
3.017543908
2.907079617
2.719013026
2.455327422
2.164308502
1.698029516
2.029229378
2.329249208
2.483224524
2.563490569
2.643257418
2.269569067
2.556382398
2.880440004
2.990806766
3.03023254
3.004340375
2.930565886
2.817746481
2.679730866
2.544734866
2.435525366
2.385089682
2.405706672
2.493034521
2.584728462
2.703268628
2.786627108
2.881780841
2.956653978
2.978796138
2.925967876
2.794660199
2.570132866
2.216905608
1.907600026
1.518280071
1.980190981
2.204829319
2.335928138
2.432630924
2.520934808
2.456875536
2.673291589
2.957047479
3.055397841
3.090313756
3.061062672
2.979592186
2.848048852
2.675473209
2.516402472
2.375208378
2.294010097
2.268180476
2.325600868
2.410376669
2.578534004
2.705823298
2.819539395
2.888468794
2.896106362
2.825574522
2.670070097
2.347660205
1.881051705
1.702309512
1.487144394
1.923955685
2.085132254
2.224328294
2.333570287
2.627166068
2.786643284
3.035090703
3.125868082
3.157351006
3.124819408
3.032620441
2.872783352
2.628182473
2.420703896
2.231173569
2.143832314
2.050428657
2.066161898
2.126787555
2.360411202
2.555172878
2.705914626
2.795233322
2.81581472
2.763310698
2.635497957
2.417142028
2.090398146
1.716742264
1.450862814
1.812766022
1.988317681
2.158303241
2.276150444
2.769015095
2.884432816
3.106111214
3.196381313
3.227799447
3.195950568
3.088394596
2.869421386
2.496695496
2.26313305
1.99296856
1.895509379
1.785373739
1.705967192
1.791643103
2.132996919
2.409083712
2.60319965
2.712145594
2.744686144
2.707161529
2.600119114
2.407697751
2.149550433
1.849785209
1.509608732
1.652563087
1.900466001
2.13435938
2.270498255
2.877392729
2.959720278
3.162795349
3.258939679
3.305271102
3.309120756
3.300468407
3.196029799
2.623678716
1.934286723
1.80112115
1.607625692
1.407955269
1.187376244
1.296734442
1.794346287
2.161219896
2.416716351
2.574772074
2.647469166
2.643768822
2.565807856
2.409051118
2.151725672
1.860946221
1.503845567
1.654837246
1.912208723
2.134651964
2.252248634
2.950639251
3.009404801
3.200403549
3.305933603
3.365293645
3.362570428
3.320534335
3.518350909
4.251994222
2.038654714
2.160633814
1.216240824
1.412303042
0.8624490132
1.251118998
1.650664208
1.967759898
2.243283456
2.439032645
2.547791708
2.567383007
2.507295592
2.364653048
2.112085455
1.878068992
1.627773641
1.85738196
2.047991146
2.174009118
2.988727591
3.034126994
3.221263581
3.35920759
3.516519126
3.789515554
4.365193079
5.116318933
8.600385676
3.528709622
2.053459906
1.509019863
1.262895472
1.449396836
1.62190504
1.754028651
1.924901225
2.140729053
2.32020508
2.43028402
2.470980035
2.427252336
2.294210595
2.033017724
1.849449225
1.856908747
2.123228609
2.203762358
2.220342613
2.994781084
3.036677779
3.221643728
3.383919219
3.581815228
3.861527632
4.269202135
4.709044726
5.018022299
3.459796502
3.542492895
2.448087052
1.751693202
1.870829534
1.931730999
1.966157656
1.967540462
2.076544587
2.201969731
2.285053468
2.317174313
2.298210778
2.184310913
1.943563075
1.823169743
2.006606736
2.469540512
2.313910824
2.215471796
2.977389408
3.021733752
3.199030046
3.368279467
3.575966433
3.84558228
4.175124012
4.444577706
4.468381463
3.835361872
3.631805133
2.709869831
2.489797786
2.364846088
2.30248161
2.194335095
2.070611411
2.019421571
2.029051532
2.060026738
2.072216756
2.044875972
1.961589924
1.737724207
1.660402428
2.239413274
2.878775493
2.101378367
2.214015139
2.950716494
3.000290485
3.163841555
3.322883897
3.511849831
3.745638671
4.026652288
4.276318093
4.332259033
4.041585236
3.73832901
3.088138703
2.980514113
2.779518406
2.653072131
2.483859135
2.277873289
2.104369294
1.973605181
1.879977757
1.789882674
1.702389468
1.577885547
1.347472639
1.312978589
2.259317866
2.902885965
2.186074068
2.473541854
2.929413311
2.984523323
3.13233376
3.273099256
3.431371575
3.615494067
3.835885819
4.055920349
4.172598259
4.061488564
3.806632586
3.384753422
3.287544435
3.089783342
2.943863895
2.754874464
2.532613108
2.320413801
2.123616558
1.942865518
1.706268386
1.313291292
0.9487222005
1.214772846
1.348976973
1.6991374
2.251563824
2.208663559
2.046536011
2.921954103
2.98054667
3.113526477
3.234400803
3.361448532
3.4975738
3.657032819
3.829390633
3.960872456
3.961950405
3.808350677
3.548332204
3.471845873
3.308391685
3.166430932
2.980143249
2.769823066
2.55840897
2.359244333
2.176169935
1.948847497
1.646961344
1.63415988
1.786416132
1.798282545
1.66619259
1.760674805
1.86561066
1.852481457
2.928885386
2.987580522
3.10776021
3.210875645
3.311936583
3.409268581
3.51721657
3.639879672
3.757083073
3.815259574
3.761290225
3.623828028
3.578345797
3.45482021
3.324939154
3.150085317
2.953738309
2.761650654
2.571966024
2.411967983
2.251235401
2.107123865
2.112260978
2.116767248
2.022819395
1.782782303
1.374087935
1.756639906
2.037454848
2.945383573
3.000513612
3.109631111
3.198392128
3.280427531
3.35050153
3.42133976
3.502534402
3.593889281
3.672232606
3.691806808
3.646048241
3.630767316
3.541666248
3.424310388
3.261094855
3.077685276
2.900173937
2.725768862
2.583280496
2.482341623
2.419013276
2.415716196
2.353658731
2.182356027
1.724756733
1.540016888
2.012483742
1.778510548
2.96449682
3.012671156
3.111670527
3.189035177
3.258055416
3.310871261
3.358461918
3.411110227
3.476992262
3.553320512
3.612781869
3.629455569
3.637986221
3.574520897
3.467021581
3.31233723
3.138630274
2.971842061
2.810577263
2.676869942
2.611246521
2.584536774
2.581719601
2.495681627
2.252752158
1.670665314
1.481404955
1.981679418
2.172522322
2.979294792
3.017615014
3.106906592
3.174923724
3.235059814
3.2780924
3.313119847
3.348754192
3.394936195
3.458561861
3.528431664
3.576703171
3.601396911
3.555611066
3.454519734
3.304893315
3.137710107
2.978747085
2.826239248
2.699336667
2.641259271
2.635840529
2.636901831
2.565101859
2.298105655
1.838757139
1.585911137
1.813150957
2.394546855
2.983701321
3.009790651
3.089638686
3.14979975
3.203846614
3.242078164
3.270793255
3.297521925
3.330324437
3.378611857
3.439709569
3.493111835
3.519147209
3.481582754
3.38618954
3.242019444
3.080221267
2.926206611
2.778822232
2.647109839
2.587582294
2.599327857
2.628202476
2.603670139
2.437889344
2.219860143
1.867346609
1.954045208
2.588748892
1.802697505
2.972365199
2.98435493
3.055108705
3.108709762
3.15844795
3.194351281
3.22135171
3.243833106
3.268287518
3.301516109
3.345200086
3.38734743
3.403436355
3.362495448
3.266208497
3.125389151
2.969054954
2.817283837
2.668015724
2.534499438
2.469334376
2.503627442
2.591925541
2.638351188
2.565771297
2.493791121
2.539594117
2.908928463
3.482058711
1.728163702
2.940005591
2.936642616
2.998729814
3.04702697
3.093862739
3.128370446
3.155229422
3.176648339
3.195754297
3.216644942
3.242435736
3.266246224
3.265431623
3.213800789
3.112324017
2.972373342
2.818253152
2.664367024
2.510018346
2.375423987
2.308348096
2.38735365
2.58144229
2.749323539
2.872444604
3.128375116
3.522187499
3.897301455
4.30829863
3.203246849
2.880565884
2.861645169
2.915320747
2.959456394
3.004857574
3.039099866
3.066429941
3.087949356
3.104604333
3.117737935
3.129268042
3.134490388
3.11462864
3.04932247
2.941010018
2.800932419
2.647187973
2.488109493
2.324420763
2.183929384
2.135920564
2.308724651
2.610915957
2.838704852
3.01797829
3.285861427
3.637766922
3.91422745
4.168082128
2.751137906
2.7865623
2.753888943
2.798791469
2.839488572
2.884888828
2.920659897
2.95025981
2.973968072
2.991350264
3.001508298
3.004129589
2.994476054
2.957766072
2.880451219
2.767148694
2.628298931
2.475365971
2.310383333
2.134880847
1.997825334
2.053402423
2.362554604
2.682405412
2.881792906
3.035962654
3.249442076
3.487482299
3.716116018
3.783697528
2.314293831
2.649249339
2.607939414
2.642698303
2.679698819
2.726239376
2.76583511
2.800865181
2.830551642
2.853113416
2.865574861
2.865083084
2.846006391
2.797588861
2.713165258
2.599712525
2.466919499
2.321731458
2.166097416
2.026626821
2.028617093
2.273148305
2.57752687
2.785840097
2.885043705
2.952198705
3.099492914
3.294571312
3.33741478
3.040254952
2.195003244
2.460908099
2.419791935
2.442444267
2.474091272
2.522278733
2.568036485
2.612468467
2.653370437
2.686937939
2.707432567
2.709296348
2.686507585
2.632573312
2.547336813
2.441102072
2.325852708
2.211458612
2.114671609
2.097340409
2.256127995
2.539218653
2.776210411
2.897830304
2.918756639
2.904520067
2.964316601
3.108510846
3.124896152
2.750253373
2.542941849
2.216790134
2.184733407
2.194791324
2.219505804
2.269483799
2.323049254
2.38026811
2.437422903
2.487761617
2.52142692
2.529963951
2.508180092
2.454415661
2.375113879
2.287042011
2.209970393
2.159720379
2.152869164
2.224787094
2.406516855
2.646717847
2.838044673
2.924541636
2.910943695
2.865164888
2.928001053
3.069568773
3.131080825
3.01019836
2.903992572
1.935040897
1.911637559
1.915453521
1.938521963
1.99386129
2.056050918
2.125473067
2.198617809
2.266483972
2.314650525
2.332273493
2.316779732
2.272436017
2.213616914
2.167756786
2.162001586
2.200836621
2.270123607
2.370701332
2.520549263
2.707862543
2.875476617
2.976994093
3.012697552
3.027130692
3.064097166
3.135911741
3.240986671
3.164204883
3.025371691
1.588214452
1.554964364
1.566895039
1.605056146
1.679576702
1.755623755
1.835376575
1.916640565
1.991355743
2.045095903
2.069584082
2.069309749
2.058655375
2.063990577
2.119811058
2.231373355
2.361030218
2.47737208
2.585552963
2.707358637
2.84782064
2.986878077
3.10297838
3.192131015
3.258844452
3.290505339
3.290707208
3.2771926
3.17162254
2.998653667
1.303911258
1.259031432
1.327984333
1.422226594
1.523682595
1.604044302
1.67747673
1.743306123
1.793397341
1.818748866
1.82421586
1.835530464
1.901259963
2.06880478
2.304803803
2.511462835
2.648984438
2.739037855
2.814924231
2.900011795
2.9991572
3.103136171
3.203315872
3.295479818
3.360719294
3.386263545
3.374818667
3.31313453
3.16852674
2.953629142
)
;
    }
    region0_to_wallFilmRegion_mirrorFace
    {
        type            convectiveHeatTransfer;
        L               1;
        value           nonuniform List<scalar> 
133
(
3.45757077
3.554594563
3.743770414
3.34975775
3.384723391
4.286009526
4.05305329
3.453162432
3.947848831
3.822841661
3.632291628
3.477050889
3.530257201
3.493702263
3.203928706
3.323037894
3.346747172
3.35829403
3.502339524
3.34972621
3.587230816
3.516518681
3.857810501
4.104508463
3.902662593
3.614907655
3.546249581
3.428171973
3.475538606
4.288654787
4.19258073
3.756836223
4.047954389
3.944768918
3.611700396
3.724719272
3.390613868
3.468363874
3.619148721
4.186533031
3.874690991
3.574073072
3.73577052
3.570399579
3.577767592
3.685760483
3.89262786
3.731544568
3.73540469
3.457459479
3.320044916
3.364071232
3.188157295
2.834106431
3.632279548
3.328296906
2.761109573
3.540383459
3.546174463
3.538344441
3.416324275
4.009390259
3.729157658
3.522740742
3.557313401
3.487791999
3.605906934
3.134236899
4.425620286
4.30335388
4.091215298
3.644463632
3.74665689
3.940994143
3.514098655
3.563657301
3.077385137
3.146402008
2.773319081
3.563962872
2.756135788
2.958971269
3.819040267
3.72652575
2.716089105
2.465235884
3.650334261
2.433762705
3.507676432
3.413481222
3.043580993
3.591595858
3.633645881
3.839475023
3.361182991
3.460749985
3.327783429
4.179648266
3.603895494
3.811378802
4.111511578
4.033030512
3.93066856
3.81028109
3.536693872
3.542486573
3.605204264
3.699767
3.66139198
3.612627122
3.548705001
3.515773956
3.303206576
3.316254871
3.468509049
3.333540079
3.494210263
3.357098185
3.392534986
3.359357869
3.492090047
3.567776322
3.300845807
3.405456369
3.289830475
3.411323436
3.10994064
2.875486715
2.956124512
3.169157963
3.044835398
3.117671991
3.154626291
)
;
    }
    procBoundary3to0
    {
        type            processor;
        value           uniform 0;
    }
    procBoundary3to1
    {
        type            processor;
        value           uniform 0;
    }
    procBoundary3to2
    {
        type            processor;
        value           uniform 0;
    }
}


// ************************************************************************* //
