/*--------------------------------*- C++ -*----------------------------------*\
  =========                 |
  \\      /  F ield         | OpenFOAM: The Open Source CFD Toolbox
   \\    /   O peration     | Website:  https://openfoam.org
    \\  /    A nd           | Version:  8
     \\/     M anipulation  |
\*---------------------------------------------------------------------------*/
FoamFile
{
    version     2.0;
    format      ascii;
    class       volScalarField;
    location    "1.2";
    object      O2;
}
// * * * * * * * * * * * * * * * * * * * * * * * * * * * * * * * * * * * * * //

dimensions      [0 0 0 0 0 0 0];

internalField   nonuniform List<scalar> 
67193
(
0.2099988598
0.2099987759
0.2099986753
0.2099985613
0.209998445
0.2099983642
0.2099983333
0.2099983266
0.2099983499
0.2099984048
0.2099984915
0.2099986113
0.2099987667
0.2099989532
0.2099991459
0.2099993054
0.2099993999
0.2099994283
0.2099994162
0.2099993954
0.2099993883
0.2099994067
0.2099994563
0.209999543
0.2099996767
0.2099998752
0.210000165
0.2100005764
0.2100011248
0.2100017831
0.2100024702
0.2100030848
0.2100035835
0.2100040215
0.2099987699
0.209998654
0.2099985302
0.2099984093
0.209998309
0.2099982559
0.2099982352
0.209998227
0.2099982373
0.2099982689
0.2099983204
0.2099983907
0.2099984822
0.2099986
0.2099987303
0.2099988503
0.2099989338
0.2099989754
0.2099989915
0.2099990046
0.2099990302
0.2099990748
0.2099991394
0.2099992252
0.209999337
0.2099994889
0.2099997092
0.2100000429
0.2100005369
0.2100011979
0.2100019533
0.2100026765
0.2100032928
0.2100038315
0.2099987188
0.2099985835
0.2099984527
0.2099983315
0.2099982397
0.2099981927
0.2099981659
0.2099981514
0.2099981547
0.2099981818
0.2099982304
0.2099982971
0.2099983811
0.2099984916
0.209998598
0.2099986919
0.2099987545
0.2099987859
0.209998803
0.2099988257
0.2099988663
0.2099989279
0.2099990081
0.2099991042
0.2099992165
0.2099993525
0.2099995344
0.2099998068
0.2100002332
0.2100008531
0.2100016144
0.2100023712
0.2100030167
0.210003562
0.2099987996
0.2099986242
0.2099984784
0.2099983401
0.2099982373
0.2099981753
0.2099981346
0.2099981131
0.2099981142
0.2099981418
0.2099981975
0.2099982793
0.2099983815
0.2099985381
0.2099986298
0.2099986974
0.2099987257
0.2099987303
0.2099987325
0.2099987508
0.2099987949
0.2099988652
0.2099989565
0.2099990637
0.2099991837
0.2099993194
0.2099994858
0.2099997207
0.2100000899
0.2100006557
0.2100013943
0.2100021537
0.2100027911
0.2100032969
0.2099990643
0.209998762
0.2099985785
0.2099983873
0.2099982534
0.2099981691
0.2099981111
0.2099980811
0.2099980805
0.2099981146
0.2099981894
0.2099983155
0.2099984596
0.2099987896
0.2099988176
0.2099988489
0.2099988166
0.2099987662
0.2099987316
0.2099987295
0.2099987656
0.2099988366
0.2099989337
0.2099990492
0.2099991777
0.2099993194
0.2099994838
0.2099996997
0.2100000262
0.2100005354
0.2100012343
0.210001988
0.2100026269
0.21000311
0.2099996385
0.2099989797
0.2099987684
0.2099984721
0.2099982953
0.2099981828
0.2099981062
0.2099980671
0.2099980658
0.2099981118
0.2099982185
0.209998442
0.2099986258
0.2099994988
0.2099992052
0.2099991693
0.209999045
0.2099989007
0.2099987986
0.2099987552
0.20999877
0.2099988343
0.2099989312
0.2099990514
0.2099991864
0.2099993356
0.2099995048
0.2099997152
0.2100000145
0.2100004723
0.2100011196
0.2100018588
0.2100025201
0.2100030253
0.2100008254
0.2099992453
0.2099990785
0.2099985662
0.2099983543
0.2099982125
0.2099981193
0.2099980714
0.2099980704
0.2099981344
0.2099982816
0.2099987372
0.2099989118
0.2100012287
0.2099998796
0.2099996097
0.2099993776
0.2099991227
0.2099989294
0.2099988247
0.2099988042
0.2099988514
0.2099989433
0.2099990652
0.2099992056
0.2099993626
0.2099995415
0.2099997576
0.2100000466
0.2100004656
0.2100010556
0.2100017634
0.2100024526
0.2100030234
0.2100033042
0.2099995709
0.2099992672
0.2099986652
0.2099984113
0.2099982501
0.2099981474
0.2099980925
0.2099980905
0.2099981742
0.2099983045
0.2099991673
0.2099996268
0.2100044107
0.2100009627
0.2099999259
0.2099995998
0.2099993212
0.2099990775
0.2099989199
0.2099988629
0.20999889
0.2099989723
0.2099990921
0.2099992365
0.209999402
0.2099995953
0.2099998286
0.2100001266
0.2100005279
0.2100010661
0.2100017218
0.2100024172
0.2100030698
0.2099995539
0.2099990474
0.2099988908
0.2099986044
0.209998426
0.2099982894
0.2099981902
0.2099981277
0.209998115
0.2099982027
0.2099983282
0.2099994659
0.2100005493
0.2100064321
0.2100018176
0.2099996646
0.2099992769
0.2099992234
0.2099991067
0.2099989789
0.2099989199
0.2099989418
0.2099990182
0.2099991357
0.2099992828
0.2099994593
0.2099996737
0.2099999373
0.2100002656
0.2100006765
0.2100011832
0.2100017772
0.2100024379
0.2100031396
0.2099993643
0.2099989744
0.2099987746
0.2099985669
0.2099984652
0.209998354
0.2099982574
0.2099981796
0.2099981313
0.2099981184
0.2099980828
0.2099981378
0.2099978155
0.2099967639
0.2099968406
0.2099973098
0.2099980322
0.2099985971
0.2099988426
0.209998899
0.2099989194
0.209998975
0.2099990685
0.2099991938
0.2099993491
0.2099995427
0.2099997874
0.2100000952
0.2100004725
0.2100009173
0.2100014186
0.210001962
0.2100025592
0.2100032417
0.2099991634
0.2099989198
0.2099987113
0.2099984963
0.2099984933
0.2099984331
0.2099983513
0.2099982639
0.2099981947
0.2099981606
0.2099981489
0.2099983638
0.2099982128
0.2099987439
0.2099969555
0.2099969565
0.2099975725
0.2099981483
0.209998495
0.2099986852
0.2099988233
0.2099989588
0.2099991011
0.2099992552
0.2099994336
0.2099996562
0.2099999433
0.2100003063
0.210000741
0.2100012275
0.2100017385
0.2100022539
0.2100027944
0.2100034071
0.209999149
0.2099988686
0.2099986217
0.209998377
0.2099984574
0.2099984836
0.2099984523
0.2099983739
0.2099982914
0.2099982331
0.2099982074
0.2099982324
0.209998189
0.2099979083
0.2099978468
0.2099979947
0.209998164
0.2099982713
0.2099983775
0.209998525
0.2099987069
0.2099989014
0.2099990978
0.2099992984
0.2099995197
0.2099997896
0.2100001326
0.2100005556
0.2100010421
0.2100015606
0.2100020811
0.2100025881
0.2100031033
0.2100036476
0.2099988969
0.2099987193
0.2099984782
0.2099982567
0.2099983546
0.2099984599
0.2099985168
0.2099984886
0.2099984106
0.2099983357
0.2099982788
0.2099982893
0.2099981261
0.209998128
0.2099976772
0.2099977727
0.2099978701
0.2099979981
0.2099981687
0.2099983796
0.2099986134
0.2099988502
0.2099990845
0.2099993289
0.2099996013
0.2099999298
0.2100003353
0.2100008141
0.2100013388
0.2100018755
0.2100024015
0.2100029105
0.2100034233
0.2100039222
0.2099988884
0.2099986252
0.2099983759
0.2099982063
0.20999826
0.2099983826
0.2099985104
0.2099985669
0.209998535
0.2099984609
0.2099983797
0.2099982993
0.2099981089
0.2099979991
0.209997842
0.2099977809
0.2099978116
0.2099979172
0.2099980894
0.2099983138
0.2099985678
0.2099988293
0.2099990908
0.209999369
0.2099996882
0.2100000734
0.2100005357
0.210001059
0.2100016094
0.2100021573
0.2100026872
0.2100031938
0.2100036885
0.2100041055
0.2099988503
0.2099985842
0.209998377
0.2099982765
0.2099982621
0.2099983428
0.2099984763
0.2099985927
0.2099986263
0.2099985672
0.2099984552
0.2099982687
0.2099980853
0.2099979923
0.2099978248
0.2099977821
0.2099978154
0.2099979256
0.2099981047
0.209998336
0.2099985982
0.2099988717
0.2099991491
0.2099994476
0.2099997974
0.2100002226
0.2100007251
0.2100012795
0.2100018506
0.2100024116
0.2100029422
0.2100034208
0.2100038332
0.2100040658
0.2099989898
0.2099987902
0.2099986403
0.209998602
0.2099985116
0.2099985138
0.2099985692
0.2099986419
0.2099986816
0.2099986475
0.2099985472
0.2099983664
0.2099982017
0.2099981045
0.2099979974
0.2099979309
0.2099979453
0.2099980464
0.2099982225
0.2099984527
0.2099987143
0.2099989887
0.2099992702
0.2099995746
0.2099999379
0.2100003834
0.2100009086
0.2100014853
0.2100020791
0.2100026571
0.210003175
0.2100035802
0.2100038367
0.2100038512
0.2099993127
0.209999149
0.2099990085
0.2099989526
0.2099988375
0.2099988031
0.2099988102
0.2099988263
0.2099988128
0.2099987479
0.2099986516
0.2099984979
0.2099983371
0.2099982316
0.2099981191
0.2099980863
0.2099981394
0.2099982604
0.2099984368
0.2099986611
0.2099989099
0.2099991699
0.209999441
0.2099997407
0.2100001056
0.2100005608
0.2100011017
0.2100017
0.2100023224
0.2100029162
0.2100033928
0.2100036765
0.2100037534
0.2100036056
0.209999598
0.2099994566
0.2099992932
0.2099992094
0.2099990994
0.2099990498
0.2099990245
0.2099989934
0.2099989301
0.2099988412
0.2099987657
0.2099986537
0.2099985039
0.2099983991
0.2099983034
0.2099983126
0.2099983882
0.2099985268
0.2099987065
0.2099989053
0.2099991285
0.2099993701
0.2099996327
0.2099999328
0.2100003046
0.2100007723
0.2100013295
0.2100019517
0.2100026085
0.2100032023
0.210003592
0.2100037239
0.210003648
0.2100033973
0.2099998361
0.209999732
0.2099995597
0.2099994338
0.2099993196
0.2099992511
0.2099991961
0.2099991209
0.2099990249
0.2099989359
0.2099988992
0.2099988316
0.209998705
0.2099986182
0.2099985531
0.2099986167
0.2099987095
0.2099988482
0.2099990202
0.209999215
0.209999421
0.2099996444
0.2099998982
0.2100001983
0.2100005801
0.2100010583
0.2100016244
0.2100022655
0.2100029467
0.2100034778
0.2100037261
0.2100037164
0.2100035463
0.210003242
0.2100000565
0.2099999769
0.2099998339
0.2099996396
0.2099994978
0.2099994031
0.2099993208
0.2099992154
0.209999113
0.2099990536
0.2099990634
0.209999033
0.2099989385
0.2099988795
0.2099988565
0.2099989563
0.209999079
0.2099992231
0.2099993958
0.2099995901
0.2099998012
0.2100000303
0.2100002828
0.21000059
0.2100009716
0.2100014367
0.2100019847
0.2100026236
0.2100032378
0.2100035703
0.2100036811
0.2100036263
0.2100034619
0.2100031503
0.210000291
0.2100001855
0.2100000684
0.2099998098
0.2099996336
0.2099995086
0.209999403
0.2099992973
0.2099992237
0.2099992186
0.2099992651
0.2099992601
0.2099992024
0.2099991714
0.2099991955
0.2099993245
0.2099994993
0.2099996795
0.2099998769
0.210000083
0.2100003067
0.210000541
0.2100007936
0.210001084
0.2100014376
0.2100018657
0.2100023682
0.2100029204
0.2100032541
0.2100033217
0.2100033943
0.2100034505
0.2100034111
0.2100031269
0.2100004422
0.2100003329
0.2100001985
0.2099999392
0.2099997508
0.2099995943
0.2099994819
0.2099994107
0.2099993953
0.2099994491
0.2099995107
0.2099995229
0.2099994992
0.2099995011
0.2099995616
0.2099997348
0.2099999664
0.2100002691
0.2100005876
0.2100008813
0.2100011016
0.2100012925
0.2100014866
0.210001716
0.210002
0.2100023373
0.2100026967
0.2100029686
0.2100029862
0.2100029075
0.2100029988
0.2100032356
0.2100033852
0.2100031531
0.2100005752
0.2100004688
0.2100003375
0.2100000717
0.2099998644
0.2099996911
0.2099996129
0.2099996215
0.2099996918
0.2099997602
0.2099998244
0.2099998473
0.2099998558
0.2099998992
0.2100000113
0.2100002371
0.210000557
0.2100010388
0.2100013926
0.2100015709
0.2100016958
0.2100017944
0.2100019147
0.2100020903
0.2100023117
0.2100025401
0.2100027109
0.2100027346
0.2100026588
0.2100025751
0.2100026854
0.210003056
0.2100033542
0.2100031909
0.2100008466
0.2100007833
0.2100006794
0.2100002589
0.2100000177
0.2099998666
0.2099998893
0.2100000044
0.2100000845
0.2100001971
0.2100002505
0.2100002956
0.2100003473
0.2100004474
0.2100006193
0.2100009003
0.210001267
0.2100017712
0.2100019518
0.210002048
0.2100021349
0.2100021737
0.2100021954
0.2100022632
0.210002351
0.2100024218
0.2100024265
0.2100023481
0.2100023506
0.2100023753
0.2100025398
0.2100029751
0.2100032963
0.2100032112
0.2100026231
0.2100031344
0.2100020361
0.2100013805
0.2100008352
0.2100004246
0.2100003196
0.2100005018
0.2100007342
0.2100008658
0.2100009246
0.210000965
0.2100010455
0.2100011762
0.2100013552
0.2100015887
0.210001919
0.2100022374
0.2100024457
0.2100024503
0.2100024432
0.2100024743
0.2100024791
0.210002452
0.2100024191
0.2100023544
0.2100022634
0.2100021415
0.2100019777
0.2100021003
0.2100023266
0.2100025855
0.2100029754
0.2100031866
0.2100032078
0.2100048846
0.2100045038
0.2100046146
0.210004102
0.210002922
0.2100019934
0.2100016822
0.2100022081
0.2100031578
0.2100026198
0.2100024533
0.2100023527
0.2100025475
0.2100027895
0.210002882
0.2100027709
0.2100027868
0.2100028549
0.2100028607
0.2100027779
0.2100026903
0.210002592
0.210002537
0.2100025299
0.210002459
0.2100022505
0.2100020393
0.2100019537
0.2100017375
0.2100019487
0.2100024607
0.2100027494
0.2100028902
0.2100030208
0.2100031782
0.2100053517
0.2100054181
0.210005337
0.2100053484
0.2100051779
0.2100047034
0.2100044949
0.2100047999
0.2100045068
0.2100036395
0.2100031541
0.2100031931
0.2100031996
0.210003039
0.2100027796
0.2100026481
0.2100033044
0.2100027043
0.2100028895
0.2100028573
0.210002701
0.2100024619
0.2100022701
0.2100023015
0.2100020789
0.2100017925
0.2100015245
0.2100016907
0.2100016521
0.2100018781
0.2100026299
0.2100026783
0.210002661
0.2100028531
0.2100030844
0.2100055027
0.2100052656
0.210005464
0.2100055363
0.210005497
0.2100054764
0.2100054216
0.2100051826
0.2100045155
0.2100034583
0.2100027244
0.2100026664
0.210002678
0.210002522
0.2100023113
0.2100022057
0.2100022197
0.2100020638
0.2100021637
0.2100023618
0.210002429
0.2100020692
0.2100017413
0.2100017716
0.2100014727
0.2100011114
0.2100005418
0.2100008679
0.2100013511
0.2100017304
0.210002407
0.2100023062
0.2100024102
0.2100026609
0.2100028654
0.2100054312
0.2100053475
0.2100053535
0.2100054782
0.2100054411
0.2100053564
0.2100050224
0.2100042334
0.2100031338
0.2100023247
0.2100021189
0.2100021077
0.2100020226
0.2100019059
0.2100018209
0.2100017544
0.2100013823
0.2100015029
0.2100015679
0.2100013379
0.2100009539
0.2100008638
0.2100006459
0.2100001256
0.210000006
0.2099988729
0.2099990311
0.2099999865
0.2100010338
0.2100017388
0.2100017616
0.210002024
0.2100023116
0.2100024838
0.2100051533
0.2100051851
0.2100053502
0.2100052875
0.2100052573
0.2100051738
0.2100047784
0.2100038973
0.2100028098
0.2100020147
0.2100016666
0.2100016154
0.2100002796
0.2100004363
0.2099999686
0.2100002347
0.2100003618
0.2100008442
0.2100011425
0.2100012589
0.2100016088
0.2100019206
0.2100020776
0.210005097
0.2100052871
0.2100052092
0.2100050104
0.2100044558
0.210003473
0.2099990451
0.2099989696
0.2099988826
0.2099987859
0.2099986812
0.209998622
0.2099985976
0.2099985936
0.2099986123
0.2099986561
0.209998728
0.2099988316
0.2099989695
0.2099991346
0.2099993023
0.2099994401
0.2099995258
0.2099995604
0.2099995636
0.2099995594
0.2099995664
0.2099995967
0.2099996583
0.2099997594
0.2099999117
0.2100001326
0.2100004445
0.2100008676
0.2100014038
0.2100020194
0.2100026444
0.2100032015
0.2100036596
0.2100040714
0.2099989824
0.2099988858
0.2099987844
0.2099986847
0.2099986027
0.2099985575
0.2099985341
0.2099985224
0.2099985217
0.2099985331
0.2099985583
0.2099986002
0.2099986633
0.2099987519
0.2099988566
0.2099989596
0.2099990419
0.2099990978
0.2099991362
0.2099991715
0.2099992156
0.2099992756
0.2099993555
0.2099994594
0.209999595
0.2099997773
0.2100000324
0.2100003954
0.2100008952
0.2100015221
0.2100022103
0.2100028653
0.2100034314
0.2100039359
0.2099989339
0.2099988175
0.2099987097
0.2099986075
0.2099985334
0.2099984854
0.2099984559
0.2099984377
0.20999843
0.2099984316
0.209998446
0.2099984759
0.2099985217
0.2099985915
0.2099986714
0.209998754
0.2099988255
0.2099988814
0.2099989291
0.20999898
0.2099990431
0.209999123
0.2099992211
0.2099993383
0.2099994779
0.20999965
0.2099998765
0.2100001953
0.2100006508
0.2100012568
0.2100019553
0.2100026359
0.2100032233
0.2100037213
0.2099989869
0.2099988144
0.2099986895
0.2099985687
0.2099984843
0.2099984292
0.2099983921
0.2099983674
0.2099983541
0.2099983547
0.2099983708
0.2099984073
0.209998456
0.2099985336
0.2099986016
0.2099986694
0.2099987282
0.2099987767
0.2099988238
0.2099988802
0.2099989536
0.2099990471
0.2099991608
0.2099992933
0.2099994449
0.2099996211
0.2099998385
0.2100001316
0.21000055
0.2100011246
0.210001809
0.2100024793
0.2100030378
0.2100034707
0.2099992361
0.2099988846
0.2099987386
0.20999857
0.2099984643
0.2099983946
0.2099983469
0.209998315
0.2099982974
0.2099982964
0.2099983152
0.2099983643
0.2099984188
0.2099985168
0.2099985792
0.2099986357
0.2099986839
0.2099987243
0.209998767
0.2099988236
0.2099989014
0.2099990031
0.2099991287
0.2099992753
0.2099994409
0.2099996273
0.2099998456
0.2100001243
0.2100005117
0.2100010487
0.2100017062
0.2100023592
0.2100028907
0.2100032771
0.2099999316
0.2099990773
0.2099988708
0.2099986142
0.2099984712
0.2099983809
0.2099983204
0.2099982801
0.2099982569
0.2099982521
0.2099982664
0.2099983322
0.2099983732
0.2099984252
0.2099985452
0.2099986038
0.2099986527
0.209998693
0.2099987358
0.2099987931
0.2099988733
0.2099989789
0.2099991135
0.2099992718
0.2099994511
0.2099996493
0.2099998728
0.2100001436
0.2100005037
0.2100009983
0.2100016188
0.2100022581
0.2100027936
0.2100031887
0.2100016254
0.2099995102
0.2099991039
0.2099986907
0.2099984949
0.2099983819
0.2099983092
0.2099982602
0.2099982289
0.2099982125
0.2099981996
0.2099982742
0.2099982499
0.2099977651
0.209998399
0.2099985233
0.2099985924
0.2099986499
0.2099987065
0.2099987739
0.209998861
0.2099989728
0.2099991136
0.2099992805
0.2099994711
0.209999681
0.2099999122
0.2100001798
0.2100005172
0.2100009673
0.2100015402
0.2100021635
0.2100027299
0.2100031896
0.2100044398
0.2100001879
0.2099993264
0.2099987439
0.2099985086
0.2099983866
0.2099983092
0.2099982533
0.2099982107
0.2099981724
0.2099981126
0.2099980684
0.2099978287
0.2099953185
0.209997915
0.2099983593
0.2099984728
0.2099985686
0.2099986551
0.2099987468
0.2099988522
0.2099989744
0.2099991247
0.2099993007
0.2099995012
0.2099997234
0.2099999653
0.2100002366
0.2100005609
0.2100009721
0.2100014903
0.2100020825
0.2100026799
0.2100032363
0.2099991221
0.2099989465
0.2099987845
0.2099985903
0.2099984708
0.2099983868
0.2099983197
0.2099982606
0.2099982045
0.2099981323
0.2099979816
0.209997529
0.2099963073
0.2099869417
0.209996482
0.2099978091
0.2099982741
0.2099984508
0.2099985729
0.2099986959
0.2099988302
0.2099989746
0.209999141
0.2099993295
0.209999542
0.2099997785
0.2100000372
0.2100003238
0.2100006522
0.2100010428
0.210001513
0.2100020574
0.2100026566
0.2100032948
0.2099993057
0.2099988581
0.2099986823
0.209998544
0.2099984643
0.2099984045
0.2099983483
0.2099982893
0.2099982276
0.2099981554
0.2099980412
0.2099978008
0.2099973628
0.2099959955
0.2099974615
0.2099979699
0.2099982162
0.2099983645
0.2099984924
0.2099986313
0.2099987922
0.2099989654
0.2099991533
0.2099993596
0.2099995897
0.2099998466
0.2100001321
0.2100004495
0.2100008039
0.210001201
0.2100016466
0.2100021443
0.210002711
0.2100033714
0.2099989189
0.2099987542
0.2099986215
0.2099985178
0.2099984638
0.2099984285
0.2099983902
0.2099983392
0.2099982811
0.2099982229
0.2099981613
0.2099980701
0.2099978487
0.2099975766
0.2099980966
0.2099982158
0.2099982788
0.2099983503
0.2099984474
0.2099985814
0.2099987484
0.209998939
0.2099991492
0.2099993798
0.2099996364
0.2099999252
0.210000251
0.210000615
0.2100010137
0.2100014401
0.2100018885
0.2100023612
0.2100028883
0.2100035088
0.2099988357
0.2099987178
0.2099985974
0.2099985092
0.2099984631
0.2099984487
0.2099984345
0.2099984007
0.2099983504
0.2099982969
0.2099982454
0.2099981699
0.2099980177
0.2099978608
0.2099980034
0.2099980667
0.2099981719
0.2099982859
0.2099983993
0.2099985351
0.2099987066
0.2099989107
0.2099991398
0.2099993954
0.2099996855
0.2100000171
0.2100003946
0.2100008149
0.2100012659
0.2100017317
0.210002201
0.2100026759
0.2100031847
0.210003742
0.2099988476
0.2099987299
0.2099986081
0.2099985298
0.2099984762
0.2099984696
0.2099984765
0.209998466
0.2099984305
0.2099983825
0.2099983333
0.209998278
0.2099981751
0.2099980968
0.209998084
0.2099981256
0.2099981972
0.2099982701
0.2099983625
0.2099984982
0.2099986804
0.2099989006
0.20999915
0.2099994294
0.209999755
0.2100001337
0.2100005662
0.2100010425
0.2100015435
0.2100020487
0.210002546
0.2100030389
0.2100035497
0.2100040418
0.209998964
0.2099988158
0.2099986849
0.2099986114
0.2099985377
0.2099985182
0.2099985301
0.209998537
0.2099985182
0.2099984753
0.2099984183
0.2099983535
0.2099982788
0.209998222
0.2099982057
0.2099982017
0.2099982167
0.2099982593
0.2099983491
0.2099984953
0.209998692
0.2099989283
0.2099991979
0.2099995024
0.2099998614
0.2100002841
0.2100007665
0.2100012921
0.2100018367
0.2100023771
0.2100028989
0.2100034022
0.2100038923
0.2100042516
0.2099991304
0.2099989764
0.2099988584
0.2099987927
0.2099986897
0.209998637
0.2099986315
0.2099986389
0.209998627
0.2099985844
0.2099985159
0.2099984427
0.2099983702
0.2099983207
0.2099982889
0.2099982638
0.2099982598
0.2099982983
0.209998395
0.2099985515
0.2099987591
0.2099990084
0.2099992956
0.2099996243
0.2100000122
0.2100004711
0.210000994
0.2100015601
0.2100021418
0.2100027095
0.2100032387
0.2100037129
0.2100040964
0.2100042093
0.2099994126
0.2099992762
0.2099991686
0.2099990995
0.209998964
0.2099988625
0.209998812
0.2099987819
0.2099987464
0.2099986922
0.2099986188
0.2099985446
0.2099984731
0.2099984242
0.20999839
0.2099983583
0.2099983537
0.2099983993
0.209998506
0.2099986717
0.2099988874
0.2099991458
0.2099994465
0.2099997963
0.2100002077
0.2100006945
0.2100012485
0.210001847
0.2100024578
0.2100030379
0.2100035425
0.2100039267
0.2100041201
0.2100040092
0.2099997191
0.2099995947
0.2099994865
0.2099994017
0.2099992391
0.2099991033
0.2099990143
0.2099989474
0.2099988824
0.2099988117
0.209998737
0.209998665
0.209998597
0.2099985489
0.2099985125
0.2099984884
0.2099985014
0.2099985668
0.2099986887
0.2099988634
0.2099990838
0.2099993464
0.2099996544
0.2100000176
0.2100004474
0.2100009547
0.2100015311
0.2100021525
0.2100027796
0.2100033495
0.2100037913
0.2100040419
0.2100040574
0.2100038252
0.2100000343
0.2099999091
0.2099997776
0.209999663
0.2099994846
0.2099993291
0.2099992128
0.209999112
0.2099990197
0.2099989378
0.2099988714
0.2099988103
0.2099987546
0.2099987168
0.2099986956
0.2099986948
0.2099987318
0.2099988194
0.2099989553
0.209999135
0.2099993553
0.2099996167
0.2099999262
0.2100002954
0.210000736
0.2100012545
0.2100018408
0.2100024698
0.2100030944
0.2100036249
0.2100039716
0.2100040892
0.2100039911
0.2100037007
0.2100003242
0.2100001947
0.2100000711
0.2099998914
0.2099996897
0.2099995222
0.2099993866
0.2099992573
0.2099991481
0.2099990748
0.2099990284
0.2099989848
0.2099989517
0.2099989377
0.2099989462
0.2099989882
0.2099990555
0.2099991634
0.2099993114
0.2099994967
0.2099997161
0.2099999723
0.2100002759
0.2100006405
0.2100010791
0.2100015926
0.2100021677
0.2100027808
0.2100033746
0.2100038231
0.2100040521
0.2100040653
0.210003915
0.2100036192
0.2100005843
0.2100004399
0.2100003218
0.2100000723
0.2099998367
0.2099996566
0.2099995198
0.2099993767
0.2099992837
0.2099992362
0.2099992155
0.2099991939
0.2099991848
0.2099992051
0.209999255
0.2099993431
0.2099994562
0.2099995887
0.2099997537
0.2099999479
0.2100001654
0.2100004078
0.2100006928
0.2100010391
0.2100014581
0.210001944
0.2100024802
0.2100030473
0.2100035556
0.2100038571
0.2100039703
0.2100039385
0.2100038097
0.2100035682
0.2100008095
0.2100006174
0.2100004692
0.2100001739
0.2099999128
0.209999728
0.2099996007
0.2099994999
0.2099994482
0.2099994395
0.2099994433
0.2099994417
0.2099994543
0.2099995117
0.2099996098
0.2099997535
0.2099999224
0.2100000979
0.2100002874
0.2100004898
0.210000693
0.210000895
0.2100011411
0.2100014534
0.2100018369
0.2100022763
0.2100027487
0.210003215
0.2100035408
0.2100036607
0.2100037089
0.2100037235
0.2100036945
0.2100035456
0.2100008143
0.2100006667
0.2100005028
0.2100002158
0.2099999613
0.2099998028
0.2099997129
0.2099996711
0.2099996754
0.2099997046
0.2099997258
0.2099997385
0.2099997703
0.2099998565
0.2100000034
0.2100002149
0.2100004614
0.2100007008
0.2100009152
0.2100011238
0.2100013041
0.2100014661
0.2100016581
0.210001912
0.2100022337
0.2100025956
0.2100029489
0.2100032124
0.2100033398
0.2100033476
0.2100033822
0.2100034963
0.2100035995
0.2100035412
0.2100008573
0.2100007616
0.2100006079
0.2100003028
0.2100000483
0.2099999276
0.2099998997
0.2099999394
0.2100000074
0.2100000589
0.2100000868
0.2100001094
0.2100001558
0.2100002626
0.2100004413
0.2100007187
0.2100010681
0.2100013774
0.2100015857
0.210001786
0.2100019717
0.2100021081
0.2100022315
0.2100023953
0.2100026157
0.2100028388
0.2100029809
0.2100030354
0.2100030977
0.2100030952
0.2100031301
0.2100033157
0.2100035197
0.2100035366
0.2100011205
0.2100011611
0.210000994
0.2100004971
0.2100002182
0.2100001642
0.210000239
0.2100003951
0.2100005972
0.2100005625
0.2100005762
0.210000611
0.2100006783
0.2100008087
0.2100010006
0.2100013136
0.2100017523
0.210002067
0.2100022018
0.2100023551
0.2100025368
0.2100026702
0.2100027583
0.2100028225
0.2100028866
0.2100028938
0.2100027826
0.2100027375
0.2100028507
0.2100029056
0.2100029667
0.2100031854
0.2100034348
0.2100035357
0.2100025548
0.210002633
0.2100022064
0.2100016158
0.2100010213
0.21000067
0.2100007006
0.210000932
0.210001185
0.2100013979
0.2100013395
0.2100013435
0.2100014019
0.21000152
0.210001726
0.2100019229
0.2100022478
0.2100025446
0.2100027226
0.210002743
0.2100027938
0.2100028953
0.2100029632
0.2100029922
0.2100030294
0.2100029598
0.2100027791
0.2100024428
0.210002341
0.2100025499
0.210002718
0.2100028483
0.2100030951
0.2100033563
0.2100035539
0.2100046248
0.2100045786
0.2100041874
0.2100035988
0.2100026684
0.2100020528
0.2100020903
0.2100028388
0.2100034423
0.2100030148
0.2100027854
0.2100026696
0.210002783
0.2100029742
0.2100030604
0.2100029677
0.2100028192
0.2100029755
0.2100030695
0.2100030816
0.210003041
0.2100029683
0.210002903
0.2100028528
0.2100028784
0.2100027215
0.2100024952
0.2100020186
0.2100018427
0.2100021827
0.210002551
0.2100027801
0.2100030451
0.2100033059
0.2100035642
0.2100053014
0.2100052702
0.2100052405
0.2100050912
0.2100047311
0.2100043656
0.2100044981
0.2100047029
0.2100042136
0.210003511
0.2100032541
0.2100033175
0.2100033364
0.2100032185
0.2100029648
0.2100027713
0.2100025191
0.2100029088
0.210002832
0.2100029408
0.2100028933
0.2100026753
0.2100025835
0.2100025176
0.2100025675
0.2100023337
0.2100022232
0.2100016663
0.2100013804
0.2100018205
0.2100024449
0.2100027476
0.2100030265
0.2100032582
0.2100035223
0.2100054792
0.2100054333
0.2100054712
0.2100054035
0.2100054111
0.2100053513
0.2100052164
0.2100047918
0.2100040316
0.2100032223
0.2100028311
0.2100028452
0.2100028618
0.2100027534
0.2100025628
0.2100024606
0.2100024275
0.2100023852
0.2100022772
0.2100023366
0.2100023166
0.2100021252
0.2100019669
0.2100019691
0.2100019794
0.2100018822
0.2100019815
0.2100016494
0.210001204
0.2100015414
0.2100022868
0.210002646
0.210002973
0.2100031873
0.2100033691
0.2100054119
0.2100054891
0.2100052466
0.2100053501
0.2100052495
0.2100050015
0.2100044504
0.2100036492
0.2100028774
0.2100024287
0.2100023284
0.2100023039
0.2100022384
0.2100021518
0.210002106
0.2100020708
0.2100019466
0.2100017617
0.2100016217
0.2100014782
0.2100013234
0.2100012343
0.2100011554
0.2100012847
0.2100015213
0.2100016584
0.2100014418
0.2100011088
0.2100012379
0.2100018913
0.2100024272
0.2100027758
0.2100029613
0.2100030733
0.2100052817
0.2100053641
0.2100053702
0.2100052495
0.2100050791
0.21000472
0.2100041018
0.2100033031
0.2100025939
0.2100021209
0.2100018935
0.2100018106
0.2100008168
0.2100008898
0.2100010141
0.210001018
0.2100007782
0.2100009841
0.2100014609
0.2100021449
0.210002515
0.2100027168
0.2100027669
0.2100051365
0.2100049772
0.2100048373
0.2100044619
0.2100038039
0.2100030127
0.2099991945
0.209999124
0.209999047
0.2099989633
0.2099988693
0.2099988179
0.2099987932
0.2099987884
0.2099988054
0.2099988471
0.2099989168
0.2099990177
0.2099991484
0.2099992978
0.2099994429
0.2099995588
0.2099996328
0.2099996696
0.2099996855
0.2099996989
0.2099997245
0.2099997731
0.2099998535
0.209999975
0.2100001498
0.2100003936
0.2100007235
0.2100011504
0.2100016663
0.2100022363
0.2100028029
0.2100033076
0.210003729
0.210004118
0.2099990878
0.2099990016
0.2099989138
0.209998825
0.2099987522
0.2099987036
0.2099986732
0.2099986554
0.209998649
0.2099986556
0.2099986779
0.2099987191
0.2099987812
0.2099988641
0.2099989596
0.2099990526
0.2099991306
0.2099991915
0.2099992427
0.2099992946
0.2099993564
0.2099994347
0.2099995346
0.2099996617
0.2099998251
0.2100000394
0.2100003265
0.2100007115
0.2100012082
0.2100017984
0.2100024266
0.2100030228
0.2100035451
0.2100040239
0.2099989891
0.2099988859
0.209998796
0.2099987085
0.2099986425
0.2099985952
0.2099985617
0.2099985376
0.2099985216
0.2099985156
0.2099985225
0.2099985458
0.2099985869
0.2099986477
0.2099987238
0.2099988041
0.2099988789
0.2099989458
0.2099990103
0.2099990804
0.209999163
0.2099992626
0.209999382
0.2099995238
0.2099996937
0.2099999027
0.210000171
0.2100005279
0.210001
0.2100015835
0.210002225
0.2100028445
0.2100033886
0.2100038652
0.2099989548
0.2099988089
0.2099987172
0.2099986228
0.2099985559
0.2099985075
0.209998472
0.2099984448
0.2099984242
0.209998413
0.2099984146
0.2099984333
0.2099984687
0.2099985209
0.2099985906
0.2099986634
0.2099987338
0.209998801
0.2099988711
0.2099989516
0.2099990486
0.2099991656
0.2099993036
0.2099994633
0.2099996474
0.2099998634
0.2100001284
0.210000471
0.2100009232
0.2100014908
0.2100021224
0.2100027262
0.2100032352
0.2100036334
0.2099990279
0.2099987943
0.2099986812
0.2099985671
0.2099984937
0.2099984433
0.2099984055
0.2099983752
0.2099983512
0.2099983362
0.2099983344
0.2099983518
0.2099983862
0.2099984218
0.2099985001
0.2099985704
0.2099986385
0.2099987057
0.2099987786
0.2099988658
0.2099989734
0.2099991044
0.2099992592
0.2099994367
0.2099996368
0.2099998642
0.2100001321
0.2100004661
0.210000899
0.2100014439
0.2100020547
0.2100026322
0.210003097
0.2100034308
0.2099992362
0.209998886
0.2099986861
0.2099985376
0.2099984537
0.2099983999
0.2099983595
0.2099983258
0.2099982978
0.2099982785
0.2099982729
0.2099982874
0.2099983227
0.2099982658
0.2099984129
0.2099984923
0.2099985624
0.2099986334
0.209998711
0.2099988044
0.209998921
0.2099990639
0.2099992334
0.2099994273
0.2099996434
0.2099998827
0.2100001545
0.2100004801
0.2100008906
0.2100014048
0.2100019892
0.2100025492
0.2100030024
0.210003333
0.2099987864
0.2099990078
0.2099986691
0.2099985076
0.2099984224
0.2099983703
0.2099983295
0.2099982928
0.2099982596
0.2099982334
0.2099982208
0.2099982243
0.2099982606
0.2099978879
0.2099982733
0.2099984128
0.2099984854
0.2099985643
0.2099986519
0.209998755
0.2099988814
0.2099990355
0.2099992181
0.2099994269
0.2099996577
0.2099999087
0.2100001846
0.2100005012
0.2100008854
0.2100013605