/*--------------------------------*- C++ -*----------------------------------*\
  =========                 |
  \\      /  F ield         | OpenFOAM: The Open Source CFD Toolbox
   \\    /   O peration     | Website:  https://openfoam.org
    \\  /    A nd           | Version:  8
     \\/     M anipulation  |
\*---------------------------------------------------------------------------*/
FoamFile
{
    version     2.0;
    format      ascii;
    class       volScalarField;
    location    "1.2";
    object      T;
}
// * * * * * * * * * * * * * * * * * * * * * * * * * * * * * * * * * * * * * //

dimensions      [0 0 0 1 0 0 0];

internalField   nonuniform List<scalar> 
67193
(
300.0025462
300.002538
300.0025243
300.0025106
300.002504
300.002521
300.002529
300.0025244
300.0025114
300.0024923
300.0024673
300.0024357
300.002398
300.0023588
300.0023246
300.0023028
300.0022951
300.0022978
300.0023053
300.0023134
300.0023203
300.0023256
300.0023292
300.0023312
300.0023314
300.00233
300.002328
300.0023288
300.0023388
300.0023656
300.0024138
300.0024754
300.0025263
300.0025032
300.0025792
300.0025739
300.0025667
300.0025626
300.0025694
300.0025927
300.0025991
300.002593
300.0025796
300.0025617
300.0025393
300.0025105
300.0024736
300.002432
300.0023916
300.0023649
300.0023563
300.0023613
300.0023723
300.0023839
300.0023941
300.0024026
300.0024095
300.0024146
300.0024173
300.0024165
300.0024116
300.0024049
300.0024041
300.002422
300.0024687
300.002537
300.0025963
300.002578
300.0025775
300.0025712
300.0025639
300.0025585
300.0025638
300.0025806
300.0025792
300.0025685
300.0025529
300.0025362
300.0025185
300.002498
300.002471
300.0024411
300.0024036
300.0023792
300.0023721
300.0023778
300.0023885
300.0023998
300.0024101
300.0024195
300.0024286
300.0024372
300.0024447
300.0024494
300.0024496
300.0024458
300.0024444
300.00246
300.002507
300.0025786
300.0026395
300.0026183
300.0026163
300.0025957
300.0025812
300.0025657
300.0025636
300.0025696
300.0025605
300.0025452
300.0025272
300.0025102
300.0024968
300.0024846
300.0024683
300.0024604
300.0024164
300.0023903
300.0023809
300.002383
300.0023904
300.0023995
300.002409
300.002419
300.0024295
300.0024407
300.0024518
300.0024613
300.0024671
300.0024681
300.0024689
300.0024833
300.0025287
300.0026014
300.002664
300.0026422
300.0027297
300.0026556
300.0026239
300.0025841
300.0025687
300.0025621
300.0025448
300.0025247
300.0025045
300.0024887
300.0024813
300.0024862
300.0024861
300.0025383
300.0024483
300.0024104
300.0023914
300.0023842
300.0023846
300.0023897
300.0023978
300.0024082
300.0024197
300.0024324
300.0024457
300.0024587
300.002469
300.0024751
300.0024792
300.002493
300.0025346
300.0026053
300.0026711
300.0026551
300.0029929
300.0027576
300.0027107
300.002618
300.002583
300.0025607
300.0025351
300.0025108
300.0024902
300.0024796
300.0024862
300.0025284
300.0025439
300.0027583
300.002518
300.0024488
300.0024091
300.0023871
300.0023782
300.002378
300.0023844
300.0023955
300.0024075
300.002421
300.0024352
300.0024499
300.0024633
300.0024734
300.0024808
300.0024942
300.0025302
300.0025945
300.0026613
300.0026549
300.0035699
300.0028904
300.0028627
300.0026514
300.0025987
300.00256
300.0025274
300.0025006
300.0024822
300.0024828
300.0025121
300.0026462
300.0026463
300.0031678
300.0026492
300.0025097
300.0024273
300.0023847
300.0023676
300.0023633
300.0023681
300.0023797
300.002393
300.0024071
300.0024218
300.0024371
300.0024519
300.0024649
300.0024757
300.0024897
300.00252
300.0025743
300.0026371
300.0026399
300.0049264
300.0030597
300.0029601
300.0026776
300.0026012
300.0025517
300.002517
300.0024907
300.0024771
300.0024936
300.0025225
300.0028333
300.0028209
300.0035556
300.0028488
300.0025838
300.0024335
300.0023642
300.002344
300.0023408
300.0023464
300.0023595
300.0023744
300.0023898
300.002405
300.0024204
300.002436
300.0024513
300.0024661
300.0024834
300.0025113
300.0025555
300.0026088
300.0026162
300.0030537
300.0027715
300.002729
300.0026044
300.0025619
300.0025269
300.0024995
300.0024764
300.0024658
300.0024965
300.0025369
300.0029915
300.0025382
299.9924327
300.0027456
300.0025835
300.0023792
300.0023054
300.0022972
300.0023044
300.0023153
300.0023314
300.0023482
300.0023657
300.0023823
300.0023983
300.0024152
300.0024338
300.0024552
300.0024808
300.0025137
300.0025536
300.0025956
300.0025983
300.0028555
300.0026733
300.0026063
300.0025422
300.0025184
300.0024949
300.0024758
300.0024544
300.0024332
300.0024167
300.0023673
300.0023184
300.0019872
300.0009899
300.0022326
300.0022464
300.0021928
300.0021968
300.0022277
300.0022576
300.0022766
300.0022934
300.0023115
300.0023311
300.0023501
300.0023687
300.0023893
300.0024148
300.0024478
300.0024887
300.0025357
300.0025805
300.0026143
300.0026022
300.0026991
300.0025952
300.0025369
300.0025101
300.002482
300.0024604
300.0024479
300.0024324
300.0024124
300.0023935
300.002362
300.0023868
300.0022468
300.0027515
300.0026175
300.0023937
300.0022661
300.0022284
300.0022312
300.002244
300.0022536
300.0022622
300.0022742
300.0022907
300.0023104
300.0023331
300.0023615
300.0024
300.002451
300.0025128
300.0025783
300.0026329
300.0026621
300.0026309
300.0026654
300.0025567
300.0025157
300.0025266
300.0024733
300.0024349
300.0024185
300.0024085
300.0023946
300.0023754
300.0023477
300.0023182
300.0022528
300.0022512
300.002311
300.0023323
300.002356
300.0023468
300.0023211
300.0022949
300.0022733
300.0022586
300.0022538
300.0022601
300.0022766
300.0023035
300.0023434
300.0023996
300.0024721
300.0025543
300.0026344
300.0026942
300.0027172
300.0026673
300.0025312
300.0025211
300.0025354
300.0025893
300.0025093
300.0024395
300.0024004
300.0023863
300.0023796
300.0023675
300.0023341
300.0023025
300.0022348
300.0023884
300.0023099
300.0023908
300.0024068
300.0023871
300.0023537
300.00232
300.0022917
300.0022701
300.0022564
300.0022557
300.002269
300.0022996
300.0023508
300.002424
300.0025139
300.0026086
300.0026928
300.0027476
300.002756
300.0026845
300.0025577
300.0025606
300.0026071
300.0026855
300.0025866
300.0024846
300.0024109
300.0023758
300.0023684
300.0023637
300.0023355
300.0022872
300.002313
300.002433
300.0025275
300.0025351
300.002508
300.0024601
300.0024067
300.002359
300.0023218
300.0022958
300.0022798
300.0022771
300.002291
300.0023264
300.0023871
300.0024719
300.0025704
300.0026665
300.0027439
300.0027836
300.0027671
300.002668
300.0025934
300.0026266
300.0027044
300.0028012
300.0026884
300.0025592
300.0024581
300.0023972
300.0023756
300.0023672
300.0023238
300.0023
300.0023826
300.0024889
300.002572
300.0025755
300.0025443
300.0024934
300.0024368
300.0023859
300.0023472
300.0023225
300.0023107
300.0023131
300.0023327
300.0023746
300.0024424
300.002532
300.00263
300.0027188
300.0027826
300.0028013
300.0027563
300.0026372
300.0026896
300.0027448
300.0028308
300.0029341
300.002812
300.0026669
300.002538
300.0024446
300.0023926
300.0023668
300.0023192
300.0023048
300.0023961
300.0024979
300.0025957
300.0025915
300.0025559
300.0025015
300.0024444
300.0023961
300.0023627
300.0023456
300.0023433
300.0023548
300.0023827
300.0024312
300.0025028
300.0025919
300.0026836
300.0027609
300.0028086
300.0028065
300.0027418
300.0026227
300.0026915
300.0027248
300.0027867
300.002878
300.0027616
300.0026274
300.0025139
300.0024346
300.0023887
300.0023613
300.0023125
300.0022938
300.0023681
300.0024523
300.0025293
300.0025199
300.0024871
300.0024503
300.0024158
300.0023898
300.0023756
300.0023737
300.0023829
300.0024024
300.0024354
300.0024871
300.0025594
300.0026448
300.0027275
300.0027917
300.0028237
300.0028056
300.0027356
300.0026279
300.002683
300.0026891
300.0027063
300.0027858
300.0026787
300.0025655
300.0024759
300.0024164
300.0023808
300.0023541
300.0023058
300.0022821
300.0023371
300.0024064
300.0024668
300.0024687
300.0024549
300.0024409
300.0024289
300.0024197
300.0024163
300.0024198
300.002431
300.0024511
300.0024846
300.0025372
300.0026089
300.0026887
300.0027591
300.0028073
300.0028243
300.0027971
300.0027339
300.0026417
300.0026833
300.0026723
300.0026479
300.002702
300.0026067
300.002514
300.002449
300.0024059
300.002378
300.0023512
300.0023051
300.0022799
300.0023191
300.0023775
300.0024283
300.0024535
300.0024643
300.0024714
300.0024727
300.0024697
300.0024658
300.0024659
300.0024736
300.0024916
300.0025258
300.0025803
300.0026505
300.0027192
300.0027671
300.0027925
300.0027971
300.0027727
300.0027308
300.0026585
300.0027103
300.002689
300.002646
300.0026511
300.0025614
300.002485
300.0024396
300.0024068
300.0023827
300.0023574
300.002316
300.002294
300.0023217
300.0023724
300.00242
300.0024638
300.0024946
300.0025051
300.0025023
300.0024925
300.0024831
300.0024809
300.0024899
300.0025136
300.0025547
300.0026124
300.0026751
300.0027171
300.0027287
300.002732
300.0027352
300.0027316
300.0027275
300.0026775
300.002762
300.0027309
300.0026827
300.0026344
300.0025422
300.0024754
300.0024402
300.002416
300.0023966
300.0023768
300.0023422
300.0023241
300.0023452
300.0023888
300.0024347
300.0024835
300.0025219
300.0025219
300.0025106
300.0024939
300.0024797
300.0024765
300.0024884
300.0025177
300.0025642
300.0026204
300.002663
300.0026629
300.0026577
300.0026617
300.0026696
300.0026904
300.0027271
300.0026964
300.0027827
300.0027663
300.0027228
300.0026385
300.0025449
300.0024809
300.0024504
300.0024338
300.0024204
300.0024104
300.0023821
300.0023662
300.002382
300.002419
300.0024596
300.0025042
300.0025389
300.0025363
300.0025375
300.0025362
300.002528
300.0025196
300.0025177
300.0025308
300.0025624
300.002601
300.0026142
300.002594
300.0026161
300.0026378
300.0026425
300.0026676
300.0027266
300.0027125
300.0028037
300.0027965
300.0027788
300.0026568
300.0025604
300.0024925
300.0024653
300.0024631
300.0024641
300.0024561
300.00243
300.002413
300.0024219
300.0024515
300.0024859
300.0025253
300.0025651
300.0026125
300.0026745
300.0026897
300.0026836
300.0026628
300.0026349
300.0026135
300.002609
300.0026122
300.0025945
300.0025701
300.0026173
300.0026538
300.0026529
300.0026669
300.0027259
300.0027304
300.0027562
300.002802
300.002826
300.0026488
300.0025592
300.0024941
300.0024777
300.0025006
300.0025015
300.0025059
300.0024703
300.0024565
300.0024569
300.0024794
300.0025106
300.0025591
300.0026251
300.0027334
300.0028299
300.0028413
300.0028299
300.0028016
300.0027619
300.0027283
300.0027095
300.0026853
300.002638
300.0025905
300.0026326
300.0026726
300.0026736
300.0026816
300.0027361
300.0027664
300.0027178
300.0027602
300.002728
300.0026683
300.0025841
300.0025168
300.0024795
300.0024849
300.002519
300.0025546
300.0025396
300.002512
300.0024918
300.0024858
300.002504
300.002551
300.0026522
300.0027414
300.0028701
300.0029652
300.0029574
300.0029208
300.0028698
300.0028306
300.0028138
300.0027972
300.0027348
300.0026758
300.0026119
300.0026335
300.0026726
300.0026899
300.0027093
300.0027718
300.002836
300.00281
300.002811
300.0028584
300.0027875
300.0026636
300.0025537
300.0024961
300.0025103
300.0025934
300.0025721
300.0025718
300.0025652
300.0025786
300.0025936
300.0025915
300.0025967
300.0026704
300.0026979
300.002832
300.0029572
300.0029608
300.0028679
300.0027999
300.002844
300.0028662
300.0028139
300.0026723
300.0026347
300.0026005
300.0026022
300.0026527
300.0027108
300.0027545
300.0028393
300.0029297
300.0028583
300.0028895
300.0029107
300.0029321
300.0028954
300.0028201
300.0027654
300.0027791
300.002763
300.0026956
300.0026687
300.0027083
300.0027341
300.0027183
300.0026984
300.0026842
300.0029199
300.0025777
300.0026812
300.0027909
300.0027808
300.0026293
300.0027477
300.0029055
300.0028322
300.0027023
300.0025279
300.0024971
300.0025474
300.0025554
300.0026488
300.0027569
300.0028291
300.0029299
300.0030215
300.0028707
300.0028006
300.0029161
300.0029201
300.0029548
300.0029677
300.0029593
300.0029267
300.0028596
300.0027707
300.0027125
300.0027241
300.0027292
300.0027218
300.0027309
300.0027512
300.0028224
300.0026952
300.0025876
300.0025767
300.0025913
300.0025623
300.0026363
300.0027406
300.0026484
300.0026314
300.0024736
300.0023406
300.0024102
300.0025186
300.0026783
300.0028374
300.0029281
300.0030135
300.0030991
300.0029836
300.0029407
300.0027306
300.002986
300.0030262
300.0030255
300.002979
300.0028874
300.002794
300.0027252
300.0026931
300.0026789
300.0026963
300.002738
300.0027774
300.0028453
300.0027379
300.002612
300.0024945
300.0024977
300.0025042
300.0025319
300.0024414
300.0024257
300.0027897
300.0026315
300.0021958
300.0021682
300.002418
300.0026978
300.002906
300.0029887
300.0030633
300.0031601
300.0030087
300.003025
300.0030653
300.0030678
300.0030613
300.0030483
300.0029915
300.0028876
300.0028009
300.002742
300.0026856
300.0026519
300.0027164
300.0026698
300.0024046
300.0024363
300.0025904
300.0026158
300.0027666
300.0029438
300.0030354
300.0031148
300.0032112
300.0030985
300.003135
300.0030825
300.0030432
300.0029715
300.002869
300.0025142
300.0025061
300.0024912
300.0024743
300.0024603
300.002461
300.0024606
300.0024512
300.0024332
300.0024079
300.0023767
300.0023411
300.0023039
300.0022703
300.0022456
300.0022335
300.0022332
300.0022401
300.0022494
300.0022581
300.0022649
300.0022696
300.0022724
300.0022736
300.0022737
300.0022737
300.0022756
300.0022834
300.0023026
300.0023388
300.0023936
300.002458
300.0025075
300.0024796
300.0025507
300.0025475
300.0025418
300.0025375
300.0025399
300.0025452
300.002544
300.0025322
300.0025105
300.0024809
300.0024463
300.0024088
300.0023707
300.0023361
300.0023096
300.0022973
300.002299
300.0023094
300.0023226
300.0023348
300.0023446
300.0023515
300.0023559
300.0023577
300.0023571
300.0023544
300.0023511
300.0023509
300.0023616
300.0023924
300.0024483
300.0025188
300.0025749
300.0025543
300.0025715
300.0025678
300.0025663
300.0025661
300.0025725
300.002578
300.0025751
300.0025612
300.0025372
300.0025054
300.0024688
300.0024312
300.0023949
300.0023641
300.0023403
300.0023312
300.0023362
300.0023491
300.0023639
300.002377
300.0023872
300.0023945
300.0023993
300.0024019
300.0024023
300.0024006
300.0023979
300.0023977
300.0024075
300.0024385
300.0024969
300.0025698
300.0026232
300.0025952
300.0026233
300.0026006
300.0025966
300.0025896
300.002592
300.002594
300.002588
300.0025722
300.0025473
300.0025157
300.0024781
300.0024416
300.0024059
300.0023777
300.0023553
300.0023494
300.0023576
300.0023727
300.0023887
300.0024026
300.0024133
300.002421
300.0024264
300.0024299
300.0024315
300.0024313
300.0024301
300.0024309
300.0024413
300.0024727
300.0025322
300.0026054
300.0026551
300.0026202
300.0027488
300.0026528
300.0026399
300.0026124
300.0026044
300.0025995
300.0025887
300.0025694
300.0025419
300.0025085
300.0024722
300.0024371
300.0023974
300.0023598
300.0023434
300.0023447
300.0023589
300.002378
300.0023967
300.0024125
300.0024244
300.0024329
300.0024391
300.0024435
300.0024465
300.0024481
300.0024487
300.0024511
300.0024617
300.0024919
300.0025497
300.0026215
300.0026703
300.0026366
300.0030369
300.0027486
300.0027129
300.002643
300.0026165
300.002601
300.0025839
300.0025604
300.0025297
300.002493
300.0024515
300.0024149
300.0023465
300.0022218
300.0022664
300.0023004
300.0023324
300.0023625
300.0023886
300.0024092
300.0024242
300.002434
300.0024416
300.0024472
300.0024518
300.0024552
300.0024579
300.0024618
300.0024722
300.002499
300.002551
300.0026182
300.0026673
300.0026406
300.0036104
300.0029301
300.0028319
300.002682
300.0026268
300.0025983
300.0025748
300.0025474
300.0025131
300.0024699
300.0024107
300.0023545
300.0021781
300.0016806
300.0020248
300.002183
300.0022644
300.0023185
300.0023602
300.0023912
300.0024127
300.0024261
300.0024357
300.002443
300.0024488
300.002454
300.002459
300.0024648
300.002475
300.0024973
300.0025402
300.0025982
300.0026459
300.0026287
300.004424
300.0031776
300.0029552
300.0027068
300.0026238
300.0025869
300.0025604
300.0025309
300.0024929
300.0024394
300.0023508
300.002188
300.0016746
300.0003304
300.0014956
300.0019711
300.0021544
300.0022485
300.0023108
300.0023566
300.0023886
300.0024075
300.002421
300.0024312
300.0024389
300.0024461
300.0024537
300.0024624
300.0024739
300.0024933
300.0025268
300.0025727
300.0026148
300.0026059
300.0027604
300.0027357
300.0026922
300.0026185
300.0025842
300.0025619
300.0025401
300.0025115
300.0024705
300.0024027
300.0022607
300.0018098
300.0002998
299.9970808
300.0006341
300.0016592
300.0020556
300.0021867
300.0022565
300.0023107
300.0023518
300.0023784
300.0023977
300.0024117
300.0024221
300.0024324
300.0024439
300.0024575
300.0024739
300.0024952
300.0025245
300.00256
300.0025928
300.0025855
300.0028482
300.0026576
300.0026074
300.002569
300.0025503
300.0025352
300.0025179
300.0024923
300.0024537
300.0023922
300.0022806
300.0020424
300.0015511
300.0005749
300.0017044
300.0020695
300.0021797
300.00221
300.0022392
300.0022765
300.002314
300.0023432
300.0023657
300.0023832
300.002398
300.0024133
300.0024314
300.0024535
300.0024799
300.0025103
300.0025438
300.0025755
300.0025984
300.0025828
300.0026133
300.0025733
300.0025521
300.0025386
300.0025232
300.0025088
300.0024949
300.0024749
300.002444
300.0023979
300.0023272
300.0022146
300.0020349
300.0019122
300.0022598
300.0023512
300.0023244
300.0022855
300.0022716
300.0022781
300.0022928
300.0023096
300.0023281
300.0023473
300.0023676
300.0023908
300.0024193
300.0024547
300.0024965
300.0025419
300.002586
300.00262
300.0026351
300.0026037
300.0025228
300.0025296
300.0025324
300.0025387
300.0025143
300.002489
300.0024725
300.0024574
300.002435
300.0024003
300.0023494
300.002279
300.0021991
300.0021813
300.0023037
300.0023379
300.0023386
300.0023314
300.0023196
300.0023056
300.0022949
300.0022924
300.0022998
300.0023158
300.00234
300.0023724
300.0024147
300.0024672
300.0025274
300.0025888
300.0026432
300.0026791
300.0026863
300.0026363
300.0025059
300.0025237
300.0025521
300.0025791
300.0025389
300.0024884
300.0024567
300.0024409
300.0024263
300.0024025
300.0023647
300.00232
300.0022833
300.0023081
300.0023554
300.0023934
300.0024126
300.002406
300.0023787
300.0023438
300.0023134
300.0022953
300.0022926
300.0023037
300.0023302
300.0023715
300.0024279
300.0024974
300.0025736
300.0026463
300.0027045
300.0027355
300.0027281
300.002654
300.0025471
300.0025641
300.0026175
300.0026616
300.0026046
300.0025196
300.0024586
300.0024304
300.0024181
300.002402
300.0023738
300.0023475
300.0023526
300.0024007
300.0024658
300.0025054
300.0025119
300.0024854
300.0024385
300.0023875
300.0023448
300.0023172
300.0023079
300.0023171
300.0023463
300.0023955
300.0024637
300.0025456
300.0026311
300.0027069
300.0027602
300.0027765
300.0027419
300.0026369
300.0025899
300.0026264
300.0027086
300.0027662
300.0026967
300.0025803
300.0024859
300.0024354
300.0024149
300.0024
300.0023767
300.0023722
300.0024053
300.002472
300.0025423
300.0025781
300.0025725
300.0025335
300.002478
300.0024223
300.0023774
300.0023491
300.00234
300.0023513
300.0023848
300.0024408
300.0025168
300.0026047
300.0026919
300.0027632
300.0028043
300.0027973
300.0027292
300.0026094
300.002653
300.0027006
300.0027903
300.0028488
300.0027723
300.0026362
300.0025196
300.0024493
300.002416
300.0023965
300.0023756
300.0023803
300.0024247
300.0024994
300.0025709
300.0025997
300.0025867
300.0025454
300.002493
300.0024437
300.0024061
300.0023844
300.0023811
300.002398
300.0024365
300.0024975
300.0025769
300.002665
300.0027479
300.0028099
300.0028349
300.002804
300.0027166
300.0026113
300.0026806
300.0027101
300.0027743
300.0028184
300.0027439
300.0026177
300.0025114
300.0024467
300.0024136
300.0023931
300.0023725
300.0023751
300.0024151
300.0024814
300.0025441
300.0025691
300.0025594
300.0025298
300.0024934
300.0024599
300.0024354
300.0024237
300.0024276
300.0024497
300.0024924
300.0025558
300.0026345
300.002718
300.0027921
300.0028421
300.0028523
300.0028077
300.0027249
300.0026426
300.0027075
300.0027041
300.0027213
300.002736
300.0026679
300.0025695
300.0024902
300.0024399
300.0024115
300.0023912
300.0023702
300.0023674
300.0023979
300.0024504
300.0025017
300.002529
300.002533
300.0025225
300.002505
300.0024865
300.0024726
300.0024676
300.0024759
300.0025011
300.0025456
300.0026084
300.0026825
300.0027559
300.0028162
300.002852
300.0028523
300.0028087
300.0027451
300.0026857
300.0027475
300.002716
300.0027049
300.0026743
300.002605
300.002531
300.0024766
300.0024368
300.0024127
300.0023929
300.0023723
300.0023659
300.0023886
300.0024309
300.0024765
300.0025107
300.0025301
300.0025357
300.0025307
300.0025206
300.0025117
300.0025098
300.00252
300.0025464
300.0025905
300.0026494
300.0027135
300.0027689
300.0028075
300.0028264
300.0028233
300.0027949
300.0027613
300.002732
300.0028013
300.0027467
300.0027159
300.0026462
300.0025704
300.0025089
300.0024722
300.0024375
300.0024172
300.0024003
300.002382
300.0023748
300.0023928
300.0024293
300.0024727
300.0025139
300.002544
300.0025569
300.0025562
300.0025489
300.0025422
300.0025417
300.0025528
300.0025786
300.0026198
300.0026708
300.0027173
300.0027436
300.002755
300.0027591
300.0027617
300.0027618
300.0027708
300.002779
300.0028611
300.0027812
300.0027291
300.0026366
300.0025548
300.0024954
300.0024628
300.00244
300.0024259
300.0024151
300.0024001
300.0023934
300.0024084
300.0024415
300.0024826
300.0025262
300.0025616
300.0025783
300.002581
300.0025759
300.0025692
300.0025652
300.0025708
300.0025914
300.0026263
300.0026651
300.0026864
300.0026786
300.0026793
300.0026844
300.0026969
300.0027275
300.0027813
300.002825
300.0028077
300.0027666
300.0027134
300.0026249
300.0025441
300.0024886
300.0024614
300.0024482
300.0024421
300.0024379
300.0024253
300.002418
300.0024291
300.0024584
300.002497
300.0025407
300.0025825
300.0026121
300.0026254
300.0026243
300.0026127
300.0025945
300.0025828
300.002588
300.0026094
300.0026317
300.002628
300.0026123
300.0026403
300.0026605
300.0026728
300.0027147
300.0027967
300.0028648
300.0027596
300.0027556
300.0027148
300.0026229
300.0025353
300.0024831
300.0024629
300.002463
300.0024673
300.0024665
300.0024533
300.0024441
300.002449
300.0024719
300.0025066
300.002555
300.002614
300.0026751
300.0027118
300.0027203
300.0027101
300.002683
300.0026491
300.0026246
300.0026161
300.0026115
300.0025926
300.002598
300.0026611
300.0026923
300.0026936
300.0027265
300.0028113
300.0028949
300.0026804
300.0027673
300.0027797
300.0026137
300.0025106
300.0024701
300.0024646
300.0024879
300.002525
300.0024996
300.0024788
300.0024666
300.0024642
300.0024795
300.0025085
300.0025635
300.0026534
300.0027553
300.0028183
300.002833
300.0028178
300.0027864
300.0027457
300.0027129
300.0026858
300.0026563
300.0026183
300.0026277
300.0027001
300.0027301
300.002724
300.0027505
300.0028237
300.0029223
300.0026288
300.0026638
300.0026647
300.0026081
300.0025299
300.0024641
300.0024462
300.0024591
300.0024906
300.0025309
300.0025176
300.0025035
300.0024885
300.0024817
300.0024917
300.0025184
300.0025871
300.0026866
300.0028129
300.002897
300.0029086
300.0028749
300.0028412
300.0028212
300.0028095
300.0027688
300.0027164
300.0026466
300.0026373
300.0026977
300.0027264
300.0027337
300.0027771
300.0028426
300.0029531
300.0027546
300.0028694
300.0028045
300.0026983
300.0025937
300.0024925
300.002462
300.002505
300.0025652
300.0025482
300.0025502
300.0025501
300.0025602
300.002571
300.0025603
300.0025508
300.0025505
300.0026554
300.002767
300.0028695
300.0028745
300.0028172
300.00282
300.0028448
300.0028637
300.0027921
300.0027276
300.0026265
300.0025903
300.0026306
300.0026726
300.0027218
300.0028034
300.0028704
300.0029867
300.0027634
300.002852
300.0028913
300.0028568
300.0027931
300.0027163
300.0027084
300.0027381
300.0027136
300.0026578
300.0026488
300.0026834
300.0027063
300.0026931
300.0026456
300.0026131
300.0023433
300.0026672
300.0026323
300.0027124
300.0027086
300.0026681
300.0027687
300.0028199
300.0028428
300.0027442
300.0027186
300.0025981
300.0025327
300.002535
300.0026136
300.0027156
300.002824
300.0028991
300.0030288
300.0028229
300.0029045
300.0029123
300.0029002
300.0029264
300.0029145
300.0029019
300.0028605
300.0027959
300.0027331
300.0027065
300.002725
300.0027323
300.0027223
300.0027093
300.0027285
300.0027735
300.0027109
300.0026324
300.0026131
300.002588
300.0026104
300.0026683
300.0027096
300.0027095
300.0027589
300.0027605
300.0026793
300.0025703
300.0024885
300.0026054
300.0027277
300.0028315
300.0029401
300.0030823
300.0029096
300.0029612
300.0029147
300.0029822
300.0029865
300.0029605
300.0028935
300.0028174
300.0027641
300.0027279
300.0027159
300.0027054
300.0027072
300.0027252
300.0027755
300.0028541
300.0027631
300.0026117
300.0025208
300.0025431
300.0026008
300.0026104
300.0025811
300.0027107
300.0031022
300.0031444
300.0028568
300.0026683
300.0025055
300.0026222
300.0027472
300.0028507
300.0029678
300.0031293
300.0030156
300.0030446
300.0030494
300.0030598
300.0030449
300.0029831
300.0028986
300.0028217
300.0027819
300.0027473
300.002712
300.0026841
300.0026956
300.0026176
300.002656
300.0026901
300.0026466
300.0025998
300.0026649
300.0027577
300.0028632
300.0029865
300.0031468
300.0030804
300.0030082
300.0030123
300.0029601
300.0028853
300.002822
300.0024299
300.0024252
300.0024131
300.002397
300.0023778
300.0023678
300.0023579
300.0023416
300.0023179
300.0022875
300.0022524
300.0022153
300.0021802
300.002152
300.002135
300.0021303
300.0021354
300.0021457
300.0021571
300.0021672
300.0021748
300.00218
300.002183
300.0021845
300.0021853
300.0021872
300.0021928
300.0022059
300.0022311
300.0022722
300.0023289
300.0023913
300.0024357
300.0024046
300.0024632
300.002464
300.0024622
300.0024584
300.0024554
300.0024512
300.0024415
300.0024231
300.0023957
300.0023609
300.0023222
300.0022831
300.0022475
300.0022194
300.0022029
300.0021996
300.002207
300.0022203
300.0022347
300.0022473
300.0022568
300.0022629
300.0022659
300.0022662
300.0022644
300.0022621
300.0022615
300.0022672
300.0022859
300.0023239
300.0023825
300.0024502
300.0024996
300.0024736
300.0024815
300.0024834
300.0024896
300.0024932
300.0024973
300.0024976
300.0024901
300.0024722
300.0024436
300.0024064
300.0023651
300.0023244
300.0022884
300.0022612
300.0022473
300.002247
300.0022572
300.0022725
300.002288
300.002301
300.0023105
300.0023163
300.0023189
300.0023188
300.0023167
300.0023139
300.0023128
300.002318
300.0023367
300.0023762
300.0024373
300.0025052
300.0025495
300.0025158
300.0025071
300.0025005
300.002514
300.0025189
300.0025264
300.0025293
300.0025236
300.0025065
300.002477
300.0024371
300.0023931
300.0023499
300.0023115
300.002282
300.0022722
300.0022765
300.0022905
300.0023084
300.0023256
300.0023396
300.0023494
300.0023554
300.002358
300.0023581
300.0023563
300.002354
300.0023535
300.0023594
300.0023791
300.0024203
300.0024827
300.0025486
300.0025853
300.0025417
300.0025291
300.0025197
300.0025321
300.0025318
300.0025382
300.0025417
300.0025361
300.0025184
300.0024884
300.0024483
300.0024011
300.0023532
300.0023069
300.0022635
300.002265
300.0022799
300.0023018
300.002325
300.0023457
300.0023619
300.0023731
300.00238
300.0023833
300.002384
300.0023832
300.0023819
300.0023824
300.002389
300.0024087
300.0024494
300.0025109
300.0025741
300.0026064
300.0025613
300.0024336
300.0025223
300.0025392
300.0025354
300.00254
300.0025425
300.0025358
300.0025166
300.0024844
300.0024412
300.0023895
300.0023294
300.0022566
300.0021624
300.0022007
300.0022455
300.0022859
300.0023205
300.0023484
300.0023692
300.0023835
300.0023922
300.0023969
300.0023988
300.0023994
300.0023996
300.0024013
300.0024081
300.0024262
300.0024632
300.00252
300.0025793
300.0026106
300.0025703
300.0014919
300.0023819
300.0024986
300.0025225
300.0025317
300.0025347
300.0025271
300.0025061
300.002471
300.0024224
300.0023594
300.0022672
300.002119
300.001944
300.0020413
300.0021572
300.0022369
300.0022926
300.002333
300.0023618
300.0023811
300.0023931
300.0024001
300.0024038
300.0024061
300.0024083
300.0024116
300.0024184
300.0024338
300.0024642
300.0025119
300.0025642
300.0025951
300.0025634
299.9931346
300.0016081
300.0023013
300.0024712
300.0025105
300.0025197
300.0025127
300.0024905
300.0024523
300.0023963
300.0023148
300.0021528
300.0018111
300.0017845
300.0017543
300.0019915
300.0021541
300.0022449
300.0023019
300.002341
300.0023663
300.0023837
300.0023942
300.0024
300.0024048
300.0024096
300.0024154
300.0024234
300.0024365
300.0024597
300.0024959
300.0025377
300.0025663
300.0025441
300.001168
300.0022664
300.0023996
300.0024687
300.0024964
300.0025038
300.0024963
300.0024734
300.0024329
300.0023688
300.0022634
300.0020188
300.0014808
300.0027046
300.0016968
300.001896
300.002085
300.0021965
300.0022654
300.002313
300.0023445
300.0023651
300.0023791
300.0023881
300.0023966
300.0024055
300.0024156
300.0024272
300.0024414
300.0024607
300.0024874
300.0025176
300.0025403
300.0025242
300.0022126
300.0024193
300.0024537
300.0024783
300.0024897
300.0024903
300.0024806
300.0024586
300.0024206
300.0023602
300.0022617
300.0020607
300.0017418
300.0018772
300.0018992
300.0020273
300.0021361
300.0022014
300.0022502
300.0022898
300.0023192
300.0023404
300.0023567
300.0023699
300.0023832
300.0023981
300.0024151
300.002434
300.0024544
300.0024764
300.0025001
300.0025222
300.0025363
300.0025176
300.0023917
300.0024509
300.0024695
300.0024829
300.0024843
300.0024777
300.0024657
300.0024461
300.0024143
300.002365
300.0022901
300.0021746
300.0020332
300.0020313
300.0021326
300.0022143
300.0022426
300.0022521
300.0022672
300.0022855
300.0023021
300.002317
300.0023322
300.0023487
300.0023677
300.0023905
300.0024172
300.0024473
300.0024789
300.0025098
300.0025372
300.0025564
300.002562
300.002532
300.0024255
300.0024629
300.002482
300.002496
300.0024877
300.0024698
300.0024526
300.0024347
300.0024096
300.0023712
300.0023153
300.0022445
300.0021857
300.0021868
300.0022544
300.002287
300.0022939
300.0022967
300.002299
300.0022989
300.0022989
300.0023031
300.0023138
300.0023317
300.0023562
300.002388
300.0024267
300.0024705
300.0025159
300.0025579
300.0025913
300.0026095
300.0026068
300.0025606
300.0024308
300.0024743
300.0025071
300.0025293
300.0025097
300.0024735
300.0024446
300.0024252
300.0024057
300.0023777
300.0023378
300.0022932
300.0022661
300.0022819
300.0023206
300.0023455
300.0023583
300.0023585
300.0023458
300.0023267