/*--------------------------------*- C++ -*----------------------------------*\
  =========                 |
  \\      /  F ield         | OpenFOAM: The Open Source CFD Toolbox
   \\    /   O peration     | Website:  https://openfoam.org
    \\  /    A nd           | Version:  8
     \\/     M anipulation  |
\*---------------------------------------------------------------------------*/
FoamFile
{
    version     2.0;
    format      ascii;
    class       volScalarField;
    location    "0.4";
    object      alphat;
}
// * * * * * * * * * * * * * * * * * * * * * * * * * * * * * * * * * * * * * //

dimensions      [1 -1 -1 0 0 0 0];

internalField   nonuniform List<scalar> 
67193
(
0.0001693462017
0.00018090863
0.0001477213152
0.0001371176195
0.0001237816693
0.0001061536597
0.0003390015352
0.000173784698
8.873869313e-05
0.0002666108969
0.0003006680609
0.0002142794634
0.0001208991521
5.120502146e-05
1.596736772e-05
4.128357615e-06
1.227959443e-06
3.834799831e-06
3.00242251e-06
1.718611549e-06
9.037497109e-07
6.15482046e-07
5.492261198e-07
5.380774523e-07
5.363039231e-07
5.357905545e-07
5.35483809e-07
5.352611648e-07
5.350978343e-07
5.349811337e-07
5.349012116e-07
5.348127981e-07
5.333888403e-07
4.307737154e-07
0.0001889911201
0.0001984419513
0.0001602797879
0.0001573552078
0.0001487999756
0.0001340687344
0.000114599556
9.600405593e-05
9.105499272e-05
0.0001293782542
0.0001252799341
0.0001124886588
9.498119796e-05
0.0002540439323
0.0001134754788
3.749682697e-05
1.0448114e-05
4.537139615e-05
3.62144331e-05
1.989347223e-05
7.967561738e-06
2.564221826e-06
9.725544856e-07
6.513756191e-07
6.043251864e-07
5.988652926e-07
5.981659318e-07
5.979356043e-07
5.97781079e-07
5.97667084e-07
5.975790303e-07
5.973668198e-07
5.942384095e-07
4.639072092e-07
0.0001959956945
0.000198689399
0.0001680336758
0.0001718308258
0.000171259132
0.0001581646962
0.0001387892936
0.0001267052881
0.0001383426172
0.0001656287341
0.0001524826109
0.0001410398155
0.0001272026134
0.000109227909
0.0003399581162
0.0001561504565
6.275504296e-05
0.0002094026209
0.0001798155371
0.000113266457
5.510948154e-05
1.97846794e-05
5.352051214e-06
1.445056102e-06
7.139766335e-07
6.133905534e-07
6.024631363e-07
6.012949796e-07
6.010191544e-07
6.008536755e-07
6.007133787e-07
6.002833665e-07
5.959824706e-07
4.643753862e-07
0.0001858883068
0.0001904618165
0.0001825466787
0.0001860280583
0.0001979838397
0.000185307884
0.0001600675638
0.0001551381222
0.0001754178817
0.0001831385106
0.0001688362894
0.0001582332034
0.0001462697079
0.0001337203836
0.0001142851272
0.0003677246599
0.0002240660892
0.0001036122355
9.901845883e-05
0.0003333730199
0.0001994564639
9.445810626e-05
3.240104223e-05
8.127103142e-06
1.896322129e-06
7.740312919e-07
6.205239046e-07
6.03458067e-07
6.01691406e-07
6.013785901e-07
6.011950739e-07
6.0067097e-07
5.961702162e-07
4.644687177e-07
0.0001911544662
0.0001995854139
0.0002016266355
0.0002019546651
0.0002260637487
0.0002148197352
0.0001820499982
0.0001798657553
0.0001985404417
0.0001979398969
0.0001811976206
0.0001699053012
0.000154976276
0.0001477266099
0.0001332432161
0.0001113770898
0.0001048203825
0.0001348606695
0.0001302035655
0.0001152900182
9.539582596e-05
0.0002558464829
0.0001189315669
3.970588741e-05
9.862751205e-06
2.289750473e-06
8.510923545e-07
6.317662215e-07
6.046945146e-07
6.019271848e-07
6.016743367e-07
6.010703701e-07
5.963789895e-07
4.645905056e-07
0.0002107000812
0.0002194941217
0.0002233648683
0.0002253875271
0.0002545577949
0.0002446113354
0.0002084027651
0.0001953699495
0.0002141818097
0.0002161274985
0.0001907934736
0.0001738556854
0.0001528477477
0.000157125463
0.0001460029003
0.0001261711361
0.0001402758249
0.0001618091278
0.0001531645093
0.0001382014839
0.0001200024432
9.837101499e-05
0.0002664171167
0.0001224351551
4.272799561e-05
1.207746348e-05
3.091009054e-06
1.01386876e-06
6.521203163e-07
6.071027719e-07
6.066589527e-07
6.054160586e-07
5.980873312e-07
4.651157968e-07
0.0002275772017
0.0002381875349
0.0002462800445
0.0002532264201
0.0002808092111
0.0002758968918
0.0002408943147
0.0002039145012
0.0002210344489
0.0002284185819
0.0001953195158
0.0001671816286
0.0001445891346
0.0001696556743
0.0001598008866
0.0001376507353
0.0001713060027
0.0001842125247
0.0001714263831
0.0001525655386
0.0001351507872
0.0001152212732
9.352843377e-05
0.0002473005178
0.0001271628718
5.504706358e-05
1.862512871e-05
4.81004301e-06
1.269708575e-06
6.856032229e-07
6.887764355e-07
6.853639758e-07
6.311210289e-07
4.754626597e-07
0.0002423954522
0.0002560267989
0.000269185817
0.0002825426936
0.0003073155183
0.0003268740805
0.0002751029299
0.000224577441
0.0001953836534
0.0002280710654
0.0001840838147
0.0001510885026
0.000147702239
0.0001794061614
0.0001737764387
0.000149597931
0.0001959914152
0.0001986886026
0.0001811555045
0.0001567806422
0.0001380618085
0.0001194735439
0.0001031980631
8.851070895e-05
0.0002713131052
0.0001746019812
8.672886571e-05
2.963849759e-05
6.844863325e-06
1.593094934e-06
1.673150704e-06
1.757027193e-06
1.13043881e-06
6.583840223e-07
0.0002567904799
0.0002736143914
0.0002924475793
0.0003126561385
0.0003453433738
0.0004306107182
0.0003199695208
0.0002583767091
0.000197713803
0.0001943656221
0.0001650109142
0.0001693390973
0.0001613654226
0.0001600520387
0.0001525040362
0.0001356011904
0.0001714217291
0.0001796211139
0.0001507725512
0.0001271995007
0.000115361518
0.000109636458
0.0001065208349
0.0001030947632
9.781717284e-05
8.793235033e-05
0.0002502654116
0.0001228317311
3.852484538e-05
8.748820907e-06
9.365187771e-06
1.094783684e-05
6.164205524e-06
2.83389486e-06
0.0002700891642
0.0002884186684
0.0003140979217
0.0003452250994
0.0004075383248
0.0005211318264
0.0003863499139
0.0002986145841
0.0002317708298
0.0001866721342
0.0001607019207
0.000144503274
0.0001523140231
0.0001432652155
0.0001312131908
0.0001223512579
0.000147602941
0.0001488695868
0.0001275597345
0.0001246881312
0.0001166824201
0.0001153496126
0.0001163863893
0.0001167302991
0.0001153783101
0.0001103502723
9.913884924e-05
0.0003054696461
0.0001402654856
4.467737212e-05
4.549483932e-05
5.622505214e-05
3.717525288e-05
1.87920309e-05
0.0002798149707
0.0002898983956
0.0003200374734
0.0003443869578
0.000366025281
0.0004544338874
0.0003275861947
0.0002711394368
0.000225488294
0.000181131948
0.0001546442789
0.0001397921954
0.0001434574971
0.0001381701412
0.0001292603952
0.0001212963253
0.0001295934726
0.0001277784813
0.0001196496221
0.0001341921857
0.0001248306312
0.0001243990575
0.0001250624071
0.0001253421916
0.0001251590723
0.0001230860662
0.0001169024587
0.0001035740495
0.0003146765956
0.0001489606907
0.0001399876373
0.0001721919832
0.0001413391043
8.416639473e-05
0.0002905345034
0.0002820958809
0.0002682916087
0.0003101485516
0.0003413944466
0.0003473311098
0.0002819509131
0.0002256529286
0.0001795734227
0.0001530923975
0.0001414287213
0.0001426708201
0.0001451557729
0.0001489065052
0.000144733135
0.0001302090534
0.0001157355621
0.0001169075518
0.0001265913863
0.0001480363698
0.000136706787
0.0001321097065
0.0001298701264
0.0001283831475
0.0001285987995
0.0001287473565
0.0001259351004
0.0001180133217
0.0001017396159
0.0003101116823
0.0002788800103
0.0003300933391
0.0003193411873
0.0002234150045
0.0002996463266
0.0002891708102
0.0002776494687
0.0002737500326
0.0003031667604
0.0002905716502
0.0002368650446
0.0001648910776
0.0001420123463
0.0001455052909
0.0001578922652
0.0001711576885
0.0001677174805
0.0001645811055
0.0001565637098
0.0001429559226
0.0001230085994
0.0001266142703
0.0001324036868
0.0001548261589
0.000142938713
0.0001388775767
0.0001365185408
0.0001332668785
0.0001309884181
0.0001303044547
0.0001296952944
0.0001247981658
0.0001132898249
9.702706212e-05
9.250072076e-05
9.918243289e-05
0.0001016784243
0.0001511205371
0.0003076413086
0.0002874289205
0.0002768431857
0.0002650276968
0.0002703260224
0.0002527146274
0.0001929108646
0.0001401972863
0.000146648972
0.0001575542122
0.0001750667309
0.0001875508461
0.0001829665145
0.0001733743182
0.0001619007438
0.0001437520485
0.0001355362257
0.0001441832913
0.000132499766
0.0001487309868
0.0001467390277
0.000148535674
0.0001476918734
0.0001432168366
0.0001378879514
0.0001334400045
0.0001309164028
0.0001264275374
0.0001159274001
0.0001032719062
0.000101656176
0.0001082656784
0.000112908607
0.0001032720912
0.0003101717938
0.0002841064591
0.0002700260369
0.0002566393749
0.0002451618306
0.0002150790702
0.0001527738615
0.0001390065443
0.0001450628398
0.0001522738152
0.0001694491297
0.0001839692343
0.000179635389
0.0001696416553
0.0001580201181
0.0001421463836
0.0001488984356
0.0001557893617
0.0001254666194
0.0001376050306
0.0001435467244
0.0001503812486
0.0001518202567
0.0001494220442
0.0001443935712
0.0001367008261
0.0001297201337
0.0001224898693
0.0001096508371
0.0001014383909
0.0001056937174
0.000112525748
0.0001180763929
0.0001093113744
0.0003090947911
0.0002797419224
0.0002600042329
0.000241314474
0.0002188276526
0.000174958665
0.0001355268518
0.0001391486334
0.0001411583922
0.0001427823949
0.0001552942389
0.0001653720688
0.0001605439291
0.0001529359561
0.0001481357142
0.0001349287619
0.0001130846483
0.0001204370767
0.0001184572064
0.0001300042219
0.0001386568
0.0001388612364
0.0001399830558
0.0001404157059
0.0001382627838
0.0001337100818
0.0001301086103
0.0001156293339
0.00010123195
0.0001008369675
0.0001076583505
0.0001139081108
0.0001201575715
0.0001109450522
0.0003168583781
0.0002796003273
0.0002519937893
0.000223112709
0.0001851905662
0.0001389743279
0.0001376927741
0.000141855684
0.000143910461
0.0001484916232
0.0001550957365
0.0001511687366
0.0001461934667
0.0001430727873
0.0001868861714
0.0001414607562
0.0001243959298
0.0001091891108
0.0001145025757
0.0001173111518
0.0001243685053
0.0001284325527
0.0001310432202
0.0001313995219
0.0001306366354
0.0001296626391
0.000118771538
9.935380586e-05
0.0001023367751
0.0001092743604
0.0001172289724
0.0001198021162
0.000121662045
0.0001097102452
0.0003400571271
0.0002957422156
0.000259723586
0.0002132957902
0.0001534990987
0.000134162288
0.0001397368753
0.0001453942066
0.0001555705665
0.0001712416686
0.0001728966674
0.0001605224638
0.0001467495125
0.000136785652
0.0001320507439
0.0001273465919
0.0001204661489
0.0001072417053
0.0001053760456
0.000108185427
0.0001125838305
0.0001175468782
0.0001231982315
0.0001265510157
0.0001273261927
0.0001215116444
0.0001004030861
9.945854031e-05
0.0001133837089
0.0001281447472
0.0001313478023
0.0001293195559
0.0001239076915
0.0001040988337
0.0003010309172
0.0002640935339
0.0002266815197
0.0001739883622
0.0001305157096
0.0001334951667
0.0001400826092
0.0001536446966
0.0001792689546
0.0001943987053
0.000194951384
0.0001816512948
0.0001604790225
0.0001418559373
0.0001304149373
0.0001258692616
0.0001195126439
0.0001063353365
9.498781679e-05
9.104048117e-05
9.086980197e-05
9.819195904e-05
0.0001124385941
0.0001199331154
0.0001193995194
0.0001055676831
8.884787606e-05
9.832183426e-05
0.0001185684655
0.0001397743205
0.0001441422144
0.0001385799045
0.0001202045932
0.0001560703497
0.0002525488198
0.0002238664036
0.0001851149226
0.0001334958476
0.0001205371184
0.0001287753795
0.0001352661474
0.0001515412406
0.0001828481244
0.0001995814772
0.0002019441459
0.0001893682854
0.0001660519878
0.000145524181
0.0001330072193
0.0001266191106
0.000117595211
0.0001005152553
0.0003166367308
0.0002138929229
0.0001775284012
0.0002425885899
9.838288179e-05
0.0001072797207
0.0001009131375
0.0003044948646
0.0002468506517
0.0003564488287
0.0001017810986
0.000137401881
0.0001356117597
0.0001238679376
9.194458513e-05
0.0001453577145
0.000211525391
0.0001813728148
0.0001414093897
9.878036295e-05
0.0001055448543
0.0001200358197
0.0001294866059
0.0001399625456
0.0001587789416
0.0001792316137
0.0001825800369
0.000169212042
0.0001544821352
0.0001415707361
0.0001327462837
0.000123929243
0.000108691968
0.0003512934618
0.0001774671668
7.326266604e-05
4.457331998e-05
8.661660032e-05
0.0002721521881
0.0003232571334
0.0002297994932
0.0001005350025
0.0001267134673
0.0002902657418
0.0001015519227
0.0001254646175
0.000118864447
9.310426678e-05
9.112262007e-05
0.0001516419232
0.0001679815743
0.0001360161968
9.662700821e-05
0.0002043727445
0.0003133360958
0.000102197317
0.0001197185013
0.000130708678
0.0001401026984
0.00015308036
0.0001579423175
0.0001514355303
0.0001441685276
0.0001362121761
0.0001275803379
0.0001126551044
8.989813259e-05
0.0001787276535
5.865263569e-05
1.35232611e-05
6.512446031e-06
2.013841387e-05
8.652909937e-05
0.000101936151
4.777728629e-05
2.053290855e-05
7.487227554e-05
0.0002163704023
8.817029969e-05
9.801106257e-05
9.062122632e-05
8.971261763e-05
9.36058147e-05
0.0001552809806
0.0001208586792
8.831206412e-05
0.0001461222807
5.99079585e-05
0.0001171546157
0.0002690577169
9.947289224e-05
0.0001187892659
0.0001293088873
0.0001372113059
0.0001408626262
0.0001393147388
0.0001356098316
0.0001276095966
0.0001129303288
9.050781797e-05
0.0001834932977
5.060788867e-05
9.885869222e-06
1.817971832e-06
1.07575155e-06
2.832831783e-06
1.132872191e-05
1.118373728e-05
3.591014861e-06
7.48284163e-06
3.993268969e-05
0.0001243218611
0.0002300730206
0.0003158090539
0.000365909905
9.402502599e-05
9.50981258e-05
9.691936947e-05
0.0002578146487
9.774810636e-05
2.875134296e-05
1.133679138e-05
2.635509806e-05
8.91117714e-05
0.0002374184568
9.68441049e-05
0.000116550418
0.0001284445332
0.0001299986753
0.0001293502295
0.0001225714614
0.0001083899777
0.0003635077264
0.0001676880387
4.520804445e-05
6.898871373e-06
1.382650963e-06
6.650504368e-07
6.248754572e-07
7.072000785e-07
1.011169052e-06
1.194464424e-06
3.002389933e-06
1.527407034e-05
5.770713342e-05
0.0001445748165
0.0002625035655
9.185289776e-05
9.297994339e-05
0.0001008476942
0.0001022291014
0.0001018899201
0.0001245518753
5.849397877e-05
1.151761509e-05
3.32416516e-06
1.818224193e-06
4.284978545e-06
1.68875339e-05
7.270947762e-05
0.0002159084659
9.356574425e-05
0.0001144482511
0.0001157981557
0.0001106365517
9.790684446e-05
0.0002914043134
0.0001313579054
3.428886171e-05
5.355622114e-06
1.041983731e-06
6.365838497e-07
6.047187601e-07
6.042096123e-07
6.247522731e-07
9.439340854e-07
4.280477438e-06
1.888888898e-05
8.30203481e-05
0.0001914775085
0.0003144657242
0.000111416074
0.0001352132062
0.0001140017202
0.0001060714182
0.0001074820994
0.0001055063887
2.00507704e-05
9.867137013e-06
4.752692275e-05
5.831787987e-06
1.013874867e-06
9.680178251e-07
2.433228486e-06
1.264339104e-05
6.140037191e-05
0.0001885126006
0.0003666604787
8.95035811e-05
0.0003105760353
0.0001913722074
8.177963745e-05
2.103049588e-05
3.596816297e-06
8.643649325e-07
6.177290742e-07
6.059180751e-07
6.139459949e-07
6.116470237e-07
7.421394052e-07
2.454929366e-06
1.620258965e-05
2.226155138e-06
1.879977931e-05
6.275977027e-05
0.000139776211
0.0001714432827
0.0002843643259
8.78596011e-05
0.0001004714269
9.750307568e-05
0.0001591483919
2.972312608e-06
1.401609043e-06
5.411055688e-06
9.354712044e-07
6.246571533e-07
6.336029755e-07
7.696904152e-07
1.869380599e-06
9.559347053e-06
4.461076675e-05
0.0001270976353
0.0001423252546
9.385580809e-05
4.011732622e-05
1.09431354e-05
2.156917771e-06
7.458872013e-07
6.152651233e-07
6.595510568e-07
8.50572016e-07
1.162968998e-06
7.337183258e-07
7.894542361e-07
4.098902166e-06
5.026573885e-05
5.37903635e-06
2.424431856e-06
1.825857011e-05
7.176371502e-05
0.0001460412421
0.0002173309776
0.0003104931516
8.872457554e-05
9.007634479e-05
0.0001457156401
7.906501414e-07
6.510843107e-07
9.278008034e-07
6.170070924e-07
6.045182639e-07
6.048211235e-07
6.146286398e-07
7.007333937e-07
1.423630751e-06
5.877418743e-06
2.108067401e-05
2.567610671e-05
1.33035685e-05
4.245100942e-06
1.206945529e-06
6.814346228e-07
6.328534511e-07
1.025753527e-06
3.069813063e-06
7.814984233e-06
1.198826266e-05
3.348873381e-06
5.444979379e-06
6.448327735e-05
0.0001010770064
8.661470388e-05
6.168388569e-06
3.367755607e-06
2.192759416e-05
8.380816642e-05
0.00017587923
0.0002664490892
0.0003277598844
0.000356606435
0.00013789676
6.049520348e-07
6.140228817e-07
6.032439781e-07
6.03660289e-07
6.029881453e-07
6.047950091e-07
6.075654585e-07
6.478858422e-07
9.492939265e-07
2.174872868e-06
2.64728639e-06
1.437324419e-06
7.838616869e-07
6.307127694e-07
7.239505575e-07
2.129534812e-06
1.045798272e-05
3.473533287e-05
7.167817117e-05
8.391678432e-05
2.814920653e-05
7.585491411e-05
0.000117807375
0.0002611294423
0.0001118731388
6.168012172e-05
3.806558797e-06
3.089903117e-06
2.525324362e-05
9.867619074e-05
0.0001997664389
0.0002800515411
0.0003303336419
0.0001342339681
6.033391085e-07
6.380333443e-07
6.035274712e-07
6.04051608e-07
6.106523778e-07
8.077869194e-07
6.074176466e-07
6.049083562e-07
6.153164505e-07
6.63222642e-07
6.822869951e-07
6.29153973e-07
0.0001046641145
4.636858499e-05
3.139401805e-06
7.078850665e-07
1.557413388e-06
1.104703642e-05
5.4506257e-05
0.0001489742799
0.0002665864131
9.365221479e-05
0.000104729226
7.150179309e-07
6.539152192e-07
1.282414128e-06
1.281466256e-05
1.809611149e-06
6.719287888e-07
0.0001366685589
0.000162448005
0.0001099655432
0.0001044441264
9.144282391e-05
0.0002757613131
0.0001512165663
6.806624652e-05
2.520046762e-05
6.734697116e-05
7.926497249e-05
5.281724948e-05
2.476408818e-05
8.712689623e-06
2.832907576e-06
1.059977015e-06
6.712207332e-07
8.096473895e-07
7.642910393e-07
6.537212304e-07
5.835231133e-07
5.537161967e-07
5.421324311e-07
5.352929492e-07
5.300447344e-07
5.258313037e-07
5.225044772e-07
5.199270818e-07
5.179783094e-07
5.165571293e-07
5.155601871e-07
5.146679071e-07
5.093971962e-07
3.777852843e-07
0.0002704584078
0.0003187783552
0.0001277082061
0.0001003142015
8.326965359e-05
8.066580145e-05
7.773798771e-05
8.632914557e-05
8.829862532e-05
6.46854756e-05
7.726973156e-05
7.703242717e-05
8.422990017e-05
6.703071297e-05
2.667080834e-05
9.1806936e-06
3.622486088e-06
7.043953847e-06
6.416286733e-06
4.5217657e-06
3.421062566e-06
3.467006835e-06
3.976715842e-06
4.260632722e-06
4.375490719e-06
4.435080281e-06
4.475065074e-06
4.504693863e-06
4.527535498e-06
4.545698461e-06
4.55620568e-06
4.478954242e-06
3.304856413e-06
3.981018706e-07
0.0003860978784
0.0003862691388
0.0002057227619
0.0001155841264
7.491315748e-05
8.820420174e-05
9.564755883e-05
0.0001012990261
9.075472122e-05
6.117151153e-05
9.573082228e-05
0.0001103842613
9.403580918e-05
8.932714404e-05
9.139345917e-05
4.283250815e-05
1.085366992e-05
3.720652251e-05
3.543269381e-05
2.264679715e-05
1.142765898e-05
5.330875792e-06
4.017710451e-06
4.995806696e-06
5.878322624e-06
6.208158385e-06
6.355499826e-06
6.448745681e-06
6.515400937e-06
6.563360612e-06
6.576354656e-06
6.322919259e-06
4.096278739e-06
4.009416712e-07
0.0003755711432
0.0003780879748
0.0002311213622
0.0001347415431
6.772826846e-05
9.706732767e-05
0.0001202028226
0.000120775161
0.0001010652953
6.145328742e-05
6.429949453e-05
9.557504993e-05
0.000105625386
0.0001026556622
9.042662604e-05
0.0001168327648
2.989802153e-05
6.62842625e-05
8.836345883e-05
9.249876074e-05
5.186679468e-05
2.14581173e-05
7.819467552e-06
4.172920839e-06
4.830283872e-06
5.996765034e-06
6.439059575e-06
6.608858615e-06
6.705265521e-06
6.768560242e-06
6.775006848e-06
6.447169838e-06
4.115490569e-06
4.018036129e-07
0.0002462974475
0.0002992705826
0.0002227200159
0.0001801856255
0.0001257837376
0.0001192499781
0.0001426887913
0.0001305461199
0.0001065039776
9.080934762e-05
6.334295645e-05
7.591411892e-05
9.156558073e-05
0.0001130769888
0.0001020274793
0.0001272113655
4.463612536e-05
6.137397157e-05
0.0001139201804
0.0001070700115
9.871349025e-05
7.175600719e-05
2.931430973e-05
9.612061572e-06
4.36265058e-06
4.620164224e-06
5.870744993e-06
6.395860453e-06
6.583885091e-06
6.681230909e-06
6.699109648e-06
6.369606474e-06
4.073707696e-06
4.028082862e-07
0.0001678999911
0.0002030052725
0.0002604740336
0.0002450535596
0.0002159963716
0.0001611529282
0.0001617961232
0.0001406288588
0.0001604538236
0.0001425973435
8.15073383e-05
5.397068266e-05
5.214445867e-05
0.0001078198602
0.0001162222514
0.0001299647993
6.223332068e-05
5.917274742e-05
5.673077511e-05
7.13634969e-05
8.45454112e-05
8.867487973e-05
7.647160339e-05
3.184558289e-05
1.068103615e-05
4.676688466e-06
4.443631525e-06
5.679908987e-06
6.298823701e-06
6.501210967e-06
6.531316783e-06
6.222314032e-06
4.001007817e-06
4.039904021e-07
0.0001871631773
0.0002167947334
0.0003113268666
0.0002957935935
0.0002698032651
0.0001791703407
0.0001750970371
0.00016462414
0.0002387513178
0.0001886564646
0.0001053498847
5.897035857e-05
3.804885803e-05
8.300923974e-05
0.0001394025607
0.000146603926
0.0001017429466
9.336818233e-05
7.770169293e-05
5.775661922e-05
6.67372234e-05
7.322885663e-05
8.673643189e-05
7.442524915e-05
3.432557602e-05
1.314917103e-05
5.531458432e-06
4.283553447e-06
5.414088841e-06
6.125615916e-06
6.113187321e-06
5.857788606e-06
3.856162541e-06
4.062128573e-07
0.0002184173203
0.000241575807
0.0003260035588
0.0003275106779
0.0003194568876
0.0002017718545
0.0001725483526
0.0001950791847
0.0002707426398
0.0002058788754
0.0001264473109
8.628443691e-05
4.672202227e-05
6.614023945e-05
0.0001411813723
0.0001683079849
0.0001571776723
0.0001363797045
0.0001095221753
7.515363207e-05
6.568978139e-05
6.951745067e-05
7.460944733e-05
0.0001009077137
8.122798164e-05
4.591914531e-05
1.928125936e-05
7.172281627e-06
4.286236932e-06
5.057168147e-06
4.750137057e-06
4.558290023e-06
3.397095362e-06
4.306908661e-07
0.0002394325437
0.000262793268
0.0003402133353
0.000364073633
0.0003862544273
0.000497095971
0.0001811335482
0.0002149630953
0.000272000854
0.0001858254048
0.0001391276781
0.0001157943069
6.524858241e-05
6.217668449e-05
9.023171168e-05
0.000160986871
0.0001914147627
0.0001735612325
0.0001307102983
9.915769802e-05
7.575408308e-05
6.893425553e-05
7.265603878e-05
7.693401188e-05
7.850105385e-05
9.397374424e-05
6.188977085e-05
2.679927492e-05
8.611086167e-06
4.290053947e-06
4.327881222e-06
4.381280274e-06
3.108850908e-06
7.749670456e-07
0.0002521134529
0.0002755002312
0.0003380785692
0.0003961374107
0.0005668892689
0.000668977652
0.000309380099
0.0002109396434
0.0002674290904
0.0001738412232
0.0001330545727
0.0001063527018
6.616110154e-05
7.129457452e-05
0.0001056867311
0.0001477839969
0.0001988431546
0.0002037269505
0.0001639656129
0.0001282018073
9.056081011e-05
7.911023408e-05
7.98637001e-05
8.043742916e-05
7.639152061e-05
6.988978726e-05
6.828481188e-05
7.17538607e-05
3.088220145e-05
1.028207889e-05
1.266279715e-05
1.393386072e-05
8.635024789e-06
4.067283808e-06
0.0002520252194
0.000258077362
0.0002766820351
0.0003755766434
0.0004779066793
0.0006672197435
0.0001800471401
0.000155056234
0.0002044535927
0.0001656913035
0.000127174815
0.0001233948964
0.0001149677774
0.0001212278863
0.0001235790036
0.0001524036395
0.0001927241123
0.000196065863
0.0001630208306
0.0001274694682
8.75810396e-05
7.579832521e-05
7.401389992e-05
7.22857865e-05
7.328851517e-05
7.183731796e-05
6.732308526e-05
6.485972041e-05
7.477046484e-05
3.759613737e-05
4.559128592e-05
4.86704416e-05
3.42517113e-05
2.341859384e-05
0.000275775446
0.0002456019238
0.0002599847988
0.0003307696911
0.0003917833279
0.0003589072338
9.679764207e-05
0.0001212417773
0.0001210277754
0.0001187353115
0.0001271366316
0.0001536134005
0.0001562920723
0.000131449383
0.0001196264302
0.0001211740573
0.0001505504196
0.0001636447322
0.0001514844031
0.0001471404665
7.765407805e-05
5.699610785e-05
4.992257104e-05
4.0566313e-05
4.23079446e-05
5.81265351e-05
6.896791356e-05
6.746186128e-05
6.805615338e-05
9.236873276e-05
0.0001032758332
9.480120177e-05
7.941928361e-05
8.628380318e-05
0.000325531613
0.0002369295908
0.0002276440556
0.0002477436257
0.0002929280549
0.000133255161
0.0001320115356
0.000126067622
0.0001308803363
0.0001451998157
0.0002167680216
0.0002910910775
0.0002650152904
0.0001974472296
0.0001305866536
0.0001133969772
0.0001199012954
0.0001169241376
9.27970367e-05
0.0001752188751
7.057031965e-05
6.032253305e-05
6.05642616e-05
5.675061577e-05
4.980027061e-05
4.318714226e-05
5.343072757e-05
6.858807863e-05
7.238895857e-05
9.068455159e-05
8.911457145e-05
6.802926986e-05
7.086391891e-05
0.0001930215417
0.0004016356083
0.000249654876
0.0001762236713
0.0001996994121
0.0001921360825
0.0001479216954
0.0001250788972
0.0001199947383
0.0001531416433
0.0002282860264
0.0003351062931
0.0003933831823
0.0003705140725
0.0002925729002
0.0001809807422
0.0001317138694
0.0001206099394
0.0001123257151
6.998379718e-05
8.201014872e-05
7.650085677e-05
8.510212724e-05
9.35141895e-05
9.084073668e-05
7.772039802e-05
5.762438876e-05
4.395573869e-05
6.015669622e-05
7.483334555e-05
7.903766541e-05
6.360212013e-05
6.173838023e-05
7.605156082e-05
0.0002933752794
0.0004626802669
0.0002707244321
0.0001532770456
0.0001614527517
0.0001634979576
0.0001396179552
0.0001140818096
0.0001119618476
0.0001467144101
0.000210578275
0.0003240617269
0.0004004796894
0.0003747726155
0.0002971232097
0.0001983020435
0.0001571275979
0.0001418816741
0.0001254863126
4.858909617e-05
5.847174005e-05
7.578371274e-05
9.459863715e-05
0.0001062854066
0.0001112672326
0.0001028027154
7.639013965e-05
4.992737543e-05
5.382930355e-05
6.753892816e-05
5.436545865e-05
3.488464701e-05
4.209244383e-05
6.911139573e-05
0.000347818894
0.0004901568254
0.0002971040011
0.0001615067924
0.0001417306869
0.0001462426083
0.0001233529925
0.0001025770853
9.374068245e-05
0.0001038701568
0.0001382758731
0.0002410056355
0.0003289474859
0.0003039027102
0.0002693091364
0.0001514133413
0.0001495140123
0.0001224578064
5.548547754e-05
4.607357074e-05
5.796465227e-05
7.777883436e-05
8.093278632e-05
9.361614631e-05
0.0001066881074
0.0001005946139
7.749878056e-05
5.892659325e-05
6.905047316e-05
5.548940321e-05
3.02198625e-05
4.019894651e-05
4.848971441e-05
5.957733367e-05
0.0003635754728
0.0004607857409
0.0002704422383
0.0001599212252
0.0001377328022
0.000128307402
0.0001049451706
8.68960191e-05
7.690537907e-05
7.490004202e-05
0.0001219138902
0.0001804205152
0.0001861750401
0.0001596288967
0.0001480303296
0.000177705563
9.990296831e-05
0.0001099677012
7.475046061e-05
5.457718988e-05
3.792907749e-05
3.959705549e-05
5.829534114e-05
7.640356634e-05
7.263382953e-05
5.68799502e-05
5.895236374e-05
8.091094054e-05
6.760080155e-05
4.76036866e-05
5.991347247e-05
7.944346707e-05
7.779544005e-05
7.063883101e-05
8.777196267e-05
0.0003861645909
0.0001614328916
0.0001270688274
0.000125938616
0.0001072130226
8.470354741e-05
6.631827598e-05
6.21990897e-05
0.0001141423381
0.0002159105221
0.0002290053369
0.0001715640079
0.0001051634471
7.724532059e-05
5.44927851e-05
8.382367362e-05
9.250990935e-05
7.121414558e-05
4.028948707e-05
2.505597901e-05
4.821726111e-05
5.165114545e-05
3.993888006e-05
3.385532536e-05
4.992658045e-05
7.324622063e-05
7.237724348e-05
4.214808356e-05
9.976445317e-05
0.000129985958
0.0001351118463
0.0001178460114
9.093469407e-05
0.000359387375
0.0002544454399
0.0001068309679
0.0001092575258
0.0001039951293
8.935381483e-05
6.199175978e-05
4.752133177e-05
7.141109676e-05
0.0002318655623
0.0003132813544
0.0003159927006
0.0002545337873
0.0001434964468
6.319102581e-05
4.4127183e-05
6.914390089e-05
7.295680466e-05
6.557933076e-05
5.660632265e-05
4.685654464e-05
7.149613783e-05
6.036437432e-05
4.046348571e-05
4.099140923e-05
5.937881917e-05
7.353246886e-05
6.374562106e-05
5.718894096e-05
0.0001101384313
0.000160864641
0.0001755484252
0.000148326529
0.0001038265552
0.0002743710181
9.411726011e-05
8.869224169e-05
9.089027365e-05
8.274554847e-05
7.254072589e-05
4.887078855e-05
3.624520797e-05
5.779685983e-05
0.000262163762
0.0003364175659
0.0003387228575
0.0002775867141
0.0001524794627
5.627493987e-05
4.642848684e-05
5.472506037e-05
5.890112109e-05
5.9201886e-05
8.624727204e-05
4.338866169e-05
4.013418613e-05
5.797570244e-05
4.277665424e-05
4.5545939e-05
5.702157869e-05
9.037355726e-05
7.084045481e-05
2.6436648e-05
6.714451748e-05
0.0001503426086
0.0001616302153
0.0001164439487
0.0001290840904
0.000180922194
8.003031043e-05
7.411372734e-05
6.399133277e-05
6.950979829e-05
5.76591082e-05
4.931703046e-05
4.072527702e-05
3.923827791e-05
0.0001434941871
0.0002431178632
0.000242563548
0.0001576874985
7.938323093e-05
5.000616379e-05
5.156445636e-05
5.279041166e-05
5.358465484e-05
8.737534434e-05
4.912301344e-05
1.463355063e-05
9.474781989e-06
1.875917421e-05
6.160795003e-05
7.339717035e-05
5.392467078e-05
2.52944959e-05
3.627778418e-05
7.472633502e-05
4.288419397e-05
6.960274e-05
9.299205736e-05
9.142165763e-05
9.663955502e-05
0.0001639876196
6.638366675e-05
5.154925989e-05
4.541359235e-05
4.738331706e-05
6.253969848e-05
4.630131163e-05
4.266348285e-05
3.904356128e-05
4.497108046e-05
8.692493683e-05
0.0001020529816
6.759805144e-05
5.35638931e-05
5.253959866e-05
5.217842929e-05
5.08641775e-05
7.029863184e-05
4.270326488e-05
1.381471412e-05
4.727758502e-06
4.133760323e-06
5.29952044e-06
1.556498085e-05
1.790482704e-05
9.228046672e-06
6.199368086e-06
1.869712553e-05
6.171253127e-05
7.290219083e-05
7.317555583e-05
8.066009494e-05
9.088470234e-05
3.980167919e-05
0.0002155776861
4.525460458e-05
4.123180798e-05
2.113809322e-05
1.502389298e-05
2.574989028e-05
5.137288935e-05
4.28466244e-05
4.087235903e-05
3.541552967e-05
3.642722746e-05
4.176426768e-05
4.757489394e-05
5.034248888e-05
5.182548931e-05
4.996008875e-05
6.517362996e-05
3.969466041e-05
1.077971444e-05
4.496239016e-06
5.242422043e-06
5.802679849e-06
4.591770462e-06
4.152473761e-06
4.351842617e-06
4.868730532e-06
5.123840079e-06
9.430113417e-06
4.461122191e-05
7.354905985e-05
8.668086232e-05
8.029374222e-05
3.818186811e-05
4.325735265e-05
0.0003018146233
3.074136313e-05
1.404642975e-05
5.971252714e-06
4.636152298e-06
6.869764133e-06
1.711682369e-05
4.252868047e-05
4.330950084e-05
3.654441645e-05
3.347364688e-05
3.66614872e-05
4.464813541e-05
4.786880682e-05
4.753613494e-05
7.730697833e-05
3.284390384e-05
8.819334487e-06
4.064829242e-06
5.351258182e-06
6.46026452e-06
6.595687681e-06
6.517352108e-06
6.274843436e-06
5.340706915e-06
3.639091045e-06
1.297145568e-06
1.859047599e-06
6.992588076e-06
2.287107228e-05
4.10808902e-05
2.753415055e-05
6.752438942e-05
7.154242167e-05
9.057912312e-05
1.488537053e-05
9.18761587e-06
6.228358533e-05
1.566350997e-05
5.389026077e-06
3.692334944e-06
4.66057331e-06
1.172991049e-05
3.74138055e-05