/*--------------------------------*- C++ -*----------------------------------*\
  =========                 |
  \\      /  F ield         | OpenFOAM: The Open Source CFD Toolbox
   \\    /   O peration     | Website:  https://openfoam.org
    \\  /    A nd           | Version:  8
     \\/     M anipulation  |
\*---------------------------------------------------------------------------*/
FoamFile
{
    version     2.0;
    format      ascii;
    class       volScalarField;
    location    "0.4";
    object      epsilon;
}
// * * * * * * * * * * * * * * * * * * * * * * * * * * * * * * * * * * * * * //

dimensions      [0 2 -3 0 0 0 0];

internalField   nonuniform List<scalar> 
67193
(
0.1580051585
0.1929370175
0.1048833884
0.08372223647
0.06143672671
0.0386548943
0.004711406256
0.002411178137
0.001227630519
0.003691871505
0.00416816196
0.002966018037
0.001669994572
0.0007053259256
0.0002194589672
5.672020898e-05
1.695220235e-05
5.274642377e-05
4.131868673e-05
2.370972895e-05
1.251991771e-05
8.563961024e-06
7.655658037e-06
7.502896158e-06
7.478527148e-06
7.471418729e-06
7.467156063e-06
7.464060167e-06
7.46178868e-06
7.460165555e-06
7.459053873e-06
7.457823119e-06
7.437977013e-06
8.032767181e-06
0.1928466568
0.223570701
0.1175071244
0.1110420089
0.09360480257
0.06832984442
0.0426043958
0.02495438623
0.02115418412
0.0610625441
0.05556496545
0.04009425854
0.02400701623
0.003075351632
0.001369911089
0.000451587009
0.0001257088906
0.0005474975339
0.000436508432
0.0002398433335
9.605272204e-05
3.094843416e-05
1.179743086e-05
7.938818847e-06
7.374318059e-06
7.3088499e-06
7.300432438e-06
7.297638056e-06
7.295759235e-06
7.294372862e-06
7.293301778e-06
7.290716254e-06
7.252560976e-06
7.844265984e-06
0.2154224629
0.2245275101
0.1352045454
0.1446099234
0.1425702671
0.1120869537
0.07573841056
0.05747013448
0.07465504486
0.1290862372
0.1007071853
0.07948767998
0.05811883431
0.03660359293
0.004118279129
0.001886768838
0.000756580548
0.002538338744
0.002175437409
0.001369390216
0.0006658218675
0.0002387676303
6.455724891e-05
1.74845806e-05
8.691638194e-06
7.483698353e-06
7.352615649e-06
7.33857853e-06
7.335237141e-06
7.333225541e-06
7.331518888e-06
7.326279674e-06
7.273827882e-06
7.852175783e-06
0.1833418144
0.1972044993
0.173266509
0.1835540822
0.2203345255
0.1801738894
0.1161502537
0.1056408235
0.1531965977
0.1754255008
0.137213511
0.1126560668
0.08880279562
0.06758727222
0.0419645081
0.00445672715
0.002709989778
0.03139067902
0.02723494723
0.004041761806
0.002416366096
0.001143035213
0.0003914585579
9.807470601e-05
2.292505932e-05
9.414329178e-06
7.569410685e-06
7.364605154e-06
7.343397145e-06
7.339615568e-06
7.337384237e-06
7.330999825e-06
7.276113786e-06
7.853750537e-06
0.1986230896
0.2263813087
0.2335772534
0.2347347374
0.3285902851
0.2808394753
0.1707162358
0.1652088743
0.2231034628
0.2218822473
0.1701124727
0.1398453318
0.1060076409
0.0914574438
0.06680090897
0.03884285564
0.03226913906
0.06963351153
0.06242136498
0.04314924971
0.02435683003
0.00310363772
0.001440819921
0.0004801487144
0.000119096622
2.767490318e-05
1.034171058e-05
7.704353865e-06
7.379432734e-06
7.346246964e-06
7.343192826e-06
7.335840129e-06
7.278646516e-06
7.855802421e-06
0.2661911114
0.3012512874
0.3175838822
0.3259960145
0.4701345612
0.4145453723
0.2558514185
0.2122505976
0.2806211595
0.2890914675
0.1987907046
0.1501181525
0.1020049878
0.1103459585
0.08801936644
0.05666418278
0.07802777061
0.1208026128
0.1021002912
0.07476986293
0.04875997404
0.02678929353
0.003234921903
0.001484495852
0.0005170978602
0.00014591969
3.733882717e-05
1.22993735e-05
7.948593625e-06
7.408362324e-06
7.403356678e-06
7.388237898e-06
7.299227946e-06
7.864571732e-06
0.3355996956
0.3849419876
0.425607231
0.4620256312
0.6316349401
0.5895770441
0.3949541823
0.2405994423
0.309070272
0.3413754872
0.2131928248
0.133592676
0.08648736343
0.1395814029
0.1156001638
0.07370957511
0.1431320464
0.1789001905
0.1436963658
0.1009600747
0.06996746738
0.04323815692
0.02308115021
0.003005392248
0.001543007221
0.000666659503
0.000225098023
5.806525015e-05
1.537624916e-05
8.351418773e-06
8.395800465e-06
8.353362916e-06
7.697401249e-06
8.037058628e-06
0.4056574717
0.4779657668
0.5556596439
0.6416172916
0.8257565835
0.9567755102
0.5845678657
0.3187876124
0.2124601383
0.3396957839
0.1784660828
0.09837986718
0.09221489328
0.1664191072
0.1494748751
0.09483178992
0.2153044831
0.2245321661
0.1698464638
0.1098622248
0.07484533345
0.04841045013
0.03115544727
0.01961249169
0.003299637159
0.002120608969
0.001051019389
0.0003583010382
8.260382261e-05
1.927765336e-05
2.031631774e-05
2.131752852e-05
1.372776686e-05
1.109221632e-05
0.4826691611
0.5834676766
0.7125570265
0.8681387741
1.155910981
2.163764681
0.9074538192
0.4830970184
0.2176215742
0.2098611172
0.1281432373
0.1385322244
0.1203660595
0.1173765029
0.1010421844
0.07070481712
0.1439818386
0.1653061542
0.09735547851
0.05848773217
0.04368610428
0.03749889816
0.03435735904
0.03110543388
0.02652800675
0.01921588274
0.003041445824
0.001489268569
0.0004658127489
0.0001056539769
0.0001136611645
0.0001327662467
7.465855998e-05
4.751058751e-05
0.5624880834
0.6837642409
0.8823339752
1.163589203
1.893087985
3.995638356
1.60181716
0.7404251437
0.3489268375
0.1840185888
0.1179698029
0.08588897042
0.1010214457
0.08378631009
0.06426312172
0.05217412285
0.09164966426
0.09395524965
0.05917318864
0.05512410522
0.04512835441
0.04363618498
0.04484980723
0.04525598255
0.04368448004
0.0381622248
0.02759578183
0.003713548831
0.001700932466
0.0005406479589
0.0005530134603
0.0006832442375
0.0004509922965
0.0003153587414
0.6268352011
0.6961347784
0.9374085911
1.168296537
1.395612894
2.631452676
0.9890746202
0.5650097463
0.3250945675
0.1683022727
0.1050250198
0.07779616277
0.08421605094
0.07522777102
0.06157666229
0.05090805917
0.0621382796
0.05956282252
0.04877747635
0.06863769609
0.0551658071
0.05475501181
0.05572183186
0.05613134093
0.05588584363
0.05311121157
0.04542324809
0.0314925903
0.003825662897
0.00180763044
0.001704106009
0.002096743861
0.001718648881
0.001415886352
0.7019985144
0.6424296066
0.5513880318
0.8521460523
1.138754786
1.17815415
0.6332890689
0.3244646318
0.1635595519
0.1017194926
0.08052393172
0.08295956261
0.08741504647
0.09441145466
0.08655356816
0.06292594074
0.04419619106
0.04550954948
0.05776077313
0.09240105378
0.07266897664
0.06571077414
0.0624627822
0.0603840292
0.06071849029
0.0608926563
0.05691366454
0.04674102451
0.02984295173
0.003772200474
0.003398262191
0.004024938609
0.003890622871
0.003766904359
0.7700787181
0.6921382031
0.6123432419
0.5855843502
0.7970038997
0.6961225072
0.3759795636
0.1263303423
0.08158038377
0.08795763337
0.1125224241
0.1433357874
0.1348629599
0.1273828074
0.1095895797
0.08339572808
0.05298428574
0.05770366018
0.06626437425
0.1060554452
0.08333633896
0.07646133573
0.07260375646
0.06752710227
0.06414890519
0.06317581374
0.06225390939
0.05538033802
0.04133517461
0.02591280598
0.0225207526
0.02781697553
0.02993497634
0.01687472106
0.8331067068
0.6793259596
0.6070368661
0.5319984593
0.5644199085
0.4587663101
0.2025538131
0.07841482244
0.09008959816
0.1117377699
0.1533978911
0.1886188731
0.1751438235
0.14896443
0.1212828771
0.08484461496
0.07086456778
0.08553046697
0.06656631795
0.09424576199
0.09037070798
0.09371814561
0.09205525051
0.08386329603
0.07482821513
0.06783608336
0.06405948547
0.05763036184
0.04436783021
0.03133860262
0.02995039217
0.03622459682
0.04106812094
0.04298522449
0.8531761299
0.6555189963
0.5628756572
0.4829553399
0.4203743786
0.282218311
0.1008026522
0.07672077762
0.08720751595
0.1008585703
0.1390634705
0.1780099076
0.1658069968
0.139608284
0.112906756
0.08202019606
0.09444864215
0.1084793972
0.05656045396
0.07468370792
0.08467999046
0.09734621448
0.1000632808
0.09530608734
0.08595477032
0.07289938102
0.06227289007
0.0523933112
0.03755915154
0.02975363828
0.03370813889
0.0406948051
0.04701055483
0.05105143176
0.8428945067
0.6248108825
0.5017560195
0.4009342746
0.2983711967
0.1516226228
0.07097913121
0.07697968626
0.08034682403
0.08313541511
0.1069940728
0.1292348523
0.1182471961
0.102182633
0.09172810346
0.06992689856
0.04115670846
0.04987298696
0.04752878421
0.06292979824
0.07615353951
0.07641475916
0.07831774375
0.07906096631
0.07548467326
0.06826189656
0.0628520806
0.04402910127
0.02955612963
0.0292479378
0.03563387833
0.0422204843
0.04955582518
0.05341361987
0.906543601
0.6224761001
0.4554937053
0.3159470359
0.1802234013
0.07629281601
0.07458020179
0.08155007642
0.08513709651
0.09355815544
0.1066163077
0.09869982518
0.08926993616
0.08318103994
0.1724607504
0.0781457134
0.05440210062
0.03693597812
0.04281216184
0.04607668035
0.0548903052
0.06042787546
0.06420677768
0.06474356541
0.06363958367
0.06222721671
0.04773527485
0.02793815463
0.03057821027
0.03722850265
0.04600551925
0.0491089038
0.05143413384
0.05166968926
1.122815733
0.7375499273
0.4981980919
0.2749283649
0.1022915392
0.0689431757
0.07792649045
0.08777105593
0.1075374263
0.1435065727
0.1477499916
0.1181798559
0.09026876056
0.07303553798
0.06483399867
0.05871703093
0.04978378634
0.03506605527
0.03327637592
0.03602596207
0.04056140751
0.04621886452
0.05330989303
0.05783774697
0.05892505051
0.05115014399
0.02880778006
0.02807498832
0.04161226213
0.0600799997
0.06470824114
0.06175416935
0.05432685941
0.04414604276
0.7774058816
0.5240221014
0.3301489894
0.148629699
0.06321984836
0.06792923935
0.07845764613
0.1035502247
0.1645481856
0.2099517197
0.2118086735
0.1712890193
0.1180677023
0.08146093445
0.06324171043
0.05687303579
0.0486578732
0.03420593088
0.02431508672
0.0213414436
0.02119136615
0.02684865435
0.04052592065
0.04923283679
0.04854060651
0.03345995847
0.01998826677
0.02713517111
0.04761966411
0.07804289298
0.08557950471
0.07600835696
0.04965421244
0.0182143651
0.4583102637
0.3181632464
0.1792460862
0.06705895669
0.04991527588
0.06095218993
0.07062878701
0.09932070182
0.1745204491
0.2271597746
0.2354282119
0.1940572477
0.1307507391
0.08795584106
0.06714834051
0.05791153121
0.04634537326
0.0288733207
0.003854827946
0.002597693023
0.002154016215
0.002951250016
0.02713659668
0.03518434342
0.02922384578
0.003708041684
0.003010355949
0.004349744794
0.03010404343
0.07415248199
0.07124253228
0.05431903496
0.02214579882
0.01548667127
0.2682187304
0.1686711602
0.07961711886
0.02715217288
0.03345822912
0.04932176508
0.06196173284
0.07824503884
0.1141794009
0.1643523395
0.1737991034
0.1383815612
0.1052308997
0.08098063239
0.06674955473
0.05426986513
0.03653623902
0.004279161595
0.002157855189
0.0008874897888
0.0005391781204
0.001052364134
0.003316173169
0.003938953314
0.002797414494
0.001222735095
0.00154444095
0.003540450301
0.0298595604
0.05648476807
0.0480340991
0.023038258
0.02155571499
0.01705101238
0.1338621308
0.07085667444
0.02528345516
0.002480938691
0.003816758374
0.03037442666
0.04892301589
0.06373721341
0.07847511487
0.1023874667
0.1124608928
0.099140404
0.08552731725
0.07212211845
0.0592159723
0.04068421676
0.02061492887
0.002174329545
0.0007119372082
0.0001635577552
7.869099257e-05
0.0002442678524
0.001052381619
0.001240156066
0.0005808762059
0.000249493613
0.0009107832477
0.00263787795
0.01955525739
0.02699331537
0.02125009848
0.02055819192
0.02337399987
0.01799229734
0.04965107708
0.01929484635
0.001769599649
0.0007258038767
0.001424718367
0.003277132379
0.02799864565
0.04778742221
0.06171683693
0.07377022922
0.07979489396
0.07719598749
0.07116680426
0.05924795389
0.04098556224
0.02103795468
0.002232657054
0.0006145913041
0.0001198937315
2.203663809e-05
1.306199669e-05
3.437116163e-05
0.0001377279561
0.000136222135
4.374584353e-05
9.044917935e-05
0.0004840854937
0.001511926424
0.002802471063
0.003843797021
0.004461431291
0.02365061322
0.0244984208
0.03555118116
0.003126030185
0.00118322098
0.0003474595556
0.0001371573381
0.0003200157949
0.00108361522
0.002891235131
0.02583323698
0.04513398432
0.06051880926
0.0627123308
0.06174668587
0.05247609621
0.03622624947
0.004428024574
0.002039909495
0.0005490428646
8.376018662e-05
1.6806916e-05
8.109807807e-06
7.623772863e-06
8.626434507e-06
1.233504472e-05
1.447467903e-05
3.609675431e-05
0.0001840811641
0.0006990705573
0.001758281106
0.003191398339
0.02139699461
0.02263865026
0.02921143257
0.03045172386
0.04134600977
0.001508630283
0.000707552058
0.0001392871196
4.02498895e-05
2.203995299e-05
5.201361007e-05
0.0002050805576
0.0008838917438
0.002629245986
0.02329496276
0.04274445641
0.04425183952
0.03855501634
0.0266702494
0.003548650385
0.001597336506
0.0004164315448
6.503073671e-05
1.268695236e-05
7.767049995e-06
7.380218012e-06
7.373742599e-06
7.617521018e-06
1.14228324e-05
5.150533213e-05
0.000229350672
0.001009447139
0.002329370411
0.003808388341
0.03756406944
0.06689828746
0.03963839428
0.03379785897
0.0354440503
0.0460044001
0.0002422881561
0.0001189328442
0.0005736196839
6.997141577e-05
1.225738249e-05
1.17757521e-05
2.955125481e-05
0.0001534572341
0.0007462116269
0.002294870539
0.004469420146
0.02037413578
0.003783376256
0.002329199309
0.0009942384519
0.0002554240815
4.369615631e-05
1.053358236e-05
7.538549737e-06
7.394121774e-06
7.489486389e-06
7.461247774e-06
9.00658979e-06
2.9449255e-05
0.0001954171171
2.697660011e-05
0.0002289756755
0.0007644576064
0.00170385704
0.002088307266
0.003422753017
0.01909515916
0.0288417334
0.02637267867
0.01903421658
3.592640364e-05
1.695079305e-05
6.493164561e-05
1.130490805e-05
7.616843968e-06
7.729019445e-06
9.377576078e-06
2.270209765e-05
0.0001160259274
0.0005419892774
0.001546496032
0.001732282137
0.001141226903
0.0004873402113
0.0001328470737
2.622687465e-05
9.09344773e-06
7.507274372e-06
8.036405372e-06
1.032712083e-05
1.408048895e-05
8.919601315e-06
9.413352411e-06
4.610970252e-05
0.0005733916826
5.74635016e-05
2.940832176e-05
0.0002227386845
0.000873064926
0.00177980424
0.002645331514
0.003785345436
0.01985179231
0.02080449512
0.01557745447
9.615704209e-06
7.935541569e-06
1.121932441e-05
7.524338516e-06
7.377608597e-06
7.381308955e-06
7.499672144e-06
8.539671435e-06
1.728342565e-05
7.125777777e-05
0.0002559141457
0.000311835967
0.0001614904336
5.153990758e-05
1.46830864e-05
8.287558642e-06
7.718430255e-06
1.245319749e-05
3.712994208e-05
9.442326027e-05
0.0001451286503
4.0387459e-05
6.156060899e-05
0.000734680059
0.02567805302
0.0009474409144
6.568643111e-05
4.09186115e-05
0.0002673834481
0.001019702099
0.002142938891
0.003249314879
0.00399781641
0.004350769081
0.01376293307
7.382732993e-06
7.489631334e-06
7.362213642e-06
7.367431655e-06
7.359231332e-06
7.381172901e-06
7.414367824e-06
7.900938221e-06
1.15449979e-05
2.639427925e-05
3.2127386e-05
1.746098195e-05
9.547543612e-06
7.694190567e-06
8.817091858e-06
2.578658516e-05
0.0001265939642
0.0004209223856
0.0008694862741
0.001019899002
0.0003387884976
0.000873730356
0.04141198373
0.4776173315
0.03515464091
0.0007039991076
4.302880339e-05
3.749051996e-05
0.0003069499691
0.00119992412
0.002434055638
0.003415176615
0.004029903106
0.01296505444
7.363454101e-06
7.7852478e-06
7.365810565e-06
7.372195601e-06
7.452107185e-06
9.85663069e-06
7.412985936e-06
7.38243405e-06
7.507822989e-06
8.086794101e-06
8.317791366e-06
7.675268325e-06
0.02859028572
0.0005215447055
3.512345966e-05
8.544039677e-06
1.892959362e-05
0.0001338071972
0.0006613273295
0.001812015676
0.003246469404
0.02329415352
0.04464035866
8.723705234e-06
7.97831276e-06
1.559881597e-05
0.0001558851259
2.20166766e-05
8.198371925e-06
0.09386690405
0.1583101906
0.048893047
0.04188552231
0.02804248914
0.004342520934
0.002376920209
0.001067664202
0.0003942380565
0.001055296701
0.001242026533
0.0008260493545
0.000386438378
0.0001357769713
4.417249935e-05
1.660595433e-05
1.057643489e-05
1.272622854e-05
1.202528602e-05
1.030366099e-05
9.210240716e-06
8.7454621e-06
8.564067132e-06
8.4564914e-06
8.373834484e-06
8.307461697e-06
8.255050726e-06
8.214441951e-06
8.183734463e-06
8.161338307e-06
8.145626315e-06
8.131559719e-06
8.048386909e-06
8.454298567e-06
0.1323077066
0.1629120485
0.05608542486
0.04487680566
0.02955342679
0.02359588898
0.0157505206
0.00918381682
0.004009412022
0.01301637751
0.01178987384
0.008469259145
0.003520617475
0.001041849712
0.0003808181826
0.0001072717846
3.626227046e-05
7.088668685e-05
6.282565025e-05
3.604105891e-05
1.692902978e-05
7.978645736e-06
5.138015951e-06
4.211108491e-06
3.768149784e-06
3.471434271e-06
3.251648758e-06
3.086122274e-06
2.961687365e-06
2.869312141e-06
2.803056084e-06
2.778711291e-06
3.206931784e-06
8.90841542e-06
0.1930130418
0.188701723
0.09752398889
0.0548647216
0.03256251398
0.03609956741
0.03578590299
0.03324895538
0.02750244927
0.03714581453
0.03454882045
0.02447800244
0.01629682138
0.008804012531
0.002428326196
0.0007747062149
0.0003599896521
0.0005742807519
0.0005081554382
0.0002925515907
0.0001311549387
4.270838709e-05
1.341051122e-05
5.924336669e-06
4.149495585e-06
3.531962797e-06
3.175721414e-06
2.9258758e-06
2.74465554e-06
2.614338063e-06
2.522253523e-06
2.4778047e-06
2.927703618e-06
8.971856634e-06
0.2007435284
0.1998320401
0.1150140779
0.06151304316
0.03413790205
0.05542078934
0.06494299563
0.06290001858
0.06518770559
0.104777075
0.1058656218
0.0610778229
0.03769293212
0.02495102632
0.01365644226
0.004611815098
0.003496059347
0.004661744604
0.003989476112
0.001688540745
0.0008165919346
0.0002804287864
7.866350764e-05
1.993080814e-05
6.954894204e-06
4.329686529e-06
3.584359464e-06
3.202588735e-06
2.948638089e-06
2.773537215e-06
2.652179638e-06
2.583490558e-06
3.007119559e-06
8.991102349e-06
0.1568290392
0.1875905469
0.1187319382
0.09228503614
0.07360031999
0.0898870055
0.09933500738
0.09858485627
0.1593813173
0.2085415101
0.1776331759
0.1137439336
0.07129521896
0.04725009632
0.03093832203
0.02355626751
0.02571202513
0.02974348158
0.02121580491
0.009977342506
0.004359870764
0.001296571435
0.0004058737037
0.0001043418215
2.473396671e-05
7.858208004e-06
4.549430169e-06
3.677984091e-06
3.273686891e-06
3.024356601e-06
2.86008566e-06
2.76423924e-06
3.149849786e-06
9.013535431e-06
0.1448306469
0.1433777688
0.1659296685
0.1590014079
0.1814787884
0.1455051221
0.1384804531
0.1539658378
0.3615290778
0.3145960055
0.2364461783
0.1093393389
0.09417926641
0.09104362273
0.0580264699
0.05679848404
0.1054155245
0.1305848822
0.08451872952
0.02650686347
0.01333642707
0.005499192311
0.001467966461
0.0004446113489
0.0001190196284
3.004245048e-05
9.385264234e-06
4.947106734e-06
3.84213548e-06
3.412980604e-06
3.179366132e-06
3.046335528e-06
3.369739055e-06
9.039921967e-06
0.2052902561
0.1894019199
0.2528937887
0.266866101
0.3452427838
0.23833122
0.1862828291
0.2021255822
0.5366911524
0.3756178791
0.2640104745
0.1161486681
0.1193170241
0.2358024194
0.1582180921
0.1548391714
0.2752185195
0.2360417581
0.1685729397
0.0585831785
0.02131158874
0.01230366457
0.00463301818
0.001366257059
0.0004829828985
0.0001538295676
4.306840852e-05
1.23768069e-05
5.52773642e-06
4.106312168e-06
3.784797601e-06
3.60452948e-06
3.759603642e-06
9.089203218e-06
0.2865297062
0.2800791379
0.3538202621
0.4350592245
0.6226250559
0.7941352494
0.252101485
0.2026547169
0.4880667562
0.3805018292
0.2562190742
0.1957168619
0.1782445218
0.3589592675
0.2820582802
0.3010580379
0.4085484032
0.2968562176
0.185959751
0.0731345749
0.02912574997
0.01784866195
0.01039818743
0.003802729537
0.001644239813
0.0006962583209
0.0002450950251
6.635324333e-05
1.612543996e-05
6.419753117e-06
6.347724497e-06
6.228413277e-06
5.184998075e-06
9.629335891e-06
0.3685950777
0.3924262753
0.5091302264
0.7099798668
1.2288076
3.928469046
0.6061613388
0.2371728064
0.2733102625
0.2839168226
0.1616652656
0.292419486
0.2291964379
0.2207338279
0.1222656007
0.1354741684
0.3992649499
0.302007865
0.1422484703
0.05416118696
0.02537123
0.01744071182
0.01389824867
0.01042201798
0.006703120901
0.002698410641
0.001127712484
0.000365496689
8.670327463e-05
2.093139328e-05
2.498604486e-05
2.738263459e-05
1.656812698e-05
1.723975581e-05
0.4405204768
0.5086316
0.7087666514
1.120737049
2.970556227
4.485035915
2.119742896
0.3180612313
0.2054975478
0.1268237486
0.08567502673
0.0956695663
0.2138645503
0.16479231
0.05719518504
0.05513625494
0.1438999682
0.1145367069
0.06911455346
0.04845246473
0.02968112985
0.02324623611
0.02095137092
0.01860533476
0.01531380692
0.01083394016
0.005653817742
0.001562517128
0.0004312828444
0.0001108454441
0.0001390543999
0.0001662770268
0.0001039258485
9.019513403e-05
0.4540505632
0.4933096184
0.6901808183
1.243342491
1.722617561
4.65455496
0.7511829645
0.1360733795
0.1459769491
0.09838914666
0.06609209169
0.05716985189
0.0770058667
0.06141796877
0.04854716912
0.04979714859
0.06949321811
0.06970914723
0.05866663595
0.05025461239
0.0338631999
0.02710914112
0.02638639726
0.02269659549
0.02008731603
0.01669286497
0.01236872707
0.006794565271
0.001630624511
0.0005219338104
0.0006060553375
0.0007648546218
0.0005817020884
0.0005202178264
0.4429680924
0.4268006844
0.4783545998
1.349296383
1.160903535
1.738131556
0.1677597817
0.08905929002
0.06680293936
0.05494171774
0.05548999326
0.06567599554
0.07156136552
0.05766350647
0.05259446817
0.04356016568
0.05675827526
0.0677785835
0.06927761991
0.08821932539
0.05579067191
0.04807498352
0.04017695703
0.02684516754
0.02063289067
0.01799141316
0.01616551378
0.01258318844
0.006578706134
0.001937205641
0.001951785124
0.002601285971
0.002493620627
0.001921544049
0.4997477811
0.3486169831
0.3822016947
0.5117825464
0.9310598793
0.3138006995
0.118527258
0.05992144676
0.05770068929
0.06590955032
0.0988469621
0.1097724945
0.09741191837
0.06945483496
0.05480257932
0.04848857339
0.04771434636
0.04421246041
0.06087874312
0.1604629219
0.09646248657
0.08654850098
0.07230985448
0.05212473397
0.03792651333
0.0260770168
0.01816927557
0.01627055797
0.01237470595
0.006950299667
0.006659462219
0.00867684698
0.009762948674
0.004307844595
0.5912975248
0.336142659
0.2384187108
0.3129804925
0.3697102024
0.2012787651
0.0850748456
0.05033309555
0.06385922358
0.09172363995
0.1373934166
0.1423120165
0.1280948553
0.09767367556
0.07152286751
0.06098908326
0.05094293517
0.07098689692
0.09315817145
0.1401992318
0.1399635195
0.1294870975
0.1144190912
0.08643030239
0.06110581759
0.04026026831
0.02360159795
0.01807855206
0.01565939307
0.01134367519
0.009261930766
0.01140053854
0.01592193085
0.006556731513
0.6535001725
0.3390202446
0.1630604566
0.1964127327
0.2147050375
0.1288528876
0.05446810264
0.04465670881
0.05573448435
0.07596887265
0.1148793733
0.1453248924
0.1324734563
0.1053130919
0.1009949985
0.07366772598
0.07547800552
0.185917493
0.09649392602
0.1192566253
0.1251818776
0.1338494518
0.1213984264
0.09984641183
0.07810711315
0.05216593486
0.02882258912
0.01806665813
0.01456722905
0.01064374875
0.007189182404
0.01140708652
0.01802604225
0.007779737532
0.6783093215
0.3492694333
0.1578513635
0.1380017556
0.1385652379
0.07479456304
0.04101596085
0.03305482547
0.03590668864
0.04940173561
0.08195977249
0.1270208018
0.1155318488
0.1225942032
0.2700936981
0.09228232379
0.05643754026
0.1004537536
0.09280341942
0.1093863771
0.1458075112
0.1153443459
0.09019292118
0.0821527175
0.06879645619
0.05026844696
0.03094412543
0.02014591583
0.01279950233
0.009662396362
0.01656296176
0.0206832125
0.02105045409
0.008134544341
0.6919957741
0.3154208944
0.1520174549
0.1181957485
0.08561789482
0.04354458391
0.03088596609
0.02284264319
0.02713477088
0.0536365703
0.07103399034
0.07015593693
0.06861867827
0.2019451941
1.27704472
0.2852108555
0.07799392273
0.09902147272
0.1048174308
0.07555678603
0.04751512841
0.04854747403
0.05592399928
0.04748155372
0.03320965594
0.02601029173
0.02279146517
0.01609012117
0.02035998092
0.02655174653
0.03541051853
0.03545585941
0.03081230683
0.03535637262
0.7644595662
0.2048377517
0.1205240436
0.09433993096
0.04866752132
0.02994579837
0.01839184205
0.02194388982
0.0563231073
0.105989531
0.1055794369
0.07565272453
0.04307160238
0.03810574535
0.1654277481
0.04466954088
0.0285420549
0.03181830425
0.02877194973
0.02168213053
0.01921851613
0.01935403661
0.01758492492
0.0159653998
0.01961209586
0.02133631808
0.01398409114
0.01899961333
0.04923306564
0.06025240263
0.06197941742
0.05722177513
0.04216019655
0.008042266258
0.636662466
0.1543849692
0.08864776068
0.05303427574
0.03145090615
0.01753143519
0.01187931234
0.03197894129
0.1376939435
0.1594215802
0.1526694933
0.1237379214
0.06592848601
0.02691999017
0.02672846677
0.01359469026
0.01675484652
0.01513382672
0.01007158198
0.005560453361
0.00513970014
0.007543003869
0.01003278477
0.01127183444
0.0155852461
0.01214033572
0.007818964997
0.02557910911
0.05015077584
0.07169187251
0.08016010775
0.08059977024
0.04707762633
0.006138152713
0.1250474326
0.06802197318
0.05166623765
0.025208722
0.02067674048
0.01089495466
0.007404223022
0.02294461428
0.1558138071
0.1744193145
0.1739033376
0.148239479
0.07575045162
0.02287513682
0.009975048721
0.008577501457
0.01183597452
0.007692757754
0.002783454872
0.001221276232
0.0009295105739
0.001282027472
0.006244948924
0.007964141234
0.007189786663
0.002309393791
0.001370924093
0.004990570116
0.02784966265
0.06739957656
0.07487711156
0.04811632836
0.01750619257
0.004045113212
0.05292129607
0.03920297149
0.02117237965
0.008254113891
0.01065106135
0.01014613503
0.007150057974
0.009659385663
0.07509886693
0.1298086817
0.1273046352
0.07788362549
0.03400603698
0.01325179688
0.009373185231
0.01006485485
0.008238313015
0.001958938046
0.0008432462557
0.0002335173918
0.0001351770951
0.0002560056456
0.00105970063
0.001231503561
0.0008356594081
0.0003512068252
0.000508863133
0.001378939259
0.006146640553
0.02299088437
0.03224707056
0.01939913596
0.01095120853
0.003664225318
0.02936795572
0.01527493786
0.004397496512
0.001595464453
0.002342692795
0.005823960031
0.007544225985
0.007030918137
0.01576284947
0.03940838216
0.04793753867
0.02725171203
0.01485517668
0.01046558631
0.0104822937
0.008165985073
0.002444853497
0.0005624290833
0.0001711287219
3.437637625e-05
1.881737816e-05
4.449334774e-05
0.0001826096613
0.0002059917751
9.168311404e-05
5.681863472e-05
0.0002435301468
0.001227229596
0.005807891853
0.01344628361
0.01296430226
0.01012256046
0.01107878125
0.004818304139
0.009362822744
0.002317088842
0.0005851719438
0.0002753250923
0.0004863258375
0.001134598864
0.004220597491
0.007003770731
0.006388937788
0.01006283707
0.0130116238
0.01110419166
0.01002369278
0.01059096791
0.008066887937
0.002385375713
0.0005217706949
0.0001102491186
2.473594362e-05
7.437809446e-06
6.066198171e-06
8.177584061e-06
1.983202765e-05
1.960138111e-05
1.051201218e-05
2.53974037e-05
0.0002034318032
0.000862167223
0.0031418893
0.007844053079
0.006611369038
0.01763054191
0.02105142759
0.006749993308
0.00117292993
0.0003243685292
8.468826457e-05
4.011252504e-05
8.044441854e-05
0.000225402301
0.000742408547
0.003431542934
0.005833434273
0.006187897836
0.006066742145
0.007919207948
0.00904825385
0.006484279949
0.001486779561
0.0004176462693
8.510227527e-05
1.508644335e-05
5.778270805e-06
4.446698099e-06
4.33746034e-06
4.57399856e-06
5.536894062e-06
1.063633061e-05
9.879476265e-06
0.0001355143009
0.004128446516
0.006165094542
0.01884096694
0.06033520025
0.02633483242
0.04369814027
0.03990357502
0.03886932899
0.0004318623947
0.000163794147
0.0005022090023
6.184987614e-05
9.971439622e-06
1.260112834e-05
3.403297826e-05
0.0001304914976
0.0005466371825
0.002353395025
0.0055907689
0.005265204703
0.005932385045
0.003709435358
0.0009853316974
0.0002888610954
5.865572525e-05
1.121119768e-05
4.672258924e-06
4.05194332e-06
3.694806366e-06
3.929560593e-06
5.530146772e-06
2.477807228e-05
0.0003160287758
4.961291279e-05
0.0002512926755
0.002251632562
0.02064974137
0.3943874362
0.2957467427
0.2078773084
0.07247480203
0.05455506201
0.04709938513
5.730631099e-05
0.0002391924742
0.002527378184
0.0006145328596
1.350776474e-05
5.111466099e-06
6.947030803e-06
1.934739254e-05
9.337363698e-05
0.0003818869751
0.001064396713
0.001451651336
0.0009382957819
0.0004648896741
0.0001452468853
3.182503596e-05
7.212031772e-06
3.768637448e-06
3.247864426e-06
3.618269602e-06
3.853886958e-06
5.218888262e-06
3.167220873e-05
0.0004359933457
0.008068884893
0.0002595801845
6.778666744e-05
0.0001375897446
0.001082196556
0.02002018475
0.05326453657
0.05220748414
0.0741081909
0.04764519899
0.007084776386
9.140339647e-06
1.968916132e-05
0.0003831265084
2.879611223e-05
4.533113841e-06
3.439618821e-06
3.452703525e-06
4.323040601e-06
1.232288468e-05
5.725916567e-05
0.0002041356774
0.0002440336076
0.0001552658499
5.907631627e-05
1.655368706e-05
6.131017365e-06
3.428627047e-06
3.179841506e-06
3.217498908e-06
3.728325243e-06
4.360290585e-06
1.707546453e-05
0.0003586290317
0.004539490995
0.08142033898
0.008168690252
0.0005553736968
5.178912611e-05
0.0001655333064
0.002419141549
0.005224878932
0.008811043594
0.01100198661
0.008198105144
0.004232736144
4.064267404e-06
4.036077164e-06
3.067769439e-05
4.086890533e-06
3.339568457e-06
2.885383148e-06
3.037873575e-06
2.913137104e-06
3.836212297e-06
8.401076958e-06
2.576559908e-05
3.108518207e-05
1.693382296e-05
6.896187658e-06
4.56175951e-06
2.790243909e-05
3.669635235e-06
3.388755096e-06
4.77674578e-06
8.424934766e-06
2.270061476e-05
0.0003675084451
0.007845213892
0.08161084886
0.7336347337
0.1798182529
0.01763914611
0.0005145794163
6.187721678e-05
0.0003485137698
0.000831092641
0.001684405911
0.002359450156
0.003211133176
0.002713516144
3.08211303e-06
4.517428012e-06
3.074832524e-06
3.152874237e-06
2.848696049e-06
3.02540307e-06
2.739260657e-06
2.920639122e-06
3.122485777e-06
4.429977729e-06
4.854919245e-06
3.793523342e-06
3.136253558e-06
3.003168876e-06
3.42276765e-06
4.519056731e-06
1.254716737e-05
4.533193732e-05
0.0001183338754
0.0008058694431
0.01314902494
0.1544478372
1.119282209
2.719149774
1.091643135
0.147653261
0.01116300955
0.0004232338042
6.663811462e-05
0.0003200369184
0.0009267843595
0.00166694108
0.002234384775
0.002095833618
2.955692472e-06
3.510510939e-06
2.892346673e-06
3.262692015e-06
2.931065188e-06
3.532661106e-06
2.890965505e-06
2.972676636e-06
2.795772548e-06
2.895388704e-06
2.845802386e-06
2.808524858e-06
0.5520247339
0.08338890313
0.006625664002
0.0002629862225
1.316038378e-05
3.194590844e-05
0.0002145120974
0.0009569790538
0.002356995393
0.00574270299
0.004229664732
3.146516715e-06
3.601418753e-06
3.896338734e-06