/*--------------------------------*- C++ -*----------------------------------*\
  =========                 |
  \\      /  F ield         | OpenFOAM: The Open Source CFD Toolbox
   \\    /   O peration     | Website:  https://openfoam.org
    \\  /    A nd           | Version:  8
     \\/     M anipulation  |
\*---------------------------------------------------------------------------*/
FoamFile
{
    version     2.0;
    format      ascii;
    class       volScalarField;
    location    "0.4";
    object      htcConv;
}
// * * * * * * * * * * * * * * * * * * * * * * * * * * * * * * * * * * * * * //

dimensions      [1 0 -1 1 0 0 0];

internalField   uniform 0;

boundaryField
{
    walls
    {
        type            calculated;
        value           uniform 0;
    }
    region0_to_wallFilmRegion_wallFilmFace
    {
        type            convectiveHeatTransfer;
        L               1;
        value           nonuniform List<scalar> 
1019
(
1.835410231
1.578287222
1.487422674
1.211674171
2.110148398
2.193893294
2.381051001
2.631554833
3.04903378
3.353798879
3.511083014
3.503710771
3.316765284
2.927088159
2.648910711
3.017235346
3.169130113
3.141824561
3.039559474
2.996789728
3.234672452
3.642091756
3.528422855
3.290803069
3.016248182
2.796063909
2.48434859
2.076186986
1.687222677
1.692120837
1.36432343
1.157439687
1.000978137
0.8441916533
1.889114627
2.059787699
2.293560165
2.564759804
2.987408614
3.304823846
3.514531131
3.616995397
3.613439553
3.409370836
2.288961145
2.633425074
3.050128649
3.198138142
3.178042032
3.166575554
3.324935507
3.580333369
3.341523258
2.985090867
2.743814437
2.517703794
2.132632732
1.798175053
0.8897846265
1.764472551
1.904038836
1.319245758
1.151461334
0.8317251081
1.93967437
2.214813872
2.510665102
2.674700874
2.907700212
3.160467699
3.427964781
3.654606421
3.804175782
3.785228692
3.171373275
2.157003501
2.767310952
3.061133745
3.140269728
3.122982458
3.177411194
3.269038944
2.965222689
2.739830514
2.567643742
2.306323565
1.939808557
1.58928988
1.032240252
2.591405359
1.648061015
1.208323885
1.020844118
0.8193981136
0.6740046227
2.136975917
2.38102552
2.747874117
2.912180077
3.01034
3.185721889
3.456382785
3.694646921
3.847369115
3.866876811
3.306146033
2.677558015
2.320565296
2.781073461
2.913934125
2.86235907
2.772075047
2.734173464
2.518803582
2.419569842
2.284551254
2.06746541
1.770276511
1.53950876
1.290608136
1.515040809
1.334659022
1.086301218
0.9806882095
0.796696554
0.7133672613
2.32134213
2.51276963
2.935151747
3.249365944
3.486825729
3.684762179
3.863224084
4.10577885
4.712884661
4.834008467
3.565483453
3.185307516
2.841769583
2.856787926
2.785328698
2.624339411
2.380241323
2.085059331
1.968053847
1.998358665
1.935992818
1.811077426
1.633972299
1.438659509
1.214737794
1.300792385
1.137231252
1.038923459
0.8960778638
0.7717258238
0.7240652104
2.355446678
2.509530333
2.934516045
3.300530779
3.614492052
3.931980691
4.503382362
5.571986042
8.876885709
7.103336782
4.700176661
3.595365155
3.402579597
3.017534508
2.792432147
2.476603612
1.814115547
1.657985591
1.836980302
1.912939244
1.865306851
1.752870453
1.613066413
1.419185269
1.196360846
1.084062251
1.031055356
1.002964845
0.851723301
0.7237369471
0.8265562692
2.24988036
2.438854504
2.883621728
3.216525991
3.409744175
3.467011153
3.657963835
4.24363358
5.28978776
5.512119486
3.980318871
3.421216859
2.756718597
2.647052677
2.231003601
1.582807637
1.568606058
1.895854481
2.018498777
2.026349671
1.993883051
1.875022357
1.709907135
1.52877399
1.300196368
1.101642716
0.9898732264
0.9832141297
0.8377083863
0.7169468744
0.6192760202
2.111560524
2.422078278
2.890682437
3.188754106
3.34061593
3.258523109
2.958216655
3.314391714
3.559831636
4.086125927
3.395821595
2.676010981
2.265337707
1.901237993
1.544757253
1.695661196
2.010231365
2.133831016
2.152161923
2.166381055
2.135669381
2.036023115
1.874439474
1.677521979
1.466303482
1.224373
1.046708573
1.001517773
0.8611879445
0.764646974
0.6878950544
1.973815292
2.40111929
2.833225381
3.288285729
3.619119433
3.526858682
3.032064787
2.216338976
2.728453959
3.178711532
2.902632524
2.515054739
1.792531692
1.599205397
1.866951075
2.004668865
2.139897584
2.16573239
2.163587782
2.192819929
2.21457737
2.162797912
2.040075702
1.856406628
1.635879874
1.403400161
1.167379298
1.050699929
0.9071121405
0.8068148896
2.228510216
2.748322416
3.412210183
3.74002922
3.857590792
3.780359607
3.445827404
2.714993807
1.807111292
2.668604576
2.768105092
2.523195291
1.604294717
1.738998107
1.908308387
1.977177088
2.079282227
2.079097202
2.12851708
2.209237268
2.264574505
2.258799323
2.173269845
2.049240744
1.854027887
1.589382023
1.338875665
1.133806362
0.971032494
0.8816437406
2.390109415
2.941750573
3.529690759
3.731421242
3.751333319
3.576375665
3.191055826
1.726051228
2.084324167
2.894997529
2.842277954
2.440043838
1.330698273
1.499163006
1.732581729
1.780536578
1.886256166
1.979242133
2.098461087
2.242422192
2.332305137
2.340932465
2.26829439
2.14563418
1.958375104
1.679946105
1.404232364
1.164157535
1.003597075
0.9379348777
2.443450955
2.877716162
3.392866398
3.629761186
3.663098824
3.405463152
2.64637385
3.019878026
3.417289098
2.114071334
2.300630308
1.953188758
1.552782978
1.543373043
1.537399544
1.589751469
1.577531685
2.017147873
2.104987029
2.300506092
2.423523319
2.415668738
2.315420268
2.163916889
1.922660728
1.642926196
1.344111436
1.128132542
1.014203989
1.012001288
2.377226422
2.823618895
3.328878624
3.690679019
3.914152808
4.011818454
4.038766615
4.32339801
4.652815833
3.302539716
2.773099269
2.161082373
1.696094343
1.671995619
1.669764782
2.043345744
1.85917867
2.169635087
2.233043947
2.413789864
2.462996346
2.406778373
2.281255108
2.078257249
1.809509493
1.513272456
1.191426567
1.069069233
1.031627125
2.185630282
2.657778382
3.215031761
3.657376028
4.023235033
4.337337877
4.536901331
4.51086367
4.26085402
3.013897568
2.465431171
2.11878889
1.915152751
1.748041542
1.387674894
1.691186506
2.245462769
2.012042155
2.051230174
2.362974113
2.405617356
2.333794222
2.177024627
1.928140002
1.643333426
1.320979548
1.045845122
1.148587574
1.078082989
1.951110355
2.360239074
2.929063122
3.432111564
3.799901987
4.087087605
4.326174403
4.38710424
3.875521369
2.454955474
2.326782776
1.993396438
1.952871528
2.166841579
2.023904085
3.081781734
3.180021776
3.283203591
2.339438218
2.49569871
2.380692904
2.237262844
2.010087508
1.740334451
1.420079972
1.096030182
0.8967812538
0.9734242592
1.138140251
1.771238562
2.106101723
2.633125759
3.17110802
3.532811947
3.577099988
3.221260371
2.96038309
2.825409048
2.168581313
1.929339869
1.994178778
2.093771759
2.242274608
1.928523697
2.793330407
3.755479115
3.104611649
2.591564527
2.440067288
2.265155426
2.055633467
1.810347769
1.521360175
1.17692469
0.9319893402
0.9371472293
0.8725140757
1.255958718
1.539604778
1.753281802
2.122631891
2.574187548
2.956099021
3.256632481
3.06309783
2.634603623
2.349394609
2.045819566
1.69207793
2.105649863
2.331655184
2.450499717
2.743769106
1.805533286
3.320856818
2.746159745
2.481025236
2.302309741
2.087063626
1.851804089
1.587993344
1.266702967
0.9810321227
0.8967129721
1.004725524
1.115169097
1.368191751
1.561435767
2.003593583
2.576674504
3.144558175
3.6858613
4.007087819
3.968038605
3.849926024
2.762621313
1.891382208
1.751654941
2.151983765
2.483629202
3.097910377
3.158972397
2.761204203
2.316106123
2.459728706
2.272963125
2.105639736
1.880443991
1.635315712
1.351021363
1.06968705
0.9138622299
0.9917694803
1.117814989
1.269076902
1.580776461
1.598979164
1.997796501
2.583716499
3.149381006
3.671092854
3.980140724
3.944082626
3.78310481
2.569745125
2.254227667
2.459353353
3.084637084
3.387865624
3.408417003
3.351449309
3.281112143
2.980551995
2.883804964
2.562588336
2.305624283
1.980828084
1.615619587
1.253585819
0.9944900042
0.9572413597
1.027160729
1.259681895
1.466032281
1.807774325
1.551325873
1.874751707
2.3936444
2.922161214
3.370732278
3.760970025
3.875352508
3.511350085
2.362568893
2.997466605
3.323718659
3.683901463
3.738172091
3.57284699
3.403901744
3.461351229
3.409842865
3.247125388
2.862863011
2.458177732
1.975845599
1.505398189
1.144830298
0.9678484406
1.057122627
1.149470899
1.417083818
1.612044516
1.947569089
1.490905565
1.728526879
2.13380632
2.617901484
3.028516802
3.356264682
3.551887213
3.235639207
2.550499951
2.975107367
3.201026373
3.531033344
3.55420104
3.338029904
3.357716709
3.458271196
3.476796506
3.217812743
2.80977857
2.360885452
1.833546127
1.379635197
1.09469975
1.071351624
1.213165057
1.470721656
1.666475199
1.948808433
2.212986358
1.413872707
1.582490178
1.877377535
2.270176468
2.667118136
2.96213938
3.113659386
2.906356723
2.655733913
3.009136215
3.329769514
3.561834603
3.523837896
3.372124458
3.340046243
3.372043109
3.27182337
3.079743947
2.653502543
2.139054949
1.623962945
1.275007504
1.109808225
1.192965872
1.390494182
1.652135555
1.850348031
2.179126198
2.509372212
1.330682187
1.450991471
1.65746298
1.943839488
2.279305554
2.572620828
2.745001315
2.715249451
2.745537442
3.091141821
3.407642774
3.563156314
3.520562849
3.422276376
3.3093928
3.192756231
3.049692886
2.935276286
2.554530134
2.143979135
1.715033785
1.392738437
1.250329452
1.440881617
1.619453219
2.16556974
2.369909732
3.467179731
3.747326578
1.246673858
1.335189518
1.480333167
1.683986452
1.937854026
2.206193617
2.423447696
2.550236219
2.739103164
3.072033651
3.361494167
3.520724181
3.523471951
3.437241305
3.204449426
2.965035204
2.876511799
2.759980844
2.468388202
2.161036659
1.761238649
1.387480473
1.293864647
1.622189903
2.034531402
2.350137937
3.140424415
4.170630564
4.604683965
3.59518914
1.163721466
1.231749293
1.337302751
1.485236865
1.67383476
1.898985665
2.145883167
2.38519881
2.660309228
2.980515508
3.244203093
3.427717693
3.46832689
3.381964423
3.058871988
2.814085985
2.745764402
2.548026778
2.312414222
2.055268078
1.67549011
1.332566511
1.371104409
1.573978538
1.886726956
1.850013366
3.527678907
3.273234738
4.06097422
2.845018187
1.082278735
1.137193027
1.218203762
1.331906428
1.478111108
1.665495145
1.911140869
2.209301955
2.523329524
2.837855738
3.088352467
3.28500127
3.361780254
3.278799262
2.924803175
2.69373875
2.51336269
2.187522586
2.062099641
1.876151354
1.505228568
1.399827436
1.617984458
1.866745748
2.032324204
1.713720258
2.069092762
3.579433579
2.966343119
2.177944326
1.001809887
1.048224578
1.114034401
1.206690047
1.32588328
1.480794299
1.696042193
1.991616068
2.330128861
2.644660094
2.899647887
3.087991859
3.199510796
3.133975486
2.790288746
2.519529293
2.043564874
1.483177638
1.418149918
1.320006082
1.340479269
1.634294593
1.979844384
2.115993883
2.473264744
1.414357356
1.363661851
2.103235968
2.283789495
1.708297068
0.9212959471
0.9622297537
1.018772501
1.098168406
1.19937706
1.328235175
1.502644882
1.749378178
2.073333498
2.397280344
2.666867033
2.868211402
2.975945697
2.91528699
2.571696915
2.076698593
1.420025048
1.304483663
1.21646628
0.9149229555
1.255873174
1.797341981
2.276989149
2.107000387
2.754728986
1.841511825
1.669748546
1.593230056
1.70625637
1.401023975
0.8395131608
0.8772249677
0.928833977
1.000356641
1.089579965
1.19903764
1.338438778
1.526054433
1.783900943
2.097118406
2.383725436
2.605491388
2.722000055
2.632036653
2.221211206
1.705215939
1.744706856
1.774357231
1.635198027
1.355064909
1.347599635
1.972787726
2.556804312
2.618655114
4.365499608
2.46927609
2.284064359
1.809115284
1.604222247
1.56844399
0.7551646028
0.7917799318
0.8424583576
0.9109325174
0.9935290725
1.090193731
1.204776276
1.345162364
1.527377962
1.76788678
2.056350142
2.304772323
2.442855552
2.369311835
2.115257356
2.033105943
2.055868847
1.996239758
1.798107335
1.530969428
1.271132359
2.106307231
2.903035504
4.410340925
7.310190297
4.463789043
2.947720245
2.485433529
2.010425344
1.981974358
0.6668114089
0.7052159439
0.7597052288
0.830609394
0.9129684684
1.006050779
1.112814192
1.240393225
1.405656975
1.62762992
1.891161931
2.1251116
2.267251845
2.272521922
2.265703958
2.24762722
2.207159443
2.109107536
1.85899878
1.491263663
1.150205554
2.0694533
2.51176252
3.717296587
6.938215133
3.695293174
2.529558713
2.380013587
2.088593122
2.253389593
0.573208304
0.6185232347
0.6834580593
0.7626933207
0.8507359136
0.9480127749
1.059836873
1.197302461
1.381984147
1.631839773
1.912637993
2.142783845
2.30275782
2.373758691
2.426621518
2.416561358
2.346501265
2.207900768
1.789741865
1.325651995
1.893113949
2.461352261
2.62874768
3.029229893
3.609640317
2.946866543
2.426747609
2.41831151
2.191080112
2.32278471
0.4752760978
0.5367384139
0.6203192642
0.7115768829
0.8071620941
0.9090459495
1.022753646
1.157970933
1.332712727
1.569137368
1.862959612
2.134077573
2.320995533
2.411603494
2.452519404
2.451489411
2.358915006
2.156135042
1.587149651
2.118963491
2.541833389
2.731348772
2.655494713
2.600630243
2.539674742
2.516082463
2.427657142
2.407515583
2.205886948
2.109035398
0.389585819
0.4742381896
0.5741938701
0.6735278805
0.7735608036
0.878949106
0.9972318396
1.139854525
1.32580631
1.583283826
1.915503765
2.229599757
2.433558823
2.515399804
2.505305857
2.428612084
2.288440448
2.08168997
2.147193328
2.667037236
2.844305285
2.839143692
2.693423938
2.455205529
1.782945588
2.369757981
2.442988436
2.483137124
2.249204137
1.641718126
)
;
    }
    region0_to_wallFilmRegion_mirrorFace
    {
        type            convectiveHeatTransfer;
        L               1;
        value           nonuniform List<scalar> 
133
(
2.971940673
3.643783393
4.156507985
4.076504421
4.307103858
4.55401854
4.478723255
4.364648566
4.45805074
4.422241036
4.379649859
4.470080386
4.162407945
4.152442866
4.044238743
4.244962293
3.07024257
2.678653775
3.311034829
3.107310521
3.148536282
3.186561246
3.826325832
4.128138137
4.032468989
3.875277847
3.890353332
3.836511664
3.772334748
4.321165421
4.417959848
4.08795736
4.382039015
4.387306124
4.094295637
4.282568204
4.013806874
4.241499608
4.19458497
4.518378802
4.410560908
4.38620677
4.437802092
4.359400587
4.449193408
4.381908456
4.441465938
4.319788034
4.400787618
4.256999041
4.367177221
4.06449123
4.096579213
1.306196326
3.126579215
2.591310115
1.605872402
3.120846583
2.773537679
2.993056255
2.648720757
3.874984759
3.744990928
3.555700427
3.82244647
3.570588694
3.539571888
4.011494438
4.375595782
4.457356689
4.251444799
4.370208005
4.397945587
4.325365372
4.337721917
4.395055911
3.727479559
3.796399642
1.386551449
3.134969788
1.594045777
1.543579847
3.513671578
3.507608553
1.398663612
1.136115075
3.458664399
1.322256053
3.27243907
3.533029368
3.721531546
3.664430869
3.951933555
4.088161705
4.041487273
4.235935815
4.209192416
4.289020057
4.372595555
4.372029337
4.517808685
4.494165721
4.465404963
4.431680647
4.407225603
4.395505996
4.387853148
4.304994765
4.294125148
4.296138644
4.304888758
4.152737995
3.991261817
3.974358287
4.17558383
3.987918631
4.330868357
4.145432238
4.320157463
4.208343712
4.356855311
4.429001973
4.191136148
4.386363069
4.235809633
4.402751821
3.741227888
3.48631839
3.512473243
3.882721498
3.606159243
3.75287391
3.905265775
)
;
    }
    procBoundary3to0
    {
        type            processor;
        value           uniform 0;
    }
    procBoundary3to1
    {
        type            processor;
        value           uniform 0;
    }
    procBoundary3to2
    {
        type            processor;
        value           uniform 0;
    }
}


// ************************************************************************* //
