/*--------------------------------*- C++ -*----------------------------------*\
  =========                 |
  \\      /  F ield         | OpenFOAM: The Open Source CFD Toolbox
   \\    /   O peration     | Website:  https://openfoam.org
    \\  /    A nd           | Version:  8
     \\/     M anipulation  |
\*---------------------------------------------------------------------------*/
FoamFile
{
    version     2.0;
    format      ascii;
    class       volScalarField;
    location    "0.4";
    object      N2;
}
// * * * * * * * * * * * * * * * * * * * * * * * * * * * * * * * * * * * * * //

dimensions      [0 0 0 0 0 0 0];

internalField   nonuniform List<scalar> 
67193
(
0.7899943735
0.7899945983
0.7899942216
0.7899942044
0.789994056
0.7899938456
0.7899935361
0.7899931757
0.7899929315
0.7899931031
0.7899931051
0.7899929873
0.7899928967
0.7899928338
0.7899928271
0.7899928567
0.7899929117
0.7899929084
0.7899929337
0.7899929586
0.7899929869
0.7899930139
0.7899930372
0.7899930562
0.7899930715
0.7899930836
0.7899930932
0.7899931007
0.7899931066
0.7899931111
0.7899931144
0.7899931167
0.7899931179
0.7899931179
0.7899943076
0.7899944104
0.7899943003
0.7899945281
0.7899943677
0.7899942333
0.7899940366
0.7899937206
0.7899934591
0.7899938518
0.7899937509
0.7899934706
0.789993281
0.7899931311
0.7899929872
0.7899928896
0.7899929059
0.7899928918
0.7899929275
0.7899929595
0.7899929799
0.7899930049
0.7899930323
0.7899930559
0.7899930742
0.7899930881
0.7899930987
0.7899931069
0.7899931132
0.7899931179
0.7899931214
0.7899931235
0.7899931222
0.7899931175
0.7899943035
0.7899943998
0.7899943952
0.7899947655
0.7899943898
0.7899941861
0.7899941
0.7899940019
0.7899941302
0.7899947319
0.7899945036
0.7899940411
0.7899935668
0.7899933104
0.789993218
0.7899930452
0.7899929413
0.7899929266
0.7899929213
0.7899930068
0.7899930201
0.7899930049
0.7899930149
0.7899930416
0.7899930663
0.7899930845
0.7899930977
0.7899931074
0.7899931146
0.7899931199
0.7899931237
0.7899931256
0.789993122
0.7899931154
0.7899943462
0.7899945352
0.789994684
0.7899949847
0.7899944461
0.7899940157
0.7899939718
0.7899942736
0.7899949955
0.7899954884
0.789995219
0.7899948214
0.7899939935
0.7899933482
0.7899932137
0.7899932143
0.7899930731
0.7899933515
0.7899930468
0.7899930526
0.7899931507
0.7899931188
0.7899930422
0.7899930261
0.7899930475
0.7899930712
0.7899930887
0.7899931009
0.7899931096
0.7899931158
0.7899931201
0.7899931223
0.7899931185
0.7899931118
0.7899945723
0.7899948867
0.7899950334
0.7899950699
0.7899947211
0.7899938696
0.7899939784
0.7899947852
0.789995718
0.7899959947
0.789995684
0.7899954883
0.7899944681
0.7899935818
0.7899930021
0.7899931572
0.7899932487
0.7899943267
0.7899937555
0.7899932353
0.789993228
0.7899933119
0.789993208
0.7899930726
0.789993035
0.7899930511
0.7899930733
0.7899930899
0.7899931012
0.789993109
0.7899931141
0.7899931167
0.7899931132
0.7899931066
0.7899948519
0.7899951945
0.7899952585
0.7899950604
0.7899952243
0.789993606
0.7899941097
0.7899950114
0.7899959404
0.789996446
0.7899958825
0.789995707
0.7899949003
0.7899943877
0.7899931767
0.7899930226
0.7899936787
0.789995231
0.7899948709
0.7899939195
0.7899934005
0.7899934354
0.7899934445
0.7899932535
0.7899930859
0.7899930394
0.7899930515
0.7899930725
0.7899930885
0.7899930991
0.7899931056
0.7899931087
0.7899931056
0.7899930991
0.7899950491
0.7899953377
0.7899953401
0.7899949928
0.7899957724
0.7899923667
0.7899941324
0.7899944832
0.789995727
0.7899965039
0.7899957626
0.7899952592
0.789995758
0.7899957532
0.7899943378
0.7899931957
0.78999457
0.7899957259
0.7899955072
0.7899946512
0.7899938259
0.7899935862
0.7899936206
0.7899934976
0.7899932682
0.7899931044
0.7899930453
0.7899930489
0.7899930686
0.7899930843
0.7899930932
0.7899930971
0.7899930948
0.7899930882
0.7899952128
0.7899954124
0.7899954243
0.7899950452
0.7899958808
0.7899875712
0.7899937087
0.7899934591
0.7899947635
0.7899959039
0.789995011
0.789994914
0.7899970018
0.7899963403
0.7899956663
0.7899938582
0.7899953038
0.7899957419
0.7899954935
0.7899947913
0.7899941417
0.789993845
0.7899937837
0.7899937
0.7899935526
0.7899933584
0.7899931658
0.7899930588
0.7899930444
0.789993062
0.7899930754
0.7899930802
0.7899930785
0.7899930712
0.7899954229
0.7899955583
0.7899956143
0.7899952984
0.7899941152
0.7899821471
0.7899914159
0.7899933009
0.7899942386
0.7899951328
0.7899950532
0.7899957441
0.7899970113
0.7899956734
0.7899948695
0.7899939882
0.7899944551
0.7899944898
0.7899941711
0.7899939004
0.7899938414
0.7899938321
0.789993772
0.7899937724
0.7899938013
0.7899937394
0.7899935282
0.7899932473
0.7899930701
0.7899930388
0.7899930591
0.7899930673
0.7899930591
0.7899930442
0.7899956519
0.7899957997
0.7899960542
0.7899963086
0.789995758
0.7899998748
0.7899927423
0.789993757
0.7899941029
0.7899945775
0.789994577
0.7899946379
0.7899951687
0.7899943957
0.7899942892
0.7899939728
0.7899941809
0.789994278
0.7899939693
0.7899937
0.7899934728
0.7899937424
0.789993765
0.7899937678
0.7899938854
0.7899940125
0.7899939633
0.7899936697
0.7899932901
0.7899930768
0.7899930948
0.7899931254
0.7899930825
0.7899930255
0.7899958498
0.7899960142
0.7899964685
0.7899966062
0.7899969086
0.789995417
0.7899949339
0.7899950922
0.7899946826
0.7899946007
0.7899946028
0.789994661
0.7899947943
0.7899942677
0.7899941345
0.7899938691
0.7899941287
0.7899942239
0.789993862
0.7899940841
0.7899934831
0.7899940192
0.7899940737
0.7899939323
0.7899939006
0.7899940426
0.7899941877
0.7899940928
0.7899937064
0.7899933098
0.7899932755
0.7899933633
0.7899932893
0.7899931317
0.7899957762
0.7899958252
0.7899953521
0.7899954069
0.7899962346
0.7899949364
0.7899944296
0.7899941182
0.7899940747
0.7899944686
0.7899945846
0.7899945397
0.7899944249
0.7899942318
0.7899941629
0.789993904
0.7899936658
0.7899937974
0.7899944057
0.7899950095
0.7899940277
0.7899944321
0.7899944714
0.7899942647
0.7899940599
0.7899940334
0.78999418
0.7899942824
0.7899940888
0.7899936987
0.7899935936
0.7899937283
0.7899937127
0.7899934996
0.7899956976
0.7899957099
0.7899957327
0.789995345
0.7899957124
0.7899949066
0.7899943103
0.7899940758
0.7899940967
0.7899946743
0.7899945026
0.7899945599
0.7899943452
0.7899943251
0.789994132
0.7899939375
0.7899935838
0.7899941169
0.789994783
0.7899954616
0.7899946713
0.789994817
0.7899948012
0.7899946065
0.78999435
0.7899941649
0.7899941785
0.789994293
0.789994266
0.7899940198
0.7899939231
0.7899940869
0.7899941723
0.7899939978
0.7899956764
0.7899954255
0.7899953946
0.7899952579
0.7899952935
0.789994683
0.7899939793
0.7899944903
0.7899947902
0.7899948206
0.7899948051
0.7899948222
0.7899945057
0.7899944715
0.7899940083
0.7899937329
0.7899938783
0.7899945171
0.7899947344
0.789995388
0.7899952517
0.7899952139
0.7899950459
0.7899948139
0.7899945802
0.7899943788
0.7899942911
0.7899943132
0.7899942886
0.7899941723
0.7899941692
0.7899943216
0.7899944664
0.789994395
0.7899955514
0.7899952343
0.7899951106
0.7899949675
0.789994829
0.7899942469
0.7899940841
0.7899946615
0.7899947524
0.7899948449
0.7899948698
0.7899949581
0.7899943149
0.7899945205
0.7899934922
0.7899932336
0.7899938999
0.7899943372
0.7899949597
0.7899954312
0.7899954409
0.7899952784
0.7899949079
0.7899945606
0.7899943991
0.7899943599
0.7899943329
0.7899943021
0.7899942213
0.789994219
0.7899943114
0.7899944217
0.7899945649
0.7899945826
0.7899952234
0.7899950118
0.789994901
0.7899947434
0.7899945106
0.7899940195
0.7899945032
0.7899947423
0.7899948424
0.7899949502
0.7899950275
0.7899950405
0.7899945865
0.7899946237
0.7899931612
0.7899934298
0.7899937716
0.7899945428
0.7899950757
0.7899954825
0.789994911
0.7899944758
0.789994254
0.7899942632
0.7899944077
0.7899944744
0.7899944343
0.7899942122
0.7899941596
0.7899943033
0.7899943893
0.7899944448
0.7899945594
0.7899946072
0.7899948826
0.789994561
0.7899944663
0.7899943723
0.7899942116
0.7899942576
0.7899946231
0.7899947536
0.7899948822
0.7899951147
0.7899950644
0.7899950853
0.7899937656
0.7899930357
0.7899895099
0.789985049
0.7899909805
0.7899929097
0.7899939907
0.7899943576
0.7899942767
0.7899940013
0.7899939366
0.7899940984
0.7899942564
0.7899943353
0.7899941801
0.7899940784
0.7899943152
0.789994528
0.7899945948
0.78999457
0.7899945485
0.7899945537
0.7899949748
0.7899945042
0.7899943061
0.7899941669
0.7899941239
0.7899944076
0.7899946246
0.7899947755
0.7899950716
0.7899955265
0.7899956743
0.7899954171
0.7899951055
0.7899949105
0.7899940371
0.7899943316
0.789994382
0.7899941724
0.7899942936
0.7899942859
0.7899939049
0.7899935867
0.7899937025
0.7899940047
0.7899941953
0.7899941796
0.7899939742
0.789994233
0.7899945684
0.7899948665
0.7899948614
0.7899947352
0.7899945518
0.7899944788
0.7899947577
0.7899943305
0.7899941919
0.7899940002
0.7899941613
0.7899943982
0.7899945402
0.7899948436
0.789995374
0.7899958686
0.7899959501
0.7899955738
0.7899948653
0.7899945688
0.7899936249
0.7899934271
0.7899937864
0.7899939553
0.7899940107
0.7899937831
0.7899933838
0.7899933011
0.7899936475
0.7899939583
0.7899940474
0.7899938457
0.7899938086
0.7899941286
0.78999444
0.7899946871
0.7899947218
0.7899946469
0.7899944452
0.7899945837
0.7899943371
0.7899942215
0.7899940828
0.7899938023
0.7899941155
0.7899942943
0.7899943794
0.7899946727
0.7899952616
0.7899957548
0.7899958451
0.789995493
0.7899950119
0.7899946346
0.789994284
0.7899942161
0.7899941888
0.7899940224
0.7899937206
0.7899932973
0.7899930417
0.7899931468
0.7899935736
0.7899937736
0.7899936885
0.7899933987
0.7899934665
0.7899937354
0.7899939901
0.7899942442
0.789994331
0.7899943352
0.7899942213
0.7899947574
0.7899941904
0.7899941043
0.7899938009
0.7899935001
0.7899938982
0.7899941613
0.7899942723
0.7899944177
0.7899947587
0.7899951837
0.7899952817
0.7899949006
0.7899946697
0.7899944255
0.7899942456
0.7899942142
0.7899940969
0.789993778
0.7899933861
0.7899930282
0.7899929311
0.7899930185
0.7899933202
0.7899933853
0.7899932094
0.7899929937
0.7899931034
0.7899934236
0.7899938148
0.7899939715
0.7899939903
0.7899938493
0.7899942352
0.7899945783
0.7899940194
0.7899937825
0.7899934039
0.7899932017
0.7899935272
0.7899938742
0.7899941407
0.78999427
0.7899944055
0.7899946498
0.7899947481
0.7899945617
0.7899944188
0.7899943056
0.7899942381
0.7899941091
0.7899938041
0.7899934048
0.789993096
0.7899929527
0.7899929353
0.7899929506
0.7899930311
0.7899930066
0.789992856
0.7899927599
0.7899927877
0.7899929447
0.7899934004
0.7899933323
0.7899934908
0.7899937273
0.7899940398
0.789994331
0.7899936417
0.7899933597
0.7899930999
0.7899930331
0.7899931903
0.7899934749
0.7899938224
0.7899941018
0.7899942316
0.7899943339
0.7899943856
0.7899943126
0.7899942792
0.789994223
0.789994079
0.7899937778
0.7899933895
0.7899930859
0.7899929739
0.7899929499
0.7899929404
0.7899929205
0.789992902
0.7899928319
0.7899927609
0.7899927207
0.7899927183
0.7899927004
0.7899932753
0.7899927755
0.7899927709
0.7899932288
0.7899938082
0.7899942227
0.7899932424
0.789993078
0.7899929909
0.7899929996
0.7899930384
0.7899931617
0.7899934232
0.7899937599
0.7899940453
0.7899941987
0.789994203
0.7899941909
0.7899941382
0.7899939779
0.7899936821
0.7899933235
0.789993051
0.7899929593
0.7899929347
0.7899929339
0.789992926
0.7899928807
0.7899928451
0.7899927157
0.7899925545
0.7899924937
0.7899924825
0.7899919087
0.7899929555
0.7899914519
0.7899912359
0.7899930383
0.789993867
0.7899942415
0.7899931279
0.78999303
0.7899930528
0.7899927537
0.7899930252
0.789992989
0.7899930306
0.7899931252
0.7899933601
0.7899936849
0.7899939846
0.7899940127
0.7899939565
0.7899938002
0.7899935343
0.7899932308
0.7899930155
0.7899929514
0.7899929441
0.7899929306
0.7899929089
0.78999289
0.7899928084
0.7899927839
0.7899926204
0.7899924677
0.7899926864
0.7899930263
0.789992704
0.7899920921
0.7899954405
0.7899823594
0.7899877388
0.7899916393
0.7899931254
0.7899930558
0.7899930507
0.7899934899
0.7899931263
0.789993045
0.7899930152
0.789993022
0.7899930505
0.7899931139
0.7899933224
0.7899935915
0.7899936488
0.7899935408
0.7899933334
0.7899931041
0.7899929167
0.7899928964
0.7899928766
0.7899928785
0.789992809
0.7899928347
0.789992834
0.7899926979
0.7899926232
0.7899925642
0.7899911802
0.7899920832
0.78999236
0.7899927423
0.789993312
0.7899923175
0.7899930515
0.7899935471
0.7899938417
0.7899941284
0.7899930777
0.7899930696
0.7899930979
0.7899930242
0.7899930457
0.789993022
0.7899929229
0.7899929854
0.7899929331
0.7899930392
0.7899931918
0.7899932464
0.7899931557
0.7899930387
0.7899929662
0.7899929285
0.7899929094
0.7899928811
0.7899928645
0.789992828
0.7899927764
0.7899927652
0.7899925666
0.7899923771
0.7899919169
0.7899910052
0.7899921441
0.7899924655
0.7899925027
0.7899931822
0.7899927454
0.789992677
0.7899930619
0.7899935685
0.7899939435
0.7899930992
0.7899930976
0.7899930971
0.7899930726
0.7899930782
0.7899930683
0.789993045
0.7899930574
0.7899930335
0.7899930329
0.7899930447
0.7899930421
0.7899929911
0.7899929203
0.7899929151
0.7899927249
0.7899928609
0.7899927831
0.7899928019
0.7899927695
0.7899926841
0.7899926527
0.7899922375
0.7899914529
0.7899909713
0.7899816544
0.7899888708
0.7899905726
0.7899917902
0.7899926797
0.7899928695
0.7899933547
0.7899935713
0.7899938491
0.7899941335
0.7899931197
0.7899931094
0.7899931005
0.789993094
0.7899930798
0.7899930578
0.7899930533
0.7899930413
0.7899930373
0.7899930287
0.7899930164
0.7899929969
0.7899929737
0.7899929474
0.7899928932
0.7899928576
0.7899927621
0.7899928265
0.7899928311
0.7899927433
0.7899925218
0.7899922266
0.7899919925
0.7899942426
0.7899902111
0.7899913962
0.7899919827
0.7899922453
0.7899925431
0.7899928037
0.7899933326
0.7899936706
0.7899939537
0.7899942455
0.7899931311
0.7899931182
0.7899931147
0.7899931042
0.7899930971
0.7899930802
0.789993076
0.7899930648
0.7899930548
0.7899930403
0.7899930198
0.7899929886
0.7899915636
0.789991186
0.7899917949
0.7899922051
0.7899924192
0.7899925916
0.7899927557
0.7899931602
0.7899935591
0.7899938939
0.7899942375
0.7899931217
0.789993109
0.7899931029
0.789993109
0.7899930823
0.7899930728
0.7899936346
0.789993826
0.7899935843
0.7899937087
0.7899936096
0.7899934303
0.7899931779
0.7899929952
0.7899929369
0.7899930671
0.7899931081
0.7899930863
0.7899930606
0.7899930767
0.7899931224
0.7899931772
0.7899932391
0.7899932709
0.7899933072
0.78999334
0.789993374
0.7899934083
0.7899934404
0.7899934693
0.7899934944
0.7899935156
0.789993533
0.789993547
0.7899935582
0.7899935669
0.7899935735
0.789993578
0.7899935808
0.7899935844
0.7899938392
0.7899940321
0.7899936381
0.7899939101
0.7899938044
0.789993757
0.7899935694
0.7899933903
0.7899932208
0.7899934556
0.7899934471
0.7899934483
0.7899933225
0.7899932019
0.7899931373
0.7899931396
0.7899932009
0.7899932402
0.7899932791
0.7899933092
0.7899933424
0.7899933821
0.789993421
0.7899934561
0.7899934857
0.78999351
0.7899935296
0.7899935451
0.7899935573
0.7899935666
0.7899935735
0.7899935779
0.7899935785
0.7899935801
0.7899940415
0.7899941685
0.7899939677
0.7899940882
0.7899938578
0.7899939019
0.7899938231
0.7899937709
0.789993668
0.7899937222
0.7899934487
0.7899935826
0.7899935989
0.7899934691
0.7899932938
0.7899931319
0.7899931493
0.7899932361
0.7899932822
0.7899932882
0.7899932984
0.789993333
0.7899933808
0.7899934294
0.7899934696
0.7899935013
0.7899935259
0.7899935448
0.7899935592
0.78999357
0.7899935775
0.7899935804
0.7899935748
0.7899935748
0.7899940546
0.7899942462
0.789994265
0.7899943301
0.7899939665
0.7899939802
0.7899939268
0.7899940149
0.7899939622
0.7899941457
0.7899936526
0.7899935676
0.7899936634
0.7899936918
0.7899936006
0.7899932669
0.7899931895
0.7899932643
0.7899934123
0.7899934209
0.7899933538
0.78999331
0.7899933218
0.7899933744
0.7899934277
0.7899934713
0.7899935044
0.7899935292
0.7899935475
0.7899935607
0.7899935697
0.7899935725
0.789993566
0.7899935658
0.7899940346
0.7899942632
0.7899945408
0.7899947151
0.789994387
0.7899941566
0.7899940371
0.789994191
0.7899940444
0.7899946974
0.7899939775
0.7899936262
0.7899936249
0.7899936814
0.7899938832
0.7899934296
0.7899934142
0.7899931517
0.7899934322
0.7899935561
0.7899935258
0.7899933915
0.7899933029
0.7899933109
0.7899933631
0.7899934209
0.7899934669
0.789993501
0.7899935255
0.7899935428
0.7899935541
0.7899935582
0.7899935523
0.7899935524
0.78999408
0.7899942847
0.7899947839
0.7899951036
0.7899948412
0.7899946237
0.7899943096
0.7899944205
0.7899944221
0.7899953424
0.7899942902
0.7899937103
0.7899937691
0.789993221
0.7899938244
0.7899934236
0.789993963
0.7899933585
0.789993437
0.7899935295
0.7899937247
0.7899935732
0.7899933933
0.7899932931
0.7899932937
0.7899933501
0.7899934101
0.789993458
0.7899934925
0.7899935161
0.7899935308
0.7899935368
0.789993532
0.7899935327
0.7899942021
0.7899944282
0.7899950481
0.7899955407
0.7899954093
0.7899956637
0.7899947646
0.7899946878
0.7899948103
0.7899957226
0.7899945591
0.789993663
0.7899941414
0.7899932562
0.7899935528
0.7899934612
0.7899948724
0.7899942252
0.7899937717
0.7899935201
0.789993724
0.7899936912
0.789993528
0.789993355
0.7899932652
0.7899932756
0.7899933328
0.7899933949
0.7899934439
0.7899934773
0.7899934966
0.7899935049
0.7899935019
0.789993503
0.789994414
0.7899946821
0.7899954116
0.7899963127
0.7899960449
0.7899969367
0.7899951656
0.7899949652
0.7899951275
0.7899956839
0.7899949247
0.7899939126
0.7899946611
0.7899932325
0.7899935168
0.7899935983
0.7899950377
0.7899946169
0.789994045
0.7899938096
0.7899938289
0.7899937798
0.7899936488
0.7899934799
0.789993336
0.7899932655
0.7899932657
0.7899933144
0.7899933748
0.7899934214
0.7899934461
0.7899934563
0.789993456
0.7899934569
0.7899945996
0.7899949068
0.7899957876
0.7899974936
0.7899964709
0.7900029369
0.7899958923
0.7899961314
0.7899954182
0.7899955086
0.7899949342
0.7899940447
0.7899944054
0.7899938068
0.78999394
0.7899939164
0.7899949392
0.7899947795
0.7899943855
0.7899940866
0.789993911
0.7899937768
0.7899936873
0.7899935934
0.7899934922
0.7899933921
0.7899933027
0.7899932653
0.7899932932
0.7899933449
0.7899933743
0.7899933847
0.7899933864
0.7899933825
0.7899946236
0.7899948861
0.789995614
0.7899969876
0.7899963847
0.790001308
0.7899950712
0.7899956718
0.7899953614
0.789995183
0.7899947475
0.7899942294
0.7899945622
0.7899939481
0.7899940186
0.7899937716
0.7899943151
0.7899944503
0.7899943424
0.7899940942
0.7899938752
0.7899937874
0.7899937385
0.789993704
0.789993653
0.7899935834
0.7899934772
0.7899933413
0.7899932546
0.7899932609
0.7899932951
0.7899933044
0.7899932962
0.7899932693
0.7899944227
0.7899946338
0.7899945944
0.7899958569
0.7899961434
0.7899976902
0.7899941774
0.7899945643
0.7899946826
0.7899949047
0.7899945754
0.7899943666
0.7899942303
0.7899940347
0.7899939332
0.7899937252
0.7899943022
0.7899945041
0.7899943718
0.7899940401
0.7899937266
0.7899936179
0.7899936246
0.7899936587
0.7899936632
0.7899936545
0.7899936261
0.7899935137
0.7899933308
0.7899932292
0.789993267
0.789993284
0.7899932414
0.7899931596
0.7899942962
0.7899943767
0.7899945577
0.7899951068
0.7899959089
0.7899957084
0.7899940124
0.7899942414
0.7899942074
0.789994435
0.7899943285
0.7899941439
0.7899940095
0.7899938022
0.7899938036
0.7899936276
0.7899938971
0.7899941081
0.7899940631
0.7899935586
0.7899936386
0.7899935242
0.7899936236
0.7899936568
0.7899936544
0.7899935928
0.7899936182
0.7899936234
0.7899934865
0.7899933263
0.7899933439
0.7899933751
0.7899933184
0.7899932113
0.7899947066
0.7899941101
0.7899943639
0.7899944582
0.78999509
0.7899940612
0.7899938049
0.7899940277
0.789992982
0.7899943539
0.7899940305
0.7899942582
0.7899940817
0.7899939476
0.7899937298
0.7899936614
0.7899935642
0.7899936233
0.7899934139
0.7899929563
0.7899940085
0.7899941664
0.7899941282
0.789994031
0.7899939614
0.7899937648
0.7899935609
0.78999359
0.7899935842
0.7899934853
0.7899934631
0.789993487
0.7899934961
0.7899934958
0.7899950467
0.7899942959
0.7899939124
0.7899940899
0.7899942527
0.7899938978
0.7899936784
0.7899941566
0.789994235
0.789994348
0.7899946557
0.7899947561
0.7899943984
0.7899942266
0.78999369
0.7899936102
0.789993482
0.7899932656
0.7899934817
0.7899934225
0.7899945993
0.7899948337
0.7899947003
0.7899945167
0.7899943549
0.7899941097
0.7899937549
0.7899935937
0.7899936138
0.7899935827
0.7899935126
0.7899935016
0.7899936209
0.7899938108
0.7899953037
0.7899944606
0.7899939413
0.7899938427
0.789993962
0.7899936596
0.7899937754
0.7899939989
0.7899939776
0.7899944589
0.7899947938
0.7899949516
0.7899943606
0.7899943688
0.7899935894
0.789993539
0.7899933327
0.7899936358
0.7899945573
0.7899949923
0.7899949685
0.7899950173
0.7899949719
0.7899948961
0.7899947352
0.7899944286
0.7899939538
0.7899936448
0.7899936206
0.7899936039
0.7899935153
0.7899935124
0.7899936421
0.7899939713
0.7899953005
0.7899945711
0.7899940939
0.7899939401
0.789993922
0.7899936596
0.7899939196
0.7899938118
0.7899940304
0.789994576
0.7899949652
0.7899949377
0.789994385
0.7899941105
0.7899929106
0.7899927911
0.7899934469
0.789994652
0.78999522
0.789995477
0.7899949252
0.789994512
0.7899947024
0.7899948877
0.7899947807
0.7899944605
0.7899939577
0.7899937325
0.7899936505
0.7899937162
0.7899938911
0.7899938719
0.7899937519
0.7899940083
0.7899950325
0.7899944196
0.7899941019
0.7899938489
0.7899938272
0.7899937511
0.7899937591
0.7899935833
0.7899939562
0.7899947552
0.7899950638
0.7899948213
0.7899941174
0.7899941139
0.7899974614
0.7899914437
0.7899931828
0.7899941468
0.7899944805
0.7899936183
0.7899933635
0.7899943289
0.7899948011
0.789994637
0.7899941836
0.7899937832
0.7899936662
0.7899936943
0.7899939321
0.7899942365
0.7899943421
0.7899942422
0.78999396
0.7899940062
0.7899946185
0.7899940183
0.7899939675
0.7899938632
0.7899938051
0.7899937173
0.7899935669
0.7899937751
0.7899945061
0.7899954596
0.7899956675
0.7899951576
0.7899946719
0.7899945521
0.7899940404
0.7899955982
0.789994422
0.7899941445
0.7899936836
0.7899933879
0.789993335
0.7899935981
0.7899937609
0.7899937355
0.789993674
0.7899936308
0.7899935712
0.7899938652
0.7899946248
0.7899949046
0.7899948575
0.7899946046
0.7899940968
0.7899939641
0.789994609
0.7899940327
0.7899939274
0.7899936861
0.7899937571
0.7899935597
0.7899935783
0.7899941067
0.7899952656
0.7899960127
0.789996074
0.7899955781
0.7899946774
0.7899942991
0.7899936247
0.7899934297
0.7899935713
0.7899936344
0.7899934303
0.789993271
0.7899932137
0.7899933346
0.7899934613
0.7899934762
0.7899934855
0.7899934127
0.7899934589
0.7899939351
0.7899944294
0.7899946752
0.789994668
0.7899944727
0.7899939392
0.7899939645
0.7899939235
0.789993821
0.7899937201
0.7899934758
0.7899936667
0.7899935185
0.7899935681
0.789993963
0.7899953636
0.7899959914
0.7899960055
0.7899955292
0.7899947391
0.7899941004
0.7899937165
0.7899938059
0.7899937666
0.7899936353
0.7899933787
0.7899932078
0.7899931452
0.7899932349
0.7899933771
0.7899933964
0.7899933084
0.7899931883
0.7899932457
0.7899934055
0.7899937903
0.7899940198
0.7899939188
0.7899937762
0.789993731
0.7899938895
0.7899938185
0.7899936344
0.7899934404
0.7899932681
0.7899934884
0.7899935307
0.7899935167
0.7899936334
0.7899945161
0.789995189
0.7899951961
0.7899942938
0.7899940629
0.7899937089
0.7899935686
0.7899936486
0.7899936077
0.7899934456
0.7899932588
0.789993196
0.7899931848
0.7899932308
0.7899932752
0.7899932574
0.7899931549
0.7899930843
0.7899931159
0.7899932044
0.7899933644
0.7899935406
0.7899936553
0.789993587
0.7899935719
0.7899936715
0.7899936547
0.7899934012
0.7899932577
0.7899931653
0.7899933261
0.7899934454
0.7899935199
0.7899935171
0.7899937386
0.7899941399
0.7899942692
0.789993923
0.7899936657
0.7899935764
0.7899935905
0.7899935753
0.7899934345
0.7899932983
0.7899932411
0.7899932652
0.7899932736
0.7899932832
0.7899932521
0.7899932115
0.789993123
0.7899930594
0.7899929648
0.7899928091
0.7899931346
0.7899934069
0.7899935901
0.7899935494
0.7899935314
0.7899939376
0.7899934049
0.7899932685
0.7899932208
0.7899932103
0.7899932686
0.7899933322
0.7899934376
0.7899934999
0.7899935092
0.789993609
0.789993704
0.7899935613
0.789993558
0.7899935795
0.7899935432
0.7899934149
0.7899933026
0.7899932775
0.7899932955
0.7899933269
0.7899933338
0.7899933309
0.7899933087
0.7899932667
0.7899932214
0.789993168
0.7899931279
0.7899930313
0.7899934901
0.7899941609
0.7899940421
0.7899939113
0.7899941979
0.7899943041
0.7899933163
0.7899932962
0.789993332
0.7899933245
0.7899933433
0.7899933251
0.7899933633
0.789993436
0.7899935027
0.789993513
0.7899935304
0.7899935257
0.7899935421
0.7899934785
0.7899933589
0.7899932672
0.7899932688
0.789993302
0.789993298
0.7899933414
0.7899933582
0.7899933423
0.789993338
0.7899932541
0.7899931042
0.7899928661
0.7899927413
0.7899909138
0.7899927408
0.7899936278
0.7899940573
0.7899949432
0.7899950121
0.7899947839
0.7899933353
0.7899933314
0.7899934431
0.7899935042
0.7899934054
0.7899933613
0.7899933292
0.7899933175
0.7899933142
0.7899933904
0.7899934643
0.7899934852
0.7899934755
0.7899934186
0.7899933232
0.789993274
0.7899932808
0.7899933213
0.7899933529
0.7899933637
0.7899933704
0.7899933774
0.7899933535
0.7899934395
0.7899934673
0.7899933095
0.7899932635
0.7899935271
0.7899942659
0.7899957821
0.7899986167
0.790003307
0.7899967524
0.7899954923
0.7899949509
0.7899934238
0.7899934623
0.7899940554
0.789993557
0.7899935218
0.7899934933
0.789993454
0.7899934503
0.7899933928
0.7899933876
0.7899934147
0.7899934104
0.7899933538
0.7899932912
0.7899932541
0.7899932035
0.7899932688
0.7899932655
0.7899933071
0.7899929105
0.7899932708
0.7899933476
0.7899933168
0.7899935954
0.7899936739
0.7899931416
0.789992836
0.7899932216
0.7899929812
0.7899935411
0.7899939559
0.7899951327
0.7899954174
0.7899948595
0.7899944666
0.7899934829
0.7899934888
0.7899935788
0.7899935063
0.789993459
0.7899934402
0.789993337
0.7899933893
0.7899933492
0.7899932881
0.7899933057
0.7899933287
0.7899933132
0.7899933137
0.7899933146
0.7899933018
0.7899933148
0.7899932989
0.7899933097
0.7899932934
0.7899932981
0.7899933712
0.7899934249
0.7899935386
0.7899939753
0.7899932738
0.7899931518
0.7899932571
0.7899932931
0.7899937854
0.7899945078
0.7899943533
0.7899938089
0.7899934976
0.7899938746
0.7899935303
0.7899935427
0.7899935489
0.7899935588
0.7899935269
0.7899935454
0.789993498
0.7899935125
0.7899934733
0.7899934485
0.7899934119
0.7899933873
0.7899933591
0.7899932785
0.7899933086
0.7899926293
0.7899932947
0.7899931408
0.7899932137
0.7899931649
0.7899931478
0.7899932957
0.7899933648
0.7899936477
0.7899973617
0.7899900538
0.7899914645
0.7899924133
0.7899926121
0.7899928995
0.7899931738
0.7899934338
0.7899933238
0.7899932525
0.7899936008
0.7899935601
0.789993544
0.7899935451
0.7899935266
0.7899935161
0.7899934722
0.7899934814
0.7899934615
0.7899934584
0.7899934431
0.7899934324
0.7899934147
0.7899933939
0.7899933671
0.7899932794
0.789993263
0.7899930024
0.7899931328
0.7899930877
0.7899931069
0.7899931777
0.789993724
0.7899951217
0.7900024093
0.7899939292
0.7899927546
0.7899928091
0.7899929084
0.7899929712
0.7899930495
0.789993159
0.7899932605
0.789993321
0.7899934413
0.7899935673
0.78999354
0.7899935582
0.7899935297
0.7899935368
0.7899935004
0.7899935125
0.7899934945
0.7899934906
0.7899934716
0.7899934542
0.7899934178
0.7899944413
0.7899930091
0.7899928979
0.7899929368
0.7899929523
0.7899929497
0.78999292
0.7899930009
0.7899932147
0.7899934305
0.7899936003
0.7899935429
0.789993508
0.7899935174
0.7899934606
0.789993492
0.7899934823
0.7899935594
0.7899937141
0.7899934491
0.7899934527
0.7899933634
0.789993249
0.789993153
0.7899931296
0.789993184
0.7899932167
0.7899932486
0.7899932825
0.7899933358
0.7899934064
0.789993475
0.7899935327
0.7899935827
0.7899936118
0.7899936434
0.7899936754
0.789993708
0.7899937394
0.7899937676
0.7899937921
0.7899938128
0.7899938301
0.7899938444
0.7899938562
0.7899938657
0.7899938732
0.7899938788
0.7899938828
0.7899938854
0.7899938893
0.7899939676
0.7899941023
0.7899938139
0.7899936889
0.7899936002
0.789993513
0.7899933947
0.7899932854
0.7899932348
0.7899933374
0.7899933762
0.7899933817
0.7899933705
0.7899933867
0.7899934303
0.7899934846
0.7899935423
0.7899935716
0.7899936053
0.7899936408
0.789993679
0.7899937172
0.7899937512
0.7899937802
0.7899938041
0.7899938235
0.7899938393
0.7899938521
0.7899938622
0.7899938701
0.789993876
0.7899938797
0.789993881
0.7899938848
0.7899942307
0.7899943684
0.7899942439
0.7899939327
0.789993732
0.7899936579
0.7899935719
0.7899934796
0.7899933765
0.7899934408
0.7899934727
0.7899934874
0.7899934588
0.7899934097
0.7899933957
0.7899934084
0.7899934709
0.7899935143
0.7899935516
0.7899935867
0.7899936293
0.7899936796
0.7899937261
0.7899937654
0.7899937966
0.7899938208
0.7899938397
0.7899938545
0.789993866
0.7899938747
0.7899938806
0.7899938819
0.7899938774
0.7899938801
0.7899943154
0.7899945849
0.7899947612
0.7899943256
0.7899939709
0.7899937427
0.7899936852
0.7899936639
0.7899935868
0.7899936958
0.7899936573
0.7899936227
0.7899935819
0.7899935097
0.7899934372
0.7899933478
0.7899933927
0.7899934705
0.7899935266
0.789993547
0.7899935703
0.7899936168
0.7899936734
0.7899937274
0.7899937703
0.7899938028
0.7899938272
0.7899938456
0.7899938595
0.7899938697
0.7899938761
0.7899938761
0.7899938698
0.7899938724
0.7899941994
0.7899946242
0.7899951434
0.7899947699
0.789994343
0.7899938224
0.7899937501
0.789993771
0.7899937255
0.7899941803
0.7899938339
0.7899936665
0.7899936242
0.7899935759
0.7899935289
0.7899933461
0.7899934552
0.7899934822
0.7899935549
0.7899935701
0.7899935572
0.7899935635
0.7899936029
0.7899936655
0.7899937234
0.7899937685
0.7899938017
0.789993826
0.7899938437
0.7899938563
0.789993864
0.7899938645
0.7899938583
0.7899938611
0.7899939005
0.7899943537
0.7899951422
0.7899951088
0.7899946528
0.7899939086
0.789993815
0.789993886
0.7899939968
0.7899950337
0.7899941325
0.789993747
0.7899936631
0.789993665
0.7899936103
0.7899934238
0.7899938324
0.7899937273
0.7899936236
0.7899936178
0.7899936077
0.7899935658
0.7899935553
0.7899935943
0.7899936569
0.7899937167
0.7899937626
0.789993796
0.7899938198
0.7899938362
0.789993846
0.7899938475
0.7899938418
0.789993845
0.7899938331
0.7899942476
0.7899950619
0.7899953501
0.7899949159
0.789993784
0.7899938346
0.7899939983
0.7899944124
0.7899955773
0.7899944108
0.7899936708
0.7899936001
0.7899937682
0.7899936181
0.7899934553
0.7899943903
0.7899942938
0.7899939333
0.7899937348
0.7899936729
0.7899936112
0.7899935546
0.7899935405
0.7899935793
0.7899936446
0.7899937055
0.7899937522
0.7899937854
0.7899938075
0.7899938203
0.789993823