/*--------------------------------*- C++ -*----------------------------------*\
  =========                 |
  \\      /  F ield         | OpenFOAM: The Open Source CFD Toolbox
   \\    /   O peration     | Website:  https://openfoam.org
    \\  /    A nd           | Version:  8
     \\/     M anipulation  |
\*---------------------------------------------------------------------------*/
FoamFile
{
    version     2.0;
    format      ascii;
    class       volScalarField;
    location    "0.4";
    object      p;
}
// * * * * * * * * * * * * * * * * * * * * * * * * * * * * * * * * * * * * * //

dimensions      [1 -1 -2 0 0 0 0];

internalField   nonuniform List<scalar> 
67193
(
100003.8445
100003.856
100003.8563
100003.8863
100003.8902
100003.8857
100003.8797
100003.8782
100003.8606
100003.9091
100003.9028
100003.9027
100003.8815
100003.8577
100003.8329
100003.8129
100003.7863
100003.7945
100003.7788
100003.7666
100003.752
100003.7393
100003.729
100003.7209
100003.7145
100003.7095
100003.7057
100003.7026
100003.7003
100003.6985
100003.6972
100003.6963
100003.6957
100003.6955
100003.7821
100003.7886
100003.7801
100003.7965
100003.8107
100003.821
100003.8273
100003.8238
100003.8071
100003.7934
100003.7611
100003.7944
100003.8054
100003.8146
100003.8146
100003.8076
100003.7823
100003.7831
100003.7761
100003.7678
100003.7543
100003.7417
100003.731
100003.7224
100003.7156
100003.7104
100003.7063
100003.7032
100003.7008
100003.699
100003.6977
100003.6968
100003.6962
100003.696
100003.7953
100003.8017
100003.7856
100003.7779
100003.7913
100003.8137
100003.8152
100003.8056
100003.7581
100003.6874
100003.6721
100003.7251
100003.7518
100003.7706
100003.7876
100003.797
100003.7748
100003.7578
100003.7647
100003.764
100003.7582
100003.7473
100003.7359
100003.7259
100003.7182
100003.7124
100003.708
100003.7046
100003.7021
100003.7002
100003.6988
100003.6979
100003.6973
100003.6971
100003.7886
100003.7944
100003.7791
100003.7654
100003.7671
100003.8375
100003.8147
100003.8183
100003.6908
100003.6516
100003.6554
100003.6866
100003.7077
100003.7167
100003.7434
100003.7696
100003.7525
100003.7036
100003.7335
100003.7391
100003.7462
100003.7455
100003.7395
100003.7301
100003.7217
100003.7153
100003.7105
100003.7068
100003.704
100003.702
100003.7006
100003.6997
100003.6991
100003.6989
100003.7774
100003.7824
100003.786
100003.8202
100003.761
100003.9818
100003.8618
100003.8865
100003.677
100003.8675
100003.7595
100003.7077
100003.681
100003.6426
100003.6964
100003.7507
100003.727
100003.628
100003.6873
100003.6979
100003.7216
100003.7343
100003.737
100003.7327
100003.7255
100003.7189
100003.7138
100003.7098
100003.7068
100003.7046
100003.7031
100003.7021
100003.7016
100003.7014
100003.7638
100003.7638
100003.8001
100003.9402
100003.788
100004.3047
100003.961
100004.0486
100003.8259
100004.1405
100003.9197
100003.7753
100003.75
100003.5912
100003.6813
100003.7702
100003.7436
100003.6418
100003.6559
100003.6337
100003.6819
100003.7149
100003.7273
100003.7294
100003.7273
100003.7225
100003.7177
100003.7137
100003.7104
100003.708
100003.7063
100003.7054
100003.7048
100003.7048
100003.7843
100003.7813
100003.8446
100004.1441
100003.877
100004.8297
100004.0542
100004.2954
100003.9891
100004.2402
100003.985
100003.8679
100003.9927
100003.708
100003.6966
100003.8658
100003.9994
100003.9615
100003.8433
100003.6562
100003.6573
100003.6993
100003.7192
100003.7235
100003.7246
100003.7239
100003.7216
100003.7183
100003.715
100003.7123
100003.7104
100003.7096
100003.7089
100003.7091
100003.8488
100003.8387
100003.9351
100004.4787
100004.2099
100006.4195
100003.9613
100004.5517
100004.1438
100004.1873
100004.0615
100003.9137
100004.351
100004.143
100003.7134
100003.8733
100004.0784
100003.9665
100003.78
100003.6797
100003.6653
100003.7004
100003.7146
100003.716
100003.7173
100003.7199
100003.7224
100003.7228
100003.7204
100003.7174
100003.7152
100003.7146
100003.714
100003.7147
100003.931
100003.9144
100004.0449
100004.7532
100005.1567
100011.2231
100003.9374
100004.66
100004.1995
100004.1822
100003.9232
100003.7493
100004.2215
100004.0018
100003.5965
100003.7587
100003.8669
100003.7833
100003.745
100003.7403
100003.7087
100003.7064
100003.7051
100003.7034
100003.7061
100003.7113
100003.7172
100003.7226
100003.7253
100003.7232
100003.7203
100003.7203
100003.7197
100003.7215
100004.0056
100003.9755
100004.019
100004.3639
100004.5677
100006.8577
100003.5207
100003.9802
100004.1073
100004.0373
100003.8437
100003.6905
100003.7841
100003.7039
100003.6369
100003.7711
100003.7862
100003.8048
100003.8652
100003.8033
100003.7375
100003.7031
100003.6888
100003.6836
100003.6888
100003.6984
100003.7086
100003.7173
100003.7251
100003.728
100003.7245
100003.7251
100003.7252
100003.729
100003.9827
100004.0282
100003.8653
100003.9598
100004.3194
100004.6905
100003.5669
100003.701
100003.8222
100003.8065
100003.7793
100003.7539
100003.7272
100003.7558
100003.7721
100003.8097
100003.8018
100003.8235
100003.8109
100003.767
100003.7118
100003.6578
100003.6472
100003.6461
100003.6601
100003.6774
100003.695
100003.7093
100003.7201
100003.727
100003.7259
100003.7267
100003.7269
100003.7351
100003.8826
100003.9539
100003.9997
100004.0541
100004.0693
100004.1449
100003.7213
100003.8615
100003.8824
100003.796
100003.8191
100003.7898
100003.8084
100003.8097
100003.8228
100003.8444
100003.8314
100003.8115
100003.7682
100003.7316
100003.6801
100003.6595
100003.6559
100003.6399
100003.6381
100003.6519
100003.6774
100003.6999
100003.7152
100003.7239
100003.7257
100003.7275
100003.7267
100003.7391
100003.8984
100003.8343
100003.8915
100003.8856
100003.8297
100003.7543
100003.7808
100003.8382
100004.0872
100003.7999
100003.9167
100003.7948
100003.873
100003.8144
100003.9075
100003.9047
100003.8873
100003.8016
100003.7461
100003.7501
100003.7677
100003.8343
100003.804
100003.7356
100003.6838
100003.6588
100003.6665
100003.6936
100003.7142
100003.7259
100003.7296
100003.7314
100003.7294
100003.7448
100003.9427
100003.8091
100003.782
100003.8416
100003.8099
100003.8252
100003.839
100003.8544
100003.7855
100003.7802
100003.821
100003.7613
100003.8925
100003.8235
100004.0397
100004.0433
100004.0147
100003.8123
100003.9234
100003.9137
100004.0634
100004.0745
100003.9624
100003.8382
100003.7459
100003.6917
100003.6756
100003.6992
100003.7231
100003.7347
100003.7355
100003.7359
100003.7341
100003.7554
100003.9958
100003.824
100003.7556
100003.8057
100003.8184
100003.8581
100003.879
100003.8528
100003.8345
100003.7976
100003.8908
100003.7782
100004.1152
100003.8904
100004.5235
100004.5388
100004.2426
100004.0214
100004.2076
100004.234
100004.2194
100004.1084
100003.9535
100003.8385
100003.7701
100003.7286
100003.7095
100003.7232
100003.7432
100003.7445
100003.735
100003.7362
100003.7393
100003.7702
100004.0296
100003.8341
100003.7501
100003.7924
100003.8106
100003.8685
100003.8688
100003.8018
100003.7781
100003.7831
100003.8672
100003.7756
100003.968
100003.9181
100004.576
100004.5313
100004.1728
100003.9869
100004.2387
100004.2629
100004.1102
100003.9243
100003.8321
100003.7949
100003.7618
100003.7315
100003.7302
100003.7671
100003.7749
100003.7652
100003.7612
100003.7596
100003.7567
100003.7941
100004.0118
100003.8307
100003.7774
100003.8463
100003.8559
100003.8841
100003.8208
100003.7832
100003.7715
100003.8138
100004.0013
100003.8341
100004.5996
100004.8908
100007.1743
100009.6904
100005.7463
100004.6125
100004.2221
100003.9557
100003.8043
100003.7863
100003.7804
100003.7615
100003.74
100003.7433
100003.7837
100003.7993
100003.7911
100003.795
100003.8047
100003.8041
100003.7904
100003.8266
100003.9952
100003.787
100003.7713
100003.8507
100003.8636
100003.8521
100003.7814
100003.7545
100003.7661
100003.8087
100003.8219
100003.755
100003.7167
100003.6618
100003.7549
100003.6352
100003.7229
100003.7694
100003.7758
100003.7569
100003.7466
100003.7388
100003.7275
100003.729
100003.7458
100003.7829
100003.812
100003.8154
100003.8122
100003.8465
100003.857
100003.8554
100003.8373
100003.8708
100003.8714
100003.757
100003.7747
100003.8465
100003.8408
100003.7932
100003.7544
100003.7476
100003.7875
100003.8486
100003.8816
100003.865
100003.9901
100003.8939
100004.332
100004.3375
100004.1033
100003.9145
100003.8162
100003.7753
100003.7671
100003.7669
100003.7613
100003.7672
100003.779
100003.8028
100003.8168
100003.8107
100003.831
100003.8711
100003.8902
100003.8963
100003.9001
100003.9049
100003.6942
100003.7435
100003.7724
100003.8156
100003.7966
100003.7611
100003.7393
100003.7354
100003.7785
100003.8333
100003.838
100003.8158
100003.7683
100003.7276
100003.7625
100003.7661
100003.7851
100003.7771
100003.7624
100003.7682
100003.7742
100003.779
100003.7751
100003.786
100003.8008
100003.8201
100003.8384
100003.8422
100003.8349
100003.8895
100003.9038
100003.9434
100003.9371
100003.9258
100003.7381
100003.7717
100003.7732
100003.7905
100003.7656
100003.7448
100003.7284
100003.7209
100003.738
100003.7804
100003.774
100003.8117
100003.7341
100003.7218
100003.7548
100003.7572
100003.7572
100003.7553
100003.7566
100003.7727
100003.7815
100003.7874
100003.7891
100003.8083
100003.8311
100003.854
100003.8805
100003.91
100003.9018
100004.0113
100004.0371
100004.0458
100003.9923
100003.9766
100003.7537
100003.7761
100003.7688
100003.7709
100003.7495
100003.7379
100003.7254
100003.716
100003.7149
100003.727
100003.7268
100003.7295
100003.7137
100003.719
100003.7362
100003.7458
100003.7528
100003.7584
100003.7659
100003.7793
100003.786
100003.7956
100003.8067
100003.8405
100003.8835
100003.9243
100003.9818
100004.0782
100003.987
100004.1806
100004.1881
100004.1791
100004.1104
100004.0956
100003.7637
100003.7712
100003.7718
100003.759
100003.7462
100003.7381
100003.7283
100003.7216
100003.7155
100003.7164
100003.715
100003.7216
100003.7196
100003.7307
100003.7424
100003.7523
100003.7608
100003.7691
100003.7786
100003.7872
100003.7957
100003.8109
100003.8267
100003.8711
100003.9056
100003.9235
100003.9543
100004.1128
100003.9159
100004.3162
100004.6497
100004.5591
100004.361
100004.2988
100003.7635
100003.7743
100003.7675
100003.753
100003.7482
100003.7417
100003.7326
100003.7293
100003.724
100003.7215
100003.7207
100003.7299
100003.7382
100003.751
100003.7633
100003.7742
100003.7828
100003.7895
100003.8026
100003.8054
100003.8103
100003.8389
100003.8542
100003.934
100004.0408
100004.0851
100004.1753
100004.7695
100004.0275
100004.115
100005.0996
100004.7291
100004.5226
100004.4536
100003.7478
100003.7679
100003.7294
100003.9326
100003.7385
100003.7686
100003.7527
100003.7498
100003.7473
100003.7413
100003.7381
100003.7375
100003.7472
100003.7572
100003.7694
100003.7819
100003.7902
100003.7949
100003.798
100003.8084
100003.8223
100003.8322
100003.8821
100003.8899
100004.0077
100004.1
100004.0833
100004.0078
100004.3052
100004.0242
100005.5444
100010.3083
100007.7123
100005.9441
100005.2876
100003.7371
100003.7374
100003.7454
100003.7638
100003.732
100003.7542
100003.7523
100003.7394
100003.7481
100003.7456
100003.7476
100003.7527
100003.7639
100003.7798
100003.7977
100003.8403
100003.8322
100003.8447
100003.8429
100003.8889
100003.8693
100003.8599
100003.9509
100003.9804
100004.1869
100004.934
100004.3671
100004.3606
100004.2454
100003.9639
100003.988
100004.089
100004.3157
100004.2842
100004.2984
100003.7067
100003.7169
100003.7049
100003.7372
100003.7345
100003.7558
100003.8226
100003.7801
100003.8204
100003.7849
100003.7735
100003.769
100003.7766
100003.787
100003.7968
100003.8127
100003.8249
100003.8428
100003.8509
100003.8712
100003.9003
100003.8965
100004.0213
100004.0582
100004.0362
100004.3916
100004.2307
100004.118
100004.2181
100003.9238
100004.2788
100004.5775
100004.5005
100004.3015
100004.2811
100003.7052
100003.7062
100003.7096
100003.7227
100003.7226
100003.7289
100003.7445
100003.7353
100003.7501
100003.7524
100003.7595
100003.7693
100003.7874
100003.8232
100003.8215
100003.9538
100003.8573
100003.9047
100003.8877
100003.9051
100003.9535
100003.9341
100004.2008
100004.2187
100005.2092
100011.8232
100005.8203
100005.2732
100004.568
100004.1325
100004.1616
100004.0858
100004.1199
100004.0872
100004.0894
100003.6951
100003.6994
100003.7079
100003.7131
100003.7237
100003.7385
100003.7414
100003.7487
100003.7501
100003.7553
100003.7628
100003.7735
100003.7871
100003.8025
100003.8348
100003.8532
100003.9228
100003.9037
100003.9337
100003.9843
100004.0198
100004.1768
100003.9599
100005.8501
100005.2428
100004.5652
100004.3349
100004.2253
100004.09
100004.1016
100004.0319
100004.038
100004.0438
100004.0747
100003.6891
100003.6972
100003.7003
100003.7075
100003.7126
100003.7234
100003.727
100003.7342
100003.7405
100003.749
100003.7612
100003.7798
100004.3141
100004.729
100004.4788
100004.251
100004.1241
100004.0176
100004.0066
100003.9919
100004.0163
100004.0404
100004.0627
100003.6945
100003.7013
100003.7074
100003.7174
100003.7219
100003.7275
100003.6232
100003.6234
100003.6143
100003.6265
100003.637
100003.6621
100003.6882
100003.6824
100003.6454
100003.585
100003.5363
100003.5617
100003.5947
100003.6189
100003.6314
100003.6315
100003.6213
100003.6094
100003.6035
100003.6011
100003.5995
100003.597
100003.5942
100003.5909
100003.5876
100003.5845
100003.5818
100003.5795
100003.5776
100003.5761
100003.575
100003.5742
100003.5737
100003.5735
100003.5937
100003.5799
100003.5771
100003.5602
100003.5696
100003.5905
100003.6348
100003.6277
100003.5749
100003.4349
100003.3858
100003.4061
100003.484
100003.553
100003.6026
100003.6182
100003.6111
100003.586
100003.5848
100003.5879
100003.5924
100003.5934
100003.5927
100003.5904
100003.5876
100003.5848
100003.5821
100003.5799
100003.578
100003.5766
100003.5754
100003.5747
100003.5742
100003.574
100003.6011
100003.5845
100003.5729
100003.5411
100003.5373
100003.5543
100003.6027
100003.5658
100003.4558
100003.3448
100003.4021
100003.3342
100003.3467
100003.4181
100003.5243
100003.5905
100003.5917
100003.513
100003.5344
100003.558
100003.5789
100003.5869
100003.5905
100003.5897
100003.5878
100003.5854
100003.5829
100003.5807
100003.5789
100003.5775
100003.5764
100003.5756
100003.5752
100003.575
100003.5881
100003.5614
100003.539
100003.5116
100003.4737
100003.4772
100003.5415
100003.4702
100003.3444
100003.3521
100003.4038
100003.3608
100003.31
100003.2595
100003.3572
100003.502
100003.5328
100003.3953
100003.406
100003.4439
100003.5226
100003.5614
100003.5826
100003.587
100003.5877
100003.5862
100003.5842
100003.5821
100003.5804
100003.5789
100003.5779
100003.5772
100003.5768
100003.5766
100003.5583
100003.5202
100003.502
100003.4777
100003.4097
100003.3586
100003.446
100003.3934
100003.302
100003.3988
100003.4042
100003.3557
100003.3032
100003.2266
100003.1434
100003.391
100003.4503
100003.3974
100003.3849
100003.3478
100003.4367
100003.5159
100003.5669
100003.5812
100003.5871
100003.5871
100003.5857
100003.584
100003.5823
100003.581
100003.58
100003.5794
100003.579
100003.5789
100003.511
100003.4632
100003.4275
100003.3964
100003.2831
100003.0704
100003.2722
100003.3431
100003.3212
100003.4422
100003.433
100003.3907
100003.2588
100003.3828
100003.0622
100003.2499
100003.3851
100003.4123
100003.4035
100003.37
100003.3426
100003.4465
100003.5359
100003.5688
100003.5844
100003.5874
100003.5875
100003.5862
100003.5848
100003.5836
100003.5827
100003.5822
100003.5819
100003.5819
100003.4688
100003.3967
100003.3219
100003.2328
100003.1182
100002.3067
100002.9521
100003.2455
100003.2968
100003.4643
100003.4356
100003.4369
100003.2515
100003.3918
100003.1575
100003.1838
100003.4276
100003.4758
100003.4543
100003.4613
100003.392
100003.4199
100003.51
100003.5532
100003.5773
100003.5854
100003.5882
100003.5884
100003.5877
100003.5867
100003.586
100003.5857
100003.5855
100003.5858
100003.4346
100003.3246
100003.1871
100002.9352
100002.9903
100001.3542
100002.55
100002.9477
100003.3024
100003.4062
100003.4547
100003.4249
100003.381
100003.5528
100003.2676
100003.2159
100003.4099
100003.4763
100003.3972
100003.4014
100003.3912
100003.4244
100003.4957
100003.5339
100003.5607
100003.5754
100003.5847
100003.5892
100003.5904
100003.5903
100003.5899
100003.59
100003.5899
100003.5907
100003.4185
100003.262
100003.0335
100002.3553
100002.7682
99997.38029
100001.8354
100002.1403
100003.1177
100003.3428
100003.3312
100003.3358
100003.3933
100003.4098
100003.1336
100003.2684
100003.417
100003.5114
100003.4632
100003.4966
100003.5002
100003.494
100003.4993
100003.5097
100003.5273
100003.5467
100003.5662
100003.5819
100003.5906
100003.5933
100003.5937
100003.5948
100003.5948
100003.5969
100003.4465
100003.2784
100003.1206
100002.6679
100002.9067
100001.7278
100002.2607
100002.3895
100003.0947
100003.3641
100003.43
100003.4847
100003.443
100003.5217
100003.3316
100003.5199
100003.4792
100003.5113
100003.4872
100003.4558
100003.4643
100003.4294
100003.4321
100003.4437
100003.4705
100003.4975
100003.5264
100003.5574
100003.5816
100003.5939
100003.5964
100003.5989
100003.5997
100003.6043
100003.4424
100003.3603
100003.2289
100003.0417
100003.2985
100002.8444
100003.0831
100002.9947
100003.3436
100003.3814
100003.4552
100003.4964
100003.4212
100003.4743
100003.493
100003.5742
100003.5362
100003.5511
100003.4606
100003.3974
100003.4189
100003.4011
100003.424
100003.4227
100003.4366
100003.4586
100003.4853
100003.5185
100003.5589
100003.5865
100003.5943
100003.5985
100003.6002
100003.6107
100003.4238
100003.4092
100003.4196
100003.2134
100003.3322
100002.8953
100003.0564
100003.1404
100003.451
100003.4752
100003.5678
100003.5761
100003.5519
100003.5961
100003.5932
100003.6346
100003.591
100003.5253
100003.4205
100003.4286
100003.421
100003.4325
100003.46
100003.46
100003.4596
100003.4611
100003.4713
100003.4922
100003.5289
100003.5699
100003.5857
100003.5914
100003.5917
100003.6107
100003.4673
100003.3908
100003.3886
100003.3574
100003.3892
100003.1224
100003.3636
100003.4839
100004.4318
100003.5437
100003.72
100003.5719
100003.6249
100003.5759
100003.6459
100003.6446
100003.5861
100003.4861
100003.4719
100003.4822
100003.4691
100003.4928
100003.5051
100003.4978
100003.4893
100003.4865
100003.4895
100003.4953
100003.5189
100003.556
100003.5731
100003.5788
100003.5739
100003.6011
100003.5228
100003.4542
100003.4023
100003.4327
100003.3807
100003.365
100003.4881
100003.5301
100003.5213
100003.5311
100003.576
100003.5474
100003.6504
100003.5801
100003.7592
100003.7073
100003.5761
100003.5083
100003.5535
100003.5155
100003.5574
100003.5908
100003.5619
100003.532
100003.5107
100003.5015
100003.5
100003.5075
100003.5277
100003.5556
100003.567
100003.5754
100003.5639
100003.5898
100003.5774
100003.5119
100003.4529
100003.5029
100003.4918
100003.5447
100003.622
100003.5793
100003.6545
100003.5719
100003.6586
100003.5427
100003.754
100003.5265
100003.8547
100003.8006
100003.6787
100003.6616
100003.6276
100003.6614
100003.6537
100003.6103
100003.5672
100003.5424
100003.5292
100003.5251
100003.5283
100003.5305
100003.5501
100003.5654
100003.5721
100003.5792
100003.5686
100003.5925
100003.6039
100003.5432
100003.4815
100003.5286
100003.5126
100003.6196
100003.5813
100003.5575
100003.5448
100003.546
100003.6143
100003.544
100003.6912
100003.6868
100004.0337
100004.2809
100003.7624
100003.6178
100003.6322
100003.6103
100003.5762
100003.5601
100003.5454
100003.5436
100003.538
100003.5363
100003.5337
100003.5575
100003.5779
100003.5834
100003.5948
100003.5978
100003.5874
100003.6119
100003.5711
100003.5566
100003.5139
100003.6448
100003.5963
100003.651
100003.5678
100003.5767
100003.5711
100003.5827
100003.6928
100003.5481
100003.7565
100003.1977
100003.282
100004.3128
100003.6663
100003.9272
100003.7467
100003.6168
100003.5231
100003.4961
100003.5059
100003.5374
100003.535
100003.5355
100003.561
100003.5986
100003.5858
100003.6068
100003.6132
100003.6198
100003.6123
100003.6378
100003.5467
100003.5256
100003.4437
100003.551
100003.5785
100003.5947
100003.5598
100003.5628
100003.5464
100003.5555
100003.5635
100003.4998
100003.4312
100003.251
100002.916
100002.0688
100003.1492
100003.3813
100003.416
100003.4477
100003.4474
100003.4702
100003.5074
100003.5361
100003.5441
100003.5651
100003.6049
100003.6041
100003.622
100003.6358
100003.6463
100003.6546
100003.6464
100003.6743
100003.5194
100003.4954
100003.4624
100003.601
100003.5753
100003.5811
100003.5629
100003.5637
100003.5657
100003.5966
100003.6185
100003.5835
100003.6752
100003.4942
100003.6203
100003.6788
100003.6687
100003.6294
100003.5742
100003.5245
100003.5228
100003.5506
100003.5686
100003.5819
100003.5827
100003.6055
100003.632
100003.6263
100003.6378
100003.6465
100003.6565
100003.6685
100003.6902
100003.6946
100003.4888
100003.5021
100003.5008
100003.6184
100003.5678
100003.5739
100003.5673
100003.5695
100003.5696
100003.5908
100003.5869
100003.5724
100003.544
100003.4968
100003.4709
100003.387
100003.4934
100003.5441
100003.5571
100003.5667
100003.5835
100003.5997
100003.5992
100003.6046
100003.6195
100003.6492
100003.6643
100003.6645
100003.6558
100003.6523
100003.6578
100003.6865
100003.6953
100003.6902
100003.492
100003.5735
100003.5644
100003.6321
100003.5806
100003.5723
100003.5668
100003.5738
100003.5675
100003.5949
100003.5704
100003.7781
100003.562
100003.547
100003.5519
100003.5267
100003.5495
100003.5781
100003.5973
100003.6093
100003.6224
100003.6305
100003.6314
100003.6404
100003.6614
100003.6808
100003.6917
100003.6956
100003.649
100003.6426
100003.6803
100003.7193
100003.694
100003.7164
100003.5041
100003.6013
100003.5894
100003.6298
100003.5942
100003.5812
100003.564
100003.5683
100003.5677
100003.572
100003.5633
100003.5687
100003.5622
100003.5584
100003.5587
100003.558
100003.5842
100003.6063
100003.6197
100003.6279
100003.6341
100003.6419
100003.6494
100003.6685
100003.7113
100003.7438
100003.7953
100003.9206
100003.7703
100003.6746
100003.6161
100003.6624
100003.7026
100003.7548
100003.571
100003.6191
100003.6143
100003.6221
100003.6067
100003.5991
100003.5799
100003.572
100003.5746
100003.585
100003.5747
100003.5961
100003.5664
100003.564
100003.5703
100003.59
100003.6092
100003.6236
100003.6349
100003.6401
100003.6443
100003.6501
100003.6507
100003.6657
100003.6794
100003.6812
100003.6537
100003.6848
100003.4495
100003.029
100003.2164
100003.5679
100003.7251
100003.7916
100003.5862
100003.6111
100003.5841
100003.6068
100003.5945
100003.6018
100003.5874
100003.5788
100003.5695
100003.5793
100003.5791
100003.5816
100003.5782
100003.5937
100003.6176
100003.6363
100003.6449
100003.6537
100003.6799
100003.6647
100003.6569
100003.665
100003.6581
100003.6906
100003.787
100003.9041
100003.9769
100005.0712
100003.927
100003.2481
100003.271
100003.4969
100003.6473
100003.7582
100003.5997
100003.61
100003.5959
100003.5619
100003.6025
100003.6321
100003.6397
100003.6318
100003.6274
100003.6132
100003.6043
100003.5933
100003.5959
100003.605
100003.6252
100003.6382
100003.6497
100003.6539
100003.655
100003.6606
100003.6622
100003.6578
100003.6694
100003.6088
100003.5903
100003.6339
100003.6299
100003.4856
100002.9257
100002.8144
100001.0129
99997.50004
100002.2171
100003.3936
100003.7646
100003.5845
100003.5743
100003.5167
100003.5381
100003.5571
100003.5702
100003.594
100003.5837
100003.5964
100003.5967
100003.5998
100003.6065
100003.6236
100003.645
100003.6681
100003.7258
100003.7066
100003.7264
100003.7065
100003.9799
100003.7341
100003.6777
100003.6926
100003.5433
100003.5417
100003.787
100003.9175
100003.849
100003.901
100003.7372
100003.2727
100003.2301
100003.4944
100003.6272
100003.7122
100003.577
100003.5856
100003.578
100003.5989
100003.6186
100003.6406
100003.7042
100003.6667
100003.6715
100003.6915
100003.6641
100003.6443
100003.6477
100003.6551
100003.6701
100003.6963
100003.6989
100003.7144
100003.7058
100003.7131
100003.7056
100003.6505
100003.6088
100003.464
100002.67
100003.4774
100003.6675
100003.6386
100003.5747
100003.3627
100002.867
100003.0725
100003.4626
100003.6844
100003.7716
100003.5713
100003.567
100003.5647
100003.5599
100003.584
100003.5762
100003.6018
100003.593
100003.6084
100003.616
100003.6256
100003.6368
100003.6574
100003.7218
100003.7014
100004.1962
100003.7225
100003.8165
100003.7525
100003.7732
100003.774
100003.6511
100003.6499
100002.8543
100001.8117
100003.45
100004.5433
100004.1268
100004.0343
100003.8383
100003.6826
100003.5676
100003.639
100003.6963
100003.732
100003.5657
100003.57
100003.5799
100003.5874
100003.6021
100003.6241
100003.623
100003.6292
100003.6293
100003.6308
100003.6348
100003.6447
100003.6591
100003.6734
100003.7236
100003.7198
100003.8766
100003.7589
100003.7732
100003.7399
100003.6703
100003.3883
100003.1534
100002.9082
100004.3137
100003.7263
100003.8777
100003.858
100003.786
100003.7153
100003.7015
100003.7065
100003.7173
100003.7368
100003.5619
100003.5675
100003.5687
100003.5791
100003.5835
100003.5948
100003.5983
100003.6065
100003.6133
100003.6216
100003.6325
100003.6522
100003.0588
100003.6015
100003.8412
100003.8687
100003.8531
100003.81
100003.7817
100003.7558
100003.7433
100003.7415
100003.7537
100003.5673
100003.5748
100003.581
100003.5906
100003.5954
100003.6013
100003.5079
100003.5027
100003.499
100003.494
100003.499
100003.4977
100003.5072
100003.5053
100003.501
100003.5012
100003.5041
100003.5052
100003.5023
100003.4982
100003.4949
100003.4917
100003.4877
100003.485
100003.4816
100003.4776
100003.4734
100003.4693
100003.4658
100003.4627
100003.4602
100003.4581
100003.4562
100003.4545
100003.4532
100003.452
100003.4512
100003.4506
100003.4502
100003.45
100003.4899
100003.4799
100003.4812
100003.4698
100003.4829
100003.4748
100003.4887
100003.4856
100003.4896
100003.4841
100003.4932
100003.4933
100003.4908
100003.4893
100003.4884
100003.4876
100003.4841
100003.4817
100003.4792
100003.4757
100003.4721
100003.4685
100003.4653
100003.4625
100003.4601
100003.4581
100003.4563
100003.4547
100003.4534
100003.4524
100003.4515
100003.4509
100003.4506
100003.4504
100003.493
100003.4828
100003.4862
100003.4687
100003.4838
100003.4758
100003.4874
100003.4796
100003.4862
100003.4845
100003.4943
100003.4986
100003.4906
100003.4887
100003.4822
100003.4863
100003.4807
100003.4802
100003.4787
100003.4754
100003.4722
100003.4684
100003.4652
100003.4624
100003.4601
100003.4582
100003.4566
100003.4552
100003.454
100003.453
100003.4523
100003.4517
100003.4515
100003.4513
100003.4876
100003.4788
100003.4755
100003.4551
100003.469
100003.4629
100003.4756
100003.4659
100003.4683
100003.4422
100003.4478
100003.4807
100003.483
100003.4915
100003.4735
100003.4843
100003.4715
100003.4802
100003.4752
100003.4717
100003.4685
100003.4655
100003.4639
100003.4617
100003.4599
100003.4584
100003.4571
100003.456
100003.455
100003.4541
100003.4534
100003.453
100003.4528
100003.4527
100003.4869
100003.4771
100003.4658
100003.4492
100003.455
100003.4615
100003.4642
100003.4599
100003.4512
100003.457
100003.4406
100003.4679
100003.4633
100003.5054
100003.4653
100003.4923
100003.4489
100003.4881
100003.478
100003.4754
100003.4686
100003.4647
100003.4631
100003.461
100003.4596
100003.4585
100003.4577
100003.4569
100003.4562
100003.4556
100003.4551
100003.4548
100003.4546
100003.4546
100003.4682
100003.4651
100003.4499
100003.4424
100003.4465
100003.4689
100003.4592
100003.4576
100003.4166
100003.4751
100003.485
100003.4701
100003.4309
100003.4846
100003.4748
100003.4818
100003.4112
100003.4362
100003.4465
100003.4737
100003.4612
100003.4606
100003.4593
100003.4581
100003.4581
100003.458
100003.458
100003.4578
100003.4576
100003.4573
100003.457
100003.4569
100003.4569
100003.457
100003.4483
100003.4294
100003.4287
100003.4246
100003.4713
100003.5572
100003.4992
100003.4798
100003.4794
100003.5099
100003.523
100003.5058
100003.479
100003.4407
100003.4865
100003.4854
100003.3884
100003.4595
100003.3948
100003.457
100003.4586
100003.4613
100003.4582
100003.456
100003.4562
100003.4568
100003.4577
100003.4584
100003.4589
100003.4591
100003.4592
100003.4594
100003.4596
100003.4599
100003.4236
100003.3989
100003.4014
100003.3579
100003.5283
100003.6343
100003.5305
100003.4449
100003.5529
100003.5207
100003.5311
100003.5256
100003.5306
100003.5458
100003.4759
100003.5124
100003.4288
100003.5205
100003.4705
100003.4743
100003.4604
100003.4605
100003.4545
100003.452
100003.4525
100003.4541
100003.4562
100003.4582
100003.4598
100003.4608
100003.4614
100003.4622
100003.4625
100003.4633
100003.401
100003.3793
100003.396
100003.2741
100003.5905
100003.3751
100003.6817
100003.4569
100003.662
100003.5267
100003.5642
100003.5469
100003.589
100003.55
100003.5097
100003.5329
100003.4095
100003.4864
100003.473
100003.4871
100003.4616
100003.4589
100003.4526
100003.4498
100003.4497
100003.4511
100003.4539
100003.4568
100003.4597
100003.462
100003.4633
100003.4649
100003.4654
100003.467
100003.3867
100003.3383
100003.422
100003.2741
100003.5274
100003.6213
100003.4118
100003.4272
100003.601
100003.4919
100003.4914
100003.5173
100003.4753
100003.5187
100003.5044
100003.5532
100003.5195
100003.5572
100003.5236
100003.4996
100003.4652
100003.4547
100003.4493
100003.4473
100003.4475
100003.4488
100003.4514
100003.4548
100003.4587
100003.4624
100003.4645
100003.4674
100003.4681
100003.471
100003.3637
100003.359
100003.4625
100003.3233
100003.4919
100003.4019
100003.5233
100003.4437
100003.6343
100003.458
100003.5514
100003.543
100003.6101
100003.4977
100003.5018
100003.4993
100003.477
100003.5084
100003.4809
100003.4767
100003.4482
100003.442
100003.4394
100003.4404
100003.4426
100003.4461
100003.45
100003.4536
100003.4574
100003.4621
100003.4649
100003.4692
100003.4695
100003.4747
100003.365
100003.3415
100003.4243
100003.3603
100003.4757
100003.3661
100003.5556
100003.3836
100003.743
100003.4362
100003.4913
100003.4691
100003.4613
100003.4757
100003.4809
100003.5146
100003.5081
100003.5225
100003.4898
100003.4883
100003.4351
100003.4209
100003.4241
100003.4339
100003.4371
100003.443
100003.4489
100003.4536
100003.4574
100003.4625
100003.4658
100003.4707
100003.4702
100003.4777
100003.3997
100003.3571
100003.4049
100003.4544
100003.4478
100003.4404
100003.5542
100003.429
100003.6847
100003.3894
100003.5653
100003.4414
100003.5033
100003.4246
100003.4314
100003.4235
100003.466
100003.4826
100003.4773
100003.4802
100003.4226