/*--------------------------------*- C++ -*----------------------------------*\
  =========                 |
  \\      /  F ield         | OpenFOAM: The Open Source CFD Toolbox
   \\    /   O peration     | Website:  https://openfoam.org
    \\  /    A nd           | Version:  8
     \\/     M anipulation  |
\*---------------------------------------------------------------------------*/
FoamFile
{
    version     2.0;
    format      ascii;
    class       volScalarField;
    location    "0.4";
    object      T;
}
// * * * * * * * * * * * * * * * * * * * * * * * * * * * * * * * * * * * * * //

dimensions      [0 0 0 1 0 0 0];

internalField   nonuniform List<scalar> 
67193
(
300.0033126
300.0033866
300.0032904
300.0032524
300.0032247
300.0031684
300.0030964
300.0030339
300.0030049
300.0030607
300.0030815
300.003079
300.0030629
300.0030548
300.0030526
300.003049
300.0030382
300.0030409
300.0030336
300.0030259
300.003017
300.0030091
300.0030024
300.0029967
300.0029921
300.0029884
300.0029854
300.002983
300.0029812
300.0029798
300.0029788
300.002978
300.0029775
300.0029773
300.0034349
300.0035058
300.0034017
300.0033931
300.0033866
300.0033447
300.00324
300.00309
300.0029795
300.0030371
300.0030672
300.0030895
300.0030774
300.0030506
300.0030338
300.0030273
300.0030247
300.0030151
300.003027
300.0030216
300.0030136
300.0030075
300.0030025
300.0029978
300.0029936
300.0029901
300.0029872
300.0029848
300.002983
300.0029816
300.0029806
300.0029799
300.0029788
300.0029776
300.0034156
300.003462
300.003391
300.003418
300.0034043
300.0034062
300.0033108
300.0031137
300.0029679
300.0029814
300.0030039
300.0030399
300.0030608
300.0030621
300.0030429
300.0030008
300.0029979
300.0029501
300.0030083
300.0030202
300.0030126
300.0030031
300.0029992
300.0029967
300.0029939
300.002991
300.0029884
300.0029862
300.0029845
300.0029831
300.0029821
300.0029814
300.0029799
300.0029784
300.0033268
300.0033656
300.0033693
300.0034321
300.0033368
300.0033936
300.0032738
300.0030632
300.0029629
300.0030324
300.0030122
300.0029925
300.0029394
300.0029698
300.0030366
300.002983
300.0029692
300.0028273
300.0029188
300.003007
300.0030273
300.0030073
300.0029931
300.0029906
300.0029909
300.0029901
300.0029886
300.0029868
300.0029853
300.002984
300.0029831
300.0029823
300.0029809
300.0029794
300.0032186
300.003285
300.0033515
300.0034618
300.0032526
300.0034298
300.0032052
300.0030772
300.003025
300.0032132
300.0030802
300.0029912
300.0027321
300.0027035
300.0029245
300.0029575
300.0029338
300.0027107
300.0027289
300.0029107
300.0030362
300.0030448
300.0030057
300.0029837
300.0029828
300.0029859
300.0029872
300.0029869
300.002986
300.002985
300.0029841
300.0029835
300.0029821
300.0029807
300.0031275
300.0032241
300.0033233
300.0035031
300.0032287
300.0036755
300.0032429
300.0032494
300.0032114
300.003404
300.0031794
300.0030547
300.0025117
300.002385
300.0026764
300.0029257
300.0028412
300.00272
300.0026279
300.0027456
300.0029749
300.0030831
300.0030548
300.0029952
300.0029725
300.0029752
300.0029817
300.002985
300.0029859
300.0029856
300.0029851
300.0029847
300.0029835
300.0029822
300.0030481
300.0031676
300.0032972
300.0035707
300.0032792
300.0041877
300.0034016
300.0035252
300.0034496
300.0035665
300.0032914
300.003165
300.0024512
300.0022507
300.0023819
300.0029259
300.002866
300.0028621
300.0027533
300.002744
300.0029175
300.0030968
300.003113
300.0030367
300.0029764
300.0029606
300.0029681
300.002978
300.0029834
300.0029851
300.0029851
300.0029853
300.0029844
300.0029836
300.003015
300.0031421
300.0033025
300.0036826
300.0034245
300.0043918
300.0035299
300.0037771
300.0036385
300.0036347
300.0033129
300.0028915
300.0026925
300.0024864
300.0023499
300.0028542
300.0030152
300.0030476
300.0029577
300.0029724
300.0030526
300.003155
300.0031504
300.0030806
300.0030135
300.0029704
300.002955
300.0029625
300.0029747
300.0029813
300.0029824
300.0029836
300.0029835
300.0029839
300.0030684
300.0031578
300.0033418
300.0037132
300.0035141
299.9929732
300.0030618
300.0039139
300.0036265
300.0034794
300.0031187
300.0029937
300.0032056
300.0029121
300.0027967
300.0030252
300.0030875
300.0031532
300.0032792
300.0033613
300.0033369
300.0032259
300.0031431
300.0031057
300.0030821
300.0030426
300.002989
300.0029557
300.0029574
300.0029699
300.0029734
300.0029763
300.0029772
300.0029796
300.0032204
300.0032004
300.0032644
300.0031088
300.0021512
299.995682
300.0015328
300.0032252
300.0035397
300.003493
300.0033237
300.0034114
300.0031564
300.0030836
300.0029958
300.0031296
300.0032771
300.0033096
300.0033255
300.0031084
300.0031433
300.0030622
300.0030338
300.0030808
300.0031383
300.0031485
300.0030939
300.0030096
300.0029542
300.0029505
300.0029595
300.0029653
300.0029623
300.0029628
300.0033551
300.0032529
300.0032919
300.0032667
300.0033616
300.0019454
300.0028059
300.0031472
300.003256
300.0033233
300.0033583
300.0034128
300.0031183
300.0031745
300.0030901
300.0032328
300.0033697
300.0033904
300.0031065
300.0028067
300.0029469
300.0029319
300.0029338
300.0030169
300.0031314
300.0032126
300.0032131
300.0031263
300.0030107
300.0029485
300.0029631
300.0029782
300.0029573
300.0029344
300.003411
300.0033961
300.0032681
300.003395
300.0035818
300.0029317
300.0032269
300.0032809
300.0033176
300.003345
300.0033674
300.0033607
300.0032441
300.0033361
300.0033101
300.0031979
300.0031727
300.0030854
300.0029769
300.0026853
300.0028342
300.0029181
300.0029296
300.0029923
300.0030909
300.003202
300.0032733
300.0032429
300.0031188
300.0030067
300.0030139
300.0030453
300.0030085
300.0029352
300.0033643
300.0033767
300.0033278
300.0032712
300.0033751
300.0031987
300.0031451
300.0030943
300.0034893
300.003349
300.0035032
300.0034677
300.0035022
300.0034805
300.0035052
300.0033407
300.0030453
300.003013
300.0031303
300.0028267
300.0028887
300.0029877
300.0029997
300.0030419
300.0031061
300.0031912
300.0032813
300.0033079
300.0032212
300.0031061
300.0031137
300.0031613
300.0031234
300.0029988
300.0033446
300.0033378
300.0033744
300.0033254
300.0032617
300.0031481
300.0030159
300.0033351
300.0034406
300.0034729
300.0035336
300.0034996
300.0035897
300.0035157
300.0036381
300.0033711
300.0031369
300.0031773
300.0033579
300.0030414
300.0030391
300.00306
300.0030733
300.0031171
300.0031778
300.0032463
300.003316
300.0033463
300.0032806
300.0032085
300.0032491
300.0032995
300.0032661
300.0031076
300.0033361
300.0033255
300.0033579
300.0033626
300.0032407
300.0030788
300.0031891
300.003521
300.0035499
300.0035165
300.0035933
300.0034938
300.0037573
300.003564
300.0039818
300.0036819
300.0034537
300.0034145
300.0034872
300.0031692
300.0031336
300.0031104
300.0031187
300.0031838
300.0032851
300.0033797
300.0034294
300.0033933
300.0033017
300.0033194
300.0033904
300.0034172
300.0033841
300.0032155
300.0033075
300.0033049
300.0033314
300.0033538
300.0032394
300.0031231
300.0034783
300.0035581
300.0035348
300.0035147
300.0035514
300.0034583
300.003623
300.0035949
300.0040678
300.0039077
300.003437
300.0033952
300.003559
300.0033202
300.0032053
300.0031318
300.0031548
300.0032528
300.0033634
300.0034329
300.003427
300.0033013
300.0033093
300.0034577
300.003497
300.0034923
300.0034603
300.0032953
300.0032098
300.0032443
300.0033207
300.0033814
300.0032528
300.0033979
300.0035712
300.0035592
300.0035279
300.0035378
300.0036345
300.0035046
300.0041497
300.0044817
300.0045654
300.0081769
300.0051532
300.003946
300.0035806
300.0032863
300.0031105
300.003095
300.00318
300.0033023
300.0034015
300.0034409
300.0033279
300.003258
300.0034523
300.0035311
300.0035496
300.003544
300.0035054
300.0033366
300.0033339
300.0033042
300.0033257
300.0033243
300.0033174
300.0035426
300.0035512
300.00351
300.0034874
300.0034937
300.0034557
300.0034265
300.0034327
300.0034345
300.0034801
300.0034719
300.0033988
300.0032781
300.0031975
300.0030342
300.0029758
300.0030467
300.0032039
300.0033491
300.0034177
300.0033576
300.0032402
300.0034215
300.0034926
300.003557
300.0035821
300.0035856
300.0035294
300.0033252
300.0034718
300.0034097
300.003357
300.0032667
300.0033909
300.0035226
300.0034993
300.0034685
300.0034547
300.0034843
300.0034815
300.0034944
300.0036509
300.0036296
300.003947
300.0039909
300.0037274
300.0034234
300.0031211
300.0029431
300.0029366
300.0030563
300.0032408
300.0033494
300.0033406
300.0032068
300.0032309
300.0034209
300.0035455
300.0036294
300.003662
300.0036463
300.003471
300.0032741
300.0034632
300.0034063
300.0032724
300.0031628
300.003338
300.0034564
300.0034743
300.0034688
300.0034639
300.0034916
300.0034727
300.0034661
300.0034733
300.0034727
300.0035065
300.0034984
300.0034237
300.0032565
300.0030321
300.002931
300.002954
300.0030442
300.0031883
300.0032524
300.0031964
300.0030879
300.003156
300.0033158
300.003473
300.0036119
300.0036298
300.0035374
300.0033071
300.0033947
300.0034082
300.0033056
300.003145
300.0030629
300.0031978
300.0033387
300.0034232
300.0034527
300.0034517
300.0034688
300.0034519
300.0034985
300.0034642
300.0034664
300.0034836
300.0034253
300.0032905
300.003133
300.0030024
300.0029762
300.0029977
300.0030324
300.0031032
300.0031378
300.0030936
300.0030518
300.0031163
300.0032666
300.0034313
300.003631
300.0035836
300.0034288
300.0035281
300.0035754
300.0032742
300.0031637
300.0030485
300.0030016
300.0030624
300.0031753
300.0033107
300.0034065
300.0034436
300.0034635
300.0034527
300.00346
300.0034558
300.0034489
300.0034094
300.0032939
300.0031476
300.0030407
300.0030008
300.003018
300.0030308
300.0030433
300.0030591
300.0030859
300.003096
300.0031185
300.0031764
300.0033116
300.0033266
300.0035727
300.0036129
300.0037189
300.0037435
300.0037282
300.0031338
300.0030617
300.0030161
300.0029891
300.0029967
300.0030448
300.0031505
300.0032902
300.0033936
300.0034536
300.0034498
300.0034516
300.0034342
300.003386
300.0032797
300.0031446
300.0030439
300.0030129
300.0030266
300.0030446
300.0030549
300.0030679
300.0030755
300.0031083
300.0031306
300.0031327
300.0031455
300.0033104
300.003265
300.0036934
300.0041503
300.0041317
300.0039652
300.0039055
300.0030465
300.003015
300.0030159
300.0029986
300.0029947
300.0029925
300.0030323
300.0031366
300.0032726
300.003398
300.0034122
300.0033972
300.0033439
300.0032478
300.0031348
300.0030498
300.0030261
300.0030408
300.0030621
300.0030699
300.0030757
300.003099
300.0031113
300.0031755
300.003259
300.0032915
300.0033769
300.0039322
300.0035531
300.0030908
300.0046766
300.0043348
300.0041152
300.0040473
300.0030218
300.0030287
300.0030052
300.0031765
300.0030084
300.0030258
300.003004
300.0030021
300.003042
300.0031359
300.0032704
300.0033073
300.0032665
300.003191
300.0031062
300.0030482
300.0030351
300.0030494
300.0030619
300.0030764
300.003091
300.0031007
300.0031423
300.0031521
300.003255
300.0033215
300.0033166
300.0033591
300.0035356
300.0028207
299.9945734
300.0020645
300.0067868
300.0054578
300.0048213
300.0029963
300.0030111
300.0030367
300.0030008
300.0030131
300.0030214
300.0030154
300.0029981
300.0030061
300.0030428
300.0031268
300.0031614
300.0031238
300.0030778
300.0030527
300.0030824
300.0030847
300.0031039
300.0031079
300.0031499
300.0031342
300.0031297
300.0032037
300.0032708
300.0034905
300.0040602
300.003542
300.0035601
300.0035561
300.0033823
300.0026876
300.0035282
300.0038974
300.0039304
300.0039545
300.0029888
300.0029999
300.0030137
300.0030311
300.0030158
300.0030302
300.0030824
300.0030438
300.0030705
300.0030433
300.0030563
300.0030648
300.0030494
300.0030433
300.0030515
300.0030724
300.0030878
300.0031067
300.0031152
300.0031337
300.0031587
300.0031603
300.0032635
300.0033445
300.0033491
300.0038614
300.0034792
300.0033227
300.0034272
300.0032852
300.0035927
300.004072
300.0041089
300.0039947
300.003956
300.0029876
300.0029913
300.0029928
300.0030057
300.0030029
300.0030098
300.0030207
300.0030122
300.0030211
300.0030204
300.0030255
300.0030346
300.0030477
300.0030798
300.0030832
300.0032026
300.0031183
300.0031572
300.0031405
300.0031553
300.003196
300.0032039
300.0034181
300.0035104
300.0026411
300.0080361
300.0050087
300.004352
300.003695
300.0033672
300.0035374
300.003622
300.0037568
300.0037861
300.0037969
300.0029827
300.0029858
300.0029938
300.002996
300.003006
300.003016
300.0030192
300.0030233
300.0030239
300.0030264
300.0030325
300.003042
300.0030549
300.0030684
300.0030956
300.0031075
300.0031605
300.0031408
300.0031675
300.003205
300.0032455
300.0033292
300.0029146
300.0012174
300.0035731
300.0037338
300.0035487
300.0034098
300.0032632
300.0033297
300.0034196
300.0035693
300.0036566
300.0037158
300.0029763
300.0029789
300.0029854
300.0029883
300.0029951
300.0029998
300.0030062
300.0030109
300.0030171
300.0030233
300.0030336
300.0030485
300.0031434
300.003881
300.0036667
300.0034549
300.0033228
300.0032069
300.0031846
300.0032176
300.0033127
300.0033767
300.0033926
300.0029758
300.0029759
300.0029854
300.0029842
300.002996
300.0030005
300.0032921
300.0034098
300.0032069
300.0031213
300.0030994
300.003074
300.0030759
300.0030719
300.0030835
300.0030494
300.003046
300.003073
300.0031212
300.003175
300.0032224
300.0032541
300.0032702
300.0032683
300.0032768
300.0032889
300.0033028
300.0033156
300.0033263
300.0033346
300.0033406
300.0033451
300.0033484
300.0033508
300.0033527
300.0033541
300.003355
300.0033557
300.0033564
300.0033583
300.0034169
300.0035231
300.0033535
300.0032535
300.0032284
300.003182
300.0031503
300.0030631
300.0030098
300.0029735
300.0030062
300.0030117
300.0030519
300.0031001
300.0031581
300.0032033
300.0032278
300.0032154
300.0032274
300.0032453
300.0032685
300.0032899
300.0033075
300.0033203
300.0033293
300.0033357
300.0033402
300.0033434
300.0033458
300.0033475
300.0033487
300.0033498
300.0033521
300.0033563
300.0034342
300.0035047
300.0034029
300.0033338
300.0032656
300.0032441
300.0032161
300.0030679
300.0029667
300.0029655
300.0030674
300.0030335
300.0030202
300.0030282
300.0030677
300.0031253
300.0031543
300.0031259
300.0031494
300.0031773
300.0032114
300.0032457
300.0032759
300.0032978
300.0033131
300.0033233
300.0033302
300.003335
300.0033384
300.0033407
300.0033424
300.0033445
300.0033494
300.003355
300.0033901
300.0034389
300.0033635
300.0034058
300.0032701
300.0032444
300.0032136
300.0030481
300.0030071
300.0031614
300.0031823
300.0031083
300.0030578
300.0030164
300.0029802
300.0030348
300.0030412
300.0030579
300.0030557
300.0030755
300.0031266
300.0031771
300.0032267
300.0032639
300.0032907
300.0033082
300.0033196
300.0033273
300.0033324
300.0033359
300.0033384
300.0033413
300.003347
300.0033529
300.0032923
300.0033484
300.0033149
300.0034272
300.0033033
300.0031898
300.0031258
300.0030278
300.003091
300.003401
300.003367
300.0031959
300.003021
300.003063
300.0029058
300.0029906
300.0029548
300.0031269
300.0030933
300.0030556
300.003067
300.0031145
300.003167
300.0032149
300.0032563
300.0032848
300.0033037
300.0033162
300.0033244
300.0033299
300.0033335
300.0033371
300.0033432
300.0033494
300.0032136
300.0032667
300.0032716
300.0033485
300.0031879
300.0029622
300.002979
300.0030116
300.0031841
300.003476
300.0034076
300.0032647
300.0029806
300.0032863
300.0029661
300.0029974
300.0029587
300.0032359
300.0031979
300.003157
300.0030373
300.0030794
300.0031163
300.0031572
300.0032068
300.0032479
300.0032781
300.0032984
300.0033119
300.0033205
300.0033258
300.0033305
300.0033372
300.0033438
300.0031219
300.0031831
300.0031842
300.0031646
300.0030119
300.0022657
300.0027755
300.0029812
300.0032055
300.0034606
300.0033368
300.0033841
300.0031648
300.0033745
300.0030639
300.0029897
300.0031424
300.0032501
300.0033088
300.0032919
300.0031182
300.0031016
300.0031055
300.0031142
300.0031489
300.0031945
300.0032371
300.0032695
300.0032916
300.0033055
300.0033134
300.0033196
300.0033272
300.0033345
300.0030275
300.0030973
300.0030592
300.0028332
300.0029323
300.0011668
300.0025412
300.0028139
300.0032107
300.0033904
300.0032725
300.0033077
300.0033107
300.0033091
300.0031221
300.0031274
300.0033594
300.0032691
300.0033688
300.0033323
300.0031713
300.0031347
300.0031138
300.003092
300.0030998
300.0031323
300.0031785
300.0032241
300.0032594
300.003282
300.0032931
300.0033011
300.0033101
300.0033187
300.0029974
300.0030311
300.0029421
300.0023074
300.0025995
299.9977734
300.0018726
300.002231
300.0031346
300.0032559
300.0031849
300.0032947
300.0035112
300.0031405
300.0029332
300.0030091
300.0032968
300.0032384
300.0032976
300.0033439
300.0032797
300.0032083
300.0031382
300.0030935
300.0030816
300.0030906
300.0031172
300.0031612
300.0032096
300.0032448
300.0032597
300.0032694
300.0032806
300.0032903
300.0030875
300.0030154
300.0029909
300.0024994
300.0020796
299.9982227
300.0018732
300.002329
300.0031478
300.0032951
300.0033739
300.0033457
300.0033554
300.0031051
300.002966
300.0031949
300.0032805
300.0033832
300.0033685
300.0033156
300.0032406
300.0031645
300.0031063
300.003083
300.0030843
300.0030876
300.0030883
300.0031038
300.0031441
300.0031899
300.0032104
300.0032206
300.0032317
300.0032387
300.0032864
300.0030138
300.0030732
300.0028689
300.0028297
300.0014736
300.0027207
300.0028621
300.0032832
300.0033317
300.0033726
300.0033177
300.0031339
300.0031243
300.0030155
300.0032441
300.0033508
300.0034275
300.0033186
300.003249
300.0031399
300.0031357
300.0031138
300.0031032
300.0031014
300.0031044
300.0030981
300.0030835
300.0030876
300.0031226
300.0031568
300.0031667
300.0031652
300.0031545
300.0034086
300.0032344
300.0030179
300.0029361
300.0032621
300.0022424
300.002687
300.0027922
300.0031881
300.0032404
300.0032665
300.0032867
300.0032455
300.0032855
300.0031894
300.0031899
300.0032776
300.0032849
300.0032162
300.0032409
300.0031031
300.0032177
300.0032009
300.003233
300.0032063
300.0031626
300.0031282
300.0031017
300.0030681
300.0030753
300.0031296
300.0031404
300.0031099
300.0030607
300.0033482
300.003286
300.0031773
300.0030604
300.0032661
300.0027783
300.0028738
300.0029617
300.0039032
300.0032206
300.0034635
300.0034407
300.0034773
300.0033987
300.0033349
300.0032425
300.0030999
300.0031267
300.00322
300.0033496
300.0031913
300.0032439
300.0032724
300.0033538
300.0033697
300.0033047
300.0031985
300.0031392
300.0030884
300.0030801
300.0031446
300.0031556
300.003101
300.0030186
300.0032888
300.0032856
300.0032065
300.0031379
300.0030879
300.0028795
300.0028588
300.0031519
300.0032565
300.0033757
300.0035135
300.003496
300.0035658
300.0034762
300.0035188
300.0033084
300.0031057
300.0032055
300.0034622
300.0034671
300.003267
300.0032162
300.0032596
300.0033484
300.0034165
300.0034181
300.0033016
300.0031886
300.0031231
300.0031258
300.0031899
300.003194
300.0031438
300.0030515
300.003262
300.0033088
300.0032233
300.0032193
300.0030765
300.0029342
300.0031043
300.0032754
300.0034205
300.0034706
300.003591
300.0034861
300.0036499
300.0034596
300.0035973
300.0033807
300.0032452
300.0033362
300.0033688
300.0031737
300.0031638
300.0031786
300.0032248
300.0033081
300.0033971
300.0034444
300.0033776
300.0032233
300.003155
300.0032003
300.0032626
300.0032721
300.0032278
300.00313
300.003261
300.0033374
300.0032875
300.0032584
300.0030818
300.0030343
300.0032333
300.0032621
300.0033389
300.0034519
300.0035083
300.0034422
300.0035545
300.0035321
300.0030685
300.0038165
300.003318
300.0033122
300.0032574
300.0031656
300.0031568
300.0031899
300.0032815
300.0033795
300.0034503
300.0034577
300.0033196
300.0031655
300.003219
300.0033883
300.0034754
300.0034616
300.0033612
300.0032165
300.0032176
300.0033354
300.0033206
300.0033307
300.0031107
300.0032459
300.0032629
300.0032752
300.0033864
300.0034968
300.0035207
300.0034057
300.0034932
300.0027851
299.996391
300.000019
300.0033747
300.0034906
300.0033338
300.0033185
300.0032496
300.0033013
300.0033543
300.0033884
300.0033832
300.0032787
300.0031388
300.0031869
300.0033752
300.0034867
300.0035313
300.0035455
300.0034785
300.0032798
300.0033019
300.0033234
300.0032424
300.0031711
300.0031606
300.0032789
300.0032474
300.0033177
300.0034141
300.0034136
300.0033758
300.003378
300.0033579
300.0031697
300.0024119
300.0020519
300.0028914
300.0030169
300.0030018
300.003018
300.0030395
300.0031302
300.0032085
300.0032517
300.0032455
300.0031615
300.0031569
300.0033242
300.0034381
300.0034887
300.0035381
300.0035709
300.0034952
300.00328
300.0033415
300.0032473
300.0031641
300.0031367
300.0032146
300.0032625
300.0032897
300.0033752
300.0033756
300.0033964
300.0033925
300.0034003
300.0035407
300.0033984
300.0032943
300.0033326
300.0033243
300.0032284
300.0030769
300.00303
300.0030387
300.0031415
300.0032286
300.0032486
300.0032001
300.0031251
300.0032247
300.0033721
300.0034591
300.0035219
300.0035838
300.0036027
300.0034002
300.0031769
300.003303
300.003214
300.0031167
300.0031109
300.0031998
300.00325
300.0033014
300.0033725
300.0033871
300.0034055
300.0033928
300.0033927
300.0034114
300.0033384
300.0032228
300.0030951
300.0031639
300.0031468
300.0030681
300.0030852
300.0031114
300.0031772
300.0032216
300.0032291
300.0031796
300.0031542
300.00324
300.0033245
300.003398
300.0034624
300.0034956
300.0033649
300.0031478
300.0032761
300.003211
300.0031928
300.0031061
300.0031145
300.0031617
300.0032199
300.0032511
300.0033069
300.0033499
300.0033839
300.0033719
300.0035677
300.0033708
300.0032883
300.0032349
300.0031886
300.0031703
300.0031533
300.0031413
300.003188
300.0032117
300.0032445
300.0032386
300.0032379
300.0032163
300.0032159
300.0032356
300.0032677
300.0032705
300.0033071
300.0033449
300.003203
300.0032893
300.0034797
300.0031601
300.0031801
300.0031366
300.003155
300.0031612
300.0031901
300.0032188
300.0032559
300.0033089
300.0033671
300.0033799
300.003355
300.0032853
300.0032417
300.003216
300.0031812
300.0031707
300.0031922
300.0032232
300.0032671
300.0032826
300.0033
300.0032877
300.003294
300.003318
300.0033388
300.0033595
300.0034312
300.0032997
300.0032166
300.0031665
300.0032636
300.0034407
300.0036069
300.0031715
300.003207
300.0032084
300.0032181
300.0032101
300.0031993
300.0032007
300.0032257
300.0032615
300.0033181
300.0033238
300.0033028
300.0032411
300.0032183
300.0031919
300.0031803
300.0032062
300.0032545
300.003294
300.0033222
300.0033325
300.0033411
300.003329
300.0033299
300.0033254
300.0032993
300.0032292
300.0032003
300.0029954
300.0026712
300.0029221
300.0032904
300.0035492
300.0036536
300.0032067
300.0032457
300.0032463
300.0032643
300.0032545
300.0032407
300.0032133
300.0032073
300.0032345
300.0032748
300.0032773
300.0032537
300.0032273
300.0032097
300.0032112
300.0032417
300.0032878
300.00333
300.0033724
300.003372
300.0033695
300.0033745
300.0033657
300.0033756
300.0034514
300.0035387
300.0035784
300.0045284
300.003489
300.002765
300.0029873
300.0033142
300.0034868
300.0036212
300.0032554
300.0032737
300.0033034
300.0032513
300.0033053
300.0033267
300.0033184
300.0032929
300.0032595
300.0032537
300.0032718
300.0032629
300.0032376
300.0032226
300.0032294
300.0032618
300.0033059
300.0033419
300.0033629
300.0033804
300.0033875
300.0033858
300.0033918
300.003337
300.0033162
300.0033065
300.0032698
300.0031071
300.0026033
300.0013581
299.9984945
299.997263
300.0020113
300.0032847
300.0036676
300.0032749
300.0032922
300.0031985
300.0033215
300.0032756
300.0033021
300.0033104
300.0032921
300.0032741
300.003258
300.0032514
300.0032551
300.003253
300.0032745
300.0033138
300.0033941
300.0034027
300.0034351
300.0034328
300.0036736
300.0034574
300.0034108
300.0034067
300.0033288
300.0033152
300.0034654
300.0035634
300.003518
300.0035445
300.0033479
300.0030133
300.0030152
300.0032897
300.0034343
300.0035719
300.0033034
300.0033175
300.0033354
300.0033399
300.0033542
300.0033805
300.0034316
300.0033944
300.0033765
300.0033791
300.0033346
300.0033101
300.0033112
300.0033322
300.0033619
300.0034023
300.0034141
300.0034333
300.0034264
300.0034333
300.0034266
300.0033845
300.0033334
300.0032585
300.0024086
300.0032391
300.0033802
300.0032983
300.0031983
300.0030098
300.0025787
300.0028292
300.0031831
300.00344
300.0036747
300.0033115
300.0033144
300.0033083
300.0033137
300.00333
300.0033317
300.0033476
300.0033408
300.0033423
300.003343
300.0033376
300.0033432
300.003364
300.0034291
300.0034257
300.0038468
300.0034463
300.0035198
300.0034566
300.0034667
300.0034589
300.0033691
300.0032508
300.0027889
299.9983547
299.9915372
300.0039466
300.0037454
300.0036211
300.0034069
300.0032748
300.0032175
300.0032972
300.003392
300.0035946
300.003319
300.0033172
300.0033334
300.0033347
300.0033548
300.0033656
300.0033703
300.0033684
300.0033681
300.003362
300.0033642
300.0033716
300.0033863
300.0033976
300.0034401
300.0034257
300.0035441
300.0034233
300.0034246
300.0033956
300.0033378
300.0028374
300.0019844
299.9980727
300.0017312
300.0031672
300.0035515
300.0034958
300.0033669
300.0032625
300.003262
300.003317
300.0033814
300.003485
300.003315
300.0033062
300.0033214
300.0033201
300.003334
300.0033298
300.0033448
300.0033468
300.0033575
300.0033608
300.003371
300.0033852
300.0020614
300.0032282
300.0035286
300.003535
300.003483
300.0033956
300.003304
300.0032321
300.0032286
300.0032605
300.0032964
300.0033091
300.0032984
300.0033175
300.003297
300.0033265
300.0033289
300.0032774
300.0033323
300.0032061
300.003079
300.0030868
300.0030747
300.0031133
300.0031376
300.0031803
300.0031739
300.0031974
300.0032184
300.0032479
300.0032747
300.0032972
300.003314
300.0033241
300.0033295
300.0033348
300.0033393
300.0033432
300.0033464
300.003349
300.003351
300.0033525
300.0033535
300.0033542
300.0033546
300.0033548
300.003355
300.003355
300.0033551
300.0033553
300.0033563
300.0033824
300.0034372
300.0033583
300.0032015
300.0032266
300.0031504
300.0031471
300.0031091
300.0031336
300.0031441
300.0031835
300.00319
300.0032084
300.0032328
300.0032597
300.003284
300.0032979
300.003304
300.0033116
300.0033192
300.0033267
300.0033333
300.0033385
300.0033423
300.0033451
300.0033471
300.0033484
300.0033493
300.0033498
300.0033502
300.0033505
300.003351
300.0033528
300.0033553
300.0033747
300.0033988
300.0033413
300.0032923
300.0033065
300.0032097
300.0031818
300.003095
300.0030996
300.0031479
300.0031949
300.0031964
300.0031911
300.0031948
300.0032066
300.003238
300.0032535
300.0032666
300.0032761
300.0032875
300.0032997
300.0033116
300.0033213
300.0033284
300.0033334
300.0033368
300.0033392
300.0033408
300.0033419
300.0033426
300.0033434
300.0033456
300.0033511
300.003355
300.0033437
300.0033375
300.0032701
300.0033765
300.003383
300.0032519
300.0032054
300.0030955
300.0031005
300.0031867
300.0031947
300.0031913
300.0031918
300.0031798
300.0031566
300.0031798
300.0031865
300.003232
300.0032393
300.0032499
300.0032627
300.0032812
300.0032991
300.0033126
300.003322
300.0033284
300.0033327
300.0033355
300.0033374
300.0033387
300.0033401
300.0033435
300.0033503
300.0033546
300.0033028
300.0032896
300.0032247
300.0033691
300.0033879
300.0032895
300.0032
300.003106
300.0031424
300.003331
300.0032313
300.003208
300.0031938
300.0031861
300.0031231
300.0031331
300.0031173
300.003218
300.0032217
300.0032337
300.0032338
300.0032487
300.0032701
300.003291
300.003307
300.003318
300.0033255
300.0033306
300.0033339
300.0033361
300.003338
300.003342
300.0033492
300.0033538
300.0032498
300.003254
300.0032134
300.0033124
300.0033013
300.0032907
300.0031731
300.0031106
300.0031691
300.0033033
300.0032728
300.0032197
300.0031812
300.0031593
300.0031045
300.0030939
300.0031157
300.0031617
300.003208
300.0032364
300.00322
300.0032237
300.0032357
300.003259
300.003283
300.0033014
300.0033142
300.0033229
300.0033286
300.0033323
300.0033351
300.0033396
300.0033472
300.0033522
300.0032022
300.0032441
300.0032122
300.0032304
300.0032498
300.003269
300.0031879
300.0031731
300.0032059
300.0032674
300.0031687
300.003351
300.0032059
300.0030309
300.0030723
300.0030912
300.0032113
300.0031894
300.0031822
300.0032463
300.0032337
300.0032255
300.0032154
300.0032255
300.0032498
300.0032756
300.0032959
300.0033103
300.0033198
300.0033259
300.0033301
300.0033354
300.0033436
300.0033491
300.0031249
300.0031907
300.0031636
300.0030952
300.0032313
300.0030092
300.0032239
300.0032159
300.0032977
300.0032657
300.0031794
300.0032984
300.0031617
300.0029721
300.0029751
300.0031382
300.0032911
300.003124
300.0032873
300.0033527
300.0032685
300.0032365
300.0032045
300.0031951
300.0032106
300.0032387
300.003267
300.0032897
300.0033055
300.0033154
300.0033215
300.0033279
300.0033368
300.003343
300.0030581
300.0031308
300.0031277
300.002935
300.0029883
300.0013232
300.0032322
300.0032347
300.0034465
300.0032586
300.0033187
300.003285
300.0032504
300.0028285
300.0031132
300.0031703
300.0032916
300.0031797
300.0032949
300.0033851
300.0033309
300.0032708
300.0032128
300.0031842
300.0031851
300.0032039
300.0032305
300.0032587
300.0032824
300.0032982
300.0033068
300.0033144
300.003324
300.0033311
300.0030598
300.0030727
300.0031312
300.0029421
300.0024831
300.0022745
300.0025527
300.0031828
300.0034287
300.0032725
300.0033672
300.0032499
300.003317
300.0028569
300.0030752
300.0032365
300.0032664
300.003328
300.0034202
300.0034288
300.0033329
300.0032666
300.0032082
300.003186
300.0031844
300.0031913
300.0032023
300.0032223
300.0032489
300.0032715
300.0032831
300.003291
300.0033009
300.003307
300.0031344
300.003029
300.0031232
300.0029307
300.0026188
300.0021638
300.0026975
300.0031337
300.0034178
300.0033032
300.003427
300.0033198
300.0032261
300.0031219
300.0030849
300.0032834
300.0033455
300.0033792
300.0033838
300.0033852
300.0032642
300.0032234
300.0031925
300.0031995
300.0032048
300.0032073
300.0032016
300.0031986
300.0032106
300.0032343
300.0032521
300.003258
300.003263
300.0032598
300.0031665
300.0031206
300.0030539
300.0030608
300.0030469
300.0025431
300.0031152
300.0030449
300.0034915
300.0032466
300.0032542
300.003253
300.0032286
300.003217
300.0031263
300.0032546
300.0033393
300.00335
300.0033443
300.0033165
300.0031864
300.0031751
300.0032054
300.0032646
300.0032602
300.0032451
300.0032231
300.0031971
300.0031818
300.0031964
300.0032302
300.0032296
300.0032177
300.0031847
300.0032005
300.003141
300.0031058
300.0031285
300.0032854
300.0029904
300.0029975
300.0029956
300.0030299
300.0031274
300.0033684
300.0033389
300.0034035
300.0032915
300.0031668
300.0031722
300.0032097
300.0032594