/*--------------------------------*- C++ -*----------------------------------*\
  =========                 |
  \\      /  F ield         | OpenFOAM: The Open Source CFD Toolbox
   \\    /   O peration     | Website:  https://openfoam.org
    \\  /    A nd           | Version:  8
     \\/     M anipulation  |
\*---------------------------------------------------------------------------*/
FoamFile
{
    version     2.0;
    format      ascii;
    class       volVectorField;
    location    "0.4";
    object      U;
}
// * * * * * * * * * * * * * * * * * * * * * * * * * * * * * * * * * * * * * //

dimensions      [0 1 -1 0 0 0 0];

internalField   nonuniform List<vector> 
67193
(
(-0.2069650906 -0.1916351012 -0.009613228237)
(-0.06250600183 -0.2149790155 -0.03196764294)
(0.1040090357 -0.2044779418 0.06524715187)
(0.1354648248 -0.2143470018 0.1397437542)
(0.1924352067 -0.2118931365 0.1866214418)
(0.2079782331 -0.1780183395 0.2210770938)
(0.17543735 -0.1378207676 0.2309846007)
(0.1344904891 -0.09859587729 0.2285985405)
(0.03698144608 -0.07413495228 0.2330230749)
(-0.01276054011 -0.196086281 0.246467238)
(0.1280728163 -0.2548046838 0.2236398304)
(0.1919043775 -0.2071576525 0.2526182436)
(0.2225639344 -0.1446252803 0.2414016862)
(0.2138376014 -0.0923031085 0.1943946995)
(0.1874343736 -0.06093687315 0.1399939648)
(0.1629980617 -0.04644852141 0.1046851486)
(0.1215505659 -0.03446032421 0.08172638154)
(0.1108939019 -0.0554336264 0.09261662255)
(0.1336623272 -0.04700697825 0.07914582915)
(0.1327027726 -0.0380833202 0.06538233531)
(0.1286079117 -0.02838297927 0.05056846821)
(0.119151737 -0.02066143244 0.03833630945)
(0.1074392653 -0.01515517501 0.02918877424)
(0.0952807505 -0.0113843197 0.02272745996)
(0.0834882348 -0.008857504706 0.0182665139)
(0.07239159613 -0.007151488578 0.01518323252)
(0.06203441213 -0.005978858259 0.01303050176)
(0.05234677859 -0.005161934953 0.01150906657)
(0.04323287647 -0.004591335789 0.01042623763)
(0.03460809389 -0.004199483937 0.009659185333)
(0.02639719804 -0.003946524553 0.009118741278)
(0.01853209139 -0.003799364331 0.008748348144)
(0.01091368441 -0.003725625154 0.008505062507)
(0.003591256989 -0.00354561142 0.00819982411)
(-0.1830592026 -0.2268137521 -0.09015012969)
(-0.06993733861 -0.2405792361 -0.09766995717)
(0.07881647211 -0.3002129887 -0.02007939677)
(0.09418969929 -0.3464801412 0.01726031774)
(0.1416699044 -0.3692587269 0.06303187758)
(0.1703608829 -0.338201612 0.1275710378)
(0.1453789993 -0.2952877906 0.1847708579)
(0.1030178139 -0.2635142964 0.2419755065)
(0.02677023319 -0.2529946695 0.2628308706)
(-0.002227772425 -0.470969452 0.08800817779)
(0.1744251267 -0.518175387 -0.04640922837)
(0.2239422464 -0.4682565134 0.08024740215)
(0.2640153091 -0.3858240858 0.1933042975)
(0.25794986 -0.2814718322 0.2352582164)
(0.2212284946 -0.1935047815 0.1969513273)
(0.1886940981 -0.1419125306 0.1536597525)
(0.1227783461 -0.1017036289 0.1126220337)
(0.1118653096 -0.1871227208 0.1318839999)
(0.1574313703 -0.159417197 0.1184115392)
(0.1570708695 -0.1227046714 0.1003810808)
(0.1499794644 -0.08931149492 0.07422079705)
(0.1356543427 -0.06384798965 0.05280076951)
(0.119597449 -0.04626979131 0.03752541928)
(0.1041459873 -0.03450946911 0.02756180717)
(0.09000569509 -0.0267763252 0.02119165693)
(0.0772874084 -0.02161197518 0.01706993461)
(0.06578263053 -0.01807325878 0.01432647706)
(0.05524073582 -0.0156035818 0.01245451056)
(0.04545496629 -0.01387443167 0.01115521293)
(0.03627068149 -0.01268766967 0.01025043641)
(0.02757817402 -0.01191865405 0.00962862189)
(0.01930025206 -0.01147863222 0.009204641945)
(0.01129988776 -0.01127026428 0.00890496233)
(0.003742864857 -0.01080486419 0.008533456384)
(-0.2075795662 -0.2904563406 -0.04286055814)
(-0.1059231002 -0.3125791209 -0.04898435758)
(0.03362829068 -0.3982734105 -0.008878047434)
(0.05224033369 -0.4739068439 -0.04429898289)
(0.1084056807 -0.53567804 -0.001532664969)
(0.1587936158 -0.5149436052 0.09169685964)
(0.1335602765 -0.475475491 0.1860319616)
(0.04926811717 -0.4630387178 0.2536921388)
(-0.05592896602 -0.4786645123 0.1643831593)
(-0.01553431116 -0.7147001091 -0.1846563763)
(0.2123723024 -0.6806990733 -0.339138325)
(0.2693743615 -0.6498818663 -0.1943855906)
(0.3351847249 -0.6176983794 0.01527963599)
(0.3598264259 -0.5132536065 0.1932384289)
(0.3084917764 -0.3706685885 0.2533482491)
(0.2505333471 -0.2695078504 0.2418577227)
(0.128087155 -0.1893201853 0.1722373239)
(0.142777997 -0.3834610091 0.09971274227)
(0.2148696364 -0.3417023781 0.1288492267)
(0.2180045276 -0.2499763866 0.1494333518)
(0.1977397585 -0.1727138019 0.1210600174)
(0.1696977562 -0.1179969695 0.08574311659)
(0.1423783802 -0.08294615238 0.05706721174)
(0.119026508 -0.06074530916 0.03852970667)
(0.09971973599 -0.0467188327 0.02741377595)
(0.08379184147 -0.03757711401 0.02080640257)
(0.07026040648 -0.03136736599 0.01671703459)
(0.05836923384 -0.02703279306 0.01406963044)
(0.04762782349 -0.02399475491 0.01230373406)
(0.03772932451 -0.02191532701 0.01111000245)
(0.02848046979 -0.02057168176 0.01030596524)
(0.01977788121 -0.01979057905 0.009762043223)
(0.01151171446 -0.01938267984 0.00936616797)
(0.003811284565 -0.0185220919 0.008939964442)
(-0.2618668474 -0.3484859364 0.05569989293)
(-0.1773510054 -0.3773904352 0.01890476505)
(-0.0545495107 -0.4496600147 -0.02695799454)
(-0.007109077609 -0.5262146622 -0.1110219324)
(0.08774739837 -0.6604411657 -0.06819146107)
(0.1576798817 -0.6693825184 0.07480998003)
(0.1026176954 -0.6078149878 0.2262473233)
(-0.09114672854 -0.6075143789 0.1971942793)
(-0.2029315984 -0.6485569469 -0.09203939195)
(-0.02866672636 -0.787340496 -0.406462637)
(0.2607127261 -0.7049462977 -0.461730838)
(0.3181785631 -0.6724075991 -0.3790725797)
(0.3786647975 -0.7524726946 -0.1909241324)
(0.4595439691 -0.7131655145 0.01048606256)
(0.434239806 -0.568409446 0.2171349708)
(0.343456912 -0.421997543 0.333840066)
(0.1313094392 -0.3267298349 0.2305588387)
(0.2238992747 -0.5706826456 -0.1310310399)
(0.3078916176 -0.5478452782 -0.03119012965)
(0.3298309697 -0.4117157105 0.1238071322)
(0.2872729572 -0.2847624334 0.1602404199)
(0.2313414968 -0.1894079398 0.13298531)
(0.1816252306 -0.1274592513 0.09115842572)
(0.1437547938 -0.09063007142 0.05933213971)
(0.1153993036 -0.0688986115 0.03916414155)
(0.09410847501 -0.05523627463 0.02762873229)
(0.07732933087 -0.04601275689 0.02093462954)
(0.06331099708 -0.03952674529 0.01683635773)
(0.0510550588 -0.03495740282 0.01421221993)
(0.04001530891 -0.03184158341 0.01249624589)
(0.02990202648 -0.02986662082 0.01137961352)
(0.02059068501 -0.02871904604 0.01063555159)
(0.01190436345 -0.02807012979 0.01011304091)
(0.003924727638 -0.02683972204 0.009620065016)
(-0.3152696766 -0.4884810694 0.09948365814)
(-0.2799458138 -0.4920631444 0.006980607353)
(-0.1674348427 -0.5034111003 -0.07838507206)
(-0.07006393101 -0.5482766879 -0.158083109)
(0.0848667173 -0.7499489597 -0.1574874567)
(0.1750087222 -0.8110789292 0.02834098266)
(0.07800272661 -0.6898276292 0.2501671335)
(-0.2367676428 -0.6635926378 0.06985206514)
(-0.3450717677 -0.6916611435 -0.3028127601)
(-0.07537524558 -0.7479250588 -0.5691580601)
(0.3236667688 -0.6713730631 -0.4890537789)
(0.3736683698 -0.6428653693 -0.4121206832)
(0.3647095522 -0.8521990386 -0.2903070816)
(0.4978496694 -0.8520377516 -0.2819980116)
(0.5324087464 -0.7450011315 0.01946691894)
(0.4234172591 -0.5737175076 0.3441557611)
(0.06878065142 -0.5144522381 0.1958406883)
(0.321950582 -0.6577438927 -0.4519982868)
(0.401617783 -0.6573600484 -0.3693079228)
(0.47168285 -0.537054995 -0.09239859165)
(0.4197213445 -0.3889673844 0.1061253928)
(0.3275500868 -0.2673311731 0.1585245651)
(0.2437816047 -0.181088411 0.1286984617)
(0.180903908 -0.126009792 0.09067252985)
(0.1380203898 -0.09486767783 0.05975052163)
(0.108830629 -0.07597218867 0.04007880479)
(0.08747885842 -0.06307044494 0.02849543041)
(0.07047280791 -0.05381054063 0.02163541495)
(0.05602925437 -0.04722549424 0.01742501984)
(0.04328531968 -0.04277709365 0.0147750251)
(0.03188231349 -0.04009066916 0.01313383259)
(0.02171985817 -0.03861119457 0.01207305907)
(0.01244137032 -0.03774446047 0.01136163935)
(0.004065480762 -0.03618171733 0.01075663421)
(-0.3383784012 -0.6188941999 0.1073531963)
(-0.3752340628 -0.5815371148 -0.03036487306)
(-0.2914320241 -0.5513961861 -0.1125236067)
(-0.1400156568 -0.5976060991 -0.1951480123)
(0.07199858405 -0.8168213541 -0.2616602219)
(0.2197907735 -0.9562276387 -0.0721024197)
(0.1539948784 -0.7149340144 0.2191602407)
(-0.275652789 -0.6134688501 0.03806845638)
(-0.389752745 -0.594446107 -0.3399069281)
(-0.09199831693 -0.6014364866 -0.6700669416)
(0.3545422674 -0.5366835908 -0.4925857279)
(0.3430712961 -0.5448036827 -0.353859602)
(0.2735873872 -0.922040723 -0.3397879755)
(0.4854536621 -0.8939109633 -0.6210213732)
(0.5781932107 -0.8223142215 -0.333581989)
(0.4306662415 -0.6462606069 0.2347245953)
(-0.07239283199 -0.6680798563 0.03003022633)
(0.3908887699 -0.6900784698 -0.6359774172)
(0.4819062481 -0.642388525 -0.6017004008)
(0.5921075045 -0.5499046544 -0.3886204493)
(0.5629273071 -0.4330517637 -0.07865001871)
(0.4431936887 -0.3170208003 0.1143196891)
(0.3217589236 -0.2274817682 0.1455719482)
(0.2307553218 -0.1659815676 0.1210652665)
(0.1681708417 -0.1272678213 0.08892364133)
(0.1289470204 -0.102671755 0.06180576368)
(0.101830144 -0.0847452756 0.04254240649)
(0.08075888672 -0.07132279063 0.03036414447)
(0.06315024273 -0.0616718132 0.02300974081)
(0.04780777447 -0.05527022083 0.01859275807)
(0.03443472905 -0.05176330182 0.01606865006)
(0.02312505148 -0.05006583194 0.01448509668)
(0.01306085742 -0.04896188711 0.0134502927)
(0.004177332453 -0.04717266294 0.01264149721)
(-0.3297123941 -0.6921818484 0.153274223)
(-0.4613981219 -0.6323753589 -0.03235870977)
(-0.4206570058 -0.5993147654 -0.1416702977)
(-0.2328576383 -0.6791502606 -0.2435668398)
(-0.01547865578 -0.8767977356 -0.355846226)
(0.3038944873 -1.235728443 -0.2366608494)
(0.4128840004 -0.7381415781 0.09634856338)
(-0.06403683911 -0.5214034635 0.1841776497)
(-0.3026056266 -0.4496469315 -0.2119106628)
(-0.05609605095 -0.3818739563 -0.6448310215)
(0.3209232125 -0.3798985705 -0.4104769289)
(0.07303072879 -0.3721731552 -0.2303318272)
(0.153157334 -0.8494557304 -0.5680871)
(0.5135637755 -0.8190965516 -0.87326767)
(0.62015652 -0.7122856217 -0.7164453384)
(0.3651194535 -0.5474625673 -0.007214009481)
(-0.1343805847 -0.5511557507 -0.1773724551)
(0.3829746553 -0.5489117344 -0.7382813005)
(0.5495263012 -0.4869794101 -0.6565259502)
(0.6716359808 -0.4293440955 -0.5195015524)
(0.6639058792 -0.3656508741 -0.2555944405)
(0.5362958745 -0.300658678 0.01496133346)
(0.3895113524 -0.244949606 0.1299346099)
(0.2802418678 -0.2029541718 0.138521222)
(0.2054164147 -0.1712660616 0.1177830287)
(0.1570895062 -0.1426560066 0.09327791031)
(0.1233132086 -0.1160446955 0.06820863386)
(0.09636438132 -0.09486278673 0.04738593256)
(0.0737646359 -0.07976519661 0.03342763272)
(0.05413447312 -0.07009270194 0.02525688367)
(0.03753132694 -0.06569427938 0.02117921657)
(0.02474951889 -0.06415352902 0.01872502501)
(0.01367737448 -0.0626527445 0.01708976416)
(0.004137131861 -0.06092488287 0.01588498613)
(-0.2965103603 -0.6900348528 0.2050439614)
(-0.5495958133 -0.6210647514 -0.03085383042)
(-0.5710500175 -0.5982507583 -0.1866035757)
(-0.3785261864 -0.7187466831 -0.2995706271)
(-0.3224033794 -0.9245410075 -0.4366297841)
(0.3530424229 -1.715583514 -0.9486469253)
(0.8140130439 -0.7908628531 -0.1784474825)
(0.3842445266 -0.5204773041 0.2653181185)
(-0.09455137082 -0.2514238141 0.1594071835)
(-0.009855173022 -0.1269589041 -0.4483787751)
(0.1652675494 0.02729870763 -0.08631519713)
(-0.5113507594 -0.1422297425 -0.2288065717)
(0.08682861614 -0.5351217159 -1.051912442)
(0.5597770324 -0.5572737588 -1.016415602)
(0.7031008075 -0.4483075427 -0.887784989)
(0.3835243365 -0.2806149618 -0.2888975395)
(0.01497541593 -0.2615379298 -0.3528846145)
(0.3632667357 -0.3395274445 -0.7952712708)
(0.5031607976 -0.3176799547 -0.6833745486)
(0.58377826 -0.2903696988 -0.429847694)
(0.5914329263 -0.2364224349 -0.1861189564)
(0.4870187011 -0.2206048077 0.03256330876)
(0.3837818811 -0.2346177977 0.1279394532)
(0.3029305581 -0.239807433 0.1448940241)
(0.2434202519 -0.2316269265 0.1319219584)
(0.1986506112 -0.2065946035 0.1174102146)
(0.1593504764 -0.1666664422 0.1009721254)
(0.1228331611 -0.1291991536 0.07708426833)
(0.09099903987 -0.1035231846 0.05333045492)
(0.06342494212 -0.08809005625 0.03742210593)
(0.0410294142 -0.08314388042 0.03054545332)
(0.02657893585 -0.08278126572 0.02671459276)
(0.01420555071 -0.0804053755 0.02390240913)
(0.003700930263 -0.07939937944 0.02187237513)
(-0.2446951776 -0.6155440251 0.218916262)
(-0.6328367628 -0.5326939287 -0.04263327681)
(-0.7284502249 -0.5048885494 -0.240493418)
(-0.6264872864 -0.6066678693 -0.3492268054)
(-0.9215886776 -0.8188892513 -0.7063609027)
(0.07089984173 -1.696702566 -4.73686034)
(1.383074427 -0.788266024 -0.8171172903)
(0.6608514622 -0.4618048408 0.03070202228)
(0.2426433116 -0.2241804298 0.3405732612)
(0.01913044444 0.2026296096 0.03886567091)
(-0.02537723584 0.2738233684 0.01077883274)
(-0.5215065835 -0.02437451395 -0.5233191902)
(0.1976764877 -0.3235194133 -1.315608142)
(0.5570164403 -0.1957883821 -0.9860963402)
(0.7598674122 0.01501452084 -0.5727454338)
(0.4679854349 0.1928665456 -0.01258260112)
(0.2388455501 0.2560121899 -0.001885604428)
(0.323277114 0.2889348629 -0.2133652735)
(0.3251339945 0.2575694792 -0.0555791139)
(0.3177004064 -0.1180237293 0.1025908891)
(0.308817896 -0.2420590004 0.1284424728)
(0.2911646573 -0.3186234984 0.1182027215)
(0.3019052525 -0.3542669842 0.1097890218)
(0.3002320762 -0.3517159378 0.1129218911)
(0.2816516944 -0.331717841 0.110781818)
(0.2534598554 -0.2940758354 0.1117789)
(0.2165474681 -0.2416945221 0.1156915322)
(0.1698631476 -0.1831469859 0.1096746209)
(0.1210250544 -0.1365708692 0.08656532868)
(0.07826250951 -0.110361317 0.0601132145)
(0.04566596655 -0.1065234745 0.04779681917)
(0.02955505927 -0.1098537762 0.04175924815)
(0.0149717231 -0.1052669088 0.03735264317)
(0.003037667016 -0.1061590181 0.03409024477)
(-0.1416593878 -0.4916242578 0.1823060388)
(-0.6513210632 -0.3421461221 -0.04401572669)
(-0.8319090749 -0.2269151874 -0.2850280089)
(-0.8177746942 -0.2071853649 -0.4343703689)
(-1.06501291 -0.3455619843 -0.9686320734)
(0.2562807743 -0.4627787887 -3.142685595)
(1.49718856 -0.3481302023 -1.159954657)
(0.9984808665 -0.1419277907 -0.3303640451)
(0.632962218 -0.007327672935 0.1091041885)
(0.3268587965 0.2634443723 0.1697136723)
(0.3171488582 0.4024792373 0.1413476786)
(0.07910388356 0.2720389325 -0.002081734321)
(0.1910224745 0.3390198892 -0.5702313888)
(0.3736830939 0.3112157217 -0.3083703757)
(0.3326260028 0.1626346774 0.09390944886)
(0.05680284885 0.05289373982 0.2878274522)
(0.001616735633 0.2257035343 0.1400914759)
(0.1337664335 0.1679810618 0.07323928664)
(0.1497456561 -0.1725309006 0.2273537916)
(0.2864775201 -0.459410986 0.177901187)
(0.2930946038 -0.447278095 0.1718205477)
(0.2968437771 -0.4880989253 0.06025316862)
(0.3281765918 -0.509509162 0.006484536878)
(0.3531759733 -0.4830955186 0.01634676715)
(0.3535526024 -0.4374877979 0.03452547714)
(0.3341327845 -0.3824809288 0.05576267611)
(0.2971261621 -0.3180804351 0.08636657658)
(0.2421707275 -0.2469869456 0.1154247344)
(0.1757927345 -0.1816919381 0.1182527126)
(0.1065534333 -0.1379481444 0.09467981817)
(0.05809582808 -0.1398598028 0.07292871108)
(0.03912686213 -0.151966518 0.06261557194)
(0.0191792421 -0.1428294751 0.06032964609)
(0.0057017039 -0.1476355176 0.05896869157)
(0.1358036993 -0.4144971875 0.0868208634)
(-0.3031097286 -0.1281395062 0.04221907849)
(-0.5459117068 -0.01577679541 -0.3274057322)
(-0.4587277311 0.09166414172 -0.5098462743)
(-0.2571268489 0.05038285005 -0.7611590273)
(0.3990480469 0.880400032 -1.010709824)
(0.7521375294 0.2429007698 -0.6203077777)
(0.6108988462 0.1694804564 -0.3635975772)
(0.4838232542 0.2262155344 -0.02187460583)
(0.3341243225 0.3178450887 0.154891194)
(0.3438609204 0.3339946106 0.1813557907)
(0.2342407654 0.1816273343 0.1580100279)
(0.2273174671 0.4195757407 -0.09760738592)
(0.3088048623 0.2122806773 0.08957835706)
(0.1979831875 0.05950028177 0.2740712305)
(-0.02266788105 0.005565870276 0.2351512232)
(-0.08665284511 -0.01512020144 0.1591686031)
(0.02595507182 -0.00401709944 0.1930701073)
(-0.0060188563 -0.3682914303 0.1078395762)
(0.1999446154 -0.6698608024 -0.04651317792)
(0.1806107425 -0.6238268519 0.03106738664)
(0.2713003517 -0.6331416221 -0.1414137181)
(0.3418809282 -0.6222507128 -0.1951640845)
(0.4040514679 -0.5712596205 -0.1546283862)
(0.4283333714 -0.5035624949 -0.09247455017)
(0.4195859143 -0.4341283869 -0.03871369171)
(0.3864765421 -0.3674114504 0.01130231193)
(0.3307282416 -0.2983097898 0.07228840278)
(0.2529611036 -0.2268111002 0.1206368058)
(0.1611832341 -0.1747043659 0.1245543875)
(0.09213437055 -0.1848030869 0.09406702843)
(0.06660426731 -0.2096672976 0.07386951157)
(0.03676174148 -0.200896047 0.08230429878)
(0.02059076022 -0.2109073039 0.09643007259)
(0.3682839039 -0.4314626582 -0.1056312345)
(0.361293088 -0.2454485867 0.04983085432)
(0.0967926472 0.001194781484 0.278857386)
(-0.3142835637 0.3031938874 -0.1240374775)
(-0.04049872073 0.2114564326 -0.6050400057)
(0.3944277284 0.5672908813 -0.4429005125)
(0.6302459188 0.283410155 -0.2710624062)
(0.4018306899 0.2108798556 0.02402202685)
(0.2743771373 0.2246500686 0.1877448449)
(0.2017506731 0.2896249526 0.1967789137)
(0.2292850837 0.2287805723 0.1943055038)
(0.162348021 0.06788656695 0.166461215)
(0.1953489949 0.1807450175 0.1296544737)
(0.2501288663 -0.001464514453 0.1358847452)
(0.1860405108 -0.06238087328 0.1583782981)
(0.09820535095 -0.08387754253 0.2168694175)
(-0.04781314487 -0.1060554874 0.2563252098)
(-0.07507358994 -0.1960881562 0.2054722792)
(-0.05083600177 -0.583256178 -0.1457510001)
(0.1321027409 -0.7921937354 -0.3081019951)
(0.08247117859 -0.7663925631 -0.1763073076)
(0.2471830197 -0.6976592407 -0.3145536656)
(0.3521070379 -0.6421527948 -0.33363277)
(0.4470132361 -0.576359795 -0.2923386955)
(0.4968700611 -0.5095204957 -0.2201200228)
(0.5036435825 -0.4409307414 -0.1423556458)
(0.4702693903 -0.373009505 -0.07428551707)
(0.4156588487 -0.3155027147 -0.002622326071)
(0.3364787675 -0.2567996869 0.07949583099)
(0.2315279103 -0.2114035715 0.1237050722)
(0.1473119663 -0.2265553334 0.09514896161)
(0.1126945876 -0.2611957416 0.06235437638)
(0.07441624336 -0.2667915361 0.08210383726)
(0.04783969301 -0.2851282015 0.1259310037)
(0.4464776719 -0.4046747919 -0.2055357147)
(0.5073822432 -0.2821208401 -0.1038551412)
(0.4704983949 -0.09878006619 0.06835257941)
(0.1686922777 0.2597531327 0.1437440375)
(0.1890796762 0.4279409115 -0.2066011077)
(0.3967203364 0.5919342985 -0.1765553268)
(0.3632192636 0.3078788944 0.07644484628)
(0.05862177613 0.08607670234 0.308334665)
(-0.002012677979 0.02609651417 0.2010167747)
(0.006594811267 0.0001740978575 0.1633908937)
(0.02055801282 -0.06844624205 0.08669999933)
(0.09008121109 -0.1197482737 0.030351054)
(0.1572384389 -0.06397718744 0.06696402356)
(0.2016998322 -0.1017015974 0.05498865766)
(0.1650067878 -0.1556336689 0.08480348957)
(0.1114735336 -0.1749996306 0.1858054861)
(-0.04761625124 -0.2447814576 0.2385443241)
(-0.1654247223 -0.3533385353 -0.0309519627)
(-0.01858731417 -0.6252529861 -0.3713194154)
(0.05085695891 -0.7715767595 -0.4314619279)
(0.0356557852 -0.7344895861 -0.3169936686)
(0.238924279 -0.626988202 -0.4113070482)
(0.3919623434 -0.5544635685 -0.3949630391)
(0.5037056445 -0.492743888 -0.3502498494)
(0.557612121 -0.4355121447 -0.2844445661)
(0.5688699766 -0.3819261158 -0.2097170811)
(0.5394891392 -0.3318452203 -0.1423231839)
(0.4758697243 -0.2905335671 -0.06810032248)
(0.3939061497 -0.2554203784 0.02176696197)
(0.2861990855 -0.231316034 0.0888813613)
(0.1951756147 -0.2527108997 0.06602012468)
(0.1599798299 -0.2950881692 0.02045159033)
(0.1174855615 -0.317417952 0.0465837968)
(0.07658227561 -0.3452003456 0.1266862439)
(0.4706666878 -0.3235109982 -0.2557799573)
(0.5718415712 -0.25268687 -0.1721001724)
(0.5758374623 -0.1069159285 -0.09933032235)
(0.4776610905 0.09870318504 0.05010983507)
(0.3885131184 0.3383459762 0.04453367133)
(0.3966869292 0.4073413462 0.100062762)
(0.2348311195 0.2129761905 0.3115481032)
(-0.05922084406 -0.04333538863 0.2174650453)
(-0.1177833599 -0.07482615588 0.08215432333)
(-0.1389618357 -0.1305157102 0.02122358024)
(-0.05980280822 -0.1209684879 -0.04533736122)
(0.05588893895 -0.1204079125 -0.07157253913)
(0.125434928 -0.1221015708 -0.0292562212)
(0.1507917042 -0.1205851653 0.01316770639)
(0.1275441655 -0.258802605 0.07739599739)
(0.02968773057 -0.2530251069 0.1939432084)
(-0.2120781648 -0.3165444742 0.01651157014)
(-0.2948671498 -0.4229013311 -0.3228803612)
(-0.03843699298 -0.5515466707 -0.4860331965)
(0.03264758047 -0.6634039907 -0.4615653793)
(0.1245155579 -0.5381200211 -0.4401283709)
(0.3208593523 -0.427487921 -0.4832344446)
(0.472769718 -0.3578089269 -0.4464066174)
(0.5573662167 -0.3210791289 -0.3832461712)
(0.5870772581 -0.2957210467 -0.305787134)
(0.5820088275 -0.2729096544 -0.2264942949)
(0.5480325224 -0.2479885917 -0.1611959037)
(0.4786155557 -0.2305844683 -0.09068631735)
(0.3800706081 -0.2203697949 -0.002802339981)
(0.2728445884 -0.2239005974 0.04683965077)
(0.1996908328 -0.2594673276 0.007916343115)
(0.1817501503 -0.3050923665 -0.0393250843)
(0.1450417131 -0.3389218183 -0.01048153302)
(0.1008152447 -0.3751753824 0.1003690151)
(0.4789203538 -0.2177204826 -0.2575982326)
(0.5872894669 -0.1715471581 -0.1890716332)
(0.6020377687 -0.1007172107 -0.1353158567)
(0.5371726333 0.01857823522 -0.03162656551)
(0.4394627551 0.1918852231 0.1095254904)
(0.3410376911 0.2477228655 0.2585252175)
(0.06425688516 0.05770629195 0.3039497952)
(-0.1104889669 -0.07920073514 0.06652523298)
(-0.1742576859 -0.1349360771 -0.01493979333)
(-0.1666167558 -0.1514960741 -0.05105520659)
(-0.05987492264 -0.1491136378 -0.1018881393)
(0.0481679922 -0.1152131031 -0.08229460185)
(0.1416680967 -0.09912310045 -0.0356977923)
(0.08474791592 -0.078551552 0.03829848117)
(0.1069559743 -0.206969133 0.1178945983)
(-0.006156101824 -0.1943426466 0.1365716045)
(-0.3380210996 -0.2564979398 -0.2157254509)
(-0.3326747151 -0.3141867565 -0.43537726)
(-0.05964843411 -0.3548562022 -0.6136177312)
(0.1575052684 -0.3787626374 -0.6087293052)
(0.3183849897 -0.2635561791 -0.5826065359)
(0.4560786906 -0.1165942168 -0.5273861637)
(0.5481677796 -0.03318410659 -0.424601487)
(0.5730113067 -0.01086483912 -0.3088773904)
(0.5519073407 -0.03488246219 -0.2151312121)
(0.5124186681 -0.07882028942 -0.159821174)
(0.4632276771 -0.118903173 -0.1226929406)
(0.3847239311 -0.1570397778 -0.05687591106)
(0.2503536799 -0.1866351382 0.02031578471)
(0.1696584301 -0.2274591663 -0.001756881405)
(0.1571256322 -0.2773031492 -0.06607885221)
(0.178720835 -0.3150878857 -0.09046187066)
(0.156126544 -0.3433370726 -0.05666951306)
(0.1153528635 -0.3742675035 0.0709282838)
(0.5098941714 -0.1137622793 -0.2266666603)
(0.6140629352 -0.06180236429 -0.1531052942)
(0.6116860371 -0.01751045854 -0.08976105182)
(0.5183752766 0.03630292554 0.004509919015)
(0.3849732359 0.121311812 0.1669599769)
(0.1845439552 0.1437548452 0.3109082161)
(-0.09121569024 0.01179395249 0.1297256895)
(-0.1588699976 -0.08331323822 -0.03122658218)
(-0.2058749612 -0.1322949024 -0.07038805925)
(-0.1643998471 -0.1565574258 -0.09949668075)
(-0.01827158293 -0.1539165344 -0.1280357376)
(0.09202777105 -0.1075627461 -0.07462485493)
(0.2015552146 -0.1673028081 -0.03982549429)
(0.146442827 -0.1030928276 0.02820872025)
(0.200247607 -0.5697188326 -0.05220878331)
(0.3730080228 -0.2908153213 0.1711351843)
(-0.1605265556 -0.1301739173 -0.01979619265)
(-0.1960974759 -0.1608248165 -0.4111687397)
(0.07699406616 -0.05921439196 -0.6746245467)
(0.3004770076 0.06865634145 -0.6935042572)
(0.4589104681 0.2346604426 -0.5556323402)
(0.5134948792 0.3207716975 -0.391101357)
(0.5048501223 0.3123896585 -0.2556139249)
(0.4778023594 0.24129831 -0.1561694109)
(0.4618815924 0.1610650013 -0.1139137278)
(0.4395789779 0.09571247976 -0.09664464488)
(0.3985152252 0.0255726016 -0.05067698368)
(0.2591625282 -0.05544077014 0.06776455772)
(0.07033162285 -0.1637184905 0.04777021656)
(0.07330805095 -0.2385853538 -0.08001917829)
(0.1203497122 -0.2721591837 -0.1185310893)
(0.1832216408 -0.3019890376 -0.1110705338)
(0.1764316132 -0.328790128 -0.07737123989)
(0.1281138637 -0.3471322887 0.05464302919)
(0.5940782815 -0.04924410026 -0.2908898038)
(0.680575447 0.04252093218 -0.1623489794)
(0.6348984333 0.06573818359 -0.05076915091)
(0.4772392856 0.06627319753 0.07449382666)
(0.2477922214 0.09943499349 0.2406977356)
(-0.0669718886 0.07501850555 0.1829735127)
(-0.1546855436 -0.005208229281 -0.01778923132)
(-0.2184838425 -0.08965011003 -0.0989628709)
(-0.2255427612 -0.1363433703 -0.1215903808)
(-0.1560088234 -0.1552308217 -0.1636114438)
(0.03353795591 -0.1429107059 -0.1707491301)
(0.0348388594 -0.1198163804 -0.09555756276)
(0.1923633486 -0.07026722676 -0.06740855617)
(-0.321771943 -0.05223307969 -0.0036848258)
(-0.04910662402 -0.02766258215 -0.6442414798)
(0.8829272926 0.08346572539 -0.123153681)
(0.6890755695 0.1447032386 0.1203019094)
(0.2862537025 0.1867584892 0.04684531863)
(0.2903990592 0.3243775654 -0.3575650611)
(0.3569633944 0.4893175329 -0.4200736481)
(0.3967591481 0.5528022889 -0.3527062267)
(0.3810109358 0.5211944412 -0.209867227)
(0.3761960738 0.4432780843 -0.09977723353)
(0.3819468992 0.3536362615 -0.06704399878)
(0.3828295064 0.2786451959 -0.06641796107)
(0.3443838576 0.1991632716 -0.04688687385)
(0.2373703169 0.09339294145 0.07136790961)
(0.02419582642 -0.06412556818 0.108060109)
(-0.03514306558 -0.1787247803 -0.06378669297)
(0.04857632753 -0.2151086263 -0.1522653199)
(0.120712742 -0.2358694401 -0.1587222805)
(0.1956459979 -0.2560970464 -0.1342142677)
(0.1966465305 -0.2820762083 -0.079116)
(0.1363876484 -0.2972843648 0.057800324)
(0.6517971702 0.08737121468 -0.5235091594)
(0.7200264619 0.1589669783 -0.3414248558)
(0.6416642807 0.1869753776 -0.1125287397)
(0.420972164 0.1775694982 0.1275024748)
(0.05385096734 0.1443926279 0.2289219874)
(-0.1506226078 0.0836729732 0.02583511439)
(-0.2088020391 -0.009235467508 -0.09020758388)
(-0.2486954674 -0.06764480302 -0.129733832)
(-0.2264556942 -0.1080577595 -0.1593452817)
(-0.1153771313 -0.1160427156 -0.2196423744)
(0.07185110748 -0.09249891592 -0.2186938943)
(0.1808959667 -0.09554646497 -0.1570687791)
(0.2652081013 0.05089546455 -0.1274516421)
(0.2411681891 0.02751196455 -0.08339680968)
(0.2765407472 0.6231311898 -0.08849187451)
(0.4297588652 0.4482288186 -0.004383255051)
(0.3813196692 0.2858916813 0.06560220609)
(0.2787613828 0.238835527 0.1159822126)
(0.2382675825 0.451785876 -0.13244272)
(0.2829669358 0.5637275761 -0.221899607)
(0.3070712898 0.565791148 -0.1305685613)
(0.2889415451 0.527474337 -0.01908884407)
(0.2869456817 0.4652000286 -0.0002773221829)
(0.2850307178 0.3884512392 -0.03624156814)
(0.2637482417 0.313251562 -0.04272922053)
(0.2031113007 0.2231075836 0.0325106083)
(0.01843530209 0.07564863332 0.1158452272)
(-0.09053172211 -0.04744660647 -0.0343758427)
(-0.04445732179 -0.1168775716 -0.1555190462)
(0.05401415053 -0.1350651443 -0.2065019218)
(0.1367262996 -0.1436684278 -0.2004299171)
(0.2073376461 -0.1609481515 -0.1631028092)
(0.1989314734 -0.2048342196 -0.07317790194)
(0.1071784293 -0.237500079 0.08778532612)
(0.5536844433 0.3098407799 -0.469438836)
(0.5743554041 0.330086013 -0.250148669)
(0.4563290578 0.3207089952 0.003026495251)
(0.2112186258 0.2777677581 0.2006714425)
(-0.099835144 0.1844865507 0.127936745)
(-0.1753057996 0.1098820604 -0.05406748143)
(-0.2231893673 0.04500476349 -0.1217619566)
(-0.247610937 0.004563195721 -0.1576431092)
(-0.2082055603 -0.03006381948 -0.2092492164)
(-0.09224289342 -0.02912432761 -0.2703843741)
(0.07930925578 -0.004240803714 -0.2674712735)
(0.175767386 -0.0002778197662 -0.2185387607)
(0.2604631662 0.03179283461 -0.1755115829)
(0.2279560309 0.05573276079 -0.1245271443)
(0.2777015838 0.1675683721 -0.1201233193)
(0.3960294074 0.1361120256 -0.07864167399)
(0.3632437247 0.1458598858 -0.005790146294)
(0.2762239546 0.1597829999 0.07804627301)
(0.1859389061 0.3721464055 0.02248995862)
(0.2044912067 0.4780271552 -0.00381319574)
(0.197938748 0.4531241671 0.08037343626)
(0.1735335961 0.3960428938 0.1127846089)
(0.1842225766 0.3686372546 0.04013220017)
(0.189442909 0.3363898101 -0.01688269484)
(0.1703917055 0.2929998256 0.009694008086)
(0.1056876594 0.2219609612 0.1107553671)
(-0.05422742122 0.08109317985 0.08215252462)
(-0.06885815459 -0.0009255681441 -0.06359117787)
(-0.02885469763 -0.0350223292 -0.1632377481)
(0.05679105781 -0.02195359462 -0.1955530749)
(0.1207445004 -0.01058694432 -0.1823022421)
(0.1563013673 -0.02704981745 -0.1265984485)
(0.1296512316 -0.08944534897 0.02731259395)
(0.03102270704 -0.2659556142 0.1182822805)
(0.4002941343 0.4815758404 -0.2819916551)
(0.3742728668 0.4174714991 -0.07169858628)
(0.2766532263 0.3635983058 0.1340723598)
(0.05902146522 0.2953367907 0.2174056955)
(-0.1258142728 0.2019969117 0.08680935999)
(-0.1779664905 0.1384995742 -0.05435685963)
(-0.2029765261 0.1124817643 -0.117874408)
(-0.2256347997 0.1121793177 -0.1581670818)
(-0.1830998147 0.1150508803 -0.2148224194)
(-0.06925008546 0.1226994204 -0.2754137195)
(0.08789544448 0.1447965754 -0.2699893976)
(0.1938993289 0.1522995778 -0.2273607323)
(0.2657581505 0.1855207428 -0.1775580956)
(0.2709216476 0.1800765882 -0.1396743203)
(0.285594468 0.2430973263 -0.1253526771)
(0.3134693561 0.1960686232 -0.07948782293)
(0.2898982537 0.1711253961 -0.002790391466)
(0.2143421364 0.1631273061 0.08218429872)
(0.1203399574 0.2916621688 0.1192979485)
(0.1171988087 0.3436490756 0.1232984156)
(0.09969551573 0.299285781 0.1601291116)
(0.07338368347 0.244996854 0.1377280434)
(0.08372347061 0.2727903011 0.06028366172)
(0.09746276503 0.2779738 0.03074197184)
(0.08603302754 0.2407081624 0.07996917543)
(0.03737645684 0.1672494598 0.1429907858)
(-0.03150172436 0.05729763161 0.08908994567)
(-0.0440698265 0.02722386562 -0.01080608355)
(-0.045853458 0.04174413837 -0.09832294368)
(0.02041778343 0.07425491934 -0.1265451134)
(0.04884179361 0.1007948676 -0.08480312282)
(0.07453651149 0.07487629605 0.03439163697)