/*--------------------------------*- C++ -*----------------------------------*\
  =========                 |
  \\      /  F ield         | OpenFOAM: The Open Source CFD Toolbox
   \\    /   O peration     | Website:  https://openfoam.org
    \\  /    A nd           | Version:  8
     \\/     M anipulation  |
\*---------------------------------------------------------------------------*/
FoamFile
{
    version     2.0;
    format      ascii;
    class       scalarField;
    location    "1.4/lagrangian/reactingCloud1";
    object      age;
}
// * * * * * * * * * * * * * * * * * * * * * * * * * * * * * * * * * * * * * //


156
(
0.2496472044
0.2453392747
0.2449353615
0.2442690616
0.2411935003
0.2411154823
0.2401557288
0.2357556108
0.2343713294
0.2342820533
0.2252513071
0.2227569031
0.2219764898
0.2189610182
0.2200627788
0.2056806697
0.1852055935
0.1836154425
0.1830853921
0.1818927788
0.1796400648
0.1792425271
0.1785799642
0.1781824264
0.1756646872
0.1723518726
0.1711592593
0.1690390579
0.1683764949
0.1666538313
0.17221936
0.1564821938
0.1533445467
0.1478780858
0.1460543033
0.1438570955
0.1501712655
0.1370569404
0.188253383
0.1340604875
0.1334522645
0.1641360922
0.1861331816
0.1257632282
0.1541112295
0.1157548346
0.1107757124
0.1081003631
0.1054250138
0.1032698713
0.09335350981
0.08946847592
0.114119899
0.08520807231
0.08087114612
0.07201553753
0.07065346717
0.2160629001
0.06944984399
0.06915924981
0.06846212463
0.06680951403
0.07810568179
0.06410644683
0.06335648578
0.06318876488
0.06181946826
0.05848159904
0.05717839955
0.05717839955
0.05687061756
0.05687061756
0.05624696901
0.05409889298
0.09410033789
0.04529416665
0.04447021337
0.04367344997
0.04175000218
0.1807001655
0.04093185751
0.03837852225
0.0367090972
0.0352636185
0.03433533594
0.1759297124
0.03280291975
0.03091041431
0.03017625797
0.02993067168
0.02918905837
0.028752463
0.02843939033
0.0278117303
0.02749867718
0.02650443613
0.186000669
0.02601219511
0.03805547071
0.02363724596
0.02223789333
0.02168805531
0.02107556656
0.02064580495
0.02052291326
0.01996971156
0.01953826717
0.01855210858
0.01849047367
0.01811942737
0.01799574527
0.01731549373
0.01675892429
0.0166352422
0.01508921597
0.01459448758
0.01397607709
0.01372871289
0.01366687184
0.0133576666
0.0129866203
0.01267741506
0.01243005086
0.01224452771
0.01224452771
0.1887834334
0.01133821288
0.01122650635
0.01084897223
0.01079656173
0.01033876451
0.009708860561
0.00910422539
0.08214203814
0.008741447309
0.008076033131
0.007338804549
0.007295887564
0.006741568241
0.006699168441
0.006699168441
0.00619281698
0.005399639209
0.005191960778
0.004984282347
0.004984282347
0.004693532543
0.004485854112
0.004236639995
0.1710267467
0.003613604701
0.002409069801
0.002325998429
0.001121463528
0.03557524328
0.000747642352
)


// ************************************************************************* //
