/*--------------------------------*- C++ -*----------------------------------*\
  =========                 |
  \\      /  F ield         | OpenFOAM: The Open Source CFD Toolbox
   \\    /   O peration     | Website:  https://openfoam.org
    \\  /    A nd           | Version:  8
     \\/     M anipulation  |
\*---------------------------------------------------------------------------*/
FoamFile
{
    version     2.0;
    format      ascii;
    class       scalarField;
    location    "1.4/lagrangian/reactingCloud1";
    object      mass0;
}
// * * * * * * * * * * * * * * * * * * * * * * * * * * * * * * * * * * * * * //


156
(
1.058030141e-07
1.304608004e-07
3.579658896e-07
3.108724522e-07
7.407603541e-08
1.705394303e-07
1.133381104e-07
3.412601552e-07
3.545574844e-07
1.447792809e-07
1.66457416e-07
1.04650787e-07
8.413008449e-08
7.356586532e-08
4.800053112e-07
2.840773323e-07
3.650836745e-07
2.993558188e-07
1.00258173e-07
5.040469748e-07
3.962229782e-07
8.48270096e-08
1.245816453e-07
6.789640535e-08
2.156321306e-07
5.963045241e-07
1.896312676e-07
2.492108187e-07
4.374477709e-07
2.8747094e-07
6.117352506e-07
1.298136101e-07
1.037436587e-07
1.38193961e-07
7.187500312e-07
7.908694357e-08
1.469805071e-07
6.102196169e-07
8.090934611e-07
7.458886118e-08
6.90263858e-07
3.149707666e-07
9.881745087e-08
1.211716642e-07
8.03312282e-08
3.640886611e-07
5.459238971e-07
1.737086971e-07
1.755487317e-07
1.367621272e-07
2.24662912e-07
2.564647958e-07
9.507964817e-08
3.671118353e-07
6.984997799e-07
6.776181655e-07
9.964105613e-08
2.168221654e-07
7.79794392e-08
5.453143332e-07
8.645553955e-08
6.629244945e-08
5.963743701e-07
2.663930862e-07
7.988445847e-08
3.831391383e-07
6.998220232e-07
1.60027571e-07
9.468908744e-08
3.947813058e-07
2.06862122e-07
2.927166314e-07
2.103566606e-07
2.140216849e-07
1.514639444e-07
5.481057162e-07
1.064821014e-07
2.876607045e-07
4.241631749e-07
1.963439012e-07
1.136595815e-07
3.645924257e-07
4.680460145e-07
3.924862564e-07
4.773707872e-07
9.762495018e-08
1.135075254e-07
4.869522998e-07
1.193945327e-07
1.794012632e-07
1.415455995e-07
8.736281993e-08
7.192047387e-08
1.758733783e-07
6.559270012e-08
2.068359443e-07
8.171544739e-08
7.007975043e-08
1.461738e-07
9.355325041e-08
5.995571638e-07
9.814307883e-08
2.001832274e-07
7.110014758e-08
4.312380682e-07
6.816920733e-08
1.809534041e-07
7.790967974e-07
2.478430654e-07
8.943683996e-08
2.447882894e-07
1.140976423e-07
1.375925382e-07
1.05837254e-07
4.188827764e-07
9.552904829e-08
8.638387678e-07
1.120491747e-07
6.083777224e-07
1.180809055e-07
1.9417435e-07
9.455780054e-08
6.58404782e-08
2.360445875e-07
9.696408256e-08
5.804233721e-07
6.215751058e-07
2.080090399e-07
1.064571815e-07
2.470573453e-07
6.308229059e-07
2.981983847e-07
7.8512468e-07
7.083553001e-08
2.23784639e-07
3.051462112e-07
1.39365017e-07
1.995184346e-07
8.398421436e-07
3.614980252e-07
4.06760135e-07
7.047956813e-08
1.537421253e-07
2.140185435e-07
8.369117527e-08
2.807568567e-07
8.183266558e-08
2.32524002e-07
4.992166376e-07
9.351231724e-08
1.226218219e-07
2.361988809e-07
1.014163782e-07
1.755180613e-07
8.98649412e-08
7.544721981e-08
)


// ************************************************************************* //
