/*--------------------------------*- C++ -*----------------------------------*\
  =========                 |
  \\      /  F ield         | OpenFOAM: The Open Source CFD Toolbox
   \\    /   O peration     | Website:  https://openfoam.org
    \\  /    A nd           | Version:  8
     \\/     M anipulation  |
\*---------------------------------------------------------------------------*/
FoamFile
{
    version     2.0;
    format      ascii;
    class       labelField;
    location    "1.4/lagrangian/reactingCloud1";
    object      origId;
}
// * * * * * * * * * * * * * * * * * * * * * * * * * * * * * * * * * * * * * //


156
(
889
891
892
893
900
901
903
906
908
909
912
913
914
915
637
917
923
925
926
927
929
930
931
932
934
935
936
937
938
939
661
942
943
944
945
947
672
949
653
951
952
665
654
953
670
954
955
956
957
958
959
960
690
961
962
964
965
639
966
967
968
969
709
972
974
975
977
979
983
984
985
986
987
989
700
992
993
994
996
363
997
998
999
1000
1001
364
1002
1003
1004
1005
1006
1007
1008
1009
1010
1011
362
1012
401
1013
1014
1015
1016
1017
1018
1019
1020
1021
1022
1023
1024
1025
1026
1027
1028
1029
1030
1031
1032
1033
1034
1035
1036
1037
1038
361
1039
1040
1041
1042
1043
1044
1045
707
1046
1047
1048
1049
1050
1051
1052
1053
1054
1055
1056
1057
1058
1059
1060
365
1061
1062
1063
1064
406
1065
)


// ************************************************************************* //
