/*--------------------------------*- C++ -*----------------------------------*\
  =========                 |
  \\      /  F ield         | OpenFOAM: The Open Source CFD Toolbox
   \\    /   O peration     | Website:  https://openfoam.org
    \\  /    A nd           | Version:  8
     \\/     M anipulation  |
\*---------------------------------------------------------------------------*/
FoamFile
{
    version     2.0;
    format      ascii;
    class       Cloud<basicReactingMultiphaseParcel>;
    location    "1.4/lagrangian/reactingCloud1";
    object      positions;
}
// * * * * * * * * * * * * * * * * * * * * * * * * * * * * * * * * * * * * * //

156
(
(0.1203298003 0.0124886233 0.4449354908 0.4222460857) 1882 5439 2
(0.1891711457 0.3141247095 0.430107821 0.06659632385) 2554 7482 2
(0.2553693249 0.2206540222 0.3746957697 0.1492808833) 1775 5202 2
(0.105346296 0.2897086623 0.5580052898 0.04693975188) 2582 5138 2
(0.1355433867 0.1540702813 0.1696198065 0.5407665254) 10916 31984 1
(0.03593885192 0.6955478681 0.06614918944 0.2023640905) 4308 12624 1
(0.05129637794 0.01699525818 0.07204619542 0.8596621684) 2777 8138 2
(0.2535384406 0.4431441765 0.2552970716 0.04802031128) 3689 10816 2
(0.2325525136 0.05022599929 0.435387313 0.2818341741) 3460 7652 2
(0.2091382562 0.1151012916 0.205364043 0.4703964092) 3662 10737 1
(0.4253938326 0.2661949673 0.1357894072 0.1726217929) 5228 15315 1
(0.02976038263 0.5383351525 0.3663512615 0.06555320345) 6262 18351 1
(0.614750764 0.1604161418 0.03037382216 0.1944592721) 6094 17852 1
(0.01981879891 0.07279177144 0.4532640369 0.4541253928) 6963 17854 1
(0.3055824596 0.006850142633 0.4768527664 0.2107146314) 1361 1598 2
(0.02987705988 0.3897615312 0.5239205787 0.05644083029) 8679 25425 2
(0.4893060506 0.3502206628 0.05976793184 0.1007053547) 11421 33456 1
(0.3121115573 0.00309982645 0.1654633916 0.5193252247) 12307 33391 2
(0.1165502909 0.1705284911 0.03629379056 0.6766274274) 12317 33421 2
(0.0800065272 0.2733970262 0.2345086119 0.4120878347) 11421 33457 2
(0.6638146281 0.2164997023 0.01182745161 0.107858218) 12328 36113 2
(0.6084296226 0.0256106491 0.3563667461 0.009592982149) 12326 36103 1
(0.6157146796 0.003977370729 0.3604918402 0.01981610949) 12326 36106 2
(0.2997152815 0.1820505373 0.3498853528 0.1683488283) 12325 36105 2
(0.07036939857 0.03421509119 0.2023549905 0.6930605198) 13232 36072 2
(0.794965506 0.01139623747 0.1925656196 0.001072636894) 13238 36090 1
(0.5356008131 0.0575318966 0.06743759279 0.3394296975) 13237 38772 2
(0.2145346077 0.2188567391 0.3834052665 0.1832033867) 14079 41241 1
(0.095290428 0.1867694989 0.699089064 0.01885100913) 14151 38765 2
(0.5073558021 0.04568869393 0.1281496228 0.3188058812) 14169 41416 2
(0.5598068854 0.1438383032 0.04942319237 0.2469316191) 14505 39800 2
(0.5267925708 0.2346556099 0.221772478 0.0167793413) 15892 46532 2
(0.2219885916 0.02875813722 0.4967844882 0.2524687829) 16758 49066 2
(0.01194277995 0.3788242341 0.1311016817 0.4781313043) 16716 46286 2
(0.1493771758 0.4960687463 0.1361575935 0.2183964843) 16887 49447 1
(0.2049874134 0.05324720589 0.4067429425 0.3350224382) 16884 49440 1
(0.5015934993 0.2067307982 0.09034534697 0.2013303555) 19936 58933 2
(0.507122621 0.4619955946 0.01945949035 0.01142229406) 17910 52448 2
(0.06007902211 0.03363719894 0.1486667917 0.7576169872) 7654 22419 1
(0.01748369097 0.3060341475 0.1249302753 0.5515518863) 18639 54577 1
(0.07953157671 0.2372125591 0.06082396223 0.622431902) 18574 54380 1
(0.06294530876 0.07029311273 0.7669222515 0.09983932704) 12348 36083 1
(0.0406225949 0.2115439154 0.008968942994 0.7388645467) 10449 30515 1
(0.4711772838 0.2778653691 0.2229523216 0.02800502547) 19585 57486 3
(0.2017255666 0.5275868865 0.0198766648 0.2508108822) 13199 38665 1
(0.3301674162 0.00236524971 0.04705587468 0.6204114594) 19446 56930 3
(0.2165964831 0.5740280119 0.11572704 0.09364846509) 53179 163039 1
(0.02116350401 0.4507081849 0.1235175504 0.4046107607) 53365 163277 1
(0.09434526136 0.6364641563 0.02260019993 0.2465903824) 53365 163512 2
(0.05842758573 0.5698498504 0.005420039706 0.3663025241) 54555 166491 1
(0.2911600163 0.3902820699 0.08276679425 0.2357911196) 54303 165856 1
(0.6012601593 0.2421167881 0.03388609571 0.1227369569) 55158 167980 1
(0.3909878859 0.001820202848 0.4843309226 0.1228609886) 59208 80217 2
(0.1398848509 0.2446205821 0.3668995999 0.2485949671) 55880 169802 1
(0.304814326 0.440783006 0.04130375632 0.2130989117) 55873 169778 1
(0.06410287805 0.06014486046 0.3747035133 0.5010487481) 56966 172513 1
(0.2500023051 0.1480142444 0.1542254746 0.4477579758) 56758 171995 2
(0.6154382364 0.2127828998 0.05204877575 0.119730088) 4022 11798 2
(0.5741150036 0.3367338121 0.0628018826 0.02634930172) 56756 171979 1
(0.1924860399 0.2523257028 0.3734115227 0.1817767346) 56450 171216 2
(0.5836101565 0.2740298359 0.1209403838 0.0214196237) 56653 171728 2
(0.1425033425 0.1194898225 0.7351498375 0.00285699749) 56758 172001 2
(0.1040130558 0.3894121435 0.2581812184 0.2483935823) 67090 103668 2
(0.0990387128 0.2381711046 0.2355083184 0.4272818642) 57290 173349 2
(0.09831308766 0.05195607052 0.2770423558 0.572688486) 23443 71391 1
(0.3432673399 0.5423925071 0.07925066925 0.03508948366) 58232 73844 1
(0.7674503275 0.1143706835 0.04383340114 0.07434558788) 24017 73299 2
(0.23685046 0.01817408781 0.06248376835 0.6824916839) 58418 175952 2
(0.08994018759 0.1918623679 0.4372394077 0.2809580368) 23983 73126 2
(0.03560419437 0.2672447553 0.08376808443 0.6133829659) 58412 175949 1
(0.03922314897 0.01961476872 0.2094207283 0.731741354) 24194 74087 1
(0.07796886159 0.6140234888 0.2941649234 0.01384272625) 58405 175929 2
(0.0509714021 0.639117992 0.2576684247 0.05224218119) 57944 174867 1
(0.08683405668 0.1319110837 0.112621267 0.6686335926) 58026 175054 2
(0.0402842661 0.4105427548 0.2183314116 0.3308415675) 61965 184661 2
(0.1107700723 0.08252223747 0.2470538746 0.5596538156) 25020 77012 1
(0.2955308301 0.05958888693 0.5999221576 0.04495812542) 51893 159712 1
(0.3346018213 0.144216507 0.344415688 0.1767659837) 58911 174412 1
(0.3454923985 0.2079328587 0.01532042981 0.431254313) 51830 159548 2
(0.3150003339 0.0632058291 0.5691205817 0.05267325533) 11484 33641 2
(0.405430092 0.1179603738 0.3129392839 0.1636702503) 51830 77145 1
(0.6993575668 0.02090093994 0.03486910506 0.2448723882) 25020 77016 2
(0.2418876178 0.3922058851 0.06663279847 0.2992736987) 51815 159355 2
(0.3416913422 0.02456325272 0.4147373295 0.2190080756) 24987 76860 2
(0.6450589557 0.06171161687 0.006195940271 0.2870334871) 51565 158869 1
(0.4151790262 0.3028177851 0.07852616667 0.203477022) 12392 36302 1
(0.07223611106 0.517396582 0.2274699208 0.1828973861) 51621 159005 2
(0.1917475474 0.1051549456 0.005545830609 0.6975516764) 51577 158898 2
(0.14195389 0.0111379958 0.53703948 0.3098686343) 51626 159024 1
(0.1530659867 0.2371615975 0.3535190552 0.2562533607) 51587 76484 1
(0.3022826961 0.07023527472 0.3161702424 0.3113117868) 51587 76484 2
(0.05822558205 0.1769944643 0.5224053028 0.2423746508) 51588 158925 2
(0.1200480455 0.6228386559 0.2000741234 0.05703917514) 51636 76584 2
(0.1107269794 0.1991510384 0.3388405671 0.3512814151) 51588 158927 2
(0.4059217402 0.1181076276 0.136346427 0.3396242053) 51590 158927 2
(0.2379063379 0.6735277812 0.02006972705 0.06849615381) 51701 159207 2
(0.2023169653 0.1221084099 0.627450688 0.04812393678) 11453 33549 1
(0.1924476981 0.2939044271 0.2397337991 0.2739140757) 51918 159771 2
(0.204151502 0.2593356204 0.3001409377 0.23637194) 51915 159760 1
(0.7461583152 0.02730357605 0.2185078794 0.008030229313) 51905 159734 1
(0.1147855392 0.1113195416 0.2579771677 0.5159177515) 51644 159071 1
(0.6977449549 0.0561038963 0.00253712002 0.2436140288) 51639 159053 2
(0.3287180456 0.1986843032 0.3748105258 0.09778712536) 51646 159075 2
(0.2450038491 0.2459935377 0.1505534608 0.3584491524) 51707 159075 2
(0.1636481048 0.523455943 0.03294990781 0.2799460445) 58907 177166 1
(0.6537001748 0.1884685664 0.1238538716 0.03397738722) 58907 79690 2
(0.8579940766 0.02021695637 0.09450044546 0.02728852159) 51707 159075 2
(0.4905818198 0.1489249622 0.158331892 0.2021613261) 58907 177167 1
(0.4284622732 0.1568051505 0.05911103534 0.355621541) 58909 177167 1
(0.0004682494348 0.3632951724 0.1157208697 0.5205157085) 51539 158797 1
(0.2733257978 0.3340410451 0.1298348663 0.2627982907) 51707 159233 1
(0.217016617 0.3621971752 0.2378223145 0.1829638932) 51709 159233 1
(0.02701576235 0.6260812692 0.06787231868 0.2790306498) 51932 159791 2
(0.5644207007 0.1751866106 0.05442272648 0.2059699622) 51709 159233 1
(0.3865600863 0.4863831402 0.01056717256 0.116489601) 51539 158799 1
(0.5672158287 0.006635492211 0.1184627712 0.3076859079) 51898 203323 1
(0.1540149993 0.2717324334 0.05742147033 0.516831097) 51590 158929 2
(0.5384798337 0.2207303819 0.1554108892 0.08537889525) 51918 203336 1
(0.1690973285 0.05179633379 0.5218773811 0.2572289566) 51538 158798 1
(0.469581695 0.356224393 0.07951705448 0.09467685761) 51531 158779 2
(0.3712327166 0.3138317035 0.2210011326 0.0939344473) 51538 158794 2
(0.165384029 0.3390907752 0.3304715644 0.1650536314) 51538 158794 2
(0.08672455652 0.3435994579 0.3814035279 0.1882724576) 51538 158794 2
(0.07967808586 0.6485258909 0.2682294922 0.003566531009) 51531 158779 1
(0.2736370903 0.6540387778 0.01831383446 0.05401029742) 51497 208360 1
(0.06536042234 0.2147084468 0.3447613239 0.3751698069) 10485 30713 2
(0.6124485296 0.04913355114 0.3240407844 0.01437713483) 51897 203322 2
(0.191577801 0.6309174384 0.1375951013 0.03990965934) 51532 158777 2
(0.361553536 0.1234104614 0.2705500707 0.2444859319) 51495 203186 2
(0.3902039869 0.3745878524 0.1855767236 0.04963143701) 59035 158546 2
(0.55566058 0.1324790059 0.07124500366 0.2406154104) 51770 203300 2
(0.4807141647 0.375781611 0.01989812167 0.1236061027) 51532 158777 1
(0.1740038279 0.2856226424 0.333848469 0.2065250607) 51538 158794 2
(0.5319637661 0.1860116066 0.1051425168 0.1768821105) 31832 100786 1
(0.3720126966 0.1528763194 0.01088726686 0.4642237172) 51770 159396 2
(0.4715072436 0.1561492794 0.1368318004 0.2355116766) 51532 203043 2
(0.3699539558 0.2697901243 0.1108914779 0.249364442) 51532 203043 2
(0.360640777 0.3655501217 0.1683048358 0.1055042655) 51490 203286 2
(0.2785245149 0.3348264005 0.1023983845 0.2842507001) 51890 159687 1
(0.1301991588 0.6954014361 0.1345290663 0.03987033888) 51536 158794 2
(0.07872079736 0.2313467105 0.5109574697 0.1789750225) 51538 158794 2
(0.09078476795 0.3523453936 0.4773284616 0.07954137685) 51536 158778 2
(0.2591880722 0.2192124048 0.4601379764 0.06146154663) 51890 203317 1
(0.2740139903 0.2203668242 0.4608147733 0.04480441217) 51645 159074 1
(0.1728974431 0.5637380493 0.2395042628 0.02386024478) 51536 158778 2
(0.29995406 0.1920503645 0.2784186317 0.2295769438) 51772 203304 2
(0.2077172296 0.2619723649 0.4615270059 0.06878339966) 51890 203317 1
(0.2766013898 0.1129797191 0.005440532834 0.6049783583) 51536 203193 2
(0.1548566572 0.08783987807 0.01946820038 0.7378352643) 51772 159397 2
(0.2726644743 0.3936037036 0.1274282374 0.2063035846) 13309 204075 2
(0.2188273772 0.00627392769 0.1187092275 0.6561894676) 51536 203193 2
(0.3207316464 0.05978991975 0.5267559447 0.09272248916) 51771 203301 2
(0.1955492793 0.4970352422 0.02873608645 0.2786793921) 51536 203193 2
(0.2833522968 0.2119827409 0.4280095803 0.07665538205) 51771 203301 2
(0.1499250807 0.1469234709 0.5442947411 0.1588567073) 51893 205579 2
(0.1708615424 0.3668779378 0.167380885 0.2948796349) 51536 203193 2
)


// ************************************************************************* //
