/*--------------------------------*- C++ -*----------------------------------*\
  =========                 |
  \\      /  F ield         | OpenFOAM: The Open Source CFD Toolbox
   \\    /   O peration     | Website:  https://openfoam.org
    \\  /    A nd           | Version:  8
     \\/     M anipulation  |
\*---------------------------------------------------------------------------*/
FoamFile
{
    version     2.0;
    format      ascii;
    class       scalarField;
    location    "1.4/lagrangian/reactingCloud1";
    object      T;
}
// * * * * * * * * * * * * * * * * * * * * * * * * * * * * * * * * * * * * * //


156
(
299.9999989
299.9999926
299.9999962
299.99999
299.9999955
299.9999911
299.9999908
299.9999895
299.9999942
299.9999892
299.9999948
299.9999933
299.9999946
299.9999945
300
299.999996
299.9999855
299.9999891
299.9999876
299.9999875
299.9999898
299.9999902
299.9999908
299.9999911
299.9999903
299.9999918
299.9999925
299.9999922
299.999994
299.9999951
300
299.9999955
299.9999958
299.9999642
299.9999836
299.9999963
300
299.9999921
300
299.9999962
299.999977
300
300
299.9999841
300
299.9999821
299.9999841
299.9999842
299.9999843
299.9999844
299.9999822
299.9999858
300
299.9999882
299.9999882
299.9999917
299.999992
300
299.9999922
299.9999939
299.9999882
299.9999871
300
299.999984
299.9999853
299.9999875
299.9999819
299.9999986
299.9999868
299.9999975
299.999998
299.9999974
299.9999864
299.9999876
300
299.9999993
299.9999985
299.9999924
299.9999995
299.9999922
299.9999995
299.9999994
299.9999944
299.9999928
299.9999976
299.9999925
299.9999944
299.9999982
299.9999955
299.9999983
299.9999983
299.9999983
299.9999957
299.9999984
299.9999984
299.9999943
299.9999929
299.9999992
299.9999991
299.9999991
299.9999987
299.9999966
299.9999987
299.9999988
299.9999978
299.9999978
299.9999988
299.9999973
299.9999994
299.9999995
299.9999988
299.9999988
299.9999987
299.9999988
299.9999981
299.9999991
299.9999991
299.9999995
299.9999994
299.9999989
299.9999994
299.9999994
299.9999994
299.9999987
299.9999988
299.9999935
299.9999993
299.9999986
299.9999989
299.9999982
299.9999986
299.9999984
299.9999993
300
299.9999985
299.9999982
299.9999981
299.999999
299.9999993
299.999999
299.9999992
299.999999
299.9999993
299.9999978
299.9999994
299.9999965
299.9999992
299.9999986
299.9999984
299.9999929
299.9999984
299.9999985
299.999999
299.9999985
299.999999
299.9999985
)


// ************************************************************************* //
