/*--------------------------------*- C++ -*----------------------------------*\
  =========                 |
  \\      /  F ield         | OpenFOAM: The Open Source CFD Toolbox
   \\    /   O peration     | Website:  https://openfoam.org
    \\  /    A nd           | Version:  8
     \\/     M anipulation  |
\*---------------------------------------------------------------------------*/
FoamFile
{
    version     2.0;
    format      ascii;
    class       vectorField;
    location    "1.4/lagrangian/reactingCloud1";
    object      U;
}
// * * * * * * * * * * * * * * * * * * * * * * * * * * * * * * * * * * * * * //


156
(
(0.1006239445 0.2730084 -1.986536669)
(0.3000320954 0.1758638961 -1.972590246)
(0.2652172364 0.006234018035 -2.12165727)
(0.300597765 0.2329752473 -2.101174664)
(-0.4852710004 -0.9175948714 -1.092586606)
(0.06276063561 0.2221157544 -1.81659282)
(0.3865654788 0.4625819543 -1.978612289)
(0.5312344541 0.5788093207 -2.050516487)
(0.4817092132 0.02212268904 -2.12276348)
(0.5173580937 0.4988892949 -1.947803325)
(0.1811470821 0.08091177194 -1.954812074)
(0.003294881063 0.4925075056 -1.981052429)
(0.1449539519 0.08456991128 -1.852385575)
(0.1326969836 0.0842233968 -1.818708371)
(0.6533777019 0.8158777838 -3.226690322)
(0.07524108353 0.0218761821 -1.791403008)
(1.256143629 0.008935495952 -1.688600253)
(0.3081016153 0.01702602212 -1.650689887)
(0.7323812532 0.0169706124 -1.673234719)
(1.322162624 0.002689671791 -1.682537842)
(1.306788658 0.0001147524583 -1.671110855)
(1.095662519 0.003212777457 -1.589272268)
(1.153330575 0.002170039435 -1.607962954)
(1.055786974 0.001653971549 -1.576823467)
(0.648388281 0.02420285741 -1.648632665)
(0.9759486705 -0.007368473565 -1.649172688)
(0.8895165084 -0.00270066645 -1.630213262)
(0.2988315223 -0.08689867761 -1.441195696)
(0.7138358661 0.008826185452 -1.609084538)
(0.1180036369 0.03343056546 -1.526854491)
(0.7564381586 0.8826704067 -2.856608262)
(0.4543369861 -0.1353844546 -1.339795317)
(-0.03080906093 -0.1631018186 -1.187783416)
(0.09951606049 -0.002969661233 -1.390695661)
(-0.1450477496 0.1456154657 -1.382069015)
(0.1083558412 -0.01400339748 -1.284139213)
(0.6856448197 0.9338805544 -2.609063834)
(-0.3601463501 0.3542516423 -1.344150431)
(1.07756555 -0.01202227047 -3.112337611)
(0.2550386151 -0.06337638568 -1.078713842)
(-0.4109681144 0.14440617 -1.215933422)
(0.9412040714 0.2894803757 -3.061447578)
(1.103808462 0.1030064401 -2.902108424)
(-0.1904865616 0.2145476163 -1.086438485)
(0.6998507013 0.242380639 -3.130980138)
(0.2326623758 -0.133290719 -1.138883088)
(-0.2320511297 0.3579709996 -1.05912099)
(-0.2745301726 0.4612791588 -1.031970937)
(-0.2903255692 0.4776748375 -1.009999987)
(-0.2984959559 0.479660269 -0.9866228839)
(0.2803252925 0.323586409 -0.9262987841)
(0.04097216126 -0.1582551163 -0.8595786436)
(0.944955267 0.3478711259 -2.601619137)
(0.0297701767 0.6835439337 -0.8610338675)
(-0.08939800618 0.6692138714 -0.8053769308)
(0.01912215386 0.4000743434 -0.7186012794)
(0.03970884527 0.1711629241 -0.6913550677)
(0.1690872058 1.020939578 -3.042828116)
(0.04343193357 0.1242102708 -0.6693863747)
(0.09623231376 -0.3476776978 -0.67465944)
(0.1335697845 -0.2255778925 -0.6675415559)
(0.07674951069 0.2635677499 -0.660041097)
(0.710885856 0.9055134789 -2.249783846)
(0.733076284 1.250498179 -0.662323542)
(1.012935352 1.689016316 -0.6621047436)
(-0.1991506699 0.4423437201 -0.6060914603)
(0.07186999475 -0.007021117435 -0.6041132633)
(-0.02915133875 0.1453314075 -0.5820090058)
(0.2420806901 -0.5166521841 -0.5831441918)
(-0.03843204582 0.1606401329 -0.5675962589)
(-0.1186086409 0.1163047371 -0.5627155375)
(-0.06796379502 0.1407829515 -0.5639611781)
(0.3186049858 0.03546209922 -0.5776960925)
(-0.2104503432 0.152927351 -0.5105722359)
(0.8786912545 0.07544742816 -2.578500301)
(0.5030073375 -0.3033805136 -0.4551880597)
(-0.1724101197 0.04754792781 -0.4378077774)
(0.4246265507 -0.7472538184 -0.4518662201)
(0.3525765386 -0.2178852204 -0.4120325614)
(0.3954752903 0.1531506559 -1.729876944)
(0.3414535058 -0.2235048019 -0.404301491)
(0.5946287656 -0.3888561592 -0.3860755264)
(-0.2406093037 0.08429369175 -0.3546447419)
(-0.1750751504 0.04157131128 -0.3399407817)
(-0.6939515493 -0.8498320439 -0.3308486617)
(0.3654028812 0.1560376687 -1.682328747)
(-0.5479985062 -0.5208568716 -0.313326052)
(-0.09809820077 -1.19407969 -0.2991664958)
(-0.3716624951 -0.6383692582 -0.2886184908)
(-0.01514877933 -1.219228182 -0.289526083)
(0.04059985404 -1.212507294 -0.2817983088)
(0.07564671327 -1.18501316 -0.2756648944)
(-0.1926534242 -0.6272194937 -0.267884708)
(0.1350287412 -1.186317806 -0.2679415736)
(0.1592725776 -1.141725611 -0.2627616991)
(-0.1214835805 0.05242613752 -0.2535731546)
(0.303874108 0.09445505065 -1.697065516)
(0.7580861794 -0.002704036041 -0.252616129)
(1.340805181 -0.001783530939 -0.3710987581)
(0.4025997287 -0.009426136791 -0.2309859886)
(0.2985432241 -1.051293573 -0.2154698947)
(0.02353597184 -0.49516795 -0.20632209)
(0.2061929688 -0.8893468068 -0.2028633812)
(0.2097792769 -0.8335077168 -0.1979691314)
(0.7561265731 0.5201300524 -0.2086893138)
(0.6356340612 0.4882416019 -0.2013948207)
(0.2447539562 -0.8057922384 -0.1892441736)
(0.2282082278 -0.1933085405 -0.1836563419)
(0.2151552511 0.1617112842 -0.183748717)
(-0.0472074112 -0.2276729379 -0.1777732379)
(0.2828985435 -0.7513823673 -0.1747167094)
(0.2880688506 -0.707658003 -0.1677107797)
(0.9424451769 0.01805535765 -0.1649056071)
(0.3006278201 -0.6840538032 -0.1610748008)
(0.5913555793 0.4917799932 -0.1491496815)
(-0.06475973059 -0.0141927076 -0.1426268674)
(0.1684765672 0.3236779352 -0.137710904)
(0.2845219169 0.01189918338 -0.1343769366)
(0.1781425204 0.1198078739 -0.134302068)
(-0.6251107944 -0.3833845781 -0.1299014107)
(-0.0266045508 -0.1187635891 -0.1270986239)
(-0.06173668725 -0.1600532028 -0.1238564326)
(-0.07795986103 -0.1779306392 -0.1212651214)
(-0.613165729 -0.569403125 -0.1191813633)
(0.615563715 0.286878523 -0.1211145688)
(0.2898037765 -0.0008932660532 -1.750084991)
(0.05836518395 -0.03330993862 -0.1113621736)
(-0.5967704199 -0.598034208 -0.1092359766)
(0.3798796626 0.1436685375 -0.1066349098)
(0.2637206238 0.01744005869 -0.1079854421)
(0.3756177859 -0.5881955405 -0.1002855972)
(-0.5753141048 -0.616139639 -0.09442188888)
(-0.1058353291 -0.2217971934 -0.08904265794)
(0.2346214166 0.9624016469 -2.325650467)
(0.5922430649 -0.5256234004 -0.08503437339)
(-0.5529242774 -0.6465689723 -0.078389668)
(-0.5577072542 -0.668422091 -0.07110152717)
(0.03831029076 -0.07643104652 -0.07124149442)
(0.3967140969 -0.1252187228 -0.06599844331)
(0.2334477036 0.2191642993 -0.06640247716)
(-0.2154050779 -0.3341576009 -0.06527922422)
(-0.3636329464 -0.7147531382 -0.05988460366)
(0.5363035621 -0.2598491761 -0.05274374473)
(0.1429288894 -0.6233476485 -0.04939290122)
(-0.175297687 -0.3118679915 -0.04881057166)
(0.05441086468 -0.1200934042 -0.04898823957)
(0.6032216884 -0.2821010941 -0.04576341073)
(-0.4440549544 -0.8004285492 -0.04295674894)
(0.5206088054 -0.4748821755 -0.04072545567)
(0.3166793586 0.1410982768 -1.64364511)
(-0.472346163 -0.8041503095 -0.03432356163)
(0.4517309423 -0.4578724751 -0.02281627071)
(-0.3237144433 -0.5397087923 -0.0222187605)
(0.4161474386 -0.4613244087 -0.01023532929)
(0.44135982 0.0005703098137 -0.3485229622)
(-0.4183765558 -0.697378399 -0.006326840706)
)


// ************************************************************************* //
