/*--------------------------------*- C++ -*----------------------------------*\
  =========                 |
  \\      /  F ield         | OpenFOAM: The Open Source CFD Toolbox
   \\    /   O peration     | Website:  https://openfoam.org
    \\  /    A nd           | Version:  8
     \\/     M anipulation  |
\*---------------------------------------------------------------------------*/
FoamFile
{
    version     2.0;
    format      ascii;
    class       volScalarField;
    location    "1.9";
    object      alphat;
}
// * * * * * * * * * * * * * * * * * * * * * * * * * * * * * * * * * * * * * //

dimensions      [1 -1 -1 0 0 0 0];

internalField   nonuniform List<scalar> 
67451
(
0.0001665259814
0.0001708923848
0.0002115518336
0.000251522623
0.0002500369132
0.0002544627285
0.0002680428887
0.0002832381127
0.0002933875034
0.0002969453242
0.0002972133735
0.0001951469128
0.0001874906597
0.0001797828502
0.0001718333924
0.0001643335258
0.0001701615635
0.0002110186056
0.0002466561289
0.0002510485218
0.0002593092055
0.0002745871439
0.0002904869114
0.000301979503
0.0003077359494
0.0003116307465
0.0003071277609
0.0002860223666
0.0002795201965
0.000278244861
0.0002768086684
0.0002731689946
0.0002666528038
0.0002574977625
0.0002464987192
0.0002336551049
0.0002183458165
0.0002031722696
0.0001991975537
0.000194261737
0.000187540057
0.0001796271104
0.0001713441825
0.0001639443631
0.0001672762189
0.0002023948943
0.0002314889385
0.0002439256808
0.0002551784071
0.0002705125434
0.0002884180477
0.0003027238175
0.0003107985915
0.000315977585
0.0003107241112
0.0002923932299
0.0002762873933
0.0002661943663
0.0002620526361
0.000256392205
0.0002490812424
0.000241271031
0.0002318831881
0.0002210446752
0.0002089645059
0.0002289284669
0.0002225106451
0.0002135148504
0.0002019769454
0.0001897656873
0.0001770598503
0.0001668944333
0.0001686102798
0.0001977335386
0.0002236167343
0.0002352782876
0.0002440324575
0.0002546944806
0.0002722884631
0.000290752696
0.0003023336152
0.0003065564747
0.0003029809072
0.0002895907929
0.0002711323394
0.0002586700327
0.0002516890234
0.0002438227901
0.0002365991133
0.0002282942914
0.0002184503674
0.000207736508
0.0001958240732
0.0002547291841
0.0002401347668
0.0002232870963
0.0002072397576
0.0001893160153
0.0001753953606
0.0001758609818
0.0002065081011
0.0002293502223
0.0002360523721
0.0002405229657
0.0002433922331
0.0002494032253
0.000260457425
0.0002746955807
0.0002770975224
0.0002710373381
0.0002548846161
0.0002406239451
0.0002344108327
0.0002386228424
0.0002487889857
0.0002506238513
0.0002432610307
0.0002292340397
0.000209374295
0.0001832248278
0.0002837278394
0.0002649346953
0.0002445977243
0.0002275673408
0.0002055221459
0.0001889596369
0.0001983330679
0.0002377921838
0.0002586580648
0.0002562548071
0.00025630589
0.0002547590361
0.000252211304
0.000254059055
0.0002550541033
0.0002517541758
0.0002469361163
0.0002417751614
0.0002378959239
0.000236139039
0.0002424402301
0.0002572527603
0.0002682732287
0.0002671297418
0.0002535757485
0.0002286964223
0.0001835994907
0.0003080722959
0.0002868787575
0.0002645509189
0.0002518361943
0.0002238754654
0.0002062283263
0.0002335474587
0.0002850402273
0.0003045858652
0.0002903038279
0.0002826056914
0.000278727008
0.0002754237148
0.0002795597006
0.0002793642712
0.0002732599421
0.000268728179
0.000266173698
0.0002636526217
0.0002598073223
0.0002566844417
0.000260006782
0.0002679045465
0.0002705781807
0.0002623465908
0.0002420452757
0.0001941872819
0.0003297394998
0.0003082087859
0.0002866138347
0.0002599422382
0.0002342613282
0.0002240645838
0.000282335983
0.0003360107472
0.000353867302
0.000332548477
0.0003153350133
0.0003055382414
0.0003030507555
0.0003166464443
0.0003195290598
0.0003062863861
0.0002953632
0.0002909312632
0.000288273309
0.0002837401991
0.0002772615086
0.0002700434464
0.0002659692281
0.0002647364029
0.0002589225984
0.0002433124221
0.0001991388232
0.0003474209572
0.000325859544
0.0003023105255
0.0002760592482
0.0002482964488
0.000248199844
0.0003311818187
0.0003847484211
0.0004022035596
0.0003797533069
0.0003584350386
0.0003395109294
0.0003366739723
0.0003658130961
0.0003736723527
0.0003514735976
0.00032511687
0.0003109161889
0.0003059446399
0.0003024533286
0.0002961737589
0.0002868796631
0.0002759436472
0.000265158575
0.0002545246821
0.0002388399117
0.0001967839599
0.0003590195997
0.0003379120424
0.0003142639864
0.0002876817469
0.0002586426348
0.0002747577354
0.0003694824542
0.0004264205803
0.0004405135277
0.0004225995541
0.0004217041578
0.0003993918349
0.0003890737362
0.0004252982272
0.0004359863213
0.0004102149473
0.0003673377522
0.0003321339699
0.0003157897205
0.0003100656513
0.0003058061075
0.0002995677574
0.0002882583562
0.0002727046693
0.0002556807059
0.0002354320637
0.0001913876352
0.000362716004
0.0003423174665
0.0003191981713
0.0002933146426
0.0002646354837
0.0002819581037
0.000382769041
0.000442183059
0.0004599489042
0.0004642838133
0.00053306726
0.000515883605
0.0004757049141
0.0004931940558
0.0004992114826
0.0004740609761
0.000424717936
0.0003703302184
0.0003334587252
0.000316599777
0.0003146326291
0.0003237233783
0.0003122835214
0.0002880733461
0.0002641203167
0.0002394928861
0.0001905684607
0.0003591945814
0.0003397359421
0.000318038308
0.0002937638684
0.0002663161462
0.0002434296017
0.0003305502206
0.0004159282298
0.0004655391004
0.0005627030458
0.000720833019
0.0006744960064
0.0005861144302
0.0005619810901
0.0005558717291
0.0005378889945
0.0005021865111
0.0004562218664
0.0004081909931
0.0003693319912
0.0003693462034
0.0003936897353
0.0003797004255
0.0003335778502
0.000289751133
0.0002536006327
0.0002011575328
0.0003477498524
0.0003303297592
0.0003111190073
0.0002891573772
0.0002650934911
0.0002394465719
0.0002527710972
0.000359971786
0.0004159336991
0.0005087046208
0.0006789011878
0.0007949848107
0.0006692682251
0.0005793456528
0.0005511913569
0.0005304234866
0.0004916525114
0.0004390031912
0.0003817252246
0.0003783638127
0.0004834537906
0.0005286563193
0.0005159109142
0.0004653085343
0.0004020709913
0.0003387015498
0.0002592557833
0.0003368373639
0.0003204089461
0.0003025232867
0.0002826360121
0.0002615128832
0.0002390937614
0.0002240643433
0.0002941351412
0.0003605215715
0.0004011981668
0.0005143052105
0.0006469710633
0.0005408779743
0.0005146628427
0.0005146584996
0.0004957061983
0.0004547830717
0.0004008733933
0.0003495158528
0.0003520368002
0.0004717646181
0.000526103968
0.0005112846698
0.0004594452887
0.0004041786783
0.0003654571157
0.0003108256496
0.0003260027345
0.0003102091772
0.000292294694
0.000272969176
0.0002536351437
0.0002355184227
0.0002210449953
0.0002422116182
0.0003168131233
0.0003423315095
0.000396119131
0.0004914303399
0.0004555999742
0.0004653426197
0.0004664711741
0.0004451609313
0.0004044512282
0.0003566816291
0.0003198094676
0.0003202228667
0.0004137362794
0.0004681038436
0.000452997438
0.0004141230574
0.0003863304661
0.0003728346359
0.0003258618668
0.0003138401237
0.0002974796656
0.0002792760107
0.0002615916067
0.0002459051286
0.0002338467609
0.0002246188946
0.0002235631933
0.0002852134565
0.0003253584721
0.0003718213136
0.0004017668314
0.0004022628669
0.0004082291584
0.0004087027105
0.0003867521129
0.0003518727523
0.0003177709075
0.0002968691773
0.0002964571427
0.0003471907683
0.0003925584631
0.0003849605537
0.000372758649
0.0003754082357
0.0003731880588
0.0003250970142
0.0002986133054
0.0002810808742
0.0002644749213
0.0002504883935
0.0002412715529
0.0002362899302
0.0002319802383
0.0002267914265
0.0002520775918
0.0003079978417
0.0003718216928
0.0003825617056
0.0003749318362
0.0003649172345
0.0003564220089
0.0003351007925
0.0003094996726
0.0002901922427
0.0002812048927
0.0002806996368
0.0002996893902
0.0003267235065
0.0003304482996
0.0003443921891
0.0003625582971
0.0003619775303
0.0003143537437
0.0002810429732
0.0002643551291
0.0002514414295
0.0002445030034
0.0002431622449
0.0002436419096
0.000241906833
0.0002364776781
0.0002373632078
0.0002776728024
0.0003581400301
0.0003751539071
0.0003613343832
0.0003408390281
0.0003224557595
0.0003023961747
0.0002835182179
0.0002734247587
0.000270442442
0.0002703468111
0.0002752903827
0.0002866778549
0.0002964937567
0.0003213827529
0.0003422055205
0.0003417516179
0.0002969625635
0.0002653480385
0.0002547668295
0.0002511997075
0.0002522110341
0.0002549954694
0.0002558832385
0.0002528594109
0.0002463994991
0.0002414670275
0.0002689835475
0.0003409019721
0.0003653428394
0.0003534111463
0.0003320968255
0.0003109611148
0.0002903400612
0.000273986252
0.0002655115065
0.000263534139
0.0002639167935
0.0002655823833
0.0002702655661
0.0002797111003
0.0003017541486
0.0003190055177
0.0003178915939
0.0002764588049
0.0002713339961
0.0002840625287
0.0002901378085
0.0002876405623
0.000281617094
0.0002740901851
0.0002649035396
0.0002556694185
0.0002493297262
0.0002762524096
0.0003377134239
0.0003693762786
0.0003637522008
0.0003453550485
0.0003243992825
0.0003022170078
0.0002820207821
0.0002678387897
0.0002620758883
0.0002623939712
0.0002654032477
0.0002697953529
0.0002769062789
0.0002902308558
0.0003002389163
0.0002965545061
0.0002574459939
0.0003298539158
0.0003488231967
0.0003440405043
0.0003287870414
0.0003110382096
0.0002941495342
0.0002780453974
0.0002645405472
0.0002568513727
0.000292033008
0.0003544377131
0.0003929974626
0.0003944734347
0.0003809458595
0.0003582199429
0.0003320982532
0.0003055403863
0.0002820344741
0.0002681813041
0.0002665702613
0.0002719661944
0.0002781699865
0.0002831971451
0.0002879802121
0.0002896627562
0.0002819676221
0.000243714327
0.0003803624967
0.0003836097473
0.0003738271863
0.0003571277258
0.0003371700067
0.0003159904121
0.0002943197046
0.0002751790251
0.000263790637
0.0003046071973
0.0003746255714
0.0004198951233
0.0004262693589
0.0004160206519
0.0003936313688
0.0003643467885
0.0003333772636
0.0003030281864
0.0002804214889
0.0002741605446
0.0002803550405
0.0002882670064
0.0002917584503
0.0002903029093
0.0002854251162
0.0002738368935
0.0002353549714
0.0004039182899
0.0004019720088
0.0003902941563
0.0003730311815
0.00035342978
0.0003318949151
0.0003083529112
0.0002856185719
0.0002696245559
0.0003056248076
0.0003851304996
0.0004419771668
0.0004557875839
0.0004475385477
0.0004238926363
0.0003915160053
0.0003566901277
0.0003223115154
0.0002932058966
0.0002809439865
0.0002853937344
0.0002936336275
0.0002959804062
0.000291206141
0.0002826147131
0.0002683462886
0.0002292510429
0.0004157633048
0.0004115103852
0.0003987939854
0.0003815431656
0.0003619625625
0.0003405397913
0.000316836882
0.0002930170661
0.000273699525
0.000297213224
0.0003857617421
0.0004602337117
0.0004915744703
0.0004869936455
0.0004606010925
0.0004215342717
0.0003789425975
0.0003380554635
0.0003026731217
0.0002841389593
0.0002849365769
0.0002917850074
0.000293280403
0.0002874704253
0.0002773809604
0.0002616124581
0.0002219732476
0.0004189168574
0.0004128199996
0.0004015826238
0.0003859679466
0.0003669502448
0.0003446850964
0.0003209785465
0.0002969534278
0.0002758009278
0.0002868349431
0.0003810432422
0.0004671410451
0.0005179392667
0.0005166928182
0.0004895447431
0.0004464746348
0.000398249004
0.0003513425146
0.000309583141
0.0002840387005
0.0002796571948
0.0002835951297
0.0002840599137
0.0002785513788
0.000267992395
0.0002511995297
0.0002110959099
0.0004135706432
0.0004077994958
0.0004149730079
0.0004729017967
0.000419884021
0.0003635858916
0.0003254323395
0.0002976213341
0.000275521213
0.000275513274
0.0003584164573
0.0004496724611
0.0005159195581
0.0005163085265
0.0004893169109
0.0004462904968
0.0003980911082
0.000350419558
0.0003068184326
0.0002780681138
0.0002700042539
0.000271324725
0.0002707212017
0.0002649807283
0.000253824426
0.000235631595
0.0001949271293
0.0004006507126
0.0004092014628
0.0004868753318
0.0006474242261
0.0005637314001
0.0004492316016
0.0003613101896
0.0003066961517
0.0002757046785
0.0002656265919
0.0003173863507
0.0004072140019
0.0004820975112
0.0004856813751
0.0004611237185
0.0004218170257
0.0003777282079
0.0003332760009
0.0002924303107
0.0002652997397
0.000256271257
0.0002556008522
0.0002536456085
0.0002469738333
0.0002344364228
0.0002138388499
0.0001723155687
0.0003824082698
0.0004047407502
0.0005051108558
0.0007023140972
0.0005858498021
0.0004596023895
0.0003623279369
0.0003019123716
0.0002704461623
0.0002565767603
0.0002804583782
0.0003490899094
0.0004250404314
0.0004342772283
0.0004148012069
0.0003818998987
0.0003440488196
0.0003050658522
0.0002700914754
0.0002474938653
0.0002390726706
0.0002367127228
0.0002329200868
0.0002244150459
0.0002094927685
0.0001857819735
0.0001436646276
0.0003569710136
0.0003683401502
0.0004323547951
0.000619356952
0.0005055762824
0.0004011090929
0.0003251555603
0.0002817578593
0.0002589859529
0.0002462400216
0.0002520930834
0.0002917661863
0.0003591251197
0.0003737396938
0.0003601113822
0.0003340715223
0.0003030575385
0.000271286236
0.0002438897907
0.0002264942216
0.000218740841
0.0002144296288
0.0002081291531
0.0001970749783
0.0001798295454
0.0001548538539
0.0001145280434
0.0003233294308
0.0003250763531
0.0003446935437
0.0004890789318
0.000399565367
0.0003267239773
0.0002815096622
0.0002571212754
0.0002423737083
0.0002319182999
0.0002291007382
0.0002438932802
0.0002893004964
0.0003058099
0.0002986760709
0.0002805480253
0.0002580011229
0.0002350064471
0.0002155521535
0.0002024900602
0.0001945635275
0.0001877095514
0.0001785494515
0.0001656494799
0.0001490105701
0.0001285025916
9.658072287e-05
0.000263758268
0.0002660764192
0.0002658209899
0.0003408061377
0.0002884452414
0.0002536225543
0.0002341005591
0.0002218881362
0.0002126048803
0.0002048658682
0.0001997653202
0.0002004123831
0.0002173347513
0.0002280122901
0.0002267042043
0.0002181945992
0.000206261047
0.0001935329264
0.0001820566567
0.0001726054545
0.0001642188467
0.0001551377683
0.0001442736087
0.0001320400937
0.0001197903152
0.0001075617231
0.0001951202657
0.0004514341088
0.00046290802
0.0006829641729
0.0009842601477
0.001129217062
0.001165443718
0.00119987629
0.001229608276
0.001257998298
0.001279578834
0.001288145167
0.0005673701554
0.0005375399861
0.0005077616251
0.0004841775454
0.0004544416596
0.0004718831765
0.0006844518635
0.000983378906
0.00114141502
0.001200907217
0.001229708767
0.001249827529
0.001265195334
0.00127228315
0.001267554626
0.001251885187
0.001231369907
0.001183958142
0.001125693609
0.001062876232
0.0009898069608
0.0008975316278
0.0007825095789
0.0006164932789
0.0004401499375
0.0001985065361
0.0005187741607
0.0005005122313
0.000483954182
0.000468089637
0.0004566709024
0.0004598642432
0.0004491691216
0.0004698578377
0.0006417241832
0.0009173294296
0.001086082228
0.001160610401
0.001206362469
0.001235602362
0.001253060201
0.001254088317
0.001240940344
0.001218609366
0.001190030282
0.001144848668
0.00108877087
0.001020211369
0.0009273210265
0.0008019993653
0.0006636189945
0.0005133819402
0.0003786802784
0.0001877112518
0.0004493877157
0.0004379290292
0.0004303039114
0.0004221302135
0.0004171971603
0.000426817844
0.0004240567501
0.0004801981465
0.0006182574486
0.0008437212317
0.0009871157765
0.001049270198
0.001111453722
0.001172297551
0.001213750168
0.001222653473
0.001207342752
0.00117282517
0.00112393546
0.00106939566
0.001025165349
0.0009783681338
0.0008934723843
0.0007566306358
0.0006171664107
0.0004788582863
0.0003562368132
0.0001773650286
0.000446831657
0.0004459199586
0.0004363092743
0.0004239052442
0.0004060928211
0.0003821214836
0.0003891234376
0.0005273412831
0.0007905857701
0.0008937479393
0.0009298047167
0.0009590155938
0.001019528989
0.001115837825
0.001153002253
0.001135254248
0.00107540039
0.0009714613262
0.0008390317451
0.000802125984
0.0008672580082
0.0009139721952
0.0008756024509
0.0007596964656
0.0005860069805
0.000399577215
0.0001707077325
0.0005320339938
0.0005404876701
0.0005286105252
0.0005306835829
0.0004522328871
0.0003847875786
0.0003601065881
0.0004790017102
0.0007507892533
0.0008698608891
0.0009148415949
0.0009225808746
0.0009277894889
0.0009585174597
0.000991334131
0.0009585047385
0.0008605874442
0.0007364316977
0.0006417964242
0.000641868058
0.0007430724912
0.0008659359104
0.0009046765618
0.0008541963663
0.0007172611897
0.0004828580622
0.00017315509
0.0006844431452
0.0006720313983
0.0006560834959
0.0007102396509
0.0005426356301
0.000407014474
0.0003786488258
0.0004980159654
0.0007516500892
0.0009384606638
0.001034753801
0.001064313201
0.001056459328
0.001043860325
0.001025863769
0.0009924551395
0.0009277479641
0.0008476907314
0.0007666628083
0.0007170589074
0.0007371933805
0.000813676339
0.0008772299566
0.0008691962316
0.0007664352462
0.0005379903584
0.0001817694479
0.0008565448717
0.0007740491194
0.0007531039521
0.000581698325
0.0004737733695
0.0004134147491
0.0004635967711
0.0006817608102
0.0009312455945
0.001100876125
0.0012008281
0.001251654854
0.001272210577
0.001269073621
0.001236604522
0.001194084538
0.001146737471
0.001081976495
0.001009802463
0.0009422622908
0.000881323823
0.0008485327443
0.0008399738832
0.0008150304145
0.0007249616744
0.0005279271448
0.0001860887443
0.0009826815255
0.0008684503873
0.0007213104555
0.0005606215776
0.0004675391127
0.0004506484123
0.0006466375747
0.0009611674656
0.001163239719
0.00127613623
0.001343965418
0.001391579835
0.001405016188
0.001386431196
0.001353475361
0.001311852353
0.001254639212
0.001186555296
0.001122638757
0.001066914548
0.001010691065
0.0009338358898
0.0008421550347
0.0007484000364
0.0006332240161
0.0004658715105
0.0001831073604
0.001049497387
0.0009310901856
0.0007783696278
0.0006082554241
0.0004958207248
0.0005125257594
0.0008644796378
0.001184140605
0.001349221497
0.001466751101
0.001543985145
0.001579477926
0.001548691256
0.001482701081
0.001416322889
0.001353800008
0.001294263344
0.001231781336
0.001172895932
0.001126395342
0.001084473077
0.001012345599
0.0008834363149
0.0007292974977
0.0005666674415
0.0004033683214
0.0001763897332
0.001079576071
0.0009761469521
0.0008558221755
0.0006759257767
0.0005343845581
0.000533518449
0.0009063374229
0.001258883496
0.001473701677
0.001733612496
0.00196197559
0.002008427129
0.001821527508
0.001634517792
0.001499461361
0.001391948805
0.001294986048
0.001228105591
0.001192262265
0.001177417077
0.001158883591
0.001070952037
0.000900719785
0.0007075546073
0.0005261696496
0.000368940295
0.0001733753138
0.001089751661
0.001004985694
0.0009112505
0.0007619356034
0.0006031916376
0.0005291883064
0.0007342106583
0.001175604503
0.001508254711
0.001945647508
0.002198821988
0.002263540336
0.002059074815
0.001770894436
0.001575005865
0.001428006995
0.001287622222
0.001190136173
0.001193846516
0.001258282243
0.001307228236
0.00128768124
0.001140864461
0.0008589251017
0.000569498902
0.0003735034328
0.0001784107328
0.00108580408
0.001020145028
0.0009488468617
0.0008361955068
0.0006806346354
0.0005547911874
0.0005324537027
0.0007929409774
0.001167981367
0.001734065783
0.002201994303
0.00234489403
0.002105472914
0.001819576091
0.001622344361
0.001467907668
0.001315871062
0.001212552538
0.001221346687
0.001298483578
0.001378354294
0.001423965028
0.001342557066
0.001081779446
0.0007667091231
0.0004728794096
0.0002166966996
0.001066430494
0.001022236978
0.0009716339564
0.0008817438451
0.0007502754247
0.000627366823
0.0005224133612
0.0005366592553
0.000756085547
0.001091048901
0.001712824507
0.001962465046
0.00185395925
0.001710542137
0.001550856173
0.00140808684
0.001268310181
0.001184898672
0.001179665903
0.001301422704
0.001400718174
0.001462010151
0.001406661781
0.001184311946
0.0009270051006
0.000649369984
0.0002681763493
0.001044958111
0.001019457949
0.0009846675107
0.000899615656
0.0008020347802
0.0007023376453
0.0005813797125
0.0004862210538
0.0005551473585
0.0008319517126
0.001225088001
0.001468602735
0.001595820937
0.001568971331
0.00142255226
0.001273248483
0.001161474393
0.001093494825
0.001087825618
0.00118253569
0.0012764567
0.00132096998
0.001264306963
0.001128931124
0.0009839165358
0.0007790149155
0.000298102901
0.001027883499
0.00101554552
0.0009848166679
0.0009222262741
0.000864148319
0.0007891270423
0.0006707624922
0.0005331527755
0.000504422554
0.0007811294132
0.001101673755
0.001280412586
0.001386153403
0.001342883078
0.001204455569
0.001076837446
0.001003668001
0.0009920195588
0.001015418007
0.001060569601
0.001116116922
0.001117588397
0.001079822767
0.001041517978
0.000979204563
0.000830497765
0.0003048464654
0.001005573218
0.0009951857531
0.0009727312697
0.0009564843293
0.0009369505018
0.0008844194615
0.0007746852847
0.0006203650638
0.0005194298079
0.0007271163142
0.001046515538
0.001190272829
0.00121946458
0.001122928081
0.0009779223755
0.0008986530644
0.0008810015108
0.0009210302455
0.0009684074068
0.0009928952739
0.0009989951223
0.0009722652422
0.0009391485979
0.0009605770168
0.0009347803849
0.0008085172896
0.0002944576825
0.0009347691811
0.0009389133182
0.0009707583997
0.001005496618
0.001014109742
0.0009769063955
0.0008791287124
0.0007245569835
0.0005857797348
0.0006871050145
0.0009948409483
0.001131971349
0.001118075433
0.0009807594532
0.0008402945796
0.0008425117167
0.0008037331968
0.0008577479101
0.0009249600925
0.0009571013155
0.0009483196328
0.0009026353036
0.0008804445953
0.0009099955045
0.0008902301383
0.0007444448631
0.0002754798496
0.0008678199028
0.0009331907361
0.001010604503
0.00107070497
0.001089622401
0.001054570968
0.0009648269612
0.0008171032561
0.0006690214425
0.0007141494221
0.0009997457313
0.001136201849
0.001115356921
0.0009632257242
0.0007973274157
0.0007335116164
0.0007284614017
0.0007947885973
0.0008763790295
0.0009286332623
0.0009378748012
0.0009077040185
0.0008911777365
0.000901198155
0.0008583009629
0.0006816532784
0.0002560776946
0.000913912213
0.001030691472
0.001096589532
0.001126583397
0.001127464544
0.001093736674
0.001021664249
0.0008848302624
0.0007453138204
0.0007879341401
0.001071396346
0.001211224138
0.001206069217
0.001081943571
0.0008866024427
0.0007489460831
0.0007045765215
0.0007452681485
0.0008282372313
0.0009051089555
0.0009476364315
0.0009483909696
0.0009369617539
0.0009188366376
0.0008388944612
0.0006390292338
0.0002412955001
0.001033660779
0.001094543183
0.001127657483
0.001141274532
0.001136645972
0.00110838906
0.001050887685
0.0009211514779
0.0007946548209
0.0008659298227
0.001167515348
0.001319502543
0.001337844486
0.001243672205
0.001064982388
0.0008644909554
0.000737388805
0.0007207246885
0.0007894513068
0.0008877936265
0.0009643615402
0.0009929053824
0.0009835907349
0.0009400778015
0.0008272681254
0.0006127759273
0.0002318520014
0.001114071915
0.001141941286
0.001153464121
0.0011506608
0.001136214006
0.001108346415
0.001056769721
0.0009296192678
0.0008127464763
0.0009150302318
0.001253144324
0.001433585756
0.001480303373
0.00141059513
0.001240895071
0.00101454465
0.0008116382096
0.0007234458853
0.0007629669423
0.0008703530037
0.0009689501257
0.001008568809
0.00099573667
0.0009403582205
0.0008070039682
0.0005864931592
0.0002250225271
0.001172460608
0.001186480392
0.001184167078
0.001166382917
0.001137172512
0.001102193964
0.001049736598
0.0009212865928
0.0008073366231
0.0009217733644
0.001313111265
0.001539028335
0.001618876087
0.001571741434
0.001406102343
0.001155846098
0.000900734362
0.0007411719754
0.0007412228538
0.0008417999878
0.000947501616
0.0009868573131
0.0009692126358
0.0009076222247
0.0007625151071
0.0005453618143
0.0002174108838
0.00121003211
0.001222658279
0.001219645998
0.001199810724
0.001150951391
0.001097852929
0.001036493228
0.0009031874628
0.0007868682607
0.0008872127771
0.001321064973
0.001602244041
0.001717064074
0.001693450471
0.001535940708
0.001270869514
0.0009779432811
0.0007621036552
0.0007176626621
0.0007968834841
0.0008966708422
0.0009342521183
0.0009115972138
0.0008378046407
0.000685637151
0.0004839187006
0.0002068200022
0.001217574236
0.001243963826
0.001276452475
0.001266652474
0.001195301656
0.001101254428
0.001010429102
0.000874875259
0.0007558201003
0.0008113287177
0.001217319979
0.00157437099
0.001735846552
0.001738543167
0.001591335136
0.001320556606
0.001008226156
0.0007651755363
0.0006845292808
0.0007351698067
0.0008175212211
0.0008531980978
0.0008237214251
0.0007288158248
0.0005790404176
0.000407873742
0.0001923201664
0.001186322652
0.001257638939
0.001392837204
0.001433483693
0.001310609465
0.001095739969
0.0009678687758
0.0008381860533
0.0007226097093
0.0007214732486
0.000997112849
0.001418194358
0.001635867649
0.001669743755
0.00153573633
0.001272757832
0.0009715160043
0.0007283571799
0.0006353145503
0.0006601994849
0.0007153446597
0.0007331087268
0.0006895572862
0.0005893026443
0.0004597255039
0.000330732392
0.0001736463731
0.00111179214
0.001236806443
0.001528513405
0.001678580702
0.001528329489
0.001109809872
0.0008983212531
0.0007771586886
0.0006824839874
0.000645612396
0.0007736076773
0.001134202192
0.00138205923
0.001448287435
0.001340383033
0.001113217412
0.0008586178206
0.0006482976248
0.0005691226195
0.0005752741866
0.0005994511314
0.0005922557531
0.000537997244
0.0004490213176
0.0003527978401
0.0002653757411
0.000150886127
0.0009799988842
0.001078904793
0.001418262961
0.001691375673
0.001494259794
0.00101154622
0.0007964786113
0.0006961759942
0.0006268230643
0.0005818429828
0.0006086916296
0.0008016358797
0.001012418233
0.001098023431
0.001036217965
0.0008777602802
0.0006798702156
0.0005432437751
0.0004889535257
0.0004816230347
0.0004794265262
0.0004542373546
0.0004023523459
0.0003371991504
0.0002749835426
0.0002183353793
0.0001255058931
0.0007906598373
0.000822196615
0.001041038608
0.001307371131
0.001088930213
0.0007770069351
0.0006484434366
0.0005912193838
0.0005479787677
0.0005120077812
0.0004982558269
0.000554116908
0.0006618366426
0.0007276316081
0.0006957465484
0.0006035837125
0.0005055289266
0.0004370988771
0.0004022224255
0.0003859664179
0.0003689487281
0.00034070662
0.0003036059336
0.0002647694559
0.0002290502809
0.000192865642
0.0001039305913
0.0005402564129
0.0005541723171
0.0006208818138
0.0007064362195
0.0006359932636
0.0005221484332
0.0004847078306
0.0004590626024
0.0004359561652
0.0004143117238
0.0003981043862
0.0003996765929
0.0004193168547
0.0004370922269
0.0004300824535
0.0004023572091
0.0003680451459
0.0003379539912
0.0003154618986
0.000297132276
0.0002781360061
0.0002574049722
0.0002375129785
0.0002200318196
0.0002037083558
0.0001816040722
9.49994803e-05
0.0002376960081
0.000244086611
0.0002457850627
0.0002631256556
0.0002490229093
0.0002347939635
0.0002261163975
0.0002186718887
0.0002118696035
0.0002057817465
0.0002014310183
0.000199724388
0.0002035598553
0.0002071062451
0.0002064965108
0.0002018950304
0.0001946796523
0.000186277883
0.0001776887934
0.0001690622662
0.0001599199527
0.0001498823152
0.0001393544921
0.0001294278999
0.0001206841149
0.000111203935
8.906450456e-05
0.000848063305
0.0007912865814
0.0008339198033
0.001078156563
0.001386191662
0.001589338497
0.001672233158
0.001689227443
0.00167793009
0.001651871964
0.001611625733
0.001561899005
0.001514413606
0.001475103367
0.001436543617
0.001011912826
0.0009461385557
0.0008866306498
0.000839003554
0.000804950239
0.0008646688042
0.001107213939
0.001414774555
0.001620616809
0.001705544293
0.001713901112
0.001687397944
0.001642839856
0.001586521163
0.001529805225
0.001489180286
0.001467646492
0.001444704109
0.001414256083
0.001375043924
0.001321140024
0.001240045128
0.001114869977
0.0009177645366
0.0006355796494
0.0001951667718
0.0009965180238
0.0009394315314
0.0008930611
0.0008536404133
0.0008237449795
0.0008099656287
0.0008016827944
0.0008887964502
0.001107899345
0.001390759097
0.00159596546
0.001688923259
0.001702552968
0.00167605009
0.001627585075
0.001566288736
0.001508459601
0.001470058494
0.001450534002
0.001429210661
0.001398548533
0.001356350907
0.001293605396
0.001188760638
0.001039125179
0.0008327545172
0.0005697860856
0.0001854656079
0.0008498418561
0.0008154095567
0.0007938448104
0.0007768126304
0.0007643171785
0.0007607894404
0.0007688013712
0.0009083559376
0.001114093225
0.001344200622
0.001532782179
0.001628030369
0.001661592129
0.001649499614
0.001613415866
0.001560984871
0.001508640837
0.001469205368
0.001437400129
0.001402687059
0.001365738705
0.001324668435
0.001266680567
0.001163965172
0.00101308641
0.0008124758295
0.0005607484191
0.0001789515879
0.0007779739392
0.0007849342961
0.0007866126485
0.0007752726821
0.0007390161987
0.0006982040429
0.0007472893625
0.0009671786001
0.001265434393
0.00146095924
0.001552933666
0.001595621779
0.00160920652
0.001595797279
0.001561152001
0.001516268317
0.001467312974
0.001410353831
0.001348970241
0.001306824293
0.001292659785
0.001274459076
0.001222653514
0.001108766182
0.0009122488022
0.0006270445505
0.0001782902751
0.0008644581018
0.000910276016
0.000944999162
0.0009529589613
0.0008300438185
0.0007054299299
0.0006731550223
0.0008671188947
0.001196801764
0.001420048175
0.00152718342
0.001567543237
0.001577907767
0.00157640477
0.001553256269
0.001507219175
0.001431737756
0.001327444764
0.00123001144
0.001194525146
0.001224758942
0.001256721232
0.001244219323
0.001172956147
0.001007109168
0.0007087727247
0.0001834021509
0.001050585508
0.001106387934
0.001206291314
0.001190142842
0.0009755153177
0.0007262532512
0.0006553213836
0.0008341785673
0.001162141945
0.0014306244
0.001577219094
0.001635817203
0.001637997268
0.001615441852
0.001579141897
0.001529283222
0.001460964943
0.001371770483
0.001279406631
0.00121989255
0.00121372606
0.001234880041
0.001236010357
0.001181719656
0.001035699525
0.0007451240327
0.0001894821786
0.001238846379
0.001216414181
0.001287987132
0.001091248804
0.0008576663085
0.0007100529832
0.0007461188696
0.0009907967166
0.00128300011
0.00151064123
0.001638122013
0.001694145512
0.001699692934
0.001674736673
0.001629215623
0.001570598509
0.001504376714
0.001435082583
0.001370258351
0.001318703472
0.001278284019
0.001249894572
0.001214644481
0.00114278664
0.0009949517196
0.0007184385315
0.0001904492705
0.001350114071
0.001246841386
0.001129318067
0.0009324152456
0.000795816943
0.0007589524487
0.0009723206108
0.001269726477
0.001481329855
0.001626179935
0.001715073862
0.001750229126
0.001736856694
0.001696385355
0.001646045966
0.001585419236
0.001516954548
0.001451522388
0.001399053331
0.001361231457
0.001328099727
0.001279129875
0.001197043758
0.001075374025
0.0008984398243