/*--------------------------------*- C++ -*----------------------------------*\
  =========                 |
  \\      /  F ield         | OpenFOAM: The Open Source CFD Toolbox
   \\    /   O peration     | Website:  https://openfoam.org
    \\  /    A nd           | Version:  8
     \\/     M anipulation  |
\*---------------------------------------------------------------------------*/
FoamFile
{
    version     2.0;
    format      ascii;
    class       volScalarField;
    location    "1.9";
    object      k;
}
// * * * * * * * * * * * * * * * * * * * * * * * * * * * * * * * * * * * * * //

dimensions      [0 2 -2 0 0 0 0];

internalField   nonuniform List<scalar> 
67451
(
0.01454014631
0.01532638664
0.02351381871
0.03324207727
0.03281912541
0.03397643602
0.03769675193
0.04209283733
0.04516305771
0.04625607639
0.04632465724
0.01996569167
0.01843162274
0.0169475782
0.01548221698
0.01416092579
0.01519813405
0.02340190058
0.03197009291
0.0330942482
0.03529819787
0.03957431344
0.04428875109
0.04786126589
0.04969728675
0.05095883097
0.04948525298
0.04289113354
0.04098858203
0.04063243247
0.04021938439
0.03916930723
0.03732163959
0.03480137816
0.03188878913
0.02864825915
0.02929718397
0.0216334077
0.02079478259
0.01977536762
0.01842999656
0.01690849995
0.01538873376
0.01409179593
0.014679283
0.02151795696
0.02813876742
0.03123924078
0.03418829714
0.03842062678
0.04367310107
0.04811051702
0.05070719736
0.0524119786
0.05067012731
0.04484093348
0.04003350253
0.03717014186
0.03603371408
0.03449736055
0.03255977635
0.03054901368
0.02821552235
0.02563525678
0.02682367676
0.02745323962
0.02593001067
0.02387289038
0.02136153984
0.01885653482
0.01642207891
0.01459856048
0.01488956121
0.02052469597
0.02624845073
0.02905302145
0.03125761215
0.03405316075
0.03893308687
0.04439458961
0.04799470637
0.04933564632
0.04818413798
0.04400736981
0.03856348017
0.03510092477
0.03323585086
0.03119412198
0.02937389344
0.02734705328
0.02503726495
0.02263774069
0.02354405277
0.03399182293
0.03020076155
0.02610675099
0.02248310887
0.01876371275
0.01611353827
0.01620682477
0.0223614134
0.02758012351
0.02922456666
0.03034732728
0.03107761761
0.03264011399
0.03561316279
0.03963254662
0.04032219936
0.03856484823
0.03409242477
0.03037710079
0.02883085628
0.02988865996
0.0325133351
0.03299369524
0.03107331182
0.02758430493
0.02300208744
0.02060514323
0.04219649261
0.03677696825
0.03133780477
0.02711255519
0.02210944109
0.01869599454
0.02060574385
0.02963404803
0.03506602694
0.03442883647
0.03445438645
0.03404040209
0.03335870564
0.03384445291
0.03411574832
0.03324896318
0.03199442651
0.03067354583
0.02970081473
0.02926924077
0.03086951914
0.03477810141
0.03782494867
0.03749470589
0.03377276724
0.02745974824
0.02070001777
0.0497732823
0.04313900574
0.03666669112
0.0332310727
0.02624051009
0.02226855174
0.02858791852
0.04261119994
0.04865954177
0.0441883091
0.04188242435
0.04074773169
0.03978144667
0.04096153437
0.04089675977
0.03914913158
0.03788540892
0.0371837845
0.03649012215
0.0354352608
0.03459244607
0.03551065678
0.03771340604
0.03846936975
0.03615297247
0.03076468018
0.02316639269
0.05704659695
0.04982022517
0.0430403057
0.03539806671
0.02873992538
0.0263022596
0.04182435777
0.05927140754
0.06574202432
0.05800722141
0.05212945576
0.04894722573
0.04815197971
0.05253881186
0.05348087196
0.04914660744
0.04575147374
0.04442887075
0.04363497406
0.04227360333
0.04036125116
0.03828488482
0.03714717107
0.03681010325
0.03520770133
0.03108351853
0.02436029948
0.06334839375
0.05570863545
0.0479290457
0.03994538681
0.03229989317
0.03230197938
0.05760602541
0.07778273198
0.08499699889
0.0756874666
0.06729890637
0.06033712843
0.05936780252
0.07014739689
0.07317913066
0.06468079759
0.05536810056
0.0507095353
0.0491434703
0.04803993989
0.04606430334
0.04321083071
0.03997224685
0.03690987327
0.03400867665
0.02994186509
0.02377942301
0.06766677182
0.0599232426
0.0518093996
0.04339214477
0.03505766722
0.03964754697
0.07175444552
0.09561611506
0.1020179461
0.09374957819
0.09301421638
0.08319940299
0.07915698993
0.09491261557
0.09978092798
0.08819757498
0.07062712247
0.05777588862
0.05231242112
0.05047672056
0.04910821783
0.04711445788
0.04360821653
0.03902553839
0.034304305
0.02908274293
0.02248496608
0.06907492979
0.06150366692
0.05345653919
0.04511769913
0.03671057328
0.04178947985
0.07705052459
0.1028311393
0.1111907241
0.1130039704
0.1486217373
0.138596524
0.1181974182
0.1277224543
0.1310256021
0.1180192136
0.09452672004
0.0717759701
0.05824379506
0.05256862627
0.05195127025
0.05500703523
0.05111688865
0.04348630953
0.03657727508
0.03008006227
0.02228153853
0.06773468147
0.06057643692
0.05306854153
0.04526121422
0.03718475893
0.03106668555
0.05734826745
0.09088232081
0.1135971266
0.1656774771
0.2736185302
0.238280289
0.1796131842
0.1658932654
0.162671519
0.1523230558
0.1326184441
0.1092818672
0.08732905507
0.07141765091
0.07156892036
0.08146742283
0.07558846619
0.05820868494
0.04392282573
0.03368100987
0.02479512464
0.06347143751
0.05725808087
0.05077893158
0.04385243988
0.03684832345
0.03005936799
0.0334720184
0.06798414144
0.09053182812
0.1346496862
0.2413021758
0.3330350021
0.2342728475
0.1756148326
0.1596417738
0.1479469032
0.1269208492
0.10097419
0.07618975912
0.07514449533
0.1234147509
0.1474501196
0.1400859747
0.1136013062
0.08459289289
0.05995595086
0.04114536078
0.05953893599
0.05386142175
0.04800665017
0.041894743
0.03585973
0.02997433019
0.02632361576
0.04531250599
0.06810022532
0.08362542972
0.1369476992
0.2182769676
0.1519270019
0.1386741752
0.1391609269
0.1290079726
0.1083694299
0.08401795654
0.06383679313
0.06496507894
0.1172574747
0.1458814798
0.1373762014
0.1105720898
0.08549331249
0.07004721569
0.05937353288
0.05575994045
0.05047731486
0.04480406479
0.03906755871
0.03372622292
0.02908619747
0.02563118186
0.0307211589
0.05260917788
0.06122496974
0.08153233704
0.1250740449
0.1081198926
0.1133199264
0.1140945344
0.1037921299
0.08550806916
0.06643306209
0.05346995304
0.05371116344
0.08985574996
0.1150749573
0.1074605267
0.08969533775
0.07826738096
0.07308200206
0.06533417395
0.05166267218
0.04640481814
0.04089114244
0.03587172629
0.03170314451
0.0286834705
0.02647780461
0.02621560725
0.04264139868
0.05552619001
0.07255827922
0.08408168265
0.08454213019
0.08714824666
0.08738452642
0.07817215447
0.06463521844
0.05274932911
0.04613481694
0.04605013483
0.06308962732
0.08064399288
0.07743069975
0.07277429215
0.07408389497
0.07325936298
0.0649967829
0.04675125816
0.04141497609
0.03666248913
0.03289244026
0.03053181218
0.0293006582
0.02825202926
0.02700204755
0.03330265768
0.04976665893
0.07270980654
0.07683778883
0.07368565267
0.06970595861
0.06642256206
0.05865365508
0.05003732417
0.04406303708
0.04144787551
0.04131407399
0.04700248968
0.05578420078
0.05708761072
0.06225108039
0.06912617967
0.06887107128
0.06071599645
0.04139718767
0.03662329019
0.03313938372
0.03135386743
0.03103165911
0.03116706115
0.03072927898
0.02936621367
0.02956344067
0.04043030326
0.0673979131
0.07395767773
0.06853499036
0.06089600219
0.05442782858
0.04780363159
0.04206057262
0.03917557988
0.03836382759
0.03834194653
0.03971393385
0.04300443411
0.04603955154
0.05423660025
0.06153344937
0.06132460096
0.05412785535
0.03689721799
0.03403131616
0.03310487132
0.03338884514
0.03414343068
0.03438607257
0.03357623938
0.03188177076
0.03061582354
0.03799564724
0.06104427011
0.07012111525
0.06558859213
0.05788081254
0.05071243929
0.04418330844
0.03935196841
0.03697551975
0.03644241326
0.03655245313
0.03700560552
0.03830162936
0.04104088112
0.04780683809
0.05342607092
0.05301432584
0.04687189305
0.03866452652
0.04242159042
0.04423535851
0.04344919175
0.04163514378
0.0394422968
0.03684493656
0.03432153035
0.0326433952
0.04011025068
0.05994402328
0.07172866409
0.06955995971
0.0626957705
0.05529589843
0.04797020003
0.04175233707
0.03764961685
0.03605047239
0.03614758087
0.03698981925
0.0382266607
0.04026986859
0.04423255718
0.04731138745
0.04612104598
0.04063667865
0.05729961369
0.06402035548
0.06221411286
0.05677671731
0.05078836466
0.04541757714
0.0405832666
0.03673837536
0.03463906025
0.04484946527
0.06608462008
0.08126332622
0.08187528905
0.07635069507
0.06749330314
0.05797778352
0.04904235538
0.04176077826
0.03775620603
0.03732330582
0.0388705024
0.04067300636
0.04215109579
0.04356501281
0.04404509912
0.04170450489
0.0364320268
0.07614746759
0.07740530224
0.0734685494
0.06701680454
0.05970814355
0.05242425808
0.045471543
0.03974680065
0.03652962511
0.04879706329
0.07383129287
0.09277043491
0.09559826328
0.09103823535
0.08147720835
0.06977756626
0.05838762422
0.04820999443
0.04127761211
0.03948243622
0.0413178638
0.04369442848
0.04474732333
0.04427655825
0.0427744582
0.03934712295
0.03399280687
0.08583332258
0.08498281934
0.08008531902
0.0731263586
0.06561785014
0.0578426481
0.04991165172
0.04281478564
0.03815505984
0.04910019845
0.07799938878
0.1027569265
0.1092860938
0.1053287312
0.09444349772
0.08052869636
0.06681122729
0.05452194924
0.04510845918
0.04144601475
0.04280826623
0.04532480119
0.04603729832
0.0445441571
0.04193399963
0.03778776256
0.03225694135
0.09091931178
0.08904699218
0.08359651022
0.07648917125
0.06881646067
0.06089040587
0.05269122973
0.04505537491
0.0393089457
0.04639873795
0.07822173389
0.1114144959
0.1272071069
0.1247939456
0.1115364673
0.09333065672
0.0753664282
0.05994003676
0.0480348817
0.0423667909
0.04264963634
0.04473606121
0.04518164595
0.04339230057
0.04038403852
0.03590676328
0.03023313457
0.09227530686
0.08958333184
0.08472974101
0.07821922208
0.07069345729
0.06236077898
0.05406212054
0.04626149875
0.03990547358
0.04318814143
0.07630608408
0.1147595859
0.1412732409
0.1405294079
0.1260207701
0.1046953593
0.08321459447
0.06470910094
0.05021500955
0.0423023898
0.04105685645
0.04223624007
0.0423651644
0.04072442274
0.0376811434
0.03308990166
0.02732645636
0.08989744428
0.08736835614
0.0903872481
0.1176257845
0.09240584114
0.0692345368
0.05550027604
0.04644284759
0.03981449577
0.03982241712
0.06744989063
0.1062310408
0.1400839368
0.140212796
0.1257928875
0.104513614
0.08307177519
0.0643069949
0.04927506651
0.04050937456
0.03824692106
0.03863998494
0.03846218443
0.03683609922
0.03378460154
0.0290959331
0.02328061775
0.0843196236
0.08790575142
0.1246748176
0.2214083153
0.1670573384
0.1056216607
0.06821042127
0.04920664351
0.03983176045
0.03699961277
0.05281878054
0.08699469102
0.122152963
0.1238957452
0.1115553042
0.0932428635
0.07469947698
0.05810360314
0.04472541297
0.03685485461
0.0344384683
0.03427483085
0.03374738073
0.03198301579
0.02880154369
0.02394188447
0.01817371384
0.07675342571
0.08580176501
0.1337247512
0.2605948288
0.1798529849
0.1101279747
0.06833017663
0.04757872936
0.0382983583
0.03451271767
0.04121803069
0.06384790842
0.09481447562
0.09891373052
0.09014297841
0.07633481018
0.06190235649
0.04864281663
0.03813993088
0.03206894297
0.02996159822
0.02938356037
0.02844338247
0.02639096231
0.02298080967
0.01805467599
0.01262114457
0.06685227509
0.07096593746
0.09742984189
0.2011727365
0.1330989535
0.08349594405
0.05495879137
0.0414582261
0.03512826875
0.0317857534
0.03330156248
0.04456984225
0.06759755929
0.07315671
0.06785134336
0.0583469014
0.04799244516
0.03845540627
0.03110303509
0.02685964521
0.02507564483
0.02410096242
0.02269792719
0.02033856985
0.01692165799
0.01253809326
0.008022584326
0.05481186586
0.05532428981
0.06189053839
0.1246101685
0.08272863806
0.05536157194
0.04129819493
0.0345819504
0.03077669367
0.0281932573
0.02750816589
0.03114832134
0.04381323238
0.04891102259
0.04662234642
0.0411205822
0.03477654297
0.02886476894
0.02430422358
0.02146903204
0.01983193814
0.01845864191
0.0166943023
0.01436166089
0.01161678382
0.008639523393
0.005715799526
0.03889035999
0.03956805165
0.03940837839
0.0642675303
0.04604358343
0.03575991297
0.03058113623
0.0275204145
0.02528289398
0.02348332195
0.02233064791
0.02246855401
0.02639662666
0.02902320499
0.02867985075
0.02656859164
0.02374876629
0.02091816487
0.01852187357
0.0166567482
0.0150799474
0.01345628269
0.0116344525
0.009743841212
0.008021436015
0.006470709968
0.005355494137
0.02398711632
0.02531110708
0.03831743664
0.05463492997
0.06084692294
0.06399888491
0.06804678112
0.07223704263
0.07585024968
0.0789273614
0.08111631361
0.03173789848
0.02940767162
0.0272444335
0.0254826307
0.02381873771
0.02552103722
0.03827452663
0.05419265505
0.0614131722
0.06575516941
0.06994299437
0.07381335753
0.07674763195
0.07890806657
0.0798018808
0.07861022696
0.07729527927
0.07315075323
0.06872023192
0.06471233306
0.0604818752
0.0554750559
0.04986186298
0.04284754072
0.03518876861
0.02798977151
0.03188507308
0.03035421212
0.02876749822
0.02708470009
0.0255644413
0.02471776356
0.02373730473
0.02533778061
0.03612380421
0.05098676326
0.05939601501
0.06465174552
0.0695403423
0.0738099205
0.07670228779
0.07812002255
0.07815767203
0.07685171247
0.07427473379
0.07026174375
0.06619289788
0.06208299593
0.05685166991
0.05023709865
0.04345502273
0.03650831255
0.03028422692
0.02502491583
0.03227137993
0.03082728336
0.02908485212
0.02711014839
0.02533226077
0.02435824457
0.02351935243
0.02572970613
0.03536006394
0.04836874675
0.05618754587
0.06098251519
0.06623693055
0.0716751664
0.07564938902
0.07730084047
0.07713573806
0.07487938884
0.07090675917
0.06674256634
0.06404342825
0.06240150263
0.05844671055
0.05096057337
0.04275012119
0.03463077558
0.0278010645
0.02233860167
0.03578089762
0.03324088817
0.03022782786
0.02739702132
0.02477748151
0.02269151826
0.02377671493
0.03290218459
0.04732039332
0.05359363651
0.05694349144
0.06032088182
0.06546186396
0.07164216441
0.07427474603
0.07363737867
0.07001899545
0.06361739054
0.05635438849
0.05468886141
0.05891623302
0.06162624425
0.05956300455
0.05279298293
0.04227625264
0.03052513221
0.020691886
0.04433169796
0.04092938658
0.03691371857
0.0336168942
0.02836550479
0.02455481681
0.02501271264
0.03484775674
0.04972300117
0.05557360968
0.0581367943
0.05948732382
0.06136680871
0.06494085471
0.06747210756
0.06524881114
0.05937250791
0.05226763673
0.04714748123
0.04768489357
0.05400427661
0.06074149896
0.06310225804
0.06029968629
0.05194529088
0.0371943037
0.02129427626
0.05506714613
0.05055653241
0.04630197632
0.04491271167
0.03522125381
0.02831947646
0.03085649474
0.04338500268
0.05822277801
0.06445296107
0.06739298918
0.06842902359
0.06905137539
0.07087962046
0.07131043081
0.06892321748
0.06430559747
0.05933868012
0.05513777225
0.05319508687
0.05522235176
0.05988605014
0.06338473573
0.06279099698
0.05650960288
0.04230280661
0.02346821982
0.06620925001
0.06000425374
0.05449120664
0.0448055254
0.03556060436
0.03217710487
0.04282190217
0.0639543179
0.07947002616
0.08236760966
0.08357285672
0.08346820525
0.08404463212
0.08561104272
0.08462920662
0.08125309154
0.07692679568
0.07246009548
0.06860232457
0.06560448983
0.06347160758
0.06260275902
0.06245469479
0.06094021551
0.05537238228
0.04286363938
0.02459234432
0.07526801678
0.06577536182
0.05685801209
0.04520377094
0.03750100836
0.03893852368
0.06347220263
0.09621698998
0.1110012944
0.1091100846
0.1068220056
0.1035674321
0.1028461959
0.1032871964
0.1000410423
0.09404913688
0.087135717
0.08083268044
0.07635951205
0.07345259616
0.07105752506
0.06772373624
0.0631698652
0.05784613244
0.05074647634
0.03951930308
0.02380325626
0.08082598682
0.07118900848
0.0602114275
0.0487885361
0.0408003842
0.04767820386
0.08751914646
0.1249002133
0.1369933505
0.1399756369
0.1489804547
0.1415130884
0.1351338326
0.1325792567
0.1253018935
0.1123557396
0.09896052852
0.08826361623
0.0812643848
0.07761209527
0.07612465151
0.07338583357
0.06678775528
0.05777881152
0.04751246516
0.03579096244
0.02208338454
0.08205856522
0.07315608987
0.06352400565
0.05226724878
0.04351474558
0.05044509927
0.09423493128
0.1353781764
0.1546118997
0.1904191915
0.2535246545
0.2490013986
0.2060842582
0.179874785
0.1622909177
0.1421426694
0.1180111453
0.09835578386
0.08730504371
0.08406098738
0.08566717237
0.08244762684
0.0720354968
0.05906917007
0.04660721778
0.03444651813
0.021328052
0.08041692711
0.07248154229
0.06456458281
0.05509973576
0.04577426718
0.04338417937
0.0747815
0.1277615594
0.1725640855
0.2691872858
0.3447345814
0.3533725332
0.2902431738
0.221564566
0.1876692796
0.1644286617
0.1364423128
0.1100453981
0.09839014582
0.1054282054
0.1194660182
0.1208388128
0.1033598272
0.0754115889
0.05265710625
0.03667772452
0.0225776532
0.07705744639
0.07035888024
0.0640050205
0.05662755981
0.04818401666
0.04119474363
0.04562449843
0.08170225105
0.1248127028
0.226219589
0.3501916089
0.3898697877
0.2966505244
0.2271350468
0.1944758386
0.1694470322
0.1393393079
0.1118168861
0.1062109429
0.1285039152
0.1489083147
0.1634584253
0.1539752434
0.1167307179
0.0791677705
0.05312229503
0.0332856431
0.07374363815
0.06844430499
0.06337111932
0.05748008738
0.05041545261
0.04339775927
0.03892826668
0.05062466175
0.07814526808
0.1240463768
0.2391109086
0.2721965475
0.2253618609
0.1966343051
0.1736160589
0.1510490905
0.1235183719
0.1011771906
0.09848070018
0.1260157511
0.151225318
0.1716600746
0.1652038964
0.1302443628
0.09913181682
0.07540032332
0.05109187824
0.07098223406
0.06678295194
0.06270548912
0.05757230735
0.05193591498
0.04619100733
0.04034302334
0.03990843355
0.05587196486
0.08661824157
0.1411619567
0.1636608171
0.1682770971
0.1636866897
0.1455616186
0.1233555907
0.1018039494
0.08674513786
0.08414104082
0.1023585159
0.1246868128
0.1405409822
0.1342107465
0.1168893765
0.1051886476
0.09125302713
0.06319019928
0.06871718694
0.06525096172
0.06181471398
0.05777620877
0.05374998724
0.04943839866
0.04417837023
0.03968736253
0.04759411734
0.07744167575
0.1123436221
0.1292679893
0.1344114962
0.129738093
0.1131473623
0.09594692188
0.08257424155
0.07458751664
0.0728614634
0.08079689976
0.09416795334
0.101678762
0.1016532019
0.1023702385
0.1030145307
0.09629010471
0.06604384607
0.06651652144
0.06370891172
0.06123167938
0.05894771153
0.05649657518
0.05333430965
0.04883811056
0.04326071342
0.04386090521
0.06894101386
0.1027693261
0.1164097882
0.1152898212
0.1039464614
0.0885604495
0.07777763386
0.06954711215
0.06626805123
0.06586384122
0.06875588345
0.07456701048
0.0781979956
0.0820561474
0.08945859946
0.09434184512
0.09066408259
0.06154420579
0.06389699199
0.06280848572
0.06275782599
0.06229879777
0.06065127111
0.05782512513
0.0537465603
0.04822861979
0.04510083074
0.06138154959
0.09379953793
0.1078728907
0.1044318993
0.08965124836
0.07546420238
0.06890479522
0.06214911466
0.06078577032
0.06165924443
0.06336053326
0.06583721962
0.06799044572
0.07221490462
0.07934521734
0.08421110262
0.07978335836
0.05380655807
0.06377147242
0.06686569895
0.06891824355
0.06860053847
0.06619707177
0.06264377801
0.05844302228
0.0532742485
0.0496931895
0.06165979617
0.09043584016
0.1049015857
0.1022851427
0.08763613161
0.07196616517
0.06267518143
0.05769705471
0.05746633866
0.05923510268
0.06143250937
0.06358703481
0.06556522762
0.06882415323
0.07353343998
0.07605188272
0.06941797898
0.04647397871
0.07308225668
0.07884582769
0.07907325341
0.07604593971
0.07171612413
0.06705847054
0.06266108303
0.0577432901
0.05512573139
0.06778607445
0.09567115016
0.1102002283
0.1096605411
0.09752014466
0.08010514136
0.06605713193
0.05838485599
0.05652673467
0.05831507093
0.06153787948
0.06471411541
0.06718808309
0.06941936534
0.07137641566
0.07074483127
0.06203571275
0.04127752043
0.08633149564
0.08834883346
0.08622295402
0.08166520597
0.07624374566
0.07087307
0.06610249299
0.06106125735
0.0595249819
0.07551890458
0.1053251226
0.120864176
0.1227065523
0.1131819831
0.09572467594
0.07685570278
0.06362989361
0.05805925197
0.0587894273
0.06283545989
0.0672089471
0.07017830096
0.07147808799
0.0710737717
0.06763266085
0.05736124419
0.03813313587
0.09682801133
0.09662850226
0.09282932477
0.08678593064
0.08014157137
0.0740407697
0.06866464195
0.06309176243
0.06192060414
0.08092730871
0.1148703837
0.1334627248
0.1383301546
0.1309679578
0.1133528633
0.09080939243
0.07170725853
0.06144303252
0.06012487902
0.06423175709
0.06922418096
0.07217155059
0.07256313984
0.07057142121
0.0651306149
0.05381126987
0.03593051131
0.105469794
0.1042229209
0.09911453798
0.09171342555
0.08356170302
0.0765006999
0.0703629157
0.06401137932
0.06227395384
0.08206882267
0.1221764844
0.1468247792
0.1560809045
0.1508018428
0.1321630197
0.1056709847
0.08079172428
0.06541408012
0.06127666518
0.06450217401
0.06936954411
0.07191462546
0.07155933876
0.06852637693
0.06174428986
0.04981568562
0.03353576718
0.1116325411
0.1102695745
0.1050159582
0.09881368134
0.08799678428
0.0788222578
0.07145336541
0.06411126632
0.06106056355
0.07864671502
0.124543467
0.1580984658
0.1725486718
0.1696946428
0.150291824
0.1198411539
0.08929083593
0.06881321543
0.06136473413
0.06289540204
0.06701447796
0.06907154827
0.06815969004
0.06424934638
0.05651098094
0.04448825775
0.03033401493
0.1140752719
0.1140687799
0.1148719948
0.1210758044
0.1021461792
0.08386692828
0.07256335533
0.06364631094
0.05883304891
0.07098411516
0.1157906059
0.1594590036
0.181321409
0.1815139574
0.1617743249
0.1283510701
0.09384370605
0.06999868516
0.05990853568
0.05937944196
0.06221374161
0.06373062634
0.06229095021
0.05738700856
0.04910648026
0.03779025266
0.02621345708
0.1118846037
0.1178991198
0.1474083061
0.1907440916
0.1517282921
0.09933020922
0.0746426116
0.06263898756
0.05629553271
0.06173481804
0.09578825292
0.1435391452
0.1736441853
0.1774051453
0.1581515373
0.1246373351
0.09070099753
0.06711559512
0.05622117135
0.05408019962
0.05538448463
0.05588404249
0.05363827594
0.04813129703
0.04009601519
0.03040544657
0.02135523084
0.1055368066
0.1228285896
0.1978661558
0.2550857515
0.2140292307
0.1212743409
0.07832856585
0.06150733404
0.05379973483
0.05390923239
0.0730375663
0.1107273504
0.1440033802
0.1513395779
0.1352530032
0.1068164804
0.07909970388
0.05980242462
0.05021499187
0.04733942418
0.04720273797
0.04641001401
0.04332718594
0.03782022556
0.03092092293
0.02329437606
0.01611323
0.09362676907
0.1091344601
0.1849475662
0.2974949983
0.2191458781
0.1097246598
0.0711135147
0.05715412591
0.05032125642
0.04789876703
0.05516266852
0.07605872652
0.1009348974
0.1099456184
0.1002671807
0.08150459728
0.06302798659
0.04987983825
0.04261711242
0.03963083671
0.03834566559
0.03646797388
0.03306248465
0.02833294448
0.02302039779
0.01727829344
0.01114556196
0.07752299987
0.08461496309
0.1213488224
0.2182650879
0.1437747463
0.07978431716
0.05936610197
0.05065780342
0.04565937718
0.0426918082
0.04363398695
0.05143673367
0.0642553124
0.07063186572
0.0667945628
0.05742207562
0.04752803119
0.03967484624
0.0345883149
0.03173487873
0.02974105036
0.02741867459
0.02442755656
0.02092678647
0.01717821285
0.01308106998
0.007651023816
0.05704083585
0.05934424985
0.06744359947
0.09197892874
0.07264537619
0.05355823606
0.04627346484
0.04183046051
0.03860057231
0.03609617394
0.03490150339
0.03615759115
0.04062632016
0.04335750137
0.04233789757
0.0387383796
0.03424097923
0.03001458561
0.02666250431
0.02415313725
0.02201781973
0.01987083195
0.01766522268
0.01545043641
0.01321198098
0.01066036046
0.006403627881
0.03362422282
0.03546008177
0.03593945911
0.04102021638
0.0368104227
0.03280827846
0.03046196417
0.02850041527
0.02675956038
0.02524720235
0.02419286986
0.02378242932
0.02469163351
0.02554457669
0.02538832875
0.02427001074
0.02256954725
0.02066791301
0.01880970774
0.01702919222
0.01523644761
0.01338236259
0.01156832485
0.009980964476
0.008680967027
0.0073733392
0.005630056083
0.03404484438
0.03227847205
0.03517942147
0.04742393786
0.06160607213
0.0700972994
0.07475977685
0.07788533416
0.07978783771
0.0805167707
0.08057642877
0.08010288557
0.07946150032
0.07872731372
0.076788777
0.04082494755
0.03786922001
0.03539968263
0.03358640031
0.03260312123
0.03620226198
0.0483754501
0.06264142053
0.0715749001
0.07665207769
0.07960003643
0.08074991815
0.08037747013
0.07935555129
0.07830016462
0.07839968977
0.07932793867
0.07819411023
0.07607423224
0.07358343971
0.07025220047
0.06526538579
0.05877730177
0.050753022
0.04076441844
0.02704647671
0.04312641062
0.04024524449
0.03780088342
0.03563283218
0.03394216624
0.03305704079
0.0328361085
0.03738556663
0.04862225627
0.06205331907
0.07162667841
0.07754743772
0.08097928104
0.0820592212
0.08112700261
0.07943601719
0.07827854446
0.07879040472
0.07948296847
0.07847370432
0.07661864357
0.07447690909
0.07112343941
0.06477349085
0.05636405208
0.04665151632
0.03637413444
0.02442446103
0.04063640096
0.03856631794
0.03664337883
0.03476382287
0.03324061914
0.03232752941
0.03286645606
0.03912750644
0.04967502048
0.06172299918
0.0710296282
0.07757033432
0.08217675165
0.08414687606
0.08370951524
0.08235712179
0.08158991742
0.08154247213
0.0809423178
0.07935457784
0.07772087878
0.07675690976
0.07521770667
0.06990758735
0.06044617389
0.04836210516
0.03582541844
0.02273969904
0.04058679474
0.03899483435
0.03711755089
0.03532708749
0.0328462885
0.03108468141
0.03475277424
0.04654160919
0.06074831052
0.07058137514
0.07695873973
0.08213403244
0.08568762494
0.0865794708
0.08604338466
0.0856524073
0.08529491421
0.08387787406
0.08120245809
0.07901577639
0.07806901614
0.07750328236
0.07570380148
0.06969843512
0.05760406564
0.04093042055
0.02257295039
0.04675499857
0.04568384429
0.04456091494
0.04357142936
0.03805036658
0.03320644658
0.03462235377
0.04709817938
0.06299316923
0.07265049066
0.07812528473
0.08219455427
0.08556350949
0.08758821771
0.08768328662
0.08674280629
0.08437440785
0.07988078844
0.07507562845
0.07345567019
0.07505459317
0.07686680429
0.07720040604
0.07442442291
0.06515712726
0.04762702517
0.02388638782
0.05557521982
0.05482631734
0.05719670735
0.05482526497
0.04755776634
0.03771508817
0.0399290835
0.05507453498
0.07161630442
0.08068192491
0.08469170108
0.08688871104
0.08828062271
0.08894908422
0.08841085468
0.08670311272
0.08393773695
0.08003410727
0.07594371918
0.0736579115
0.07410101641
0.07591689685
0.07708297157
0.075496795
0.06791402842
0.05121967359
0.02549291657
0.06302807951
0.06147672129
0.06305110038
0.05893262032
0.04540511248
0.04177292082
0.05459148268
0.07795183237
0.09415582585
0.09911054178
0.09830190923
0.09625095631
0.09486445904
0.0935808161
0.09123326433
0.08802179714
0.0846353446
0.08150715839
0.07896151656
0.07734322466
0.07656033763
0.07639799861
0.07599605404
0.07362188102
0.0661927772
0.05044320932
0.02574659738
0.06886929571
0.06170257314
0.05932705405
0.05026843056
0.04517683272
0.05241076309
0.08316212343
0.1136244032
0.1258715548
0.1261827724
0.121887455
0.1148193945
0.1103650156
0.1068240249
0.101089632
0.0937263927
0.08690871241
0.08212993305
0.07960638815
0.07877356836
0.07854810847
0.07749747012
0.07474696853
0.06972897736
0.0608391099
0.04584825979
0.02431927417
0.07263430099
0.06417524674
0.05703724299
0.05069931761
0.04920316856
0.06718054761
0.1130959789
0.138208641
0.147637325
0.1574534759
0.169717532
0.1586820245
0.1442925776
0.1355559493
0.125573297
0.1115159064
0.09662579732
0.08562491907
0.08013803742
0.07918173927
0.08031410225
0.07970461227
0.07522132942
0.067074861
0.05542805653
0.04024132276
0.02216000088
0.07316466385
0.0650898102
0.0582742924
0.0529474367
0.05238530525
0.07379835023
0.1255703769
0.1502950291
0.1696591972
0.2105490798
0.2545120084
0.2517473864
0.2067836492
0.1738972261
0.1539549799
0.1353932044
0.1138980694
0.09516437991
0.08525292819
0.08539485969
0.091299228
0.09238361943
0.08308984161
0.06855567402
0.05295618953
0.03691378866
0.02081757964
0.07142335486
0.06463204367
0.05908360906
0.0546626452
0.0529571424
0.0649296152
0.1117113038
0.1522258828
0.1994368937
0.2777891169
0.3038073829
0.3071151721
0.2563353083
0.2024681374
0.1714867905
0.1504721535
0.1276740509
0.1059992135
0.09648933046
0.1053545689
0.1239550902
0.1330549126
0.119007877
0.08945097616
0.06131594431
0.03934761586
0.02159250525
0.06873299805
0.06382191705
0.05995144519
0.0565505204
0.05383507987
0.05580109956
0.07750929567
0.1195271829
0.1719284531
0.2800601637
0.338341749
0.317151484
0.270683343
0.2130259535
0.1806048909
0.1588039157
0.1347024021
0.1124611488
0.1080411185
0.125956284
0.1474839322
0.1624778667
0.1561809836
0.1239910851
0.08741765001
0.05636366813
0.02927590092
0.06659641704
0.06365224476
0.0613389711
0.05891143113
0.05600527606
0.053954871
0.0585145762
0.07922051535
0.1137022693
0.189740228
0.2670813025
0.2724578025
0.2265911011
0.1915980707
0.1712752228
0.1515390549
0.1270531144
0.1060174711
0.1038294269
0.1267682894
0.1515059389
0.1658639978
0.1603331447
0.1345257791
0.1078670961
0.08117010426
0.04521650053
0.06579981114
0.06455101377
0.06338518559
0.06153077756
0.05866653173
0.05542494849
0.05339422393
0.05937368683
0.08281095775
0.1297474668
0.1794058304
0.1916188014
0.1759419456
0.164100694
0.1531266541
0.1332451448
0.110617001
0.09347108222
0.09077208742
0.1084890097
0.1318390041
0.1447690453
0.1404181546
0.1266483098
0.1145548218
0.09715771508
0.05749952109
0.06658723622
0.06657249743
0.06599858443
0.0643076938
0.06149833944
0.05813834661
0.05448020666
0.05440070654
0.07158193431
0.1120716986
0.1417147821
0.1513616981
0.1490149317
0.1445988628
0.1304195975
0.1118014546
0.09433904175
0.082507509
0.07952004886
0.08850849747
0.1035152437
0.1139319742
0.1155605148
0.1144659613
0.1129344766
0.1016231944
0.06090933225
0.06918724701
0.06992686552
0.06933095797
0.06739020829
0.06450645359
0.06127964495
0.05766533176
0.05567520945
0.06725051868
0.104909244
0.1298006122
0.1365973609
0.1348063547
0.1264696515
0.1119974944
0.09615513233
0.0831740283
0.07555627809
0.07317444118
0.07669867218
0.08422283957
0.09185940572
0.09782788337
0.1031779693
0.1053789935
0.09566041866
0.05706154394
0.07426020507
0.0751227935
0.07367556861
0.0708503068
0.06757777143
0.06442326934
0.0613477956
0.05936823402
0.06730729446
0.09932539276
0.1248562953
0.1307146894
0.1274349584
0.115369522
0.1005496044
0.08802571089
0.07786315522
0.0721604779
0.07057549805
0.07209938665
0.07593545057
0.08113065822
0.08741402493
0.09338649369
0.09483449298
0.08477410237
0.05034524288
0.08216713998
0.08185243208
0.07865056283
0.07454441234
0.07063770457
0.06741533202
0.06497439664
0.06392808193
0.07117055665
0.09859943575
0.1236682355
0.1295139848
0.1260562991
0.1135312593
0.09720831806
0.08407371779
0.07489295209