/*--------------------------------*- C++ -*----------------------------------*\
  =========                 |
  \\      /  F ield         | OpenFOAM: The Open Source CFD Toolbox
   \\    /   O peration     | Website:  https://openfoam.org
    \\  /    A nd           | Version:  8
     \\/     M anipulation  |
\*---------------------------------------------------------------------------*/
FoamFile
{
    version     2.0;
    format      ascii;
    class       volScalarField;
    location    "1.9";
    object      nut;
}
// * * * * * * * * * * * * * * * * * * * * * * * * * * * * * * * * * * * * * //

dimensions      [0 2 -1 0 0 0 0];

internalField   nonuniform List<scalar> 
67451
(
0.0001443938209
0.0001481798759
0.0001834355428
0.0002180940905
0.0002168058254
0.0002206434467
0.0002324187897
0.0002455945379
0.0002543950271
0.0002574799456
0.0002577123014
0.0001692109318
0.0001625722253
0.0001558888092
0.00014899586
0.0001424927437
0.0001475461643
0.0001829731598
0.0002138743502
0.0002176829772
0.0002248458007
0.0002380932762
0.0002518799317
0.0002618451115
0.0002668364558
0.0002702135594
0.0002663089462
0.0002480085235
0.0002423705515
0.0002412647515
0.0002400194726
0.0002368635583
0.0002312134125
0.0002232751038
0.0002137378294
0.0002026010968
0.0001893264132
0.0001761696301
0.0001727231883
0.0001684433693
0.00016261503
0.0001557537447
0.0001485716531
0.0001421553082
0.0001450443446
0.0001754955694
0.0002007229083
0.0002115067683
0.000221263981
0.0002345601793
0.000250086005
0.0002624904924
0.0002694920692
0.0002739827018
0.0002694273663
0.0002535327028
0.0002395674055
0.0002308158077
0.0002272245619
0.0002223164491
0.0002159771484
0.0002092049284
0.0002010647253
0.0001916666268
0.0001811919026
0.0001985027488
0.0001929378912
0.0001851376735
0.0001751331991
0.000164544853
0.000153527647
0.0001447132599
0.0001462006987
0.0001714534499
0.0001938968388
0.0002040085891
0.0002115993294
0.0002208443503
0.000236100053
0.0002521103413
0.000262152108
0.0002658137019
0.0002627133002
0.0002511027654
0.0002350974959
0.0002242914771
0.0002182382839
0.000211417508
0.0002051538771
0.00019795278
0.0001894171225
0.00018012714
0.0001697978745
0.0002208745348
0.000208219753
0.000193611189
0.0001796965797
0.0001641549588
0.0001520843945
0.0001524880586
0.0001790620486
0.0001988683891
0.0002046798195
0.0002085562633
0.0002110441869
0.0002162562908
0.00022584135
0.000238187206
0.0002402699078
0.0002350151273
0.0002210091521
0.0002086437547
0.0002032563714
0.0002069085894
0.0002157236175
0.0002173146224
0.000210930343
0.0001987675739
0.0001815472433
0.0001588731212
0.0002460192431
0.0002297237301
0.0002120895997
0.0001973225641
0.0001782072584
0.0001638459119
0.0001719734969
0.0002061883292
0.0002242811156
0.0002221973048
0.0002222416158
0.0002209003233
0.000218691159
0.0002202933071
0.0002211560851
0.0002182947167
0.0002141169908
0.0002096419464
0.0002062782625
0.0002047548505
0.0002102185916
0.0002230625128
0.0002326183471
0.0002316268477
0.000219874218
0.0001983014079
0.0001591979993
0.0002671282802
0.000248751359
0.0002293909636
0.0002183657625
0.0001941212919
0.0001788195176
0.0002025077661
0.0002471569644
0.0002641049904
0.0002517211197
0.0002450461119
0.000241682897
0.0002388185805
0.0002424048293
0.0002422353232
0.0002369422684
0.0002330128105
0.0002307978602
0.0002286118635
0.0002252776062
0.0002225697307
0.0002254505027
0.0002322986399
0.0002346169536
0.0002274793654
0.000209876141
0.0001683786162
0.00028591583
0.0002672465822
0.0002485212106
0.0002253943279
0.0002031267981
0.0001942852403
0.0002448121106
0.0002913534028
0.0003068368003
0.000288351299
0.0002734255648
0.0002649307844
0.0002627738527
0.0002745625629
0.0002770620161
0.0002655793383
0.0002561079153
0.000252265044
0.0002499603816
0.00024602976
0.0002404120995
0.0002341533015
0.0002306205265
0.0002295515384
0.0002245103954
0.0002109748451
0.0001726720481
0.0003012473642
0.0002825515408
0.0002621322043
0.0002393696856
0.0002152966416
0.0002152128161
0.0002871661755
0.0003336137306
0.0003487489717
0.0003292823514
0.000310797333
0.0002943882522
0.0002919282942
0.000317194641
0.0003240093226
0.0003047608724
0.0002819071138
0.000269593834
0.0002652830883
0.0002622558306
0.0002568108577
0.0002487519641
0.000239269341
0.000229917594
0.0002206969376
0.0002070966923
0.000170630107
0.0003113044608
0.0002930022261
0.0002724970272
0.0002494476
0.0002242677991
0.0002382410351
0.0003203765297
0.0003697474922
0.0003819672729
0.0003664339917
0.000365657399
0.0003463104109
0.0003373636269
0.0003687736639
0.0003780412136
0.0003556950041
0.0003185164861
0.0002879915664
0.0002738196443
0.0002688564015
0.0002651630059
0.000259753746
0.0002499473908
0.0002364608148
0.0002216993341
0.0002041417422
0.0001659509524
0.0003145095352
0.0002968221356
0.0002767754824
0.0002543319065
0.0002294641893
0.000244484429
0.00033189728
0.0003834150437
0.0003988195711
0.0004025779745
0.0004622192868
0.0004473187698
0.0004124802417
0.0004276451565
0.0004328628924
0.0004110551996
0.0003682703577
0.0003211112534
0.0002891402924
0.0002745220691
0.000272816391
0.0002806988906
0.0002707794226
0.0002497868803
0.000229017258
0.0002076628168
0.000165240564
0.0003114560709
0.0002945836745
0.0002757697712
0.0002547214519
0.0002309215322
0.0002110765537
0.0002866183476
0.0003606494079
0.0004036665095
0.0004879162741
0.0006250282146
0.0005848485939
0.000508214534
0.0004872894382
0.000481992206
0.0004663997313
0.0004354426973
0.0003955873102
0.0003539401355
0.0003202457439
0.0003202581164
0.0003413662762
0.0003292362312
0.0002892436043
0.0002512416037
0.0002198955612
0.0001744222523
0.0003015323389
0.0002864275728
0.0002697700581
0.0002507271868
0.0002298613939
0.0002076229322
0.0002191764211
0.0003121296226
0.000360653938
0.0004410944415
0.0005886691189
0.0006893182267
0.0005803125436
0.0005023443114
0.0004779330207
0.000459925958
0.0004263084081
0.0003806568614
0.0003309915422
0.0003280769798
0.000419199905
0.0004583944473
0.000447343045
0.0004034663448
0.0003486334096
0.0002936859254
0.000224798554
0.0002920701316
0.0002778252396
0.0002623167095
0.0002450725122
0.0002267566569
0.0002073170329
0.0001942849736
0.0002550429115
0.0003126063444
0.0003478765394
0.000445950625
0.000560980622
0.0004689894184
0.0004462595936
0.000446256372
0.0004298233497
0.0003943394847
0.0003475949143
0.0003030630963
0.0003052490345
0.0004090640553
0.0004561807512
0.0004433309661
0.0003983818911
0.0003504608229
0.0003168855738
0.0002695143899
0.0002826754609
0.0002689810294
0.0002534474893
0.0002366903889
0.0002199258727
0.0002042168748
0.0001916669485
0.0002100203324
0.000274706942
0.0002968337669
0.0003434727808
0.000426115637
0.0003950468766
0.0004034944416
0.0004044738069
0.0003859962117
0.0003506972733
0.0003092766219
0.0002773050132
0.0002776635005
0.0003587483626
0.0004058898329
0.0003927910264
0.0003590834786
0.0003349847511
0.0003232825634
0.0002825521874
0.0002721293048
0.0002579432833
0.0002421589825
0.0002268248906
0.00021322318
0.0002027673864
0.0001947658922
0.0001938504246
0.000247306991
0.0002821166188
0.0003224044066
0.0003483696735
0.000348799545
0.0003539728897
0.0003543833945
0.0003353504538
0.000305106902
0.0002755374584
0.0002574137327
0.0002570564824
0.0003010473323
0.0003403852689
0.0003337970326
0.0003232168509
0.000325514249
0.0003235891045
0.0002818890941
0.0002589261673
0.0002437238983
0.0002293249487
0.0002171972857
0.0002092053993
0.0002048858513
0.0002011489137
0.0001966496681
0.0002185750761
0.0002670632879
0.000322404811
0.0003317171836
0.0003251013016
0.0003164176431
0.000309051461
0.0002905640412
0.000268365515
0.0002516242112
0.0002438313772
0.0002433932873
0.000259859202
0.000283300254
0.0002865299157
0.000298620582
0.0003143722404
0.0003138685845
0.0002725737777
0.0002436909424
0.0002292209935
0.000218023589
0.0002120073261
0.0002108447824
0.0002112607226
0.0002097562532
0.0002050486376
0.0002058163974
0.0002407686076
0.0003105415087
0.00032529402
0.0003133111019
0.0002955395983
0.0002795995655
0.0002622054423
0.0002458370698
0.0002370852047
0.000234499322
0.0002344164192
0.0002387029579
0.000248576909
0.0002570881708
0.000278669284
0.0002967245085
0.0002963308436
0.0002574940933
0.0002300818444
0.0002209069275
0.0002178139158
0.0002186908718
0.000221105287
0.000221875118
0.0002192532019
0.0002136518458
0.0002093748689
0.0002332342409
0.0002955944365
0.000316786951
0.0003064409512
0.0002879593546
0.000269632676
0.0002517521803
0.0002375720364
0.0002302236912
0.0002285091714
0.0002288409805
0.0002302851928
0.0002343459072
0.0002425360392
0.0002616494377
0.0002766079282
0.0002756419659
0.0002397154963
0.0002352721575
0.0002463090364
0.0002515769287
0.0002494116287
0.0002441887482
0.0002376622677
0.0002296966148
0.0002216897706
0.0002161926153
0.0002395370721
0.0002928296558
0.0003202843845
0.0003154076932
0.0002994555886
0.0002812849349
0.0002620507711
0.000244538771
0.0002322416709
0.0002272447172
0.0002275205346
0.0002301298531
0.0002339381914
0.0002401040054
0.0002516576525
0.0002603355133
0.0002571407057
0.0002232296694
0.0002860145865
0.0003024628233
0.0002983157922
0.0002850895976
0.0002696996876
0.0002550556501
0.0002410918684
0.0002293818945
0.0002227146105
0.00025322037
0.000307331241
0.0003407662921
0.0003420460213
0.0003303163235
0.0003106107847
0.0002879607671
0.0002649325541
0.0002445506818
0.0002325386729
0.0002311417571
0.0002358205454
0.0002411998037
0.0002455587996
0.0002497061386
0.0002511649882
0.0002444925076
0.0002113230647
0.0003298104875
0.00033262611
0.0003241436886
0.0003096636879
0.0002923584785
0.0002739938006
0.0002552032605
0.0002386064743
0.0002287316104
0.000264123387
0.0003248360714
0.0003640891883
0.0003696161482
0.0003607295469
0.0003413159359
0.0003159234135
0.0002890698427
0.0002627542452
0.0002431520611
0.0002377232359
0.0002430944683
0.0002499548902
0.0002529822789
0.0002517201455
0.0002474905579
0.0002374423986
0.0002040747332
0.0003502355415
0.0003485478433
0.0003384220467
0.0003234534525
0.0003064572523
0.0002877845431
0.0002673714092
0.000247658565
0.0002337901708
0.0002650057418
0.000333944828
0.0003832364091
0.0003952111789
0.0003880584681
0.0003675552875
0.0003394817284
0.0003092843522
0.0002794747417
0.000254237344
0.0002436051019
0.0002474634814
0.0002546082588
0.0002566431168
0.0002525033301
0.0002450536653
0.0002326815117
0.0001987820472
0.0003605062327
0.0003568184576
0.0003457921554
0.0003308341265
0.0003138559992
0.0002952805028
0.0002747278452
0.0002540737767
0.0002373235596
0.0002577120912
0.0003344921122
0.0003990665155
0.0004262416973
0.0004222696197
0.000399384882
0.0003655103718
0.0003285793639
0.0002931262461
0.0002624463128
0.0002463754198
0.0002470670562
0.0002530053085
0.0002543019383
0.0002492640885
0.0002405154806
0.0002268426119
0.0001924714931
0.0003632406506
0.000357953969
0.0003482101249
0.0003346705977
0.0003181806995
0.0002988748468
0.0002783190513
0.0002574869708
0.000239145671
0.0002487131211
0.0003304006407
0.0004050557737
0.0004491023991
0.0004480214194
0.0004244815985
0.0003871359361
0.0003453198152
0.0003046473602
0.0002684379272
0.0002462884492
0.0002424892903
0.0002459038667
0.0002463068582
0.0002415303859
0.0002323746588
0.0002178135679
0.0001830397899
0.0003586050089
0.0003536007395
0.0003598207807
0.0004100503642
0.0003640793077
0.00031526369
0.0002821809425
0.0002580661134
0.0002389031309
0.0002388961589
0.0003107810094
0.0003899087967
0.0004473511087
0.0004476880832
0.0004242839324
0.0003869761809
0.00034518284
0.0003038470184
0.0002660406201
0.0002411113408
0.0002341192251
0.0002352642062
0.0002347408702
0.0002297632816
0.0002200896234
0.0002043146335
0.0001690199084
0.0003474021877
0.0003548162106
0.0004221664573
0.0005613763286
0.0004888076172
0.0003895264365
0.0003132903729
0.0002659347934
0.0002390621831
0.0002303234613
0.0002752039913
0.000353093201
0.0004180242931
0.0004211315533
0.0003998378388
0.0003657553587
0.0003275262074
0.0002889818555
0.0002535646985
0.0002300399006
0.0002222113579
0.0002216300507
0.000219934638
0.0002141495193
0.0002032783149
0.0001854181997
0.0001494135372
0.0003315842135
0.0003509482605
0.0004379781029
0.0006089688832
0.0005079851582
0.0003985185519
0.000314172716
0.000261786711
0.0002345024882
0.0002224763656
0.0002431839208
0.0003026940129
0.0003685503922
0.000376559442
0.0003596719158
0.000331143391
0.0002983228834
0.0002645208904
0.0002341947446
0.0002146004631
0.0002072984898
0.0002052521781
0.0002019635663
0.0001945888342
0.0001816497398
0.000161090193
0.0001245704691
0.000309527625
0.0003193855032
0.000374892083
0.0005370386659
0.0004383812787
0.0003477992386
0.000281940588
0.0002443107057
0.0002245652937
0.0002135133484
0.0002185884622
0.0002529887935
0.0003113953916
0.0003240675935
0.0003122505567
0.0002896715147
0.000262779418
0.0002352306532
0.000211475321
0.0001963917122
0.0001896687928
0.0001859305448
0.0001804674007
0.000170882343
0.0001559288827
0.0001342725836
9.930632399e-05
0.0002803570174
0.0002818716507
0.0002988816973
0.0004240765726
0.000346460461
0.0002833003278
0.0002440953286
0.0002229483228
0.0002101607887
0.0002010949564
0.0001986518389
0.000211478348
0.0002508506626
0.0002651658712
0.0002589801678
0.0002432614333
0.0002237111276
0.000203772561
0.0001869038466
0.0001755777762
0.0001687047151
0.0001627616517
0.0001548189557
0.0001436334419
0.0001292059243
0.0001114235743
8.37443316e-05
0.0002287026368
0.0002307125351
0.0002304912021
0.0002955094055
0.0002501082766
0.0002199139868
0.0002029867664
0.0001923975494
0.0001843481432
0.0001776377175
0.0001732150637
0.0001737761172
0.0001884493407
0.0001977077341
0.0001965735025
0.0001891948992
0.0001788474192
0.0001678109718
0.0001578599901
0.000149664923
0.0001423929486
0.000134518796
0.0001250985429
0.0001144909335
0.0001038692236
9.326588792e-05
0.0001691871071
0.0003914366748
0.0004013856117
0.000592195588
0.000853448514
0.0009791402169
0.00101055237
0.00104040892
0.001066189584
0.001090806526
0.001109518833
0.00111694649
0.0004919645601
0.0004660988836
0.0004402781274
0.0004198284133
0.0003940444914
0.0004091679305
0.0005934855399
0.0008526843431
0.0009897170081
0.001041302659
0.001066276558
0.001083721634
0.001097047087
0.001103192835
0.00109909261
0.001085505528
0.001067716453
0.001026605822
0.0009760848788
0.0009216162025
0.0008582581295
0.0007782465128
0.000678511247
0.0005345589922
0.0003816521921
0.0001721241373
0.0004498270627
0.0004339922136
0.0004196347813
0.0004058786732
0.00039597751
0.0003987464234
0.0003894727239
0.0004074119436
0.0005564366262
0.0007954129753
0.0009417380285
0.001006361308
0.001046032933
0.001071386928
0.001086524692
0.001087416155
0.001076015494
0.001056652181
0.001031871064
0.0009926940929
0.0009440691826
0.000884621502
0.0008040766296
0.0006954106589
0.0005754214948
0.000445151419
0.0003283520228
0.0001627635582
0.0003896623726
0.0003797265791
0.0003731148568
0.0003660274517
0.0003617499993
0.0003700920052
0.000367697881
0.000416378274
0.0005360884787
0.0007315873446
0.0008559243368
0.0009098183689
0.0009637376104
0.001016495254
0.001052438838
0.001060158905
0.001046882959
0.001016952749
0.0009745604645
0.0009272690308
0.0008889170072
0.0008483392819
0.000774726456
0.0006560714351
0.0005351424651
0.000415215951
0.0003088913017
0.0001537923542
0.0003874461531
0.000386655601
0.0003783221736
0.0003675666802
0.0003521214933
0.0003313359519
0.0003374072783
0.00045725538
0.0006855138175
0.0007749653967
0.0008062301595
0.0008315588223
0.0008840298155
0.0009675389561
0.0009997641652
0.0009843748677
0.0009324756862
0.0008423503498
0.0007275210279
0.0006955201431
0.0007519959367
0.0007925017257
0.000759231469
0.0006587297426
0.0005081241383
0.000346471552
0.0001480198197
0.0004613249894
0.0004686551038
0.0004583563846
0.0004601539795
0.0003921294534
0.0003336473843
0.0003122468542
0.0004153403936
0.0006510064818
0.0007542531166
0.0007932557682
0.0007999664284
0.0008044827273
0.0008311267968
0.0008595819674
0.0008311156571
0.0007462118787
0.0006385568506
0.0005564989196
0.0005565610057
0.0006443150496
0.0007508496075
0.0007844415716
0.0007406703503
0.0006219342397
0.0004186840759
0.0001501419165
0.0005934786488
0.0005827164001
0.0005688880161
0.0006158468231
0.0004705175356
0.000352920709
0.0003283248908
0.000431827762
0.0006517531063
0.0008137359675
0.000897231438
0.0009228622238
0.0009160520493
0.000905127417
0.0008895225689
0.0008605539983
0.0008044466311
0.0007350293103
0.0006647702882
0.0006217588878
0.0006392173737
0.0007055354886
0.0007606426534
0.0007536766349
0.0006645728598
0.0004664890743
0.0001576113905
0.0007427076159
0.0006711757474
0.0006530136364
0.0005043884512
0.0004108071144
0.0003584703245
0.0004019830583
0.0005911525066
0.0008074800215
0.0009545661003
0.001041234075
0.001085305637
0.001103129296
0.001100409188
0.001072255291
0.001035386273
0.0009943317745
0.0009381777888
0.0008755959664
0.0008170321132
0.0007641925313
0.0007357594323
0.0007283380152
0.0007067095683
0.0006286111991
0.0004577632495
0.0001613566176
0.0008520805241
0.000753030957
0.0006254461083
0.0004861131282
0.0004054015341
0.0003907555803
0.0005606973362
0.0008334255101
0.001008641787
0.001106533778
0.001165348098
0.001206634101
0.001218284531
0.001202169574
0.001173593705
0.001137502463
0.001087893091
0.001028857794
0.0009734360495
0.0009251178104
0.000876366591
0.0008097256459
0.0007302293643
0.0006489345965
0.0005490657525
0.0004039549778
0.0001587714349
0.0009100164862
0.0008073458716
0.0006749221404
0.0005274164697
0.000429924491
0.0004444092613
0.0007495876962
0.001026765264
0.001169906406
0.001271815472
0.001338784398
0.001369559515
0.001342864329
0.001285644753
0.001228088599
0.001173875208
0.001122251132
0.001068073218
0.001017013963
0.0009766935195
0.0009403428648
0.0008778013104
0.0007660243655
0.0006323709541
0.0004913548338
0.0003497586947
0.000152946577
0.0009360976799
0.0008464145686
0.0007420811877
0.0005860933635
0.0004633631398
0.0004626119726
0.0007858825275
0.001091574715
0.001277842858
0.001503209707
0.00170122205
0.001741498766
0.001579438863
0.001417284262
0.001300177636
0.001206953909
0.001122877843
0.00106488605
0.001033806466
0.001020934293
0.001004863985
0.0009286189151
0.000781011018
0.0006135179453
0.0004562394364
0.0003199063007
0.00015033274
0.0009449208656
0.0008714205815
0.0007901429843
0.0006606722862
0.0005230256079
0.0004588572755
0.0006366315094
0.001019363273
0.001307803064
0.001687064639
0.001906594497
0.001962706677
0.001785413682
0.00153553546
0.001365682074
0.001238220169
0.001116493131
0.001031963345
0.001035180473
0.001091052165
0.001133493039
0.001116544194
0.0009892399269
0.0007447710407
0.0004938102201
0.0003238630344
0.0001546989035
0.0009414978282
0.0008845651485
0.0008227426758
0.0007250628534
0.0005901762257
0.0004810575137
0.000461688578
0.0006875565107
0.001012752996
0.001503602893
0.001909343798
0.002033256113
0.001825648975
0.001577747892
0.0014067286
0.001272817368
0.00114098714
0.001051400081
0.001059025296
0.001125910283
0.001195167389
0.001234717035
0.001164128236
0.0009380082934
0.0006648112618
0.0004100319391
0.0001878964858
0.0009246988961
0.0008863789443
0.0008425012028
0.0007645576236
0.0006505615153
0.0005439876159
0.0004529826139
0.0004653352222
0.0006555992197
0.0009460450568
0.001485185105
0.00170165026
0.001607560386
0.001483204377
0.001344741412
0.001220946976
0.001099747314
0.001027421539
0.001022884045
0.001128458649
0.001214558523
0.001267705051
0.001219712399
0.001026913384
0.0008038031757
0.0005630664072
0.000232534332
0.0009060800864
0.0008839690757
0.0008538023975
0.0007800540892
0.0006954418148
0.0006089945489
0.0005041121478
0.0004216003428
0.0004813662341
0.0007213825801
0.001062270213
0.001273422532
0.001383731353
0.001360449644
0.001233490003
0.001104029337
0.001007110494
0.0009481656527
0.0009432497696
0.001025372391
0.001106811589
0.001145409341
0.001096276814
0.0009788926902
0.0008531507363
0.000675480957
0.0002584834739
0.0008912745448
0.0008805763929
0.0008539315154
0.00079965951
0.0007493001752
0.0006842493439
0.0005816156934
0.0004622946609
0.0004373828082
0.0006773145957
0.0009552579287
0.001110241958
0.001201929279
0.001164409322
0.00104438022
0.0009337222965
0.0008702771926
0.0008601768186
0.0008804654887
0.0009196162475
0.0009677813862
0.0009690576231
0.0009363109869
0.0009030968676
0.0008490648464
0.0007201214787
0.0002643307743
0.000871929145
0.0008629222447
0.0008434520427
0.0008293643579
0.0008124266182
0.0007668771052
0.000671726879
0.0005379162124
0.0004503955061
0.0006304799112
0.000907430382
0.001032081785
0.001057393762
0.0009736871463
0.000847953449
0.0007792192073
0.0007639134507
0.0007986221999
0.0008397028031
0.0008609361534
0.0008662253694
0.0008430481187
0.0008143326441
0.0008329130568
0.0008105446833
0.0007010621944
0.000255322694
0.0008105349544
0.000814128311
0.0008417410852
0.0008718625467
0.0008793310345
0.0008470722375
0.0007622895262
0.0006282608021
0.0005079273709
0.0005957861729
0.0008626234365
0.0009815286856
0.0009694794787
0.0008504131386
0.0007286166335
0.0007305396032
0.0006969143291
0.0007437502457
0.0008020297618
0.0008298993192
0.0008222847278
0.0007826719809
0.0007634303838
0.0007890538577
0.0007719152056
0.000645505137
0.0002388670978
0.0007524831913
0.0008091659944
0.0008762912711
0.0009284043269
0.0009448076912
0.0009144149176
0.0008365982561
0.0007085074702
0.000580106072
0.0006192363027
0.0008668763026
0.0009851969458
0.0009671222665
0.000835209683
0.0006913597792
0.0006360253473
0.0006316462604
0.000689158382
0.0007599052372
0.000805214722
0.0008132279838
0.0007870669162
0.0007727369483
0.0007814256136
0.0007442294334
0.000591058706
0.0002220435792
0.0007924494934
0.0008937085096
0.0009508486121
0.0009768562951
0.0009776202572
0.0009483752926
0.0008858816879
0.0007672333919
0.0006462590063
0.0006832148329
0.0009290043101
0.001050248629
0.00104577872
0.0009381496631
0.0007687699178
0.0006494084688
0.0006109357479
0.000646219333
0.0007181615889
0.0007848168278
0.000821692238
0.0008223464244
0.0008124361145
0.0007967198379
0.000727402058
0.0005540994903
0.0002092260108
0.000896283413
0.0009490745604
0.0009777878933
0.0009895951857
0.0009855816913
0.0009610804423
0.0009112213135
0.0007987274631
0.0006890424673
0.0007508446902
0.001012348874
0.00114413671
0.00116004089
0.0010783843
0.0009234428185
0.0007495972109
0.0006393872562
0.0006249377916
0.0006845304034
0.0007698027308
0.0008361945333
0.0008609447707
0.0008528679959
0.0008151379732
0.0007173208644
0.0005313353032
0.0002010376027
0.0009660081029
0.0009901736349
0.001000165011
0.0009977342324
0.0009852074283
0.0009610436631
0.000916321746
0.0008060699387
0.0007047297179
0.0007934195272
0.001086597584
0.00124305812
0.001283566772
0.001223122868
0.001075976351
0.0008797084766
0.0007037687998
0.0006272973844
0.0006615658889
0.0007546800021
0.0008401732905
0.0008745265228
0.0008633997309
0.0008153811182
0.0006997498567
0.0005085455856
0.0001951157988
0.001016636961
0.001028793493
0.001026787573
0.001011366974
0.0009860387663
0.0009557090859
0.0009102234976
0.0007988447943
0.0007000388929
0.0007992664655
0.001138594726
0.001334487141
0.001403722861
0.001362852419
0.001219227144
0.0010022306
0.0007810238732
0.0006426676652
0.0006427116571
0.0007299217412
0.0008215753253
0.000855700524
0.0008404007966
0.0007869957959
0.000661173673
0.0004728807182
0.0001885157695
0.001049215212
0.001060163294
0.001057551276
0.001040352163
0.000997986517
0.0009519451373
0.0008987403331
0.0007831511692
0.0006822908841
0.0007692990709
0.001145491269
0.00138930132
0.001488861661
0.001468386235
0.001331809783
0.001101967157
0.0008479715378
0.0006608174838
0.0006222826807
0.000690974734
0.0007775000447
0.0008100866367
0.0007904425481
0.0007264570951
0.0005945129901
0.0004196035816
0.0001793324456
0.001055755053
0.001078637263
0.001106807865
0.001098310145
0.001036442379
0.0009548946165
0.0008761402521
0.0007586017689
0.0006553691436
0.0007035002427
0.001055534215
0.001365132688
0.001505148222
0.001507486275
0.001379842325
0.001145050785
0.0008742297646
0.0006634811223
0.0005935528193
0.000637462938
0.0007088695458
0.0007398048073
0.0007142455797
0.0006319531244
0.0005020832581
0.0003536652417
0.000166759679
0.001028656923
0.001090494844
0.001207724243
0.001242968988
0.001136425189
0.0009501130928
0.0008392363524
0.0007267886725
0.0006265725141
0.000625586855
0.0008645931493
0.001229712248
0.001418456731
0.001447830361
0.001331632605
0.001103604471
0.0008423984196
0.0006315559864
0.0005508788241
0.0005724563259
0.0006202724512
0.0006356755483
0.0005979121499
0.0005109816137
0.0003986256715
0.0002867762404
0.0001505676929
0.0009640316361
0.001072430962
0.001325368732
0.001455495881
0.001325211121
0.0009623137238
0.0007789320934
0.0006738720405
0.0005917795728
0.0005598081207
0.0006707923679
0.0009834631805
0.001198379743
0.001255805793
0.001162241981
0.0009652671874
0.0007445045752
0.0005621364691
0.000493483901
0.0004988177717
0.0005197814395
0.0005135422859
0.0004664948603
0.000389344115
0.0003059090681
0.0002301057233
0.0001308323694
0.0008497538932
0.0009355151179
0.001229771593
0.001466590189
0.001295669447
0.0008771098923
0.0006906246573
0.0006036520822
0.0005435160188
0.000504513766
0.0005277940685
0.0006950955875
0.0008778646475
0.000952092499
0.000898501057
0.0007611028251
0.000589512913
0.0004710444418
0.0004239694136
0.0004176130763
0.0004157084335
0.0003938669494
0.0003488776167
0.00029238351
0.0002384365835
0.0001893172008
0.0001088252836
0.0006855781928
0.0007129239548
0.0009026814134
0.001133619098
0.0009442088567
0.0006737413128
0.0005622633557
0.0005126441362
0.0004751501074
0.0004439596937
0.0004320353774
0.0004804723922
0.0005738760253
0.000630926616
0.0006032791379
0.0005233649897
0.0004383419284
0.0003790063726
0.0003487650514
0.0003346694825
0.0003199134804
0.0002954248363
0.0002632549591
0.0002295799907
0.0001986080238
0.0001672324796
9.011745371e-05
0.0004684539721
0.0004805206423
0.0005383645168
0.0006125500698
0.0005514683722
0.0004527534691
0.0004202882363
0.0003980511155
0.0003780154966
0.0003592476387
0.0003451942952
0.0003465575758
0.0003635876889
0.0003790006963
0.0003729225274
0.0003488820142
0.0003191300875
0.0002930381097
0.0002735352733
0.0002576417151
0.0002411701161
0.0002231943091
0.0002059460264
0.0001907881671
0.00017663414
0.0001574676109
8.237333947e-05
0.0002061047502
0.0002116460366
0.000213118905
0.0002281553039
0.0002159266335
0.0002035886043
0.0001960642222
0.000189609092
0.0001837108536
0.0001784321016
0.0001746596049
0.0001731798042
0.0001765055395
0.0001795806129
0.0001790519156
0.0001750619831
0.0001688055508
0.0001615204084
0.0001540728486
0.0001465928296
0.0001386655731
0.0001299619821
0.0001208333518
0.0001122260467
0.000104644347
9.642412733e-05
7.722715336e-05
0.0007353533091
0.0006861222358
0.0007230893391
0.0009348664866
0.001201963217
0.001378111655
0.001449989713
0.001464725677
0.001454929956
0.001432335072
0.001397437565
0.001354319458
0.001313144757
0.001279058732
0.001245623569
0.0008774270856
0.000820394263
0.0007687949889
0.0007274975419
0.0006979698973
0.0007497517147
0.0009600620655
0.001226747358
0.001405232998
0.001478873722
0.00148612016
0.001463139509
0.001424503354
0.001375669458
0.001326491023
0.001291264982
0.001272592789
0.001252699344
0.001226297858
0.001192297054
0.001145557087
0.001075239862
0.0009667007401
0.0007957910246
0.0005511091727
0.0001692284534
0.0008640782158
0.0008145786324
0.0007743708983
0.0007401892552
0.0007142669334
0.0007023188259
0.0006951367319
0.0007706728337
0.000960656543
0.001205923592
0.001383857786
0.001464461547
0.001476280076
0.001453299683
0.001411275867
0.001358125896
0.001307982219
0.001274684442
0.001257754512
0.001239264905
0.001212677744
0.001176088233
0.001121681709
0.001030771032
0.0009010224617
0.0007220789388
0.0004940596817
0.0001608165833
0.0007368956233
0.0007070394434
0.0006883406802
0.0006735720804
0.0006627372673
0.0006596783365
0.0006666253872
0.0007876335111
0.0009660281833
0.001165552892
0.001329071576
0.001411661237
0.001440762738
0.001430277517
0.001398989483
0.001353526659
0.001308139117
0.001273944485
0.00124636601
0.001216266236
0.001184228344
0.001148616391
0.001098335207
0.001009270867
0.0008784441969
0.0007044952122
0.0004862230507
0.0001551682711
0.0006745791904
0.0006806144925
0.0006820697724
0.0006722369001
0.000640798904
0.0006054107215
0.0006479722872
0.0008386376796
0.001097254636
0.001266793876
0.00134654482
0.001383559666
0.001395339049
0.001383711992
0.001353671131
0.001314752454
0.001272303182
0.001222913839
0.00116968815
0.001133143516
0.001120861629
0.00110507993
0.001060159432
0.0009614079022
0.0007910080508
0.000543708171
0.0001545948307
0.0007495695181
0.0007892981512
0.0008194065731
0.0008263085107
0.0007197288626
0.0006116762752
0.0005836906414
0.0007518762246
0.00103774346
0.001231319969
0.00132421676
0.001359212659
0.001368199684
0.001366896389
0.001346824293
0.001306905496
0.00124145558
0.001151023262
0.001066539029
0.001035769012
0.001061984817
0.001089699396
0.001078859076
0.00101706688
0.0008732612305
0.0006145744202
0.0001590273157
0.0009109602892
0.0009593464408
0.001045972549
0.001031970727
0.0008458670488
0.0006297322176
0.000568227276
0.0007233138531
0.001007690119
0.001240490704
0.001367602669
0.001418412904
0.001420303129
0.001400745272
0.001369269547
0.001326037095
0.001266798387
0.00118945804
0.001109369563
0.001057765075
0.001052418194
0.001070760856
0.001071741005
0.001024665627
0.0008980518052
0.0006460945059
0.000164299283
0.001074201155
0.001054750044
0.001116812558
0.0009462213228
0.0007436806631
0.0006156851016
0.0006469576575
0.0008591172282
0.001112486127
0.001309873265
0.001420411558
0.001468989309
0.001473799354
0.00145215973
0.001412688428
0.001361861584
0.001304440778
0.001244355983
0.001188147038
0.001143443919
0.001108396317
0.001083779905
0.001053214622
0.0009909067981
0.0008627193972
0.0006229555292
0.0001651378333
0.001170681141
0.001081133511
0.0009792291612
0.0008084953406
0.0006900510102
0.0006580857413
0.000843096792
0.001100976909
0.001284457789
0.001410056827
0.001487136378
0.001517619224
0.001506023916
0.001470931237
0.001427282008
0.001374712689
0.001315347139