/*--------------------------------*- C++ -*----------------------------------*\
  =========                 |
  \\      /  F ield         | OpenFOAM: The Open Source CFD Toolbox
   \\    /   O peration     | Website:  https://openfoam.org
    \\  /    A nd           | Version:  8
     \\/     M anipulation  |
\*---------------------------------------------------------------------------*/
FoamFile
{
    version     2.0;
    format      ascii;
    class       volScalarField;
    location    "1.9";
    object      p_rgh;
}
// * * * * * * * * * * * * * * * * * * * * * * * * * * * * * * * * * * * * * //

dimensions      [1 -1 -2 0 0 0 0];

internalField   nonuniform List<scalar> 
67451
(
100003.9151
100003.9184
100003.8995
100003.8766
100003.8598
100003.8468
100003.8395
100003.8419
100003.8548
100003.8762
100003.8975
100003.9006
100003.904
100003.9102
100003.9164
100003.9199
100003.9338
100003.9106
100003.8825
100003.8645
100003.8526
100003.8479
100003.8535
100003.8689
100003.8916
100003.9108
100003.9304
100003.9391
100003.9382
100003.9354
100003.9308
100003.9262
100003.9249
100003.9303
100003.9442
100003.964
100003.9925
100003.9158
100003.9083
100003.9065
100003.9089
100003.9152
100003.9215
100003.914
100003.894
100003.9058
100003.8884
100003.8734
100003.8616
100003.8579
100003.8637
100003.8794
100003.9006
100003.9195
100003.9346
100003.9378
100003.9344
100003.93
100003.9258
100003.9234
100003.9257
100003.9332
100003.9471
100003.9655
100003.9889
100003.9057
100003.8998
100003.9005
100003.9057
100003.9193
100003.9504
100003.9554
100004.2427
100004.109
100003.9548
100003.9036
100003.8785
100003.8719
100003.8761
100003.8887
100003.9058
100003.919
100003.9289
100003.9309
100003.9287
100003.9266
100003.9259
100003.9283
100003.9339
100003.943
100003.9575
100003.9751
100003.996
100003.8792
100003.8849
100003.8949
100003.906
100003.9241
100003.9414
100003.9792
100003.9351
100003.9087
100003.8912
100003.8818
100003.8823
100003.8902
100003.9036
100003.9191
100003.9317
100003.9403
100003.9409
100003.9392
100003.9368
100003.9342
100003.9361
100003.9421
100003.9516
100003.9672
100003.9865
100004.0107
100003.8623
100003.8744
100003.8911
100003.9019
100003.9169
100003.9544
100003.9711
100003.9351
100003.9047
100003.888
100003.8826
100003.887
100003.897
100003.911
100003.9285
100003.9417
100003.9477
100003.947
100003.9457
100003.945
100003.9437
100003.9435
100003.9477
100003.9569
100003.9728
100003.993
100004.023
100003.8587
100003.8768
100003.8964
100003.9626
100003.9348
100003.948
100003.9461
100003.9164
100003.8928
100003.8825
100003.8814
100003.8896
100003.8984
100003.9077
100003.9251
100003.9389
100003.9435
100003.941
100003.939
100003.9418
100003.9479
100003.9536
100003.959
100003.9681
100003.9844
100004.0035
100004.0385
100003.8699
100003.8924
100004.0937
100004.1682
100003.9943
100003.9646
100003.9362
100003.8998
100003.8869
100003.887
100003.8904
100003.9081
100003.9152
100003.9168
100003.9278
100003.9404
100003.9463
100003.9442
100003.9397
100003.9383
100003.9428
100003.9542
100003.9661
100003.9775
100003.9951
100004.0153
100004.0554
100003.8648
100003.8668
100003.9003
100003.9569
100003.9579
100003.9587
100003.9342
100003.8998
100003.9083
100003.9195
100003.9203
100003.9456
100003.9527
100003.9475
100003.9508
100003.9602
100003.9655
100003.9615
100003.9523
100003.9446
100003.9425
100003.9504
100003.9669
100003.987
100004.0107
100004.0362
100004.0836
100003.8804
100003.865
100003.8909
100003.9174
100003.9493
100003.9657
100003.9474
100003.9301
100003.9625
100003.9806
100003.9916
100004.0039
100004.0189
100004.0191
100004.0223
100004.0165
100004.0041
100003.9893
100003.9725
100003.9594
100003.9515
100003.9545
100003.9682
100003.9883
100004.0146
100004.0463
100004.1
100003.9028
100003.8702
100003.8729
100003.9
100003.9468
100003.9792
100003.964
100003.9635
100004.0006
100004.0508
100004.0875
100004.1541
100004.1936
100004.1858
100004.172
100004.1244
100004.0644
100004.0168
100003.986
100003.9639
100003.9458
100003.9436
100003.9561
100003.9825
100004.0219
100004.0736
100004.158
100003.9205
100003.8803
100003.8712
100003.8919
100003.9352
100003.9893
100003.999
100003.9746
100004.0085
100004.0805
100004.3093
100004.4145
100004.3564
100004.3309
100004.3106
100004.2406
100004.1387
100004.055
100004.0139
100004.0025
100003.9837
100003.9544
100003.9352
100003.9434
100003.9897
100004.0517
100004.1521
100003.9343
100003.8904
100003.8741
100003.8879
100003.926
100003.977
100004.0162
100004.0241
100004.0079
100004.0593
100004.2873
100004.7879
100004.672
100004.479
100004.3947
100004.2903
100004.1764
100004.0965
100004.0821
100004.058
100004.0658
100004.0963
100004.0367
100003.9406
100003.9594
100004.0714
100004.2725
100003.9444
100003.9011
100003.8822
100003.8907
100003.9208
100003.9635
100004.0126
100004.042
100004.017
100004.0251
100004.0637
100004.4152
100004.4957
100004.3909
100004.2761
100004.1694
100004.0847
100004.0427
100004.0539
100004.0434
100004.0933
100004.1857
100004.1633
100004.0533
100004.0274
100004.0893
100004.2856
100003.9459
100003.9101
100003.8946
100003.8998
100003.9207
100003.9521
100003.9918
100004.0239
100004.0071
100004.0048
100003.9808
100004.0596
100004.2388
100004.3727
100004.1687
100004.0672
100004.0134
100003.9974
100003.9993
100003.9866
100003.9955
100004.036
100004.0456
100004.0266
100004.0588
100004.1122
100004.2921
100003.9458
100003.9204
100003.9109
100003.9134
100003.9258
100003.9461
100003.9757
100004.0049
100004.006
100003.9931
100003.988
100004.0147
100004.0408
100004.0636
100004.0955
100004.0137
100003.9729
100003.9586
100003.9507
100003.9395
100003.9294
100003.9379
100003.9682
100004.0011
100004.0527
100004.0874
100004.2442
100003.9518
100003.9382
100003.932
100003.93
100003.9337
100003.943
100003.961
100003.9843
100003.9991
100003.9883
100003.9729
100004.0096
100003.9796
100003.9869
100003.9877
100003.9646
100003.944
100003.9313
100003.921
100003.9143
100003.9081
100003.9128
100003.9437
100003.9797
100004.0273
100004.0585
100004.1968
100003.9692
100003.9624
100003.9545
100003.9475
100003.9444
100003.9437
100003.9501
100003.9624
100003.9784
100003.9742
100003.9498
100003.9755
100003.9675
100003.9783
100003.967
100004.2168
100003.971
100003.9319
100003.9113
100003.9045
100003.9037
100003.9144
100003.937
100003.963
100004.0061
100004.0356
100004.155
100003.9933
100003.987
100003.9746
100003.9634
100003.9574
100003.9487
100003.9455
100003.9474
100003.9566
100003.9528
100003.9365
100003.9444
100003.9512
100003.9522
100003.9443
100003.9893
100003.9238
100003.9097
100003.9002
100003.8982
100003.9018
100003.9154
100003.9339
100003.9549
100003.9928
100004.0218
100004.1235
100004.0097
100003.9943
100003.9816
100003.9738
100003.9734
100003.9563
100003.9452
100003.9397
100003.9437
100003.9372
100003.9251
100003.9251
100003.9365
100003.9293
100003.9208
100003.9253
100003.9046
100003.8974
100003.8943
100003.8958
100003.9016
100003.9153
100003.9328
100003.9533
100003.9888
100004.0167
100004.1043
100004.0119
100004
100003.9896
100003.9809
100003.9744
100003.9547
100003.9406
100003.9338
100003.9373
100003.9289
100003.9172
100003.9156
100003.9295
100003.9173
100003.904
100003.898
100003.8904
100003.8905
100003.8932
100003.8974
100003.9043
100003.9172
100003.9346
100003.9558
100003.9902
100004.0181
100004.0967
100004.0175
100004.0282
100004.0182
100003.9978
100003.9757
100003.9496
100003.9335
100003.9287
100003.9365
100003.9299
100003.9135
100003.9156
100003.9355
100003.9225
100003.8997
100003.8837
100003.879
100003.8858
100003.895
100003.9029
100003.9109
100003.9237
100003.9411
100003.9624
100003.996
100004.0245
100004.098
100004.0514
100004.0665
100004.0482
100004.0166
100003.9794
100003.9451
100003.9268
100003.9247
100003.9381
100003.937
100003.9188
100003.9238
100003.9548
100003.9455
100003.9138
100003.8832
100003.874
100003.8846
100003.9004
100003.9128
100003.9225
100003.9353
100003.9525
100003.9738
100004.0067
100004.0357
100004.1063
100004.0717
100004.0841
100004.0635
100004.0279
100003.9787
100003.9377
100003.9192
100003.9209
100003.9398
100003.9464
100003.932
100003.9329
100003.9834
100003.9852
100003.9442
100003.8964
100003.8755
100003.887
100003.909
100003.9265
100003.9386
100003.9518
100003.9689
100003.9906
100004.0232
100004.0527
100004.12
100004.0723
100004.0865
100004.0744
100004.0593
100003.9921
100003.9404
100003.9212
100003.9247
100003.9461
100003.96
100003.9479
100003.9383
100004.0092
100004.0319
100003.9836
100003.9192
100003.8852
100003.8955
100003.923
100003.9454
100003.96
100003.9736
100003.9912
100004.0137
100004.0463
100004.0759
100004.1373
100004.0607
100004.0812
100004.0904
100004.072
100003.9878
100003.9252
100003.9156
100003.9284
100003.9536
100003.9728
100003.9664
100003.9421
100004.0059
100004.0476
100004.0007
100003.9362
100003.902
100003.9155
100003.9461
100003.9709
100003.9874
100004.0021
100004.0205
100004.044
100004.0762
100004.1051
100004.157
100004.053
100004.0825
100004.1051
100004.2819
100004.103
100003.9249
100003.9152
100003.9435
100003.9736
100003.9926
100003.9911
100003.9593
100003.975
100004.02
100003.984
100003.9413
100003.9284
100003.9505
100003.9806
100004.0047
100004.0217
100004.0374
100004.0568
100004.0808
100004.1117
100004.1386
100004.1783
100004.0638
100004.0765
100004.082
100004.4294
100004.2112
100003.959
100003.9549
100003.9878
100004.0133
100004.0264
100004.0267
100003.9969
100003.9767
100003.9927
100003.9767
100003.9667
100003.9773
100004.0011
100004.0263
100004.0468
100004.0626
100004.0786
100004.098
100004.1213
100004.1493
100004.1722
100004.2006
100004.1123
100004.1248
100004.0682
100004.1397
100004.1217
100004.0615
100004.0508
100004.0631
100004.0751
100004.0814
100004.0821
100004.0634
100004.0422
100004.0353
100004.0308
100004.036
100004.049
100004.0658
100004.0826
100004.0969
100004.1096
100004.1239
100004.1415
100004.1616
100004.1843
100004.2013
100004.2207
100004.1972
100004.2183
100004.1495
100004.1177
100004.1755
100004.1667
100004.1515
100004.142
100004.1415
100004.1424
100004.1442
100004.1376
100004.1322
100004.1249
100004.1201
100004.1193
100004.1217
100004.1268
100004.1334
100004.1405
100004.1493
100004.1613
100004.1762
100004.1922
100004.2087
100004.2192
100004.232
100004.4221
100004.5003
100004.4309
100004.6774
100004.5334
100004.4361
100004.348
100004.2938
100004.2664
100004.2524
100004.2492
100004.2487
100004.266
100004.2745
100004.2684
100004.2534
100004.2356
100004.2196
100004.2078
100004.2009
100004.2
100004.2046
100004.2127
100004.222
100004.232
100004.2356
100004.2448
100003.9109
100003.9067
100003.8826
100003.8548
100003.8464
100003.8308
100003.819
100003.8159
100003.8229
100003.8388
100003.8573
100003.8855
100003.895
100003.9045
100003.912
100003.914
100003.9051
100003.8841
100003.8593
100003.8494
100003.8341
100003.8261
100003.8249
100003.8319
100003.8469
100003.8618
100003.8738
100003.8975
100003.9034
100003.904
100003.9026
100003.9019
100003.9038
100003.91
100003.9242
100003.9453
100003.9686
100003.8912
100003.8926
100003.8958
100003.9013
100003.9069
100003.9112
100003.9028
100003.8525
100003.8561
100003.8626
100003.8556
100003.8433
100003.837
100003.8364
100003.8425
100003.8553
100003.8676
100003.88
100003.896
100003.9043
100003.9073
100003.9065
100003.9065
100003.9093
100003.9176
100003.9334
100003.9551
100003.973
100003.8843
100003.885
100003.8869
100003.8924
100003.8979
100003.9132
100003.9036
100003.7418
100003.8936
100003.8895
100003.8758
100003.86
100003.8541
100003.8532
100003.8579
100003.868
100003.8782
100003.8865
100003.8958
100003.9035
100003.9078
100003.9108
100003.9151
100003.9223
100003.934
100003.9516
100003.9724
100003.9885
100003.858
100003.8615
100003.869
100003.8676
100003.8966
100003.9216
100003.9117
100003.9159
100003.8825
100003.8752
100003.8671
100003.8681
100003.8736
100003.8807
100003.8889
100003.8996
100003.9076
100003.9155
100003.9226
100003.9247
100003.9234
100003.923
100003.9286
100003.9405
100003.9595
100003.9825
100004.0054
100003.8305
100003.8386
100003.8548
100003.8469
100003.8901
100004.0624
100003.9393
100003.9046
100003.8754
100003.8682
100003.864
100003.8692
100003.8808
100003.893
100003.9068
100003.9187
100003.9267
100003.9314
100003.9352
100003.9371
100003.9343
100003.9304
100003.9332
100003.9434
100003.9609
100003.9841
100004.0142
100003.812
100003.821
100003.8191
100003.8134
100003.8523
100003.8971
100003.9014
100003.871
100003.8541
100003.8511
100003.8533
100003.8627
100003.8739
100003.8828
100003.896
100003.9085
100003.9154
100003.9176
100003.9198
100003.9251
100003.9329
100003.9388
100003.9443
100003.954
100003.9705
100003.9906
100004.0234
100003.8161
100003.822
100003.857
100003.9205
100003.916
100003.9185
100003.8837
100003.8482
100003.8387
100003.8417
100003.85
100003.8694
100003.8805
100003.8829
100003.8878
100003.9008
100003.9103
100003.9138
100003.9146
100003.9165
100003.9233
100003.9353
100003.9489
100003.9627
100003.9812
100004.0014
100004.0367
100003.8082
100003.8124
100003.8529
100003.8852
100003.8935
100003.9011
100003.8581
100003.835
100003.8329
100003.8477
100003.8536
100003.885
100003.8974
100003.8906
100003.8876
100003.8984
100003.9132
100003.9203
100003.9197
100003.918
100003.9194
100003.9273
100003.9435
100003.965
100003.9916
100004.0179
100004.0584
100003.8102
100003.8078
100003.8263
100003.8481
100003.8823
100003.8969
100003.8523
100003.839
100003.839
100003.8583
100003.8528
100003.9004
100003.919
100003.9033
100003.8935
100003.8974
100003.9104
100003.9209
100003.9229
100003.9207
100003.9189
100003.9209
100003.933
100003.9554
100003.9896
100004.0258
100004.0746
100003.8197
100003.8085
100003.8125
100003.8311
100003.8717
100003.8993
100003.8544
100003.8486
100003.8503
100003.876
100003.8711
100003.9273
100003.95
100003.9337
100003.9235
100003.9171
100003.9153
100003.919
100003.9217
100003.9197
100003.9123
100003.8982
100003.9005
100003.926
100003.9765
100004.0309
100004.1033
100003.835
100003.8172
100003.8159
100003.8314
100003.867
100003.9138
100003.8975
100003.8592
100003.8411
100003.8317
100003.7712
100003.9102
100003.9788
100003.957
100003.9462
100003.9251
100003.9004
100003.8851
100003.8874
100003.9069
100003.9035
100003.8765
100003.8605
100003.8729
100003.9278
100004.0008
100004.0991
100003.852
100003.8299
100003.824
100003.835
100003.8671
100003.9085
100003.9327
100003.887
100003.8521
100003.8147
100003.7452
100003.659
100003.7746
100003.8969
100003.9631
100003.9487
100003.9245
100003.9123
100003.922
100003.9363
100003.8533
100003.8126
100003.7982
100003.7933
100003.805
100003.88
100004.062
100003.8687
100003.8455
100003.8371
100003.8451
100003.8731
100003.9094
100003.945
100003.926
100003.877
100003.8155
100003.7286
100003.6225
100003.8556
100003.9047
100003.9355
100003.9172
100003.9012
100003.8994
100003.9174
100003.9391
100003.8735
100003.8555
100003.8549
100003.8511
100003.8639
100003.8947
100004.0319
100003.8828
100003.8617
100003.853
100003.86
100003.8842
100003.9137
100003.9437
100003.9499
100003.9054
100003.8517
100003.7796
100003.6579
100003.8043
100003.7796
100003.8593
100003.8704
100003.8731
100003.8836
100003.9053
100003.916
100003.8662
100003.84
100003.8474
100003.8635
100003.9005
100003.9413
100004.0713
100003.8978
100003.8816
100003.8744
100003.8813
100003.8992
100003.9188
100003.9403
100003.9567
100003.9339
100003.8877
100003.8451
100003.802
100003.81
100003.8219
100003.7367
100003.8229
100003.8542
100003.8768
100003.8928
100003.8945
100003.8649
100003.8372
100003.8504
100003.8812
100003.9265
100003.9601
100004.0812
100003.9157
100003.9058
100003.9028
100003.9075
100003.9163
100003.9235
100003.9349
100003.9482
100003.9484
100003.9071
100003.8629
100003.8546
100003.838
100003.8354
100003.7934
100003.8104
100003.8531
100003.8772
100003.8853
100003.8848
100003.8714
100003.8521
100003.8674
100003.8982
100003.9355
100003.9654
100004.08
100003.9374
100003.9357
100003.9359
100003.9349
100003.9365
100003.9308
100003.9314
100003.9365
100003.9445
100003.9226
100003.868
100003.8684
100003.8563
100003.8508
100003.8187
100003.7137
100003.8434
100003.878
100003.8825
100003.8832
100003.8816
100003.8786
100003.8947
100003.9132
100003.9422
100003.9674
100004.0732
100003.9659
100003.9673
100003.9644
100003.9586
100003.9587
100003.9415
100003.9329
100003.9296
100003.9336
100003.9232
100003.8711
100003.869
100003.8643
100003.8626
100003.8541
100003.8399
100003.8702
100003.8807
100003.8817
100003.8836
100003.8886
100003.8975
100003.9126
100003.9241
100003.9499
100003.973
100004.0689
100003.9859
100003.9766
100003.9724
100003.9722
100003.9967
100003.9584
100003.9387
100003.927
100003.926
100003.9165
100003.8735
100003.8654
100003.864
100003.8617
100003.8593
100003.8646
100003.8732
100003.8794
100003.8817
100003.8849
100003.8918
100003.9037
100003.9187
100003.9323
100003.9588
100003.9833
100004.0692
100003.9599
100003.9478
100003.9498
100003.9547
100003.9718
100003.9468
100003.93
100003.9191
100003.9192
100003.9081
100003.8693
100003.8565
100003.8563
100003.8521
100003.8472
100003.8512
100003.8602
100003.8723
100003.8813
100003.8874
100003.8946
100003.9061
100003.9216
100003.9389
100003.9678
100003.9942
100004.0716
100003.9344
100003.9351
100003.9379
100003.9377
100003.9419
100003.9242
100003.9118
100003.9062
100003.9122
100003.9031
100003.8634
100003.8476
100003.8497
100003.8452
100003.8389
100003.8369
100003.8438
100003.8612
100003.8795
100003.8913
100003.8995
100003.9095
100003.9264
100003.9461
100003.9764
100004.0039
100004.0752
100003.9324
100003.9373
100003.9353
100003.9271
100003.9184
100003.901
100003.8914
100003.8917
100003.9053
100003.9035
100003.8625
100003.8444
100003.8488
100003.8462
100003.838
100003.8326
100003.8343
100003.8528
100003.8792
100003.8981
100003.9092
100003.9209
100003.937
100003.957
100003.9874
100004.015
100004.0819
100003.9335
100003.939
100003.9344
100003.9213
100003.902
100003.8809
100003.8734
100003.8794
100003.8997
100003.9077
100003.8672
100003.8438
100003.8427
100003.8427
100003.8349
100003.8288
100003.831
100003.8493
100003.882
100003.9087
100003.924
100003.937
100003.9536
100003.9736
100004.0039
100004.0315
100004.094
100003.931
100003.9389
100003.938
100003.9301
100003.8974
100003.8657
100003.8613
100003.8732
100003.899
100003.9148
100003.8753
100003.8439
100003.8344
100003.8398
100003.8333
100003.8277
100003.8311
100003.8498
100003.8886
100003.924
100003.9446
100003.9596
100003.9766
100003.997
100004.0277
100004.0557
100004.1123
100003.9264
100003.9356
100003.9432
100003.924
100003.8818
100003.8383
100003.8451
100003.8692
100003.9035
100003.9265
100003.8964
100003.8508
100003.836
100003.848
100003.8442
100003.8404
100003.8431
100003.8639
100003.9078
100003.9484
100003.9723
100003.9888
100004.0067
100004.0281
100004.0594
100004.0878
100004.1369
100003.928
100003.9237
100003.9049
100003.778
100003.7706
100003.7535
100003.801
100003.8611
100003.9167
100003.9474
100003.9323
100003.8759
100003.8541
100003.8666
100003.8653
100003.8659
100003.8706
100003.8964
100003.9441
100003.984
100004.0077
100004.025
100004.0439
100004.0665
100004.0978
100004.126
100004.166
100003.9436
100003.9067
100003.8586
100003.8069
100003.7675
100003.7275
100003.7921
100003.8803
100003.9512
100003.9843
100003.9804
100003.9298
100003.8904
100003.8978
100003.897
100003.898
100003.9121
100003.9495
100003.9948
100004.0283
100004.0491
100004.0664
100004.0859
100004.1091
100004.1388
100004.1648
100004.1941
100003.9934
100003.9356
100003.8636
100003.8127
100003.7748
100003.7117
100003.8634
100003.961
100004.0199
100004.0454
100004.0471
100004.0107
100003.9548
100003.9435
100003.9447
100003.9569
100003.9849
100004.0228
100004.0566
100004.0795
100004.0958
100004.1117
100004.1304
100004.1521
100004.1775
100004.1969
100004.2157
100004.062
100004.0086
100003.9122
100003.657
100003.7493
100003.8264
100003.9844
100004.0536
100004.0908
100004.1075
100004.1115
100004.0916
100004.0451
100004.0217
100004.0222
100004.0387
100004.0639
100004.0895
100004.1093
100004.1235
100004.1357
100004.1498
100004.1669
100004.1854
100004.204
100004.2152
100004.2267
100004.2377
100004.2323
100004.1456
100003.9202
100004.0339
100004.1175
100004.1764
100004.197
100004.2051
100004.2072
100004.2063
100004.1946
100004.1734
100004.1572
100004.1527
100004.1571
100004.1646
100004.1718
100004.1757
100004.1781
100004.1819
100004.1894
100004.2005
100004.2127
100004.2248
100004.2302
100004.2397
100003.8862
100003.8932
100003.8856
100003.8696
100003.8492
100003.8301
100003.8136
100003.802
100003.7979
100003.8026
100003.8154
100003.8323
100003.8515
100003.8693
100003.8803
100003.8603
100003.8724
100003.8849
100003.8957
100003.9017
100003.8847
100003.8689
100003.8511
100003.8334
100003.819
100003.8101
100003.8083
100003.8142
100003.8271
100003.8433
100003.8612
100003.8783
100003.8877
100003.8926
100003.8956
100003.8989
100003.9036
100003.9099
100003.9198
100003.932
100003.9539
100003.8605
100003.8637
100003.8697
100003.8777
100003.8858
100003.8917
100003.8943
100003.8686
100003.8468
100003.8482
100003.8362
100003.8258
100003.8203
100003.8207
100003.8274
100003.8401
100003.8557
100003.8723
100003.8865
100003.8946
100003.8988
100003.9016
100003.9053
100003.9104
100003.9167
100003.9268
100003.9392
100003.9554
100003.8634
100003.8646
100003.8675
100003.8723
100003.8772
100003.8789
100003.8817
100003.7793
100003.7129
100003.8359
100003.8389
100003.835
100003.8336
100003.8361
100003.8436
100003.8558
100003.8704
100003.8846
100003.8954
100003.9015
100003.9042
100003.9068
100003.9115
100003.9184
100003.9267
100003.9387
100003.9522
100003.9657
100003.8547
100003.8547
100003.8543
100003.8571
100003.8658
100003.8723
100003.8862
100003.8725
100003.8604
100003.852
100003.8461
100003.8473
100003.8532
100003.8624
100003.8743
100003.8883
100003.9012
100003.9112
100003.9171
100003.918
100003.9162
100003.9177
100003.9241
100003.9338
100003.9478
100003.9635
100003.9784
100003.8447
100003.8418
100003.8264
100003.8306
100003.8406
100003.8853
100003.8939
100003.8722
100003.8616
100003.8542
100003.8513
100003.8558
100003.8653
100003.878
100003.8923
100003.9066
100003.9185
100003.9266
100003.93
100003.9287
100003.925
100003.9245
100003.9299
100003.9398
100003.9549
100003.9716
100003.989
100003.8377
100003.8433
100003.8226
100003.7927
100003.835
100003.875
100003.8786
100003.868
100003.8579
100003.8513
100003.8514
100003.8588
100003.8702
100003.883
100003.8971
100003.9099
100003.9195
100003.9248
100003.9272
100003.9285
100003.9293
100003.9311
100003.9365
100003.9467
100003.9623
100003.9792
100003.9983
100003.8129
100003.8331
100003.6318
100003.5475
100003.7952
100003.8621
100003.8709
100003.8616
100003.8538
100003.8511
100003.8546
100003.8669
100003.878
100003.8885
100003.9001
100003.9112
100003.9191
100003.9234
100003.9249
100003.9264
100003.9288
100003.9334
100003.9411
100003.9524
100003.9688
100003.9862
100004.0071
100003.8349
100003.8425
100003.8467
100003.8203
100003.851
100003.8713
100003.8685
100003.8561
100003.8503
100003.8557
100003.8636
100003.881
100003.8912
100003.8983
100003.9064
100003.915
100003.9217
100003.9257
100003.9252
100003.9244
100003.9261
100003.9319
100003.9414
100003.9555
100003.9746
100003.9939
100004.0169
100003.8284
100003.8232
100003.8149
100003.8368
100003.8649
100003.8831
100003.8797
100003.8583
100003.8552
100003.8646
100003.8739
100003.8991
100003.9104
100003.9145
100003.9185
100003.9232
100003.9264
100003.9271
100003.9246
100003.9218
100003.9221
100003.9274
100003.9371
100003.9524
100003.9747
100003.9971
100004.0229
100003.8347
100003.8293
100003.8331
100003.8445
100003.8695
100003.8939
100003.9007
100003.8756
100003.8713
100003.878
100003.8734
100003.9262
100003.9437
100003.9403
100003.9374
100003.9345
100003.9314
100003.9281
100003.9237
100003.9188
100003.9161
100003.9191
100003.9287
100003.9449
100003.9705
100003.9974
100004.0312
100003.842
100003.8323
100003.8341
100003.8464
100003.8702
100003.8999
100003.9151
100003.8956
100003.8854
100003.8684
100003.853
100003.9219
100003.9576
100003.9633
100003.9609
100003.9512
100003.9399
100003.9316
100003.9258
100003.919
100003.9112
100003.9078
100003.9143
100003.9338
100003.9622
100003.9898
100004.0283
100003.8509
100003.8374
100003.8361
100003.8467
100003.8692
100003.8986
100003.9305
100003.937
100003.9233
100003.9194
100003.8749
100003.947
100003.9888
100003.997
100003.9908
100003.9716
100003.9546
100003.9449
100003.9409
100003.9294
100003.9144
100003.9083
100003.9091
100003.9224
100003.9563
100003.9803
100004.0271
100003.8623
100003.8467
100003.8427
100003.8507
100003.8696
100003.8952
100003.926
100003.9437
100003.933
100003.9439
100003.8789
100003.9308
100003.9821
100003.9774
100003.9729
100003.9543
100003.9402
100003.9337
100003.9317
100003.9233
100003.915
100003.9177
100003.9223
100003.9322
100003.9628
100003.9812
100004.0337
100003.875
100003.8594
100003.8534
100003.8579
100003.8721
100003.8917
100003.9164
100003.9355
100003.9324
100003.937
100003.9004
100003.9238
100003.9269
100003.8534
100003.9133
100003.9184
100003.9152
100003.9123
100003.9101
100003.9041
100003.8996
100003.9064
100003.9197
100003.9362
100003.9654
100003.9854
100004.0544
100003.8904
100003.8767
100003.87
100003.8706
100003.8801
100003.8926
100003.91
100003.9259
100003.9318
100003.9277
100003.9106
100003.9215
100003.9095
100003.8933
100003.904
100003.9016
100003.8975
100003.8934
100003.8899
100003.8863
100003.8857
100003.8954
100003.914
100003.9338
100003.9622
100003.983
100004.056
100003.9095
100003.8989
100003.8927
100003.8897
100003.8967
100003.899
100003.9079
100003.9173
100003.9265
100003.9212
100003.9064
100003.9087
100003.9009
100003.8972
100003.9064
100003.8926
100003.8873
100003.8769
100003.8734
100003.8739
100003.8773
100003.8887
100003.9075
100003.9282
100003.9579
100003.9779
100004.0477
100003.9321
100003.9247
100003.9201
100003.9152
100003.9277
100003.9135
100003.9129
100003.913
100003.9184
100003.9155
100003.9011
100003.8969
100003.8937
100003.8905
100003.8895
100003.8083
100003.8659
100003.8605
100003.8616
100003.8656
100003.8723
100003.8845
100003.9016
100003.9207
100003.9483
100003.9719
100004.0347
100003.9555
100003.9494
100003.9484
100003.942
100003.9692
100003.9367
100003.9269
100003.9156
100003.9126
100003.9084
100003.8946
100003.8866
100003.8856
100003.8844
100003.8807
100003.8543
100003.8624
100003.8585
100003.8587
100003.8629
100003.8705
100003.8827
100003.8987
100003.9168
100003.944
100003.9681
100004.0239
100003.9694
100003.9631
100003.9788
100003.9822
100004.1279
100003.9896
100003.9583
100003.9254
100003.9113
100003.9018
100003.8856
100003.875
100003.8732
100003.8725
100003.8698
100003.8589
100003.859
100003.8579
100003.8591
100003.8636
100003.8716
100003.8838
100003.8991
100003.9169
100003.9438
100003.9674
100004.0183
100003.9591
100003.9532
100003.9674
100003.9745
100004.0495
100003.9772
100003.9504
100003.9208
100003.9065
100003.8953
100003.8759
100003.8635
100003.8601
100003.8585
100003.8579
100003.8554
100003.8561
100003.858
100003.8613
100003.8668
100003.8753
100003.8876
100003.9028
100003.9209
100003.9473
100003.9701
100004.017
100003.941
100003.9394
100003.949
100003.9538
100003.9881
100003.9498
100003.9302
100003.909
100003.9001
100003.8919
100003.8702
100003.8564
100003.8522
100003.8498
100003.8495
100003.8514
100003.8548
100003.8595
100003.8656
100003.8729
100003.8826
100003.8962
100003.9107
100003.9289
100003.9549
100003.9766
100004.0195
100003.9289
100003.9303
100003.9345
100003.9339
100003.9431
100003.9209
100003.9089
100003.8963
100003.8945
100003.8922
100003.8712
100003.8561
100003.8514
100003.8488
100003.8476
100003.85
100003.857
100003.8642
100003.8732
100003.8829
100003.894
100003.9074
100003.9234
100003.9419
100003.9675
100003.9877
100004.0266
100003.9228
100003.9263
100003.927
100003.9219
100003.9153
100003.8992
100003.893
100003.887
100003.8916
100003.8958
100003.8798
100003.8627
100003.8569
100003.8545
100003.8524
100003.8544
100003.8629
100003.8728
100003.8848
100003.8974
100003.9105
100003.9252
100003.942
100003.9608
100003.9861
100004.0049
100004.0393
100003.9218
100003.929
100003.9294
100003.9263
100003.9035
100003.8875
100003.8855
100003.8844
100003.8938
100003.9034
100003.8955
100003.8765
100003.8696
100003.8682
100003.8657
100003.8671
100003.8764
100003.8876
100003.9015
100003.9168
100003.9324
100003.9488
100003.9666
100003.9859
100004.0109
100004.0285
100004.058
100003.9269
100003.9396
100003.9371
100003.9309
100003.8946
100003.881
100003.8854
100003.889
100003.9024
100003.9149
100003.9148
100003.898
100003.8902
100003.8896
100003.8875
100003.8894
100003.8992
100003.9095
100003.9244
100003.9418
100003.9597
100003.9778
100003.9968
100004.0165
100004.0407
100004.0577
100004.0825
100003.9432
100003.9625
100003.952
100003.9539
100003.9041
100003.8943
100003.899
100003.9049
100003.9205
100003.9332
100003.937
100003.9288
100003.9198
100003.9179
100003.9163
100003.9193
100003.927
100003.9379
100003.9537
100003.9724
100003.9918
100004.0112
100004.0309
100004.0505
100004.0736
100004.09
100004.1111
100003.9743
100003.9881
100003.9747
100003.9866
100003.9367
100003.9293
100003.9308
100003.9361
100003.9512
100003.9624
100003.9674
100003.9633
100003.9587
100003.9553
100003.9524
100003.9556
100003.9618
100003.9725
100003.9882
100004.0069
100004.0264
100004.0459
100004.0655
100004.0846
100004.1062
100004.1212
100004.1388
100004.0222
100004.0279
100004.0181
100004.0174
100003.9951
100003.9863
100003.9806
100003.9846
100003.997
100004.0064
100004.0105
100004.0072
100004.0042
100004.0022
100003.999
100003.9994
100004.0044
100004.0145
100004.0287
100004.0454
100004.063
100004.081
100004.0993
100004.1168
100004.135
100004.1472
100004.1609
100004.0727
100004.0705
100004.0631
100004.0889
100004.0552
100004.0288
100004.0252
100004.0288
100004.0393
100004.0484
100004.0523
100004.0487
100004.0433
100004.0396
100004.0368
100004.0369
100004.0414
100004.0503
100004.0621
100004.0752
100004.0901
100004.1065
100004.1236
100004.1396
100004.1545
100004.1632
100004.1737
100004.1555
100004.1611
100004.1455
100004.1563
100004.1341
100004.113
100004.1043
100004.1031
100004.1066
100004.1097
100004.1109
100004.1069
100004.0996
100004.0943
100004.0911
100004.0901
100004.0924
100004.0963
100004.1014
100004.1081
100004.1176
100004.13
100004.1443
100004.158