/*--------------------------------*- C++ -*----------------------------------*\
  =========                 |
  \\      /  F ield         | OpenFOAM: The Open Source CFD Toolbox
   \\    /   O peration     | Website:  https://openfoam.org
    \\  /    A nd           | Version:  8
     \\/     M anipulation  |
\*---------------------------------------------------------------------------*/
FoamFile
{
    version     2.0;
    format      ascii;
    class       volVectorField;
    location    "0.1/wallFilmRegion";
    object      U;
}
// * * * * * * * * * * * * * * * * * * * * * * * * * * * * * * * * * * * * * //

dimensions      [0 1 -1 0 0 0 0];

internalField   nonuniform List<vector> 
1342
(
(4.161394359e-13 2.031004657e-13 -2.792789796e-12)
(-1.062325207e-13 -3.0788413e-13 -2.238258382e-12)
(-1.002127896e-13 -6.385684199e-13 -2.785725543e-12)
(4.235805224e-14 -8.072751775e-13 -3.311398106e-12)
(2.776719339e-13 -1.088766886e-12 -4.12205499e-12)
(8.498286673e-13 -9.643605434e-13 -6.753700944e-12)
(8.735864031e-13 -6.95145411e-13 -7.663412054e-12)
(-1.228351201e-12 -1.170667877e-14 -7.724232196e-12)
(-1.200738078e-12 -1.374729314e-14 -9.030632228e-12)
(-1.05148207e-12 -1.555292944e-14 -1.010716607e-11)
(-8.29713087e-13 -1.704262547e-14 -1.096359531e-11)
(-5.594737593e-13 -1.813259032e-14 -1.158064215e-11)
(-2.574650854e-13 -1.88900617e-14 -1.193238123e-11)
(5.793901158e-14 -1.911660541e-14 -1.199640088e-11)
(3.650870451e-13 -1.892775841e-14 -1.174893381e-11)
(6.39611071e-13 -1.813779111e-14 -1.119167351e-11)
(8.777319732e-13 -1.047356781e-13 -1.049231654e-11)
(8.423755781e-13 -2.520193937e-13 -8.904767063e-12)
(7.693609993e-13 1.916230023e-13 -4.046959322e-12)
(-3.755921794e-14 -5.142618251e-13 -3.27418999e-12)
(4.202359514e-14 -8.271399236e-13 -3.61216706e-12)
(2.636763913e-13 -1.213507033e-12 -4.262673327e-12)
(6.479291246e-13 -1.635061489e-12 -5.259974915e-12)
(1.256105812e-12 -1.239314543e-12 -7.923171734e-12)
(1.563963796e-12 -7.910416257e-13 -1.021792814e-11)
(-2.062678752e-12 5.182679477e-13 -9.352705864e-12)
(-1.851499323e-12 5.802718525e-13 -1.073795353e-11)
(-1.564159051e-12 6.476531785e-13 -1.189781077e-11)
(-1.216564977e-12 6.770709412e-13 -1.276098693e-11)
(-8.18615849e-13 7.381262949e-13 -1.340792787e-11)
(-3.711997481e-13 7.556530236e-13 -1.378742355e-11)
(9.995791394e-14 7.38387934e-13 -1.386704422e-11)
(5.788270398e-13 6.913586869e-13 -1.359660388e-11)
(1.004114261e-12 6.237912687e-13 -1.29151408e-11)
(1.214554409e-12 3.767015857e-13 -1.193904985e-11)
(1.4681363e-12 2.982048321e-14 -1.16986177e-11)
(3.126342182e-12 -1.73238383e-12 -9.114394629e-12)
(1.876196439e-12 -6.840802291e-13 -6.692630274e-12)
(1.179702983e-12 -1.100353512e-12 -6.136599369e-12)
(1.691780447e-12 -1.959272706e-12 -7.39293921e-12)
(2.40079153e-12 -2.412091744e-12 -8.32908837e-12)
(2.935940803e-12 -2.301737398e-12 -9.27084176e-12)
(3.805669206e-12 2.392933773e-12 -1.392976965e-11)
(-0.007051977973 0.02102580957 -0.08312090608)
(-2.2663325e-12 5.15174542e-12 -2.033523935e-11)
(-1.52259775e-12 5.403317577e-12 -2.134540356e-11)
(-7.085373213e-13 5.543801713e-12 -2.200924813e-11)
(1.903927698e-13 5.645170254e-12 -2.223569364e-11)
(1.172804109e-12 5.51646499e-12 -2.193243099e-11)
(2.253401309e-12 5.26180147e-12 -2.095849103e-11)
(3.629551195e-12 4.466509023e-12 -1.940432316e-11)
(-0.396882652 -2.420174464 -4.602054927)
(0.03085797508 -0.04649802658 -0.08862496819)
(1.801461331e-12 -6.133750023e-11 -1.177830532e-10)
(2.853523859e-12 -1.233327624e-11 -2.36199434e-11)
(3.92276566e-12 -1.133068448e-11 -2.168992142e-11)
(4.872802149e-12 -1.025349393e-11 -1.950295092e-11)
(5.730346265e-12 -8.942570173e-12 -1.704605256e-11)
(6.843504806e-12 -6.907802637e-12 -1.466535122e-11)
(5.446915896e-12 -3.847557105e-12 -1.125539923e-11)
(4.758860784e-12 -3.033428758e-12 -1.037338725e-11)
(1.117941448e-11 -2.52464973e-13 -1.862440337e-11)
(1.363143154e-11 3.645811172e-12 -2.340433617e-11)
(9.436948063e-12 1.4488191e-11 -3.13403354e-11)
(-0.4174306881 -3.623873984 -3.956914597)
(1.051781625 -2.040550524 -2.225703076)
(0.8701431323 -0.7877988654 -0.8601432634)
(0.001012975223 -0.000495806708 -0.0005417598997)
(7.693938133e-12 -2.623942321e-11 -2.857282141e-11)
(8.992662974e-12 -2.21118298e-11 -2.402544112e-11)
(1.041285771e-11 -1.93489422e-11 -2.099559366e-11)
(1.205802566e-11 -1.564028956e-11 -1.869854957e-11)
(1.233700933e-11 -1.039101306e-11 -1.608201789e-11)
(1.299344469e-11 -7.953463277e-12 -1.633088665e-11)
(2.50680978e-11 2.822651854e-14 -2.34647198e-11)
(2.737556122e-11 1.661519105e-11 -3.382000426e-11)
(-0.4187068943 -4.397696867 -2.794671358)
(1.804792743 -2.724647055 -1.735720712)
(2.585433509 -1.975780972 -1.249678895)
(2.667466499 -1.330211902 -0.8493005196)
(1.223412109 -0.4304759002 -0.2727114997)
(0.0001157691995 -2.694987771e-05 -1.724172365e-05)
(1.926712968e-11 -3.474503155e-11 -2.224742093e-11)
(2.21326963e-11 -2.810277314e-11 -2.034420743e-11)
(2.602747357e-11 -2.309806515e-11 -1.685323333e-11)
(2.405906421e-11 -1.678791855e-11 -1.943495153e-11)
(2.977431807e-11 -2.162356858e-11 -1.873761677e-11)
(3.728518915e-11 -1.749072745e-11 -1.782085986e-11)
(5.056253512e-11 -1.340259323e-11 -2.318722533e-11)
(-0.4446312913 4.593157628 -2.237750903)
(-6.239757936e-12 5.567848236e-11 -2.707901719e-11)
(-2.404550638e-12 4.618678403e-11 -2.246080144e-11)
(-8.163501794e-13 3.827525841e-11 -1.858593618e-11)
(-3.761781727e-14 3.289593393e-11 -1.5972064e-11)
(-2.315606704e-12 3.19908126e-11 -1.558504656e-11)
(-6.668676491e-11 5.169069775e-11 -2.53952751e-11)
(1.34130958e-10 5.695766772e-11 -4.193864804e-11)
(4.695405628e-11 1.463490122e-11 -2.267359721e-11)
(4.9710413e-13 1.898911643e-13 -2.570219193e-12)
(3.887111357e-13 2.181661847e-13 -2.719772209e-12)
(4.504293426e-13 2.25781802e-13 -2.836392371e-12)
(2.876958977e-13 1.830535493e-13 -2.131866061e-12)
(1.265760888e-13 1.213001821e-13 -2.114913793e-12)
(3.365573089e-14 4.102172563e-14 -2.020648655e-12)
(-8.322608736e-14 -2.186620234e-13 -2.261189038e-12)
(-4.029314993e-14 -7.274997775e-13 -3.018943595e-12)
(-9.357316387e-14 -6.009331225e-13 -2.649315979e-12)
(-4.415188177e-14 -7.267760282e-13 -2.866342528e-12)
(1.340764179e-13 -9.193033146e-13 -3.674522514e-12)
(4.079958309e-14 -8.672716457e-13 -3.140881624e-12)
(1.482900699e-13 -1.028557344e-12 -3.480628143e-12)
(1.384940901e-14 2.235388712e-13 -3.557693235e-16)
(2.110592601e-14 8.882955385e-14 -1.415925901e-16)
(1.722818112e-14 1.008328901e-13 -1.60705666e-16)
(1.37149307e-14 2.586547531e-13 -4.123587242e-16)
(1.499071609e-14 1.111282464e-13 -1.768590643e-16)
(1.405859616e-14 1.193631256e-13 -1.896937781e-16)
(1.946672641e-14 2.765262136e-13 -4.401588048e-16)
(1.415511993e-14 1.253896249e-13 -1.996742561e-16)
(1.501053074e-14 1.291682453e-13 -2.056245227e-16)
(2.779675981e-14 2.780753952e-13 -4.426666545e-16)
(1.636367398e-14 1.307593183e-13 -2.079496086e-16)
(1.796691476e-14 1.302699555e-13 -2.072994387e-16)
(3.568743573e-14 2.65110938e-13 -4.217675669e-16)
(1.958129173e-14 1.278421081e-13 -2.034784372e-16)
(2.098142496e-14 1.236455503e-13 -1.969646959e-16)
(4.028192729e-14 2.400371186e-13 -3.8199136e-16)
(2.195097273e-14 1.178852807e-13 -1.877485126e-16)
(2.228546386e-14 1.108060047e-13 -1.765271766e-16)
(3.867087668e-14 2.063100855e-13 -3.290115904e-16)
(2.179932351e-14 1.027062511e-13 -1.6369503e-16)
(2.033634966e-14 9.397375251e-14 -1.496204521e-16)
(2.793469353e-14 1.707133777e-13 -2.719943828e-16)
(1.778657389e-14 8.511727793e-14 -1.354670541e-16)
(1.412032363e-14 7.683890323e-14 -1.223155034e-16)
(8.024234356e-15 1.486038521e-13 -2.398649924e-16)
(9.411521417e-15 7.006376914e-14 -1.116746334e-16)
(3.915001866e-15 6.559497554e-14 -1.045655131e-16)
(-2.478587526e-14 1.438542542e-13 -2.594687014e-16)
(-3.50829612e-15 6.346166575e-14 -1.019531976e-16)
(-1.343640164e-14 6.901072812e-14 -1.109052971e-16)
(2.683065185e-14 3.655577366e-14 -5.826641709e-17)
(4.329475429e-14 1.782971603e-14 -2.841142845e-17)
(2.685934335e-14 1.849099753e-14 -2.949012679e-17)
(1.621480305e-14 4.635541893e-14 -7.38115321e-17)
(1.852940725e-14 1.941264835e-14 -3.088634588e-17)
(1.39415598e-14 2.07386292e-14 -3.305224393e-17)
(1.216139815e-14 5.497295424e-14 -8.769549024e-17)
(1.120622531e-14 2.223471463e-14 -3.543209629e-17)
(9.49797296e-15 2.36096002e-14 -3.7581145e-17)
(1.116002668e-14 5.970630264e-14 -9.510995753e-17)
(8.436032475e-15 2.465556568e-14 -3.921018188e-17)
(7.810110902e-15 2.525846629e-14 -4.019929923e-17)
(1.168692881e-14 6.004547458e-14 -9.57792296e-17)
(7.475136052e-15 2.537409922e-14 -4.039752719e-17)
(7.317119613e-15 2.499833021e-14 -3.979116084e-17)
(1.247104345e-14 5.640365368e-14 -8.986197882e-17)
(7.235054596e-15 2.415721947e-14 -3.846767551e-17)
(7.136921864e-15 2.289823365e-14 -3.648632722e-17)
(1.241724109e-14 4.964059692e-14 -7.902974809e-17)
(6.944860015e-15 2.128459148e-14 -3.396598919e-17)
(6.597293651e-15 1.939438347e-14 -3.091791154e-17)
(1.070176724e-14 4.103929145e-14 -6.534479849e-17)
(6.044569016e-15 1.731238969e-14 -2.757221967e-17)
(5.257879754e-15 1.513524732e-14 -2.410261538e-17)
(6.976215023e-15 3.237818896e-14 -5.15855461e-17)
(4.239984363e-15 1.297343849e-14 -2.06555375e-17)
(3.020750752e-15 1.094806263e-14 -1.74153686e-17)
(1.503786135e-15 2.607180112e-14 -4.154113146e-17)
(1.655992961e-15 9.187509055e-15 -1.462172058e-17)
(1.747300369e-16 7.853574666e-15 -1.249369042e-17)
(-7.149085684e-15 2.541279283e-14 -4.051945188e-17)
(-1.602600589e-15 7.075705699e-15 -1.125596743e-17)
(-4.207968228e-15 7.318288326e-15 -1.166068695e-17)
(-2.941334342e-14 3.667274401e-14 -5.850149611e-17)
(-9.048060202e-15 8.723472042e-15 -1.386311542e-17)
(-1.921260841e-14 1.197274819e-14 -1.909123635e-17)
(-1.111399033e-13 7.097867038e-14 -1.128864589e-16)
(-4.201846773e-14 1.850607136e-14 -2.954271967e-17)
(-7.892154642e-14 2.833759501e-14 -4.49722777e-17)
(2.836044292e-14 8.525363578e-15 -1.357602601e-17)
(5.375674685e-14 -3.147062671e-16 5.725517933e-19)
(3.071934438e-14 1.215091328e-15 -1.990868691e-18)
(1.205916018e-14 8.499215857e-15 -1.355032187e-17)
(1.833456549e-14 1.826495328e-15 -2.895598602e-18)
(1.144587124e-14 1.989233867e-15 -3.177243672e-18)
(6.916844739e-15 8.579397678e-15 -1.366961241e-17)
(7.523121293e-15 1.945542342e-15 -3.096366162e-18)
(5.242826562e-15 1.819917786e-15 -2.896832072e-18)
(4.986779929e-15 8.575288948e-15 -1.36508857e-17)
(3.883349822e-15 1.664287213e-15 -2.645249843e-18)
(3.05037921e-15 1.494222705e-15 -2.377241825e-18)
(4.168594638e-15 8.029513057e-15 -1.280447473e-17)
(2.523978435e-15 1.30987463e-15 -2.085649729e-18)
(2.176188109e-15 1.108598829e-15 -1.763618234e-18)
(3.681950227e-15 6.869523309e-15 -1.093850939e-17)
(1.930269831e-15 8.904063953e-16 -1.415859126e-18)
(1.736667062e-15 6.579059282e-16 -1.048192745e-18)
(3.096572563e-15 5.263105657e-15 -8.371495284e-18)
(1.562165289e-15 4.160652517e-16 -6.636538166e-19)
(1.384378142e-15 1.716822166e-16 -2.727755235e-19)
(2.175633005e-15 3.494828171e-15 -5.568933175e-18)
(1.188959273e-15 -6.771114283e-17 1.086425983e-19)
(9.667738726e-16 -2.979793131e-16 4.729927424e-19)
(9.566513561e-16 1.934609668e-15 -3.084789834e-18)
(7.12293183e-16 -5.240728589e-16 8.336782861e-19)
(4.142797926e-16 -7.706016417e-16 1.226624056e-18)
(-2.892301994e-16 9.966816411e-16 -1.589456202e-18)
(2.633521544e-17 -1.083459494e-15 1.722996344e-18)
(-5.994140456e-16 -1.551997037e-15 2.470122949e-18)
(-2.946563732e-15 7.882591715e-16 -1.260633151e-18)
(-1.765424078e-15 -2.2935531e-15 3.646707998e-18)
(-4.0071232e-15 -3.409417023e-15 5.425983689e-18)
(-1.545394098e-14 9.809195018e-16 -1.582032259e-18)
(-8.376286996e-15 -5.055743656e-15 8.040548089e-18)
(-1.703301592e-14 -7.416419538e-15 1.180154567e-17)
(-7.113569562e-14 5.358526412e-15 -8.451768008e-18)
(-3.471434626e-14 -1.07320547e-14 1.710396256e-17)
(-7.339247203e-14 -1.533786277e-14 2.454444848e-17)
(3.288344122e-14 -5.395554976e-15 8.54646978e-18)
(5.908292458e-14 -1.513051277e-14 2.419705045e-17)
(3.444426897e-14 -1.213102133e-14 1.931678867e-17)
(1.211043407e-14 -3.012553233e-15 4.79616469e-18)
(2.106175197e-14 -1.009327012e-14 1.605425116e-17)
(1.354128902e-14 -8.747425937e-15 1.391353393e-17)
(5.304793092e-15 -2.117806666e-15 3.367439729e-18)
(9.212631159e-15 -7.926730896e-15 1.265153535e-17)
(6.666138517e-15 -7.512972333e-15 1.196610852e-17)
(2.955954088e-15 -1.884670819e-15 3.009645811e-18)
(5.132796014e-15 -7.412135053e-15 1.179489154e-17)
(4.188092101e-15 -7.548458964e-15 1.201339804e-17)
(2.138568783e-15 -2.030474641e-15 3.235566619e-18)
(3.594668734e-15 -7.863201204e-15 1.252728674e-17)
(3.214922336e-15 -8.314000897e-15 1.325039539e-17)
(1.857868845e-15 -2.47073752e-15 3.933722793e-18)
(2.961399777e-15 -8.872818852e-15 1.414168318e-17)
(2.769698588e-15 -9.521187312e-15 1.515296837e-17)
(1.684185848e-15 -3.185962507e-15 5.071944921e-18)
(2.586574447e-15 -1.024915714e-14 1.630765915e-17)
(2.362743236e-15 -1.105228195e-14 1.761386145e-17)
(1.31586469e-15 -4.184698506e-15 6.660745561e-18)
(2.047748402e-15 -1.193164479e-14 1.900803784e-17)
(1.587159004e-15 -1.289566888e-14 2.051750969e-17)
(4.210770512e-16 -5.54014102e-15 8.822250362e-18)
(9.197304489e-16 -1.396376084e-14 2.222431832e-17)
(-2.322091726e-17 -1.516279345e-14 2.414380898e-17)
(-1.627668973e-15 -7.567119443e-15 1.206046908e-17)
(-1.37788004e-15 -1.657996793e-14 2.638480591e-17)
(-3.324877887e-15 -1.832922519e-14 2.92047533e-17)
(-6.666649324e-15 -1.112645696e-14 1.77344608e-17)
(-6.131324709e-15 -2.055221687e-14 3.273071022e-17)
(-1.033963823e-14 -2.352393781e-14 3.742050511e-17)
(-2.150022262e-14 -1.826126615e-14 2.90859169e-17)
(-1.697839209e-14 -2.768724532e-14 4.410695462e-17)
(-2.816310972e-14 -3.376443135e-14 5.378847358e-17)
(-7.917934672e-14 -3.458079833e-14 5.516413269e-17)
(-4.84057474e-14 -4.300626275e-14 6.853941506e-17)
(-9.058334564e-14 -5.842666883e-14 9.31948444e-17)
(-5.511806105e-13 -1.128395392e-13 1.795725214e-16)
(-1.527421679e-13 -7.913370318e-14 1.257608333e-16)
(-5.972498798e-13 -1.807942737e-13 2.886159559e-16)
(3.517493796e-14 -1.94984308e-14 3.10691721e-17)
(5.700386595e-14 -3.071638583e-14 4.895865138e-17)
(3.515214579e-14 -2.822003269e-14 4.505844203e-17)
(1.518342702e-14 -1.64860565e-14 2.626377084e-17)
(2.340329486e-14 -2.721277386e-14 4.32842642e-17)
(1.663521086e-14 -2.740845793e-14 4.36447193e-17)
(8.326850074e-15 -1.639589669e-14 2.61007851e-17)
(1.243392375e-14 -2.845643822e-14 4.529142143e-17)
(9.646437521e-15 -3.002948583e-14 4.784123526e-17)
(5.497109809e-15 -1.780900959e-14 2.835127793e-17)
(7.714991637e-15 -3.187757275e-14 5.076286321e-17)
(6.351696502e-15 -3.383370382e-14 5.382160381e-17)
(4.178350029e-15 -1.983012729e-14 3.156708967e-17)
(5.385458369e-15 -3.579483566e-14 5.68807612e-17)
(4.694446504e-15 -3.77022625e-14 6.003875814e-17)
(3.451499028e-15 -2.207716798e-14 3.517277695e-17)
(4.17661103e-15 -3.952654138e-14 6.300696794e-17)
(3.737201174e-15 -4.125906082e-14 6.571058936e-17)
(2.727826459e-15 -2.444665249e-14 3.891966429e-17)
(3.286948056e-15 -4.290622187e-14 6.831982386e-17)
(2.737469277e-15 -4.448753952e-14 7.080984696e-17)
(1.462481235e-15 -2.700184785e-14 4.306934463e-17)
(1.997507663e-15 -4.604181079e-14 7.32633831e-17)
(9.691047962e-16 -4.762221216e-14 7.573754385e-17)
(-9.690661936e-16 -3.000988972e-14 4.78533158e-17)
(-4.485163685e-16 -4.932485015e-14 7.838240475e-17)
(-2.405618963e-15 -5.124654426e-14 8.147162164e-17)
(-5.674754354e-15 -3.423307906e-14 5.446976027e-17)
(-5.099663085e-15 -5.359870108e-14 8.5296404e-17)
(-8.779488835e-15 -5.653831069e-14 8.996298396e-17)
(-1.504712563e-14 -4.124712619e-14 6.567911462e-17)
(-1.387319623e-14 -6.042836318e-14 9.615352852e-17)
(-2.114824162e-14 -6.582420438e-14 1.048720235e-16)
(-3.708644261e-14 -5.536745056e-14 8.802810277e-17)
(-3.201856914e-14 -7.365279762e-14 1.174438573e-16)
(-4.928163192e-14 -8.555607262e-14 1.364524532e-16)
(-1.079541375e-13 -9.017633031e-14 1.434781614e-16)
(-7.863501551e-14 -1.043627416e-13 1.6644558e-16)
(-1.345909323e-13 -1.358065376e-13 2.163297813e-16)
(-6.535393808e-13 -2.669240518e-13 4.261641989e-16)
(-2.108695721e-13 -1.744919326e-13 2.78116342e-16)
(-7.310344082e-13 -3.825608932e-13 6.108633599e-16)
(3.456052123e-14 -3.969771604e-14 6.317936223e-17)
(5.016959009e-14 -5.386245694e-14 8.596681918e-17)
(3.34450768e-14 -5.659947657e-14 9.012462992e-17)
(1.752355733e-14 -4.345886535e-14 6.927935891e-17)
(2.372739947e-14 -6.168382666e-14 9.833467888e-17)
(1.72913512e-14 -6.80488114e-14 1.084971197e-16)
(1.017304519e-14 -5.051291171e-14 8.045915951e-17)
(1.26991713e-14 -7.487931139e-14 1.194256981e-16)
(9.356018686e-15 -8.165949125e-14 1.300448371e-16)
(6.425979956e-15 -5.784188009e-14 9.22534575e-17)
(6.961360474e-15 -8.807759735e-14 1.401639895e-16)
(5.314451405e-15 -9.396633686e-14 1.495819757e-16)
(4.576759762e-15 -6.425334819e-14 1.022988636e-16)
(4.244677265e-15 -9.922812285e-14 1.580169611e-16)
(3.587107178e-15 -1.038237121e-13 1.654292366e-16)
(3.564136637e-15 -6.944164752e-14 1.106042706e-16)
(3.178389938e-15 -1.077519821e-13 1.71546559e-16)
(2.853862496e-15 -1.110398878e-13 1.768653232e-16)
(2.416080988e-15 -7.353866575e-14 1.172031717e-16)
(2.449818455e-15 -1.137387642e-13 1.813020689e-16)
(1.801483325e-15 -1.159492078e-13 1.848294945e-16)
(1.468161661e-16 -7.70737846e-14 1.228242653e-16)
(7.31572339e-16 -1.178182053e-13 1.87591022e-16)
(-9.53880983e-16 -1.19549865e-13 1.904343133e-16)
(-4.362114992e-15 -8.116572699e-14 1.293720354e-16)
(-3.423695832e-15 -1.214413926e-13 1.937384869e-16)
(-6.948332362e-15 -1.238354957e-13 1.972511873e-16)
(-1.288724539e-14 -8.766113386e-14 1.398074488e-16)
(-1.18406692e-14 -1.271548824e-13 2.024378251e-16)
(-1.8510369e-14 -1.318938789e-13 2.099075241e-16)
(-2.934371008e-14 -1.000651861e-13 1.593815662e-16)
(-2.774845659e-14 -1.387494013e-13 2.208998181e-16)
(-4.092455383e-14 -1.49064709e-13 2.375594847e-16)
(-6.6668592e-14 -1.283670879e-13 2.043343798e-16)
(-6.062566509e-14 -1.649183491e-13 2.627148054e-16)
(-9.207245137e-14 -1.904878929e-13 3.030806555e-16)
(-1.766253874e-13 -2.044656247e-13 3.254429907e-16)
(-1.460466276e-13 -2.332531654e-13 3.713971408e-16)
(-2.392205963e-13 -3.048416041e-13 4.859005822e-16)
(7.341023516e-14 -7.005137069e-14 1.114620246e-16)
(6.383104975e-14 -9.709574976e-14 1.54594727e-16)
(3.13075891e-14 -8.406216047e-14 1.337484846e-16)
(4.084339838e-14 -1.126390905e-13 1.793361113e-16)
(2.645306967e-14 -1.323277044e-13 2.106376175e-16)
(1.494607734e-14 -1.074451895e-13 1.709245032e-16)
(1.620066845e-14 -1.533006671e-13 2.442369866e-16)
(8.633328404e-15 -1.740045997e-13 2.771870905e-16)
(6.326986019e-15 -1.305544945e-13 2.078545722e-16)
(3.194577801e-15 -1.93321951e-13 3.079459354e-16)
(-4.450931335e-16 -2.110133476e-13 3.362884396e-16)
(2.37759046e-15 -1.498892746e-13 2.386248108e-16)
(-2.573100729e-15 -2.268048875e-13 3.613038016e-16)
(-3.486161413e-15 -2.405797767e-13 3.830902782e-16)
(1.350027387e-15 -1.644736325e-13 2.62005395e-16)
(-3.459741047e-15 -2.522875768e-13 4.01838576e-16)
(-2.784328471e-15 -2.619137862e-13 4.168908281e-16)
(1.486938549e-15 -1.742400245e-13 2.776882691e-16)
(-1.772049961e-15 -2.694731622e-13 4.287553196e-16)
(-7.289802327e-16 -2.75025609e-13 4.378322221e-16)
(9.637468847e-16 -1.79769085e-13 2.859905033e-16)
(1.928956006e-17 -2.786856075e-13 4.435702445e-16)
(1.076705116e-16 -2.806709865e-13 4.468943039e-16)
(-2.224874095e-15 -1.827009157e-13 2.908343256e-16)
(-8.653249449e-16 -2.813420777e-13 4.480014851e-16)
(-3.372782078e-15 -2.813169969e-13 4.482998532e-16)
(-1.038110121e-14 -1.865607698e-13 2.97301477e-16)
(-7.86950943e-15 -2.814755661e-13 4.485560305e-16)
(-1.497875489e-14 -2.831704688e-13 4.507436355e-16)
(-2.672483879e-14 -1.970405079e-13 3.139187371e-16)
(-2.536629367e-14 -2.881210994e-13 4.585844577e-16)
(-3.973005483e-14 -2.979874174e-13 4.742455272e-16)
(-5.855028196e-14 -2.228052133e-13 3.544680355e-16)
(-5.98381397e-14 -3.140674444e-13 4.994672437e-16)
(-8.842904079e-14 -3.416191755e-13 5.440828611e-16)
(-1.298739169e-13 -2.870591799e-13 4.574814179e-16)
(-1.30212734e-13 -3.822395135e-13 6.093497642e-16)
(-1.938874056e-13 -4.472726515e-13 7.123597665e-16)
(-2.933382433e-13 -4.377802059e-13 6.977357218e-16)
(-2.920772514e-13 -5.443159433e-13 8.662989868e-16)
(-4.702236429e-13 -7.253639281e-13 1.153784391e-15)
(5.27409533e-14 -1.512411162e-13 2.411496533e-16)
(3.076438736e-14 -2.744286157e-13 4.366855369e-16)
(1.477581251e-14 -2.234781965e-13 3.562757581e-16)
(5.6562161e-15 -3.425556729e-13 5.458060294e-16)
(-1.314390552e-14 -4.085296625e-13 6.506562526e-16)
(-5.294463254e-15 -2.93576348e-13 4.671896154e-16)
(-2.593096841e-14 -4.694900023e-13 7.475616056e-16)
(-3.433883995e-14 -5.248499524e-13 8.360120596e-16)
(-1.38307066e-14 -3.523913749e-13 5.604334252e-16)
(-3.874377818e-14 -5.747715333e-13 9.156440034e-16)
(-3.989282153e-14 -6.188876567e-13 9.874396837e-16)
(-1.439920483e-14 -3.978795299e-13 6.34377422e-16)
(-3.83418761e-14 -6.572782441e-13 1.048157776e-15)
(-3.464577382e-14 -6.899321987e-13 1.098025959e-15)
(-1.006781234e-14 -4.295292898e-13 6.84572471e-16)
(-2.933479784e-14 -7.168423473e-13 1.140221309e-15)
(-2.294801111e-14 -7.379685785e-13 1.174216705e-15)
(-4.110203222e-15 -4.473213789e-13 7.124026346e-16)
(-1.603044169e-14 -7.532830154e-13 1.198931877e-15)
(-9.217815898e-15 -7.62695951e-13 1.214993874e-15)
(-2.605189821e-16 -4.519877614e-13 7.196532013e-16)
(-3.195644976e-15 -7.663274253e-13 1.221464511e-15)
(1.183465359e-15 -7.642818913e-13 1.219422522e-15)
(-3.464372914e-15 -4.467450674e-13 7.116285326e-16)
(2.811703334e-15 -7.569343248e-13 1.206169511e-15)
(3.273867892e-16 -7.453501467e-13 1.185727684e-15)
(-2.076695918e-14 -4.421478392e-13 7.053883148e-16)
(-8.13602802e-15 -7.317073393e-13 1.164723773e-15)
(-2.527731601e-14 -7.215235565e-13 1.147851095e-15)
(-6.131642335e-14 -4.646175221e-13 7.40108546e-16)
(-5.367162359e-14 -7.255640969e-13 1.153879341e-15)
(-9.421136896e-14 -7.505134369e-13 1.182585185e-15)
(-1.416938507e-13 -5.446982211e-13 8.593944507e-16)
(-1.510427606e-13 -7.799234677e-13 1.085928321e-15)
(-2.19763406e-13 -8.279351104e-13 1.158771828e-15)
(0.02473920242 -0.01072507438 -0.1944736518)
(0.3811995148 -0.3693056612 -2.400046364)
(7.599535577e-12 -5.004554283e-13 -9.078495079e-12)
(-0.3100799903 -0.6224730176 -4.032267547)
(4.531176153e-10 -3.857784605e-12 -2.131940973e-11)
(7.756610893e-14 -4.877724279e-13 -9.059014418e-12)
(-1.669020373e-13 -1.942565994e-12 -1.259799338e-11)
(1.358121113e-13 -1.938469678e-12 -1.253835801e-11)
(4.590769704e-13 -4.635901171e-13 -8.831666549e-12)
(4.171419151e-13 -1.913624405e-12 -1.23972993e-11)
(6.888572574e-13 -1.872762785e-12 -1.217298745e-11)
(7.980964459e-13 -4.200367534e-13 -8.366515783e-12)
(9.400951687e-13 -1.828781735e-12 -1.187141184e-11)
(1.174581073e-12 -1.790331453e-12 -1.149337761e-11)
(1.074660496e-12 -3.837840873e-13 -7.692212029e-12)
(1.389701921e-12 -1.737283605e-12 -1.104280273e-11)
(1.584815045e-12 -1.659543482e-12 -1.053509189e-11)
(1.27196834e-12 -3.475549041e-13 -6.825446229e-12)
(1.750665529e-12 -1.550385115e-12 -9.970552465e-12)
(1.887304021e-12 -1.450162419e-12 -9.341127804e-12)
(1.360054394e-12 -2.474914361e-13 -5.827962957e-12)
(2.001027429e-12 -1.358701539e-12 -8.651287331e-12)
(2.090133506e-12 -1.223737935e-12 -7.944704046e-12)
(1.233336097e-12 4.546448133e-15 -5.004996005e-12)
(2.085165027e-12 -9.306551179e-13 -7.229908509e-12)
(2.177926428e-12 -6.542581354e-13 -6.967580216e-12)
(1.735777923e-12 -3.600626764e-13 -6.026805986e-12)
(1.54627144e-12 -2.307107849e-13 -5.881402824e-12)
(1.138501962e-12 -1.07799536e-13 -4.899133192e-12)
(9.416061102e-13 -8.491638893e-14 -4.828488702e-12)
(3.321641314e-14 -2.111443806e-13 -2.556349203e-12)
(3.626164239e-13 -6.351274791e-13 -4.234579233e-12)
(0.4597564075 -0.8141750806 -3.196688207)
(8.211984065e-09 -4.213924311e-10 -1.567169114e-09)
(2.394323308e-13 -3.942720282e-12 -1.571436169e-11)
(9.863426101e-13 -3.842093022e-12 -1.515565195e-11)
(1.651873431e-12 -3.601174653e-12 -1.425368931e-11)
(2.196545983e-12 -3.256579034e-12 -1.304655637e-11)
(2.645554072e-12 -2.928919705e-12 -1.157017187e-11)
(3.091229841e-12 -2.507045652e-12 -9.978641469e-12)
(0.3928273108 -1.324410629 -3.446039307)
(-0.3760533787 -1.771157531 -4.611784712)
(1.44376252e-12 -7.382666494e-12 -1.90504421e-11)
(1.8540993e-12 -7.140200247e-12 -1.842836426e-11)
(2.244310385e-12 -6.88760064e-12 -1.771471076e-11)
(2.615216885e-12 -6.59715356e-12 -1.696657487e-11)
(3.905234354e-12 -4.627202166e-12 -1.205349796e-11)
(1.921833934e-12 -1.634231227e-12 -7.235794668e-12)
(3.966669564e-12 -3.748632546e-12 -1.059957526e-11)
(5.132625739e-12 -4.023280581e-12 -1.239925312e-11)
(3.071583343e-12 -1.199724815e-12 -8.509547502e-12)
(5.032509341e-12 -3.295404821e-12 -1.184578127e-11)
(2.433827516e-12 -8.244689627e-13 -7.574677097e-12)
(4.721917701e-12 -2.338430123e-12 -1.100067712e-11)
(3.868641025e-12 -1.713655009e-12 -9.868748402e-12)
(0.1389297461 -1.885721233 -3.583081653)
(0.2885786306 -0.7654914135 -1.460155936)
(9.143670798e-06 -9.709545989e-06 -1.858288055e-05)
(0.6163926039 -1.096940266 -1.599539683)
(0.2101777739 -0.239446492 -0.3488225015)
(2.245515064e-12 -1.280564272e-11 -2.454766002e-11)
(0.002649671941 -0.002049391533 -0.002994578373)
(3.40809427e-12 -1.182604722e-11 -2.267853187e-11)
(4.411419583e-12 -1.08461636e-11 -2.062424491e-11)
(5.282185728e-12 -1.622849012e-11 -2.373488473e-11)
(5.845170331e-12 -1.537199385e-11 -2.246681138e-11)
(5.300956052e-12 -9.590562737e-12 -1.831152968e-11)
(6.394644833e-12 -1.450031985e-11 -2.121967267e-11)
(6.921871185e-12 -1.360564513e-11 -1.992087311e-11)
(6.252283309e-12 -8.220570942e-12 -1.578957184e-11)
(7.225616383e-12 -5.671047377e-12 -1.383356303e-11)
(7.793232017e-12 -5.521230261e-12 -1.533220558e-11)
(1.070178409e-11 -8.243463041e-12 -1.670984093e-11)
(7.280558112e-12 -3.845618688e-12 -1.409922957e-11)
(1.039235473e-11 -6.723556428e-12 -1.661602433e-11)
(6.993876742e-12 -5.305333217e-12 -1.245636883e-11)
(9.041636069e-12 -5.399025398e-12 -1.470471562e-11)
(-0.8789295635 -3.195485839 -3.490838783)
(1.726477334 -2.146408258 -1.730299456)
(0.1330500102 -0.08582670034 -0.09300106775)
(1.872682998 -1.701399029 -1.379303438)
(0.0003033608902 -0.0001080561707 -8.722647196e-05)
(1.363823519e-10 -2.971228131e-09 -2.402696159e-09)
(9.678927199e-12 -2.071954952e-11 -2.251387921e-11)
(1.228671483e-11 -3.081298392e-11 -2.489702422e-11)
(1.311519073e-11 -2.790897576e-11 -2.257687255e-11)
(1.131552268e-11 -1.797414213e-11 -1.968398932e-11)
(1.407498145e-11 -2.607864984e-11 -2.108308339e-11)
(1.238539086e-11 -1.285647929e-11 -1.740624736e-11)
(1.734625814e-11 -1.910968411e-11 -1.957391305e-11)
(2.18750658e-11 -1.330512368e-11 -1.961408638e-11)
(1.299942922 -3.287018094 -1.610513458)
(2.592806914 -2.29040853 -1.129392394)
(2.625148744 -0.6942240208 -0.3424375454)
(2.696249925e-11 -2.559681696e-11 -1.811141628e-11)
(2.841015501e-11 -2.123611353e-11 -1.740462085e-11)
(-3.712659116e-14 1.912017698e-12 -3.046994847e-15)
(-3.495856245e-08 -1.18219729e-09 -7.305089672e-07)
(1.245386409e-14 1.921650658e-12 -3.069252378e-15)
(-7.125283441e-14 -1.127687579e-14 -7.058848819e-12)
(7.155194491e-14 1.954784211e-12 -3.109852868e-15)
(1.749589213e-13 -1.11686754e-14 -7.064573776e-12)
(1.299673233e-13 1.903490029e-12 -3.031860874e-15)
(4.083122799e-13 -1.069340036e-14 -6.837343427e-12)
(1.782150025e-13 1.776684601e-12 -2.828176377e-15)
(6.081729172e-13 -9.895034354e-15 -6.403508921e-12)
(2.064309858e-13 1.584581615e-12 -2.529052807e-15)
(7.573902293e-13 -8.831200075e-15 -5.794916493e-12)
(2.008867708e-13 1.337423206e-12 -2.127655089e-15)
(8.446744954e-13 -7.603173933e-15 -5.057970172e-12)
(1.352668771e-13 1.093309278e-12 -1.725315186e-15)
(8.631205684e-13 7.457676442e-14 -4.300048819e-12)
(6.171413694e-13 2.102178236e-13 -3.23127977e-12)
(8.26939503e-14 1.064855047e-12 -2.705674005e-15)
(6.510608934e-13 1.718017867e-13 -3.33519887e-12)
(1.724167318e-14 1.996460714e-13 -3.180479988e-16)
(1.284019185e-14 2.432719935e-13 -3.877334249e-16)
(1.60662907e-14 2.69706257e-13 -4.292410561e-16)
(2.350268066e-14 2.792396039e-13 -4.446989513e-16)
(3.197661821e-14 2.732723228e-13 -4.346243097e-16)
(3.857519343e-14 2.539062517e-13 -4.041172649e-16)
(4.043939195e-14 2.239645151e-13 -3.568859588e-16)
(3.459832175e-14 1.880138535e-13 -2.998306456e-16)
(1.880546487e-14 1.572277786e-13 -2.50556846e-16)
(-7.943362365e-15 1.415876948e-13 -2.525083868e-16)
(-4.779362965e-14 1.830672561e-13 -2.997979986e-16)
(1.510120413e-13 1.065654691e-13 -2.31180662e-12)
(-2.276571323e-13 4.082828843e-13 -6.505253722e-16)
(2.086422991e-13 1.586303736e-13 -2.414872301e-12)
(3.917670833e-14 3.288507196e-14 -5.231825187e-17)
(2.021967002e-14 4.129837634e-14 -6.575049093e-17)
(1.368463824e-14 5.105392877e-14 -8.134386669e-17)
(1.138532842e-14 5.788816013e-14 -9.234459033e-17)
(1.131467279e-14 6.041342978e-14 -9.637437691e-17)
(1.212000589e-14 5.867637761e-14 -9.3613078e-17)
(1.260926861e-14 5.334335157e-14 -8.489834063e-17)
(1.180244826e-14 4.547223099e-14 -7.239129916e-17)
(9.087043591e-15 3.657973764e-14 -5.829613973e-17)
(4.419397732e-15 2.875459825e-14 -4.581525454e-17)
(-2.177925111e-15 2.449404697e-14 -3.903603517e-17)
(-1.493840909e-14 2.868196663e-14 -4.570150835e-17)
(-5.704175626e-14 4.959831194e-14 -7.90021599e-17)
(5.478744759e-14 2.05239668e-14 -2.20431171e-12)
(-2.770932231e-14 -5.020014223e-14 -2.139676734e-12)
(-3.715300597e-13 1.759585866e-13 -2.808808973e-16)
(4.868885708e-14 7.891058623e-15 -1.259702702e-17)
(1.778122626e-14 8.557425333e-15 -1.359984789e-17)
(8.829848487e-15 8.51145889e-15 -1.355387467e-17)
(5.736152168e-15 8.626194588e-15 -1.374987246e-17)
(4.500153815e-15 8.382204572e-15 -1.336520014e-17)
(3.915428265e-15 7.519469185e-15 -1.198386423e-17)
(3.421617405e-15 6.106526856e-15 -9.715774582e-18)
(2.682712718e-15 4.377135021e-15 -6.969274973e-18)
(1.589388824e-15 2.664119611e-15 -4.245798316e-18)
(3.306640036e-16 1.362962261e-15 -2.17176377e-18)
(-1.147771221e-15 8.263080567e-16 -1.317240563e-18)
(-6.926260492e-15 7.911630679e-16 -1.250733793e-18)
(-3.363021734e-14 1.848264265e-15 -2.96614648e-18)