/*--------------------------------*- C++ -*----------------------------------*\
  =========                 |
  \\      /  F ield         | OpenFOAM: The Open Source CFD Toolbox
   \\    /   O peration     | Website:  https://openfoam.org
    \\  /    A nd           | Version:  8
     \\/     M anipulation  |
\*---------------------------------------------------------------------------*/
FoamFile
{
    version     2.0;
    format      ascii;
    class       volScalarField;
    location    "1.9";
    object      alphat;
}
// * * * * * * * * * * * * * * * * * * * * * * * * * * * * * * * * * * * * * //

dimensions      [1 -1 -1 0 0 0 0];

internalField   nonuniform List<scalar> 
67286
(
0.0002927115174
0.0003145267333
0.000293659036
0.0002672414651
0.0002304227225
0.0001867319132
0.0001711392282
0.0001902769431
0.0002165505175
0.0002413209627
0.0002634352395
0.0002833225983
0.0003015446278
0.0003180426212
0.0003309881323
0.0003402435884
0.0003463628021
0.0003505413799
0.0003562754368
0.0003683367147
0.0003459046704
0.000326624262
0.0003099813132
0.0002966551593
0.0002830043623
0.0002679254764
0.0002561214895
0.0002670907405
0.0002653401423
0.000278265842
0.0002574982375
0.0002363939849
0.0002053798348
0.0001668706893
0.0001662506857
0.0001863701955
0.0002123595218
0.0002390545464
0.0002633598301
0.0002850001864
0.0003045236814
0.0003206981117
0.0003330204769
0.0003420102337
0.0003487075217
0.0003533902579
0.000356589832
0.0003590211305
0.0003483465036
0.0003314493674
0.0003110525951
0.0002920140098
0.0002748186794
0.0002581264554
0.0002432028664
0.0002411183362
0.0002364319505
0.0002259849545
0.0002156202913
0.0002080215129
0.0002444327851
0.0002429350921
0.0002264349674
0.0002144279546
0.0001863952433
0.0001623492651
0.0001694349252
0.0001902579923
0.0002052989936
0.0002301682864
0.0002560115874
0.0002801995026
0.000302192478
0.0003188055291
0.0003294021383
0.0003362116321
0.0003429398391
0.0003487507941
0.0003526065899
0.0003540794324
0.0003494392178
0.0003308982673
0.0003061490438
0.0002843577557
0.0002650363727
0.0002475649484
0.0002352856197
0.0002300271937
0.0002295244115
0.0002317133448
0.0002332945557
0.0002324983793
0.0002135979442
0.000219583265
0.0002151047232
0.0002028641572
0.0001805035249
0.0001743691377
0.0002057063787
0.000260664592
0.0002228235194
0.000219584725
0.000244894901
0.0002709287646
0.0002950022311
0.0003118013658
0.0003195820826
0.0003220346769
0.0003281067419
0.000334677864
0.0003387686672
0.0003390984293
0.000333369404
0.0003094055964
0.0002844691609
0.0002627359515
0.0002502703214
0.0002463942489
0.0002512672991
0.0002600385354
0.0002691278591
0.0002753330017
0.0002767475969
0.0002734088106
0.0002659865078
0.0002031795249
0.0002370434034
0.0002355451657
0.0002178531801
0.0001966546067
0.0002211486457
0.0003244000913
0.0004350144545
0.0003460936023
0.0002186439492
0.0002251112828
0.0002475198214
0.0002683281677
0.0002871956831
0.0003009116571
0.0003086340409
0.0003112034071
0.0003087331483
0.0003125784126
0.0003091738781
0.0002967879385
0.0002741398604
0.0002535803493
0.0002489571959
0.0002560612362
0.0002690241909
0.0002869872691
0.0003024043553
0.0003127596723
0.0003169980243
0.0003153759133
0.0003089558044
0.0002984479561
0.0002167580059
0.0002553438556
0.0002506735774
0.000232890937
0.0002665732071
0.0004079858845
0.0005958203907
0.0007829577302
0.000663420226
0.0003524377028
0.0002079206867
0.0002229594035
0.0002402489202
0.0002550846423
0.0002667797905
0.0002754553258
0.0002820166467
0.0002859777805
0.00028824677
0.0002802652594
0.0002600521792
0.0002512159679
0.0002584657438
0.0002702144678
0.0002847665683
0.0003027623625
0.0003243845426
0.0003407251079
0.0003498048653
0.0003512664572
0.0003467493359
0.0003377285362
0.0003249129276
0.0002185236084
0.0002557395728
0.0002499206442
0.0002259617922
0.0002053346626
0.0002306244538
0.0003358456896
0.0004614817624
0.00032451019
0.0002009644562
0.000201187441
0.000210106851
0.0002198331115
0.000229350981
0.0002379865324
0.0002455343664
0.0002518077683
0.0002560203581
0.0002587054492
0.0002612389889
0.0002668219872
0.0002749221171
0.0002844055369
0.0002962752507
0.0003120351471
0.0003327012463
0.0003564028529
0.0003731926541
0.000380717597
0.0003801146029
0.0003735003539
0.000362374429
0.0003477645105
0.0002139642177
0.0002436850794
0.0002361787947
0.0002182250646
0.0002056596925
0.0002027234043
0.0002221862846
0.0002736796102
0.0002116390566
0.0002008577515
0.0002098570978
0.0002196251656
0.0002290589371
0.0002379608256
0.0002462310454
0.0002539684041
0.0002614187081
0.0002687970323
0.0002762188695
0.0002837489655
0.0002919004403
0.0002990314959
0.0003065152973
0.0003183272036
0.0003358381509
0.0003581060099
0.0003803178185
0.0003970101011
0.000404436744
0.0004029355639
0.0003949805791
0.0003821252213
0.0003660725238
0.0002060488149
0.0002293932011
0.0002243311793
0.00021687141
0.0002128381647
0.0002075443231
0.0002020269936
0.0002049039901
0.0002026574289
0.0002116634857
0.0002225950723
0.0002339401448
0.0002449919807
0.0002553265188
0.0002648756227
0.0002739298863
0.0002832216592
0.0002918901451
0.0002997758982
0.0003065177462
0.0003117445297
0.0003157849846
0.0003210619841
0.0003326651806
0.0003514117019
0.0003745137925
0.0003964076732
0.0004123346356
0.0004194945886
0.0004170293512
0.0004082928559
0.0003945256357
0.0003777487863
0.000195936659
0.0002164369601
0.0002169572608
0.0002175531158
0.0002168467484
0.0002114770286
0.0002049843451
0.0002038719935
0.0002100508811
0.0002209214581
0.000233313196
0.0002461164334
0.0002584450416
0.0002698375682
0.0002805518363
0.0002898955766
0.00029816082
0.0003055821985
0.0003120998893
0.0003174191704
0.0003212721853
0.000324059528
0.0003285087037
0.0003403481277
0.0003596859122
0.0003822434751
0.0004030899696
0.0004178719357
0.0004233243593
0.000420037477
0.0004112876264
0.0003976732263
0.0003810902863
0.0001846997018
0.0002071573417
0.0002132549982
0.0002172918761
0.0002169371095
0.0002118066114
0.0002072326533
0.0002088908629
0.0002171428867
0.0002290749875
0.0002425027503
0.0002564261758
0.0002699024576
0.0002816240794
0.000291442205
0.0002997586664
0.0003070104203
0.0003133864412
0.0003187622274
0.0003228578495
0.000325560261
0.0003273020888
0.0003307728163
0.0003419360124
0.0003605098245
0.0003813707672
0.0003996976242
0.0004124129096
0.0004162473721
0.0004131851979
0.0004050275944
0.0003924264897
0.0003768614501
0.0001744066848
0.0002013448388
0.0002105786832
0.0002151646005
0.0002146536188
0.0002109648395
0.0002094560863
0.0002139310354
0.0002237814187
0.00023686138
0.0002515427269
0.0002659276845
0.0002787622148
0.0002896707682
0.000298696967
0.0003061150663
0.0003121841157
0.000317004205
0.0003205581125
0.0003227929885
0.000323277464
0.0003222937399
0.0003240065265
0.0003332515002
0.0003494368051
0.0003684984616
0.0003864918407
0.0004003829128
0.000404380641
0.0004010139786
0.000392380132
0.0003794976085
0.0003641292274
0.0001676188335
0.0001977600385
0.0002078328702
0.0002121906682
0.0002124253018
0.0002117398704
0.0002144194585
0.0002221554994
0.0002337664713
0.0002475464022
0.0002613482265
0.000273821871
0.0002847441357
0.0002941242321
0.000302037541
0.0003085352517
0.0003136422932
0.0003174980256
0.0003206691313
0.0003238640226
0.0003231077182
0.0003173474936
0.0003175166087
0.0003253294076
0.0003399733146
0.0003581999644
0.0003760449185
0.0003898953557
0.0003927590117
0.000388282511
0.0003792739566
0.0003668240832
0.00035233328
0.0001646265095
0.0001957644775
0.0002058002535
0.0002102701538
0.0002116870998
0.0002129989283
0.0002171590238
0.000225321593
0.0002368067268
0.0002502494966
0.0002632580606
0.0002748068801
0.0002849135155
0.0002937747956
0.0003015213554
0.0003081604716
0.0003138828711
0.0003205404755
0.0003363215446
0.0003768396315
0.0003662823822
0.0003167904665
0.0003126683815
0.0003186701217
0.0003318207957
0.000349136732
0.0003670114149
0.0003805240461
0.0003821301519
0.0003761302764
0.0003665329301
0.0003543686678
0.0003406411786
0.000164063361
0.0001953821256
0.0002054342828
0.0002103012109
0.0002124807181
0.0002142524764
0.0002180048333
0.0002252290213
0.0002358994546
0.0002488849784
0.000261786843
0.0002732452635
0.0002832129163
0.0002919511869
0.0002996235649
0.0003061377868
0.0003114012212
0.0003171359417
0.0003367041695
0.0004245191172
0.000333523564
0.0003089089014
0.0003071650986
0.0003133291131
0.0003259262302
0.0003430102976
0.0003612616036
0.000373706506
0.0003741222375
0.0003660297483
0.0003550733478
0.000342380071
0.0003285881251
0.0001648542247
0.000196325014
0.0002065209183
0.0002116952859
0.0002140337975
0.0002153044864
0.0002177538885
0.0002233400693
0.0002326229886
0.0002447304927
0.0002576754075
0.0002694215904
0.0002796138444
0.0002884423601
0.0002960674741
0.0003023289474
0.0003067994809
0.0003094285716
0.0003129026627
0.0003279294817
0.0003090285256
0.0003009998035
0.0003022582787
0.0003098153304
0.0003238387082
0.0003432227246
0.0003642024865
0.0003777632087
0.0003721299983
0.0003594113652
0.0003451905233
0.00033034913
0.0003149804102
0.0001661708678
0.0001977818931
0.0002081010529
0.0002134081167
0.000215597152
0.0002160478927
0.0002169327352
0.0002205697698
0.0002280130332
0.0002386885781
0.0002511647559
0.0002632236944
0.0002738144236
0.0002828772112
0.000290503598
0.0002965227715
0.0003004422343
0.0003018184004
0.000301196836
0.0003010210214
0.0002964972136
0.0002946495782
0.0002986092012
0.0003093758764
0.0003282738329
0.0003538155136
0.0003794789976
0.0003944584448
0.0003806031826
0.0003597660249
0.000338857111
0.0003188379411
0.000299451142
0.0001672389954
0.0001988763849
0.0002092564104
0.0002146038659
0.0002166038569
0.0002162919013
0.000215732386
0.0002174289277
0.0002227874641
0.0002316088058
0.0002426587166
0.0002545029733
0.0002654629979
0.000274866599
0.0002825939522
0.0002884611737
0.0002920305747
0.0002928893714
0.00029141662
0.0002893072701
0.0002877162003
0.0002890328071
0.0002960086796
0.0003112699372
0.0003360509278
0.0003664332073
0.0003929252898
0.0004048211684
0.0003887176338
0.0003618239786
0.0003335373882
0.0003071157863
0.0002836829006
0.0001674548773
0.0001989661334
0.000209374528
0.0002147318442
0.0002165887244
0.0002157244877
0.0002140540836
0.0002140792446
0.0002173800282
0.0002240859028
0.0002333083055
0.0002437992543
0.0002543727003
0.0002640032876
0.0002719274206
0.0002778324738
0.000281351599
0.0002821695957
0.0002808837405
0.0002792851229
0.0002794042057
0.0002830041606
0.0002927212882
0.0003117259142
0.000340061536
0.0003715203198
0.0003960058505
0.0004046787609
0.0003875031761
0.0003565701078
0.0003227816498
0.0002921296931
0.0002687074904
0.0001664317925
0.0001976725574
0.0002081107205
0.0002134636863
0.0002152112451
0.0002140751542
0.0002118019783
0.0002107360138
0.00021243917
0.0002171470908
0.0002242325128
0.0002328222546
0.0002419782947
0.0002507453965
0.0002583024265
0.0002642560903
0.0002681708301
0.0002694710825
0.0002690380907
0.0002686067592
0.0002701284874
0.0002751924028
0.0002864305958
0.0003070267269
0.0003360236676
0.0003662361062
0.0003883578198
0.0003952721818
0.0003741313054
0.0003400636431
0.0003085118739
0.0002823692373
0.0002822945704
0.0001639310392
0.0001947712047
0.0002052733987
0.0002106780805
0.0002124503505
0.0002114127311
0.0002092831436
0.0002083945884
0.0002102743403
0.0002147659785
0.0002205978876
0.0002265779321
0.0002322775518
0.0002379023815
0.0002436010272
0.0002491092648
0.0002536904721
0.0002558061307
0.0002566644153
0.0002574932095
0.000259957614
0.0002654748743
0.0002765253457
0.0002960262431
0.000323275456
0.0003513610539
0.0003715275564
0.0003774421764
0.0003505319257
0.0003202214253
0.0003108512303
0.0003048469341
0.0003454376964
0.000159845743
0.0001901697677
0.000200820228
0.0002064592443
0.0002086463214
0.0002086856012
0.0002090890668
0.0002128971079
0.0002211276726
0.0002314386623
0.0002396720464
0.0002423307013
0.0002392553987
0.000234659551
0.000233278327
0.0002356518331
0.000239200166
0.0002415356755
0.0002434822872
0.0002453154481
0.0002483832697
0.0002536563652
0.000263258048
0.0002799824762
0.0003036228406
0.0003288837052
0.0003474414526
0.0003516845438
0.0003271049702
0.0003178346912
0.000332763666
0.0003440611421
0.0003822289957
0.0001542342186
0.0001838659501
0.0001947263386
0.0002008059957
0.0002038351382
0.0002058306823
0.0002103814965
0.0002207873454
0.0002365362229
0.0002535106458
0.0002664426463
0.0002707234266
0.0002665787084
0.0002618886866
0.0002640200112
0.0002609814212
0.0002326769003
0.0002292386241
0.0002305483387
0.0002326585186
0.0002361230811
0.0002408509348
0.0002483369951
0.0002611659243
0.0002803591332
0.0003022998274
0.0003197858347
0.0003253880726
0.000315501742
0.0003283021401
0.0003499188247
0.0003675995769
0.0003991104073
0.0001474624757
0.0001760354922
0.0001870014451
0.0001935966492
0.0001976304238
0.0002015747478
0.00020952598
0.0002244006814
0.0002444817832
0.0002656222215
0.0002854235051
0.0003074559935
0.0003446115396
0.0004017583043
0.0004536192366
0.0004450678698
0.0002746346105
0.0002264915925
0.000221107342
0.0002225672228
0.0002265325981
0.0002308059907
0.0002359950414
0.000244250122
0.0002578573471
0.0002761128099
0.0002937622837
0.0003048971427
0.0003118164781
0.000334607106
0.0003562965012
0.0003761739512
0.0004041013935
0.0001402911161
0.0001672382214
0.0001778549134
0.0001847542678
0.000189647777
0.0001949388371
0.0002044878577
0.0002207943796
0.0002419070251
0.000264098861
0.0002877861887
0.0003211555349
0.0003750655039
0.0004448607277
0.0005048248481
0.0005114091869
0.0003134959316
0.0002356887425
0.0002193831459
0.000220755744
0.0002255450728
0.0002293355141
0.0002318180389
0.0002348396356
0.0002415991692
0.0002544243096
0.0002716702185
0.0002889673247
0.0003065572398
0.0003319361733
0.0003533445294
0.0003741867936
0.0003997229575
0.0001335655092
0.0001584451795
0.000167910999
0.0001744606903
0.0001797847692
0.0001858604086
0.0001957024922
0.0002112853762
0.0002310394173
0.0002515725644
0.0002726477333
0.0003014262637
0.0003488838674
0.0004121556258
0.0004697407256
0.0004810895977
0.0002907283192
0.0002349980644
0.0002250640819
0.0002289814931
0.0002350974817
0.0002381578235
0.0002373633901
0.0002346906354
0.000234235971
0.0002398870402
0.0002532327217
0.0002728988608
0.0002957955206
0.0003212760307
0.0003431475719
0.0003645059626
0.0003876775808
0.0001274189558
0.0001503555049
0.0001580318533
0.0001632498441
0.0001681852536
0.0001745914409
0.0001844179683
0.0001986676202
0.0002160706165
0.0002338679244
0.0002508148186
0.0002707881776
0.0003028792315
0.000349986213
0.0003960457975
0.0004021970318
0.0002591193575
0.0002354810395
0.0002341226643
0.0002412155692
0.0002483946965
0.0002506064367
0.0002466361255
0.0002389368392
0.0002328701682
0.000232191286
0.0002383796794
0.0002543189678
0.0002780880073
0.0003042062218
0.0003270755659
0.0003485752394
0.0003694073319
0.0001208214103
0.00014242071
0.0001484258837
0.0001516740505
0.0001552252329
0.000161310416
0.0001712537314
0.0001847644074
0.0002001516125
0.0002152637586
0.0002287207702
0.0002416950058
0.000259514906
0.0002874280744
0.0003181874748
0.0003213307085
0.00024049944
0.0002357444729
0.0002402998333
0.0002490885932
0.0002560314944
0.0002571012922
0.0002510717318
0.0002406760094
0.0002319856784
0.0002280822877
0.000227572749
0.0002346832775
0.0002535767712
0.000279085166
0.0003030856801
0.0003247225446
0.00034516059
0.0001115699503
0.0001325116784
0.0001375425656
0.0001391573536
0.0001410744203
0.0001463386173
0.0001562777771
0.0001695825594
0.0001837508961
0.0001968044085
0.0002077388738
0.000216728863
0.0002258304717
0.0002384303908
0.0002534696747
0.000255768723
0.0002264510293
0.0002298779028
0.0002370294878
0.0002458153446
0.0002516591553
0.0002517236753
0.0002450898145
0.0002343537631
0.0002257903045
0.0002214211949
0.0002174753127
0.0002158417653
0.0002245369779
0.0002442889632
0.000266987257
0.0002877647066
0.0003096882823
9.703705842e-05
0.0001154024674
0.0001197468155
0.0001209918726
0.0001230859102
0.000129064737
0.0001391806958
0.0001512701254
0.0001631451137
0.0001734772096
0.0001817035013
0.000187869879
0.0001926736078
0.0001973662866
0.0002024147762
0.0002044990634
0.0002006303159
0.0002064243231
0.0002135038593
0.0002206154092
0.0002246183792
0.0002238320794
0.0002178505615
0.0002090453813
0.0002026646519
0.0001987705831
0.0001936137141
0.0001874450481
0.0001876601156
0.0001960546952
0.0002103831649
0.0002253314662
0.0002467016735
0.000244996809
0.0005415549689
0.00058940111
0.0005643403766
0.0004711175315
0.0003716577352
0.0003290350125
0.0003568343821
0.0004463964144
0.0005883625179
0.0007690938907
0.0009668490135
0.001144244488
0.001263226412
0.001342756644
0.001395828504
0.001435838968
0.001479279394
0.001577288133
0.001719557118
0.001635649631
0.001481210728
0.001365581327
0.001230641002
0.001055734312
0.0008713041639
0.0008272279729
0.001012767614
0.0001854994521
0.0003291520446
0.0003795211232
0.0004137128028
0.0003839363325
0.000335505086
0.0003242258682
0.0003568390099
0.00044613301
0.000600544846
0.0008030574902
0.001015786197
0.001178418708
0.001294223536
0.001365089258
0.001404207374
0.00143277753
0.00146058282
0.001501539626
0.001561782313
0.00153873745
0.001474943182
0.001365965289
0.001152406321
0.0009359013996
0.0007590040104
0.0006794845313
0.0007261875791
0.0007412683398
0.0006762084155
0.000595143594
0.0005449303786
0.0001740022492
0.0002946611976
0.0003359480524
0.0003707611273
0.0003576486738
0.0003354747008
0.0003316269999
0.0003532819085
0.0004152452641
0.0005681862473
0.0007773219006
0.00101208698
0.001188853739
0.001315179158
0.001380369492
0.001401796302
0.001416911728
0.001440382213
0.00146875922
0.001495405228
0.001497569908
0.001458670588
0.00134554248
0.001114070291
0.0009199675681
0.0007561805454
0.0006446528984
0.0005834072394
0.0005388121424
0.0005017075262
0.0004764422591
0.0004608377862
0.0001820204628
0.0003994201513
0.0004450116096
0.0004191847424
0.0003701674635
0.0003422652671
0.0003218936608
0.0003183690909
0.0003402216458
0.0004850691241
0.0006678605152
0.0009130242576
0.001112723891
0.001258878055
0.001337022118
0.001361202686
0.001370300462
0.001399448957
0.001432659899
0.001453969699
0.001448297073
0.001391693361
0.001199648797
0.001013647441
0.000930656064
0.0008042420979
0.0006932449227
0.000602840661
0.0005503714069
0.0005185639593
0.0004961093096
0.0004782459364
0.0004616644898
0.0001980551156
0.0005909117814
0.000632694391
0.0005733932386
0.0004706627078
0.0003801615275
0.0003638571945
0.0005781845896
0.0006009753646
0.0004496055128
0.0005522208631
0.0007050460277
0.0009072823559
0.001093102933
0.001217065102
0.001269695708
0.001281943002
0.001324797428
0.001363754831
0.001367129701
0.001308836632
0.001132072856
0.0009417028325
0.0008215380504
0.0007902519833
0.0007643715535
0.0007364299956
0.0007131450575
0.0006955391093
0.0006734833057
0.0006426505107
0.0006053211383
0.000563950813
0.000216386951
0.0006663034447
0.0007225089305
0.0006289964381
0.0004827557831
0.0003882881926
0.0008664778338
0.001486963455
0.001278393932
0.0006440155993
0.0004721316614
0.0005101715148
0.0005923695597
0.0007069766541
0.0008487745909
0.0009872667421
0.001095607683
0.001182116886
0.001214320121
0.001153324721
0.0009579079501
0.0008233121217
0.0007770404299
0.0008116422617
0.0008828121349
0.0009314351519
0.0009555102582
0.0009780771253
0.0009691452194
0.0009410546232
0.0008955622038
0.00083542361
0.0007557825108
0.0002197601856
0.0006802603647
0.0007583698541
0.0006874886681
0.0005807753911
0.0004819259694
0.0004545313068
0.0006676051258
0.0006789673421
0.000464145636
0.0004604989384
0.0004704187212
0.0004962420398
0.0005409547567
0.0006059051634
0.0006855208636
0.0007685744742
0.0008501175578
0.0008991827624
0.0008965337074
0.0008624864266
0.0008804930598
0.0009454109138
0.001042967273
0.001138889415
0.001177932487
0.001189526787
0.001188682011
0.001178329791
0.001154703664
0.001108063109
0.001035035544
0.0009444411139
0.0002146542543
0.0006485323271
0.0007363778304
0.0007051531413
0.000640891309
0.0005655013692
0.0004822163522
0.0004234408405
0.0003979437321
0.0004696966465
0.0004928612892
0.0005181134369
0.0005475955715
0.000587449198
0.0006416359784
0.0007106462297
0.0007927851343
0.0008894850955
0.0009935369021
0.001079132638
0.001121233529
0.001144092848
0.001167811551
0.001202899804
0.001245463087
0.001276163232
0.00129606365
0.001309630577
0.00131388936
0.00130301204
0.001261218887
0.001183661288
0.001084123305
0.0002028477585
0.0005680089951
0.0006853353569
0.0007216537895
0.0007108635798
0.0006572585535
0.0005857941607
0.0005348616148
0.0005233198774
0.0005672759306
0.0006026902804
0.0006432933731
0.0006956917739
0.00076582325
0.0008529744178
0.0009493290451
0.001023147886
0.001088471598
0.001143486594
0.001183025013
0.001206108389
0.001219855871
0.001230742393
0.001247804008
0.001276787727
0.001311074494
0.001342626399
0.001366882042
0.001377640333
0.001372105877
0.001334604292
0.001258529932
0.001157539753
0.0001890795549
0.0004931203478
0.0006444432716
0.0007332822815
0.0007534395599
0.0007123785621
0.0006474127679
0.0006063186016
0.0006135497144
0.0006587860909
0.0007132971735
0.000774510282
0.0008441407
0.0009200958746
0.0009818325339
0.001037940827
0.001087497971
0.001130145131
0.001164527259
0.001189794748
0.001207409154
0.001220528998
0.001228967511
0.001239787839
0.001263009379
0.001298611253
0.001335224727
0.001359912972
0.001371666647
0.001369565803
0.001338936609
0.001271582247
0.001179295004
0.0001766534763
0.0004550718458
0.0006312820938
0.0007454558323
0.0007797666265
0.000750351007
0.0006991477382
0.000672283788
0.0006912234223
0.0007437113481
0.0008064517534
0.000868701331
0.0009207217322
0.000968024952
0.001011181447
0.001050631066
0.001085989644
0.001116185801
0.001139971252
0.001156703038
0.001169833535
0.001182793973
0.001192271899
0.001201652242
0.001221628338
0.001254264511
0.001287221922
0.001306290323
0.001317946791
0.001321368656
0.001301292223
0.001248807842
0.001173285985
0.0001682249856
0.0004522320605
0.0006358623149
0.0007523906374
0.0007905859724
0.0007722102395
0.0007382786673
0.0007276447983
0.0007546782511
0.0008044573416
0.0008508766009
0.0008912962637
0.0009284754658
0.000963624741
0.0009973847507
0.001029748294
0.001059938502
0.001086908736
0.001111426483
0.00113325055
0.001142365103
0.001146037774
0.0011492028
0.001157863892
0.001177528812
0.001207674772
0.001235713558
0.00124806046
0.001255401277
0.001259034718
0.001244542561
0.001205524002
0.00114958033
0.0001652735152
0.0004661217889
0.0006435355492
0.0007510478159
0.0007897049673
0.0007830832793
0.0007668478276
0.0007698839552
0.0007982458069
0.0008300367105
0.0008561350945
0.0008828808625
0.0009099873246
0.0009383155012
0.0009685589388
0.001001054294
0.001035700763
0.001072912445
0.00111407737
0.001137351001
0.001124665583
0.00113687538
0.001116876108
0.001121299581
0.001143666826
0.001175640037
0.001202770172
0.001208476654
0.001203724906
0.001198396922
0.001182509959
0.001151329432
0.001110365418
0.0001658756532
0.000483114272
0.000651789118
0.0007508637962
0.0007910891388
0.0007941311847
0.0007884074392
0.0007951606825
0.0008177552926
0.0008357427749
0.0008509189953
0.0008683896323
0.0008893218518
0.0009144658342
0.0009443315945
0.000978971695
0.001015273521
0.001034160251
0.001070278952
0.001289739749
0.00115742838
0.0011370398
0.001098830805
0.001091422488
0.001119952301
0.001161449873
0.001194415734
0.001194844463
0.001174886851
0.0011537653
0.001130320461
0.001102246637
0.001072555258
0.0001675277268
0.0004989241026
0.0006632510494
0.0007581882197
0.0007998324615
0.0008072666369
0.0008036076728
0.0008064373038
0.0008208539947
0.0008325260267
0.0008405577931
0.0008522227228
0.0008694029061
0.0008928811563
0.000922771644
0.0009585667902
0.0009991098916
0.001037505653
0.001160120194
0.001775037535
0.001136359481
0.001103163125
0.001057232931
0.00106379876
0.001105605989
0.001161976638
0.001203285058
0.001198656208
0.001168810469
0.001131440401
0.001096280945
0.001066130594
0.001043214339
0.0001692002211
0.0005121136474
0.0006767447512
0.0007702736311
0.0008113503129
0.0008180760883
0.0008108464529
0.0008057446995
0.0008111074354
0.0008208341551
0.0008255164136
0.0008338135216
0.0008485650367
0.000870636927
0.0008995106524
0.0009333011347
0.0009693655008
0.001006472848
0.001048301396
0.001103408307
0.001024548426
0.001025287986
0.001011763909
0.001035644416
0.00109151341
0.001160663212
0.001204219323
0.001193605526
0.00116500039
0.001118702657
0.001073312993
0.001038108975
0.001016409546
0.0001704665621
0.0005205718504
0.0006875901388
0.0007803481005
0.0008187832744
0.0008221563596
0.0008094413299
0.0007952962339
0.0007905423193
0.0007972072187
0.0008037593627
0.0008109355055
0.0008241541289
0.0008447214373
0.0008717215063
0.0009023952854
0.000932611699
0.0009584888151
0.0009793605226
0.0009717908533
0.000972092789
0.000966433143
0.0009717204874
0.001007626186
0.001073484488
0.001147925596
0.001184300239
0.001166711106
0.001148207015
0.00110026359
0.001045130494
0.0009978793479
0.000963045577
0.0001708918759
0.0005217602736
0.000690575983
0.00078247754
0.0008173616897
0.0008168639427
0.0007985789191
0.0007753858938
0.000759498181
0.0007576144438
0.0007678197721
0.0007790336727
0.0007930463685
0.0008126515254
0.0008373579555
0.0008645575842
0.0008902375392
0.0009102235853
0.0009225371065
0.0009247519925
0.0009217816427
0.0009208828712
0.0009358623748
0.0009778989419
0.001047442745
0.001120894691
0.001150292973
0.001133664496
0.001122043753
0.001071124478
0.0009961326308
0.000908454557
0.0008547315364
0.0001700526235
0.0005134700238
0.0006817586481
0.0007731058689
0.0008053545812
0.0008013979062
0.0007777546952
0.0007464613767
0.0007206311941
0.0007084642687
0.0007119488609
0.0007283088665
0.000750122782
0.0007714281095
0.0007943281086
0.0008183272791
0.0008406316929
0.0008575593438
0.0008676828581
0.0008716104903
0.0008731855457
0.0008792350658
0.0008991471563
0.000941794889
0.001008570631
0.001078083942
0.001106266994
0.001096593993
0.001087682217
0.001029841276
0.0009159259824
0.0008096566292
0.0008078384307
0.0001676478449
0.0004943217765
0.0006585344968
0.0007497782677
0.0007813478937
0.0007737878032
0.0007441959974
0.0007063839801
0.0006744546654
0.0006562066815
0.0006529976204
0.0006631309541
0.0006826890881
0.0007063035792
0.0007314362362
0.0007559698954
0.0007777201485
0.0007929082445
0.0008031263004
0.0008103097992
0.0008188423209
0.0008309230465
0.0008523129375
0.0008914680615
0.0009515347625
0.001015634129
0.001046830661
0.001046792606
0.001042307887
0.0009948276266
0.0008986940936
0.0008447266784
0.000916021128
0.0001635645673
0.0004645775787
0.0006199661465
0.0007102083316
0.0007423633591
0.0007324613705
0.0007002773124
0.0006643044711
0.000640453802
0.0006342144935
0.0006403331611
0.0006493382851
0.0006537135759
0.0006532832544
0.0006551897923
0.0006663058919
0.0006852505972
0.0006968510297
0.000709220645
0.0007211219557
0.0007365883328
0.0007531034487
0.0007736493911
0.0008119947617
0.0008711594105
0.0009314707867
0.0009688338185
0.0009835118586
0.0009994196294
0.0009923688618
0.0009836983384
0.0009918052381
0.001058767837
0.000157964037
0.0004267346979
0.000566894149
0.0006520461236
0.000683980024
0.0006749364445
0.0006486306729
0.000630032008
0.000636623325
0.0006664472616
0.0006998894394
0.0007170790558
0.0007062645098
0.0006747258151
0.0006406913471
0.0006147766342
0.0006160238677
0.0006065670127
0.0006174824762
0.0006313171024
0.000651707222
0.000671388502
0.0006890528827
0.000715343646
0.000765510543
0.0008285640599
0.0008759087941
0.0009131326606
0.00096557679
0.001006544747
0.001041388427
0.001088876811
0.001136073583
0.0001513712479
0.0003862009027
0.0005051242131
0.0005793599283
0.0006088701402
0.0006030536039
0.0005879167174
0.0005936337974
0.0006378445225
0.0007048638466
0.0007652449516
0.0008133995184
0.0008408496346
0.0008583710132
0.0008596896598
0.0007667657456
0.0006474373375
0.0005661674856
0.0005543486019
0.0005631367473
0.0005889026268
0.0006145075345
0.0006324164021
0.0006463358833
0.0006703824729
0.0007168979431
0.0007753233552
0.0008382178134
0.0009286463221
0.00100259183
0.001061358851
0.001123132183
0.001172777912
0.0001446382882
0.000350502175
0.0004447846616
0.0005027644649
0.0005267765432
0.0005241797638
0.0005190332149
0.000542548434
0.0006135843963
0.000709649926
0.0007927101714
0.0008685957416
0.0009481106136
0.00105785044
0.001134687706
0.001024990778
0.0007710396116
0.0005613358104
0.0005262666917
0.0005290645014
0.000565356544
0.0006011587166
0.0006227566614
0.0006275163184
0.0006258929033
0.0006368344493
0.0006760825227
0.0007526502747
0.000876529399
0.0009711395612
0.001043781968
0.001111546878
0.00116961287
0.0001386344752
0.0003256864766
0.0003961986438
0.0004341490764
0.0004490677776
0.0004476958261
0.0004482851765
0.0004768030168
0.0005525905267
0.0006639885661
0.0007675879939
0.0008561250971
0.0009609887574
0.001124090153
0.001250096425
0.001128873516
0.000820401404
0.000566369222
0.0005327195956
0.0005382919365
0.0005901415549
0.0006368509736
0.0006606424305
0.0006566354446
0.0006331473796
0.0006092236133
0.0006101353889
0.0006646206914
0.0007992491148
0.0009054468853
0.0009834482262
0.001052052424
0.001121596717
0.0001336407436
0.0003123330554
0.0003641174697
0.0003814261217
0.0003836305845
0.0003802787096
0.0003834462814
0.0004093504906
0.0004724517412
0.0005693641809
0.0006724014894
0.0007642370398
0.000854311467
0.0009896049344
0.001113393109
0.001009401014
0.0007644311627
0.000575504207
0.0005679021388
0.000588772801
0.0006553603415
0.0007058419054
0.0007243567943
0.0007096324854
0.0006693905838
0.0006182779219
0.0005791021311
0.0005866182523
0.0006795331685
0.0007982314362
0.000874338425
0.0009415289415
0.001025909386
0.0001287363845
0.0003031008086
0.0003429908154
0.0003435552746
0.0003322436371
0.0003236555658
0.0003270097617
0.0003494253913
0.0003971685699
0.0004688298807
0.000548349383
0.0006182659252
0.0006847288918
0.0007631857597
0.0008263367454
0.0007755857116
0.0006734282665
0.0005873224631
0.0006105008503
0.0006552885821
0.0007273515035
0.0007692926483
0.0007756874444
0.0007496796511
0.0007003214807
0.000636936839
0.0005693432246