/*--------------------------------*- C++ -*----------------------------------*\
  =========                 |
  \\      /  F ield         | OpenFOAM: The Open Source CFD Toolbox
   \\    /   O peration     | Website:  https://openfoam.org
    \\  /    A nd           | Version:  8
     \\/     M anipulation  |
\*---------------------------------------------------------------------------*/
FoamFile
{
    version     2.0;
    format      ascii;
    class       volScalarField;
    location    "1.9";
    object      epsilon;
}
// * * * * * * * * * * * * * * * * * * * * * * * * * * * * * * * * * * * * * //

dimensions      [0 2 -3 0 0 0 0];

internalField   nonuniform List<scalar> 
67286
(
0.984145287
0.890757545
0.7244652172
0.5461753052
0.3509448569
0.186569619
0.1427171576
0.1957736634
0.2887191637
0.3999234117
0.5207222334
0.6483418474
0.7822780734
0.9187074143
1.036454166
1.126676338
1.189001141
1.232128864
1.289177031
1.419381296
1.180057003
0.9958637465
0.8517528549
0.7457175027
0.6472209633
0.5491284254
0.4795104373
0.5448799618
0.7326883227
0.6159637894
0.4878656365
0.3782311719
0.2485058446
0.1328369221
0.1307368366
0.183977639
0.272353603
0.3888380376
0.5204096856
0.6601443239
0.8059540759
0.9420990619
1.055717993
1.144207785
1.213279435
1.263073099
1.29724487
1.321962094
1.208883122
1.041529356
0.8606491922
0.7116770239
0.592914872
0.4910889754
0.4105140516
0.4002402548
0.3768196921
0.3286638574
0.2854995062
0.2565131987
0.5716067014
0.409026754
0.3315761195
0.2823298986
0.1856666765
0.1219603972
0.1375515543
0.1934904931
0.2458536567
0.3468879907
0.4777006674
0.6268402774
0.787246295
0.9254347505
1.021618202
1.086616045
1.153653122
1.213675951
1.254500828
1.270091695
1.221136486
1.036330582
0.8203801087
0.6570404832
0.5317928183
0.4332845316
0.3718067474
0.3472859233
0.3449178542
0.3548140033
0.361996072
0.358129954
0.3807339174
0.3025257594
0.2848792319
0.2391675982
0.1680674848
0.1491983711
0.2370163773
0.4825886554
0.3113901267
0.3011834103
0.4180341129
0.5664090128
0.7321777041
0.8657757931
0.9328881599
0.9542449646
1.009694381
1.071996322
1.111920044
1.115073234
1.059523248
0.8467180233
0.6578782432
0.5182713847
0.4480340656
0.4272255759
0.4527280159
0.5016594075
0.5562193941
0.5956550175
0.6047624119
0.582874446
0.5363671874
0.3288166588
0.3817164836
0.3747170118
0.2963758363
0.2158093375
0.2927080875
0.9133434829
2.273932582
1.161494416
0.2950093012
0.3245644761
0.431582844
0.5500919104
0.6750169895
0.777293606
0.8395279992
0.8615243182
0.8409005379
0.8729841062
0.8447668623
0.7472660532
0.5888584371
0.4660364039
0.4407910944
0.4793816123
0.5556767135
0.6746136618
0.7896050012
0.8739733083
0.9101961554
0.8961747816
0.8422112931
0.7587047802
0.3995882018
0.4774379508
0.4522783808
0.3584251501
0.5062257366
1.818333954
5.851048075
13.75543942
8.389273987
1.226997555
0.2557540158
0.3156071869
0.394850824
0.4728134477
0.5412283277
0.5962143447
0.6404653462
0.6685210096
0.6853253773
0.6301714359
0.5025728589
0.4528421615
0.4930963224
0.563425051
0.6593387395
0.7923090548
0.9750187484
1.130708619
1.224114135
1.23966974
1.192243115
1.101188173
0.9800032672
0.4093518287
0.4794279115
0.4477360312
0.3307423087
0.2452624743
0.3327183698
1.01015077
2.71890489
0.9539359885
0.2302640579
0.2322140077
0.2643719184
0.3027187519
0.3437748523
0.3841869359
0.4220974999
0.4555799017
0.479126956
0.494527768
0.5091699032
0.5424587164
0.5934742682
0.6570782764
0.7427913944
0.8676809289
1.051981424
1.294341363
1.487157234
1.579589187
1.572102259
1.4910724
1.361221148
1.20253018
0.3840793862
0.4143375381
0.3773219311
0.2975372587
0.2488446298
0.2364226018
0.3012230909
0.5580910979
0.2679292121
0.2312198699
0.2636639602
0.3021518199
0.3428102329
0.3844406855
0.4260459379
0.4675846347
0.5100201653
0.5544726627
0.6017240264
0.6523435579
0.7103445741
0.7638688239
0.822678338
0.9214892467
1.08223778
1.312938537
1.574197602
1.791875174
1.895061974
1.873968384
1.764611272
1.597137539
1.403462175
0.3428457936
0.3453356891
0.3229692068
0.2918535524
0.2760591952
0.2559715807
0.2351006409
0.2430032527
0.2374817533
0.2705248722
0.3145346664
0.3651125885
0.4194387419
0.4749471677
0.5304108684
0.5867924351
0.648630565
0.7101016305
0.7693374846
0.8226211492
0.8656619458
0.8998684924
0.9456412957
1.051990412
1.240572999
1.502942471
1.783798229
2.00864591
2.115852896
2.078676086
1.950177018
1.758640881
1.542854583
0.2946334901
0.289891512
0.2920220356
0.2945829121
0.2919277712
0.2708007401
0.2463729129
0.2419912463
0.2644583215
0.3075072195
0.362148368
0.425156664
0.4924714185
0.5607099618
0.6303810385
0.6956494466
0.7569869144
0.8150651548
0.8685301708
0.9139477508
0.9478564502
0.9727803675
1.01323287
1.12694489
1.330937473
1.598734545
1.876254414
2.091300341
2.17467892
2.124241047
1.993720985
1.801413598
1.58448637
0.246622386
0.2540882731
0.2772886531
0.2934923551
0.2921929776
0.2718975453
0.2543967778
0.2602373889
0.2920527793
0.342754387
0.4066333798
0.4809182914
0.56105733
0.6376770602
0.706971993
0.769414591
0.8267676361
0.8795466687
0.9258525755
0.9622965518
0.9868506121
1.002727487
1.034679664
1.143103017
1.340445061
1.588042382
1.82924586
2.010186907
2.06705717
2.021573312
1.90365668
1.730720323
1.532044285
0.2075322545
0.2332518554
0.2669495425
0.2848919722
0.2829296011
0.2684900833
0.262512621
0.2794270264
0.3196279423
0.3789292891
0.4539204598
0.5365595723
0.618393137
0.6942249992
0.7614697603
0.8198537392
0.8697692026
0.910831839
0.9418978849
0.9617482181
0.9661543765
0.9573803333
0.9724344339
1.058013621
1.220192382
1.431861822
1.653158782
1.838864744
1.894858748
1.847589358
1.730114085
1.564405644
1.38118984
0.1842138224
0.2209913642
0.2565987286
0.2731516725
0.2740539344
0.2712668303
0.2814629393
0.3128423898
0.3644167516
0.4327877906
0.5094769469
0.5862289317
0.6595158965
0.7271624621
0.7877139635
0.8398574897
0.8823428272
0.9151024674
0.941978311
0.9688101828
0.9625195051
0.9136077618
0.91515092
0.9842303217
1.123335098
1.314512305
1.521934052
1.697335549
1.735461729
1.676408457
1.561750555
1.412215753
1.250727315
0.1745502188
0.2143600344
0.2491112732
0.2657413698
0.2711208559
0.2760501
0.2923190554
0.326333019
0.3787412782
0.4470620959
0.5207284598
0.5926214911
0.6607422262
0.7245983508
0.783662912
0.8366647109
0.883673156
0.9381445556
1.071460172
1.476983645
1.375435476
0.9067219402
0.8736489933
0.9248885967
1.044051836
1.216501824
1.413908452
1.57678612
1.597516049
1.5230783
1.408861791
1.272588573
1.129825871
0.1727911859
0.2131135929
0.2477840819
0.2658571832
0.274189981
0.2809799022
0.2957720187
0.3259094558
0.3743165616
0.4396479481
0.5119103787
0.582471449
0.6489043302
0.7111243067
0.768904281
0.8202741121
0.8628686417
0.9071320055
1.055664316
1.956918962
1.041752069
0.8410149532
0.8282343685
0.8789709855
0.9890286902
1.152917226
1.347562391
1.492325284
1.498331804
1.402831579
1.280049797
1.147094051
1.01353889
0.1753196264
0.2162290874
0.2517566661
0.2712137681
0.2803074338
0.2852260334
0.2948365195
0.3178154838
0.3588854615
0.4178451363
0.4879557518
0.5581467953
0.6242912022
0.6856317993
0.7417236628
0.789996485
0.8255864232
0.8460384623
0.8688439185
0.9741215229
0.8385331336
0.778833171
0.7890516223
0.8495401652
0.9699647983
1.1550553
1.381287234
1.54295775
1.474604823
1.327568668
1.175363154
1.029614456
0.8920685185
0.1795606802
0.2210886464
0.257597437
0.2778868081
0.2865637971
0.2882920704
0.2916258234
0.3062202708
0.3379827709
0.387573437
0.4516641944
0.5202207297
0.5859603848
0.6464424441
0.7004464869
0.7451420137
0.7752429864
0.7858174709
0.7798683191
0.7749066586
0.7436739749
0.7307974338
0.7606822557
0.845856377
1.010791349
1.266933803
1.565631662
1.760881315
1.579826335
1.332124894
1.111605852
0.9250905305
0.7658899732
0.183038361
0.2247756659
0.2619136512
0.2826014037
0.2906453752
0.2893523094
0.2869185429
0.2934324233
0.3153400464
0.35407483
0.407168324
0.4699052333
0.5336077244
0.5927088938
0.6444344296
0.6856753277
0.7116331208
0.7179635007
0.7069225332
0.6910575429
0.6800937738
0.689672936
0.7407410859
0.8613790128
1.084809849
1.408684985
1.739765742
1.904405226
1.684210167
1.355580297
1.059862085
0.8263792284
0.6506837436
0.1837260943
0.2250603658
0.262340041
0.283098299
0.2905966715
0.2871227776
0.2803501794
0.28018027
0.2930275111
0.3207217515
0.3618273285
0.4128881937
0.4691404064
0.5247690091
0.5737665315
0.6122286564
0.6359907458
0.6416361254
0.6328281906
0.6219124643
0.6227386764
0.6470941469
0.7158785094
0.8646703995
1.123743166
1.467865715
1.780494223
1.901471028
1.667410968
1.29632738
0.9597992154
0.710413555
0.5527931094
0.1803436819
0.2206649909
0.2575837108
0.2780781818
0.2850576269
0.2805791619
0.2716241169
0.2673295548
0.2736017938
0.291947327
0.3212749538
0.3595366033
0.4036832226
0.4493318828
0.4914122061
0.5263658806
0.5503114065
0.5584741782
0.5558059997
0.5530902082
0.5624956182
0.5945581208
0.6700633212
0.8252083949
1.082937346
1.404532326
1.677434228
1.770000082
1.498003881
1.122439229
0.8378240963
0.6423855
0.6442614836
0.1722898097
0.2110441117
0.2471419856
0.2672793771
0.274168292
0.2701912784
0.2620219618
0.258529255
0.265416834
0.2826898147
0.3063065147
0.33183043
0.3573608479
0.3837919561
0.4119683911
0.4406093959
0.4655666109
0.4774280067
0.4823159572
0.4870034682
0.5010543977
0.5333927844
0.6023285124
0.7386592555
0.9626464612
1.238074639
1.466162287
1.538488393
1.229310079
0.9369840162
0.8607777853
0.8128173771
1.186286889
0.1596761205
0.1963820359
0.2313436864
0.2514736506
0.2596178217
0.2597584956
0.2611670585
0.2756083064
0.3089649329
0.3547241734
0.3946145932
0.4082465567
0.3925070839
0.3693757383
0.3621069645
0.3730186735
0.3901241343
0.4016873764
0.411519761
0.4208920749
0.4368252452
0.4649914687
0.5192768775
0.6241057759
0.7961349401
1.013229623
1.196683217
1.242139288
0.9983384779
0.9191534603
1.058297887
1.17026841
1.604913716
0.1433962247
0.1774351993
0.210848157
0.2312956545
0.2419555664
0.2490590418
0.2657687163
0.3071229595
0.3780205713
0.4663030048
0.5425446083
0.5699327249
0.543840095
0.5141333178
0.5267040449
0.5107169864
0.3596825273
0.3435686992
0.3493281976
0.3589434079
0.3751922494
0.39800609
0.4358078933
0.5062022536
0.6258993275
0.7854478966
0.9314265327
0.9827899838
0.8972117797
1.014444566
1.22959299
1.425697774
1.825416208
0.1252973063
0.1556680458
0.1866698886
0.2071815492
0.2204028981
0.2337204989
0.2621994119
0.3219603868
0.4167039614
0.5350825411
0.6641256257
0.8288028974
1.166254822
1.857227277
2.697017678
2.571547609
0.597156726
0.3322619764
0.3084602231
0.3144338257
0.3315706738
0.3506266179
0.3744767504
0.4144916579
0.4869816441
0.5979468972
0.7213460419
0.8084564793
0.8668665219
1.073366781
1.296477784
1.526179385
1.893239499
0.1078912421
0.133452157
0.1605451486
0.1799929897
0.1946530055
0.2112302067
0.2434710312
0.3062240608
0.4028746576
0.5244218291
0.6775032907
0.9386575596
1.496000928
2.51249728
3.705132462
3.882506766
0.8846881936
0.3754590363
0.3018491313
0.3074203879
0.3279958901
0.3448486887
0.3559430892
0.3694578632
0.4014189057
0.468156926
0.5703630649
0.6879892732
0.8233240501
1.046547512
1.263003513
1.500624606
1.830727637
0.09312791309
0.1134979175
0.1350754598
0.1515015062
0.1657562349
0.1829783972
0.2133002375
0.2681066036
0.3505169292
0.4525352503
0.5749219227
0.7731905828
1.196307653
1.98175918
2.95899174
3.203437781
0.6997899082
0.3714133205
0.3263337744
0.3437369023
0.3723025715
0.3871720173
0.3831554169
0.369852941
0.3669360685
0.3932607987
0.4620984475
0.5789458903
0.7386125438
0.9475798307
1.15542122
1.38578099
1.668545887
0.08087679372
0.09701294122
0.1126255048
0.1241182353
0.1356508644
0.151615439
0.178459902
0.2228609367
0.2866006903
0.3634072876
0.4476755072
0.5608278779
0.7806554998
1.20504586
1.758024022
1.856210178
0.4951301511
0.3736534292
0.3674449554
0.4020798028
0.4394493294
0.4515505615
0.4303253705
0.3908247395
0.3612468968
0.3574660229
0.3859440924
0.4681435365
0.6125931692
0.8030206923
0.9991345349
1.210429912
1.442017242
0.06896083475
0.08246965166
0.09333943897
0.09956085083
0.1066318434
0.1195376949
0.1428796774
0.1793061138
0.2278853607
0.283516517
0.3399220168
0.4000473178
0.4925057934
0.6664411689
0.9063382009
0.9406593173
0.3967705305
0.3747215733
0.397048712
0.4425139589
0.4809484575
0.4872758351
0.4537390737
0.399349411
0.3572902434
0.3392940217
0.3364254549
0.3679668482
0.4636627455
0.6186426879
0.7933405467
0.976656097
1.174594928
0.05429286997
0.06642806076
0.07429122323
0.07691128209
0.08005205976
0.08922090858
0.1085384424
0.1386360863
0.1764000331
0.2168016381
0.2550164495
0.289344509
0.3264442487
0.3825846714
0.4589230463
0.4738340096
0.3314403372
0.3470495224
0.3806287199
0.4248285057
0.4561905095
0.4567763621
0.4216143936
0.3683869448
0.3292824639
0.3104922041
0.2939691802
0.2867091411
0.3218439295
0.4140347396
0.5408553065
0.6777603443
0.8464082
0.03945105723
0.05002160374
0.0558946881
0.05763422245
0.06060333058
0.0697565559
0.0873909619
0.1121851156
0.1407877412
0.1693551402
0.1946898034
0.2152064612
0.2319955278
0.2489992375
0.2682759022
0.2771067126
0.2625813199
0.2860965235
0.31673612
0.3497031455
0.3693538083
0.365665809
0.3371571061
0.297801823
0.271310145
0.255994189
0.236528335
0.2143207687
0.2145553289
0.2440290513
0.3012104364
0.3698985006
0.486129607
0.7700682556
0.5039008303
0.3811720587
0.3125956471
0.2366041093
0.1604079138
0.1310964292
0.1602968048
0.2190669894
0.2857328739
0.3466085445
0.3968788698
0.4376483773
0.4721273431
0.5000554385
0.5225452606
0.5444835026
0.5746666289
0.6540353678
0.7709259557
0.7001954848
0.5809328211
0.5238868953
0.4874241041
0.4608145727
0.4256988213
0.4043773563
0.4085280305
0.3336602584
0.2786260477
0.2803654372
0.2379002446
0.1771377256
0.1244676899
0.1183646677
0.1482998514
0.1994892587
0.2606961431
0.3210597187
0.3747647667
0.4249967488
0.4675886977
0.4989787151
0.5200522365
0.5394703011
0.5618155372
0.5958455229
0.6457663783
0.6313316398
0.5869891509
0.5326441709
0.4853679081
0.4391813307
0.392026386
0.3534748658
0.3337697361
0.3077666583
0.2721313649
0.2395901032
0.2176913764
0.2758863804
0.2532662243
0.2397814232
0.2076861985
0.1558331833
0.1202369509
0.1259108989
0.1552455939
0.1995547595
0.2336270076
0.2855073419
0.338549936
0.3951762894
0.4498754014
0.4919157871
0.5144630706
0.5298878379
0.550407035
0.5726041595
0.5895157182
0.5869538253
0.5678754355
0.5191161417
0.4683863682
0.4134053637
0.3627988746
0.3236527428
0.2970597885
0.279509533
0.2680153482
0.259392013
0.2510261034
0.3157111335
0.2777989621
0.2584521281
0.2146946469
0.1625702834
0.140872886
0.1699208919
0.2776663857
0.4022047719
0.2245449
0.2549321916
0.2989808136
0.3553397533
0.4107307209
0.4655139391
0.5022441
0.5059658682
0.5265612369
0.5485488681
0.5602701668
0.5556600148
0.5341990377
0.49005509
0.4341218108
0.3866086566
0.3604294557
0.356800032
0.3555799334
0.357699381
0.3586792216
0.3543660934
0.3432718598
0.3253539708
0.4075177202
0.3587824255
0.321211851
0.2721434637
0.2137280241
0.2264837864
0.5582020361
1.777043237
2.046072914
0.3966924111
0.2426059634
0.2681411355
0.3095411704
0.3644863877
0.4142178312
0.442853143
0.4679369751
0.4833452073
0.5057878375
0.5159332752
0.5113672241
0.4929941144
0.4430124776
0.4117303606
0.4088674477
0.425492812
0.4612300492
0.4817936309
0.4868104748
0.481717435
0.4688066283
0.4496097492
0.4239284716
0.5317104778
0.4016565359
0.3650226174
0.3209725131
0.3304291499
0.73397053
4.638592943
11.18532997
6.57138727
1.901405308
0.2990736704
0.2471710993
0.280575042
0.3193106177
0.3645212676
0.3997037304
0.4160463793
0.4419957546
0.4637724479
0.4789383355
0.4750462855
0.4460192537
0.4318331318
0.4442896939
0.477731383
0.529997168
0.5864360206
0.6084838874
0.6127379828
0.6023586293
0.579645316
0.5467983382
0.5098940814
0.5569862348
0.4071783899
0.36301376
0.3028709313
0.257262965
0.294057696
0.7018275352
1.985674918
2.230461248
0.3440566394
0.2160689772
0.2251374494
0.2464144353
0.2751302342
0.3092645201
0.3457569511
0.3805493406
0.4161771903
0.4443678099
0.4576883174
0.455733966
0.4566985208
0.4723825977
0.5013521322
0.5535570335
0.6286000688
0.699361804
0.7395519475
0.7494485256
0.7358693796
0.7021055126
0.6553274323
0.6014130111
0.5187053846
0.3744360382
0.3370931382
0.2897359945
0.2511049714
0.2335301683
0.2483420018
0.3339080043
0.394559097
0.2127503766
0.2219671271
0.2433530556
0.2685439273
0.2956352463
0.3251530434
0.3571869371
0.3910887734
0.4238308127
0.4485065049
0.4608065547
0.4692364813
0.4830952083
0.5060794444
0.5453766781
0.618056706
0.7181719902
0.8134154132
0.8793007415
0.8992174369
0.8798604976
0.8274493844
0.7551477132
0.6803598868
0.437368632
0.3206810731
0.2990555463
0.2746881914
0.2549704469
0.2387136022
0.2253899694
0.2200826521
0.2248823029
0.2261725215
0.2477342099
0.2729808532
0.2993270356
0.324367012
0.3475732988
0.3700002551
0.3971697044
0.4253587615
0.4506488661
0.469987534
0.4860799385
0.5080588184
0.5409760527
0.5888611296
0.6695295272
0.7874793532
0.912538166
1.00024808
1.016069246
0.9760595745
0.906829348
0.8166151263
0.727814832
0.3539399694
0.2704180856
0.2686380179
0.2648053766
0.2586599047
0.2470102738
0.2321490241
0.2229067981
0.2266610113
0.2446348068
0.2707639568
0.3004316747
0.3292118863
0.3539808685
0.3771267985
0.399142298
0.4207222511
0.4409255341
0.4585767217
0.4741168899
0.4923342167
0.5215622221
0.5611148915
0.6120398875
0.6959650348
0.8142648301
0.9475613302
1.034058684
1.037794552
0.9860044153
0.9154513908
0.8226193152
0.730092665
0.2884712147
0.2376479743
0.2514427686
0.2582237505
0.258611583
0.2509953985
0.2393210553
0.2326122994
0.2382240783
0.2564463231
0.2826573495
0.3130176173
0.3439129947
0.3724997332
0.3981798773
0.4208036261
0.4402179792
0.4557391559
0.4668723604
0.4749272238
0.4879877
0.5150736533
0.5515606114
0.597237043
0.6742746268
0.780244344
0.8924632825
0.9675073755
0.9720412615
0.9454097502
0.8823348908
0.7911503062
0.6982458922
0.2490769781
0.2215500758
0.2426133507
0.2526078422
0.2558233588
0.2515872478
0.2435361105
0.2391964381
0.2443257885
0.2595835866
0.2832998267
0.3118083264
0.3418620785
0.3710473545
0.3980682347
0.4221309066
0.4419197324
0.455972409
0.4658174261
0.4758987622
0.4828460997
0.4894203623
0.5141723982
0.553972065
0.6220865721
0.7173518998
0.8225281685
0.9032987495
0.905277752
0.8797346982
0.8155190585
0.7278145849
0.6419980013
0.2362719559
0.2150245738
0.2365051369
0.2466040428
0.2517582724
0.2516541801
0.2488562284
0.2481832794
0.2534151298
0.2663142942
0.285391669
0.3078443223
0.3325596342
0.3585808965
0.3854296512
0.4127813317
0.4404291756
0.4721270365
0.5313482108
0.6667885349
0.680519486
0.5082356282
0.4923577654
0.5267483714
0.5946105599
0.6866604108
0.786488488
0.8614549461
0.8439769915
0.8062985488
0.7428303315
0.6660047661
0.592435667
0.2389466789
0.2129364497
0.2315564789
0.2406284022
0.2468683187
0.2498299008
0.2509331065
0.2531340311
0.2591644948
0.2709489921
0.2864558401
0.3046439988
0.3255155522
0.3494795159
0.3768751964
0.408728296
0.4561745308
0.5989744816
1.234214525
3.268663689
2.785457439
0.6895306714
0.4857185874
0.5056921126
0.5781334768
0.6805012236
0.7902948501
0.8610247155
0.8103126369
0.7507579275
0.684837544
0.6169758436
0.5545015692
0.246197063
0.2133073087
0.2283150194
0.2356305537
0.2416887646
0.2458334138
0.248740448
0.2523631045
0.2588522591
0.2697223396
0.2837096888
0.2998925996
0.3188178408
0.3416897068
0.3692123617
0.4016021071
0.4468823962
0.5948628946
1.465743555
5.490574755
1.722024029
0.5577292947
0.4584044275
0.497286453
0.5909700706
0.727097299
0.8719645891
0.949037067
0.8448661594
0.7430112245
0.6587171011
0.5873474767
0.5272066603
0.2536521918
0.2149439038
0.2265698228
0.2315741261
0.2363855124
0.2402975524
0.24357077
0.2475330518
0.2539110481
0.2637595052
0.2769553108
0.2923973585
0.3104807381
0.3324508563
0.3588864082
0.3887180589
0.4207995683
0.4688891388
0.6519844169
1.375924779
0.715696354
0.4475347085
0.4396421658
0.5054417157
0.6333130414
0.8130451937
0.98520023
1.041593043
0.9162014768
0.7721251017
0.6588582235
0.5721244987
0.5058037225
0.2593748462
0.216469305
0.2253298762
0.2279328556
0.2310807947
0.2340874311
0.2369252335
0.2404375883
0.2460094751
0.2543829556
0.2661802872
0.2809620591
0.2985948236
0.3197395174
0.3445417258
0.3714363543
0.3970621328
0.4188583777
0.4490773372
0.5287338574
0.4498476519
0.4057544406
0.4326616762
0.5213722
0.6763981537
0.8774198281
1.034791501
1.042622812
0.9534586216
0.7896718541
0.6567790908
0.5577978047
0.4891737639
0.261284687
0.2165382396
0.2236402496
0.2242967314
0.2259393229
0.2279005165
0.2299316892
0.2324525467
0.2365524642
0.2430825201
0.2523546595
0.2654559922
0.2822536529
0.3025363406
0.3256207236
0.3496880404
0.3714955469
0.3870671978
0.3947841096
0.3973524346
0.3852557893
0.3864380495
0.428510372
0.5290833245
0.693659903
0.8920217372
1.020957084
1.002670158
0.9492070648
0.7776251202
0.6407631859
0.54513642
0.4903007729
0.2573995586
0.2140440592
0.2207957539
0.220340623
0.2208792199
0.2219016902
0.2230533313
0.2244244999
0.2268850279
0.2315271957
0.238953675
0.2494572635
0.2638126142
0.2822665492
0.3031867442
0.3245286243
0.3435274048
0.3566735676
0.3619771828
0.360340976
0.3581356678
0.3710304383
0.4184879043
0.5182105475
0.6746942975
0.8561725038
0.9646524171
0.9450688819
0.9056462629
0.7397036489
0.6323549411
0.5539247478
0.5422898813
0.2465671784
0.2081721024
0.2162195891
0.2157411325
0.2157139596
0.2162246223
0.2171221321
0.2184972648
0.2212644045
0.2264945438
0.2344511519
0.2444689935
0.2557627726
0.2684430229
0.283011597
0.299296264
0.3150395244
0.3265698735
0.3323961054
0.3336124566
0.3364925858
0.3535413419
0.3994540642
0.4877433594
0.6220716697
0.7768828461
0.8719017251
0.8627052369
0.8210656579
0.7089651731
0.6604052906
0.6260599005
0.6872564073
0.2289196121
0.1983721856
0.2092405732
0.2100294895
0.2101389396
0.2106575604
0.2123022209
0.2162143461
0.2245241546
0.2382456736
0.2548896116
0.2688967672
0.2756044289
0.2763387731
0.2777263079
0.2832954064
0.2911653748
0.2989447759
0.3046446661
0.3082100935
0.3148947172
0.3335421779
0.3744490764
0.4451920121
0.5477924492
0.6686293284
0.7508383281
0.7562727992
0.7287838834
0.7037407964
0.7009168958
0.7334512949
0.8249048257
0.2061489332
0.1845981234
0.1991747912
0.2026231469
0.2039793423
0.205632785
0.2102528953
0.2214564429
0.2434082948
0.2763399841
0.3130777474
0.3417732619
0.3548328537
0.3563732671
0.3523139357
0.327831479
0.2851790223
0.2754734318
0.2767828335
0.2809264215
0.2898090548
0.3080525628
0.3420211817
0.3964682676
0.4696268944
0.5530942106
0.62031259
0.6430663773
0.6537548565
0.7013817818
0.7351687681
0.8160203809
0.9443940552
0.1813781205
0.1676181989
0.1854696717
0.1924459094
0.1961236491
0.1999829341
0.2091113281
0.2297820675
0.2675453991
0.3227972654
0.3884884533
0.4599158988
0.5600878216
0.7232051936
0.88031336
0.7668658494
0.3940827739
0.2700159882
0.2536782857
0.255736285
0.2653876749
0.2818905538
0.3079912806
0.3468522348
0.398308841
0.4550174121
0.5052674731
0.5436537134
0.5931108166
0.6862116702
0.7557934208
0.8700178388
1.029254092
0.1582513207
0.1492598648
0.1683713795
0.1784274299
0.1848515186
0.1912797852
0.2044584699
0.23248115
0.2814738627
0.353322675
0.4487751941
0.5857180824
0.8290743125
1.236715793
1.63760667
1.512817907
0.7303141395
0.3120899602
0.2459482355
0.2420475507
0.2519304395
0.266347683
0.2845467705
0.3085894701
0.3410892178
0.3812738309
0.42343247
0.4680158123
0.536661074
0.6537853376
0.7504410851
0.883424513
1.057859784
0.1393943191
0.1320765144
0.1495915121
0.1606440512
0.1690646558
0.1776933432
0.1930742005
0.2232976428
0.2736477048
0.3442057983
0.4399716892
0.5915539676
0.8976096911
1.487623164
2.123896819
1.987400602
0.8274379306
0.3415796707
0.2563408013
0.2492578221
0.260382251
0.2724537921
0.2822198327
0.2915622578
0.3058417653
0.3299024078
0.3646438654
0.4103964911
0.4788878073
0.6009479552
0.7113334571
0.847200623
1.024205084
0.1249102045
0.118052565
0.1318743055
0.1409871383
0.1493560048
0.1592417034
0.1754787047
0.2042291377
0.2494029611
0.3095798679
0.3847329721
0.4943108633
0.7136766882
1.176905062
1.750964754
1.631203058
0.6439434016
0.338451377
0.2790809055
0.278642499
0.2928280846
0.3021545826
0.3024543407
0.2967876865
0.2935560588
0.3009900935
0.3233154254
0.3634560485
0.4273796325
0.5314646811
0.6448395404
0.7731550308
0.9374629596
0.1116718862
0.1067284938
0.1167301583
0.1218440231
0.127604915
0.1370060131
0.15341187
0.1800242971
0.218416674
0.2662818662
0.3199912236
0.3842827092
0.4849144796
0.6774070529
0.9408338402
0.8816636079
0.4528069505
0.3322656786
0.3110600226
0.3236729794
0.3417126695
0.3477640951
0.3379728174
0.3180830403
0.2999463923
0.2931500899
0.2999802995
0.3253158815
0.3792027359
0.4692905371
0.5759055883
0.6920840481
0.8170382144
0.09494309331
0.09519130223
0.1029568724
0.1042192077
0.1061351106
0.1132788494
0.1289864293
0.1543745097
0.1883413387
0.2275152504
0.2674038826
0.3061728541
0.3496303593
0.4101896018
0.4792675419
0.4673289817
0.3632926956
0.3407990522
0.3528319733
0.3792917587
0.4007110275
0.4022987244
0.3828581054
0.3514509388
0.3235720513
0.3083456579
0.3006210037
0.3029630652
0.3333093269
0.4054371418
0.5036341605
0.6096454645
0.710076424
0.07155205776
0.07880226322
0.08580069219
0.08515919131
0.08448730887
0.08928728103
0.1032193092
0.1266480549
0.1569888594
0.1900441719
0.2215799396
0.2487792211
0.2717463737
0.2938802199
0.3161377841
0.325501105
0.3196140382
0.3388055009
0.3723278213
0.4105520563
0.4364610425
0.4363827843
0.4105306055
0.3720050646
0.3412300508
0.3244876108
0.3077651387
0.2889210015
0.2875470381
0.3259077171
0.3989200614
0.4804773906
0.5643181623
0.04539601572
0.06425193829
0.07296291627
0.07331925474
0.07390965217
0.08139851334
0.09844616002
0.1238667568
0.1547720242
0.187553072
0.2183542361
0.2440348441
0.2632378083
0.2773366805
0.2895995478
0.3021399523
0.3198992956
0.3545950949
0.4032514333
0.4594041603
0.5000197059
0.5048140725
0.47304309
0.4252219407
0.3884296021
0.3620000728
0.3290498552
0.2910065466
0.2696024941
0.2744698303
0.3072566297
0.3453263323
0.4169151122
0.8952193984
0.7055872369
0.5038713711
0.3998305589
0.3264693855
0.2319390345
0.1580711476
0.1441303847
0.1697705046
0.2083240915
0.2454357664
0.2767170077
0.3035777469
0.3274170245
0.3454588206
0.3580275349
0.3693545397
0.3883013325
0.4464157744
0.4865591209
0.5846246616
0.4788545622
0.4311429585
0.4162613407
0.4087349415
0.3939642013
0.3985411212
0.4036112916
0.3839262478
0.2462366127
0.2623254864
0.2717941004
0.2680602101
0.2297382472
0.1681557138
0.1314621635
0.1325563823
0.157326696
0.1917860691
0.2294741926
0.2658363753
0.3012966136
0.3317863216
0.3524254844
0.3648994725
0.3745485424
0.3856234383
0.4088294302
0.4612325206
0.4728236046
0.4644690157
0.4400111484
0.4142971366
0.3859563415
0.3577815775
0.344124821
0.338505541
0.3189776832
0.2827392028
0.2433076556
0.2135730747
0.1934622479
0.192936303
0.2163540661
0.2108977903
0.1798956273
0.1428139176
0.1292817829
0.1415813706
0.170833973
0.185527321
0.2146537459
0.2511875725
0.2910522402
0.3267561721
0.355467496
0.3754646893
0.3861834016
0.3959144875
0.4085382908
0.4274870187
0.4461905593
0.4576144998
0.4374578659
0.4041354151
0.3663282853
0.3328430411
0.3099347452
0.2876877133
0.2674753458
0.2459038508
0.2274961889
0.2135285639
0.2642755029
0.2618948367
0.2623310441
0.2336083898
0.1845932201
0.1540964696
0.167512572
0.2778600177
0.3847414905
0.2536440284
0.2115021798
0.2397389249
0.2794596838
0.3179262206
0.353291196
0.3765379242
0.3868453204
0.3986124934
0.4120872233
0.4286153699
0.445525944
0.4492545689
0.4268795707
0.3886196419
0.3476023665
0.3251552251
0.3182871278
0.2959409048
0.2772888731
0.2661056439
0.2563837455
0.2462195377
0.2345731285
0.4089741102
0.345422955
0.3244945279
0.2973613337
0.2521447225
0.2471408651
0.6545279308
2.258343381
2.91736045
1.038531285
0.2771640519
0.2400821915
0.2801619227
0.3205885979
0.3420138199
0.3576297119
0.3725624787
0.3847054777
0.3997769377
0.4234870444
0.4475161487
0.4488415075
0.4220596525
0.386063674
0.3590510664
0.3429501278
0.3413432248
0.3330174812
0.3256361267
0.3171168864
0.30671648
0.294577697
0.2804225153
0.5363953398
0.3976149497
0.3645848246
0.3324850818
0.3209626807
0.6684133715
3.244820332
6.728313827
7.012181253
5.336157626
0.6838832882
0.2539879571
0.2660958347
0.3063290755
0.3398078547
0.3544647633
0.3658875727
0.3843350555
0.4072897359
0.4422816654
0.4723859998
0.4559258883
0.4142339927
0.3859021272
0.3737304967
0.3753101368
0.3860951347
0.3930396802
0.3927683615
0.3848941215
0.3692577543
0.3497233912
0.3280795612
0.586483827
0.4175827707
0.3767911314
0.3276828269
0.2861404325
0.3578672447
0.9731820271
2.873987845
3.520712036
0.9701511209
0.2758266281
0.231270646
0.2481772948
0.2774673973
0.3124888246
0.3481602467
0.3826776268
0.4142563099
0.4394734768
0.4572687621
0.4573549883
0.432326679
0.4054082183
0.3906813619
0.397910382
0.4251566127
0.4656925775
0.505065965
0.527933021
0.5237532871
0.4906393976
0.4370505913
0.3798470802
0.5610572591
0.4001963046
0.364554995
0.3199582122
0.2747910817
0.2508567793
0.2824335673
0.4223069038
0.5284547258
0.2714428534
0.2181233489
0.2287470196
0.2506780196
0.2769182464
0.3070042194
0.3386799776
0.3689139491
0.3957174891
0.4147159564
0.4229883092
0.4195551862
0.4078198515
0.3987492144
0.4045499443
0.4372333717
0.49978407
0.5830201085
0.66152847
0.7026389945
0.6911673592
0.6272409229
0.5330942778
0.4398998992
0.4763972101
0.34865392
0.3302424381
0.3027888806
0.2725689131
0.2469977014
0.2300122109
0.2288884582
0.236326895
0.212505116
0.2187762152
0.2330450652
0.2503054858
0.2683505811
0.286106675
0.3052810176
0.325756587
0.346415638
0.3645358684
0.377360819
0.3841999771
0.3883243213
0.3955100625
0.4168443216
0.4708077042
0.5675943567
0.6854010219
0.7780830288
0.8035986493
0.7664234522
0.6904858672
0.5824856206
0.4758790931
0.377564209
0.2888044497
0.2918347727
0.284129668
0.2691129822
0.2514277238
0.2335789246
0.2193230324
0.2121431334
0.2117098496
0.2205382149
0.2329499316
0.2464056497
0.2592791573
0.2726437328
0.2863763036
0.3011269752
0.3167239808
0.3318075493
0.3448793267
0.3559899846
0.3695667965
0.3872575287
0.41764947
0.4818957887
0.5851959741
0.7037208639
0.7738580871
0.7777398205
0.7420054733
0.6815396584
0.5822588692
0.4786013017
0.3011367521
0.2454466159
0.2640369258