/*--------------------------------*- C++ -*----------------------------------*\
  =========                 |
  \\      /  F ield         | OpenFOAM: The Open Source CFD Toolbox
   \\    /   O peration     | Website:  https://openfoam.org
    \\  /    A nd           | Version:  8
     \\/     M anipulation  |
\*---------------------------------------------------------------------------*/
FoamFile
{
    version     2.0;
    format      ascii;
    class       volScalarField;
    location    "1.9";
    object      N2;
}
// * * * * * * * * * * * * * * * * * * * * * * * * * * * * * * * * * * * * * //

dimensions      [0 0 0 0 0 0 0];

internalField   nonuniform List<scalar> 
67286
(
0.7899990055
0.7899991872
0.7899991887
0.789999002
0.78999898
0.7899991447
0.7899993699
0.7899995853
0.7899997897
0.7899999524
0.7900001006
0.7900002415
0.7900003791
0.7900005142
0.7900006482
0.7900007696
0.7900008451
0.7900008044
0.7900005776
0.7900008826
0.790001153
0.7900011753
0.7900011897
0.7900011127
0.7900010394
0.7900009454
0.7900008052
0.7900008009
0.7899991137
0.7899992195
0.7899991294
0.7899991231
0.7899991656
0.7899993644
0.789999586
0.7899997685
0.789999933
0.7900000248
0.7900001474
0.7900002828
0.7900004264
0.7900005693
0.7900007024
0.7900008241
0.7900009359
0.7900010113
0.7900010425
0.7900010597
0.7900012052
0.7900011879
0.7900011564
0.790001075
0.7900009715
0.790000838
0.79000067
0.7900005863
0.7900004119
0.7900002945
0.7900002854
0.7900003498
0.7899991407
0.7899990547
0.7899991986
0.7899993603
0.789999363
0.7899995618
0.7899997313
0.7899998959
0.7900001513
0.7900001522
0.790000227
0.7900003303
0.7900004592
0.7900006065
0.7900007474
0.7900008669
0.7900009924
0.7900010863
0.7900011459
0.7900011654
0.7900012563
0.7900011905
0.790001119
0.7900010191
0.7900009151
0.7900008428
0.7900008148
0.7900008149
0.7900008566
0.790000951
0.7900010307
0.79000109
0.7899989648
0.7899989793
0.7899992207
0.7899993776
0.7899995147
0.7899997384
0.7899997447
0.7899999732
0.7900006084
0.7900003872
0.7900004129
0.7900004577
0.7900005943
0.7900007546
0.7900008642
0.7900008907
0.7900010147
0.7900011085
0.7900011826
0.7900012118
0.79000122
0.790001156
0.7900010911
0.7900010507
0.790001113
0.790001145
0.7900011821
0.7900012606
0.7900013303
0.7900013886
0.790001426
0.7900014451
0.7900014484
0.789999241
0.7899991757
0.7899992868
0.7899995057
0.7899994191
0.7899992316
0.7899986279
0.7900001954
0.7900007898
0.79000055
0.7900005093
0.7900005001
0.7900005659
0.7900006759
0.7900007772
0.7900008566
0.7900010765
0.7900011412
0.7900011628
0.7900011833
0.7900011537
0.7900011276
0.7900011952
0.790001324
0.7900014032
0.7900014483
0.7900014771
0.7900015024
0.7900015147
0.7900015143
0.7900015017
0.7900014922
0.7900014899
0.7899994417
0.7899991664
0.7899991163
0.7899990231
0.7899984746
0.7899982883
0.7900032178
0.7900103607
0.7900037218
0.7900016581
0.7900008745
0.7900006826
0.7900007082
0.7900007526
0.7900008139
0.7900008793
0.7900009961
0.7900011273
0.7900012407
0.7900013022
0.7900012523
0.7900014148
0.7900015026
0.7900015605
0.790001582
0.7900015937
0.7900015955
0.7900015876
0.7900015415
0.7900014979
0.7900014512
0.7900014236
0.7900014225
0.7899996847
0.7899994493
0.7899995244
0.7899996814
0.789999751
0.7899994371
0.7899990125
0.790001351
0.7900012935
0.79000115
0.7900011238
0.7900010601
0.7900010233
0.7900010255
0.7900010512
0.7900010979
0.7900011761
0.7900012753
0.7900013778
0.7900014615
0.7900015108
0.7900015544
0.7900015841
0.7900016142
0.7900016374
0.7900016625
0.790001664
0.7900016367
0.7900015561
0.7900014909
0.7900014148
0.7900013598
0.7900013397
0.7899998132
0.7899996492
0.7899997195
0.7899998371
0.7899999503
0.7900000837
0.7900001185
0.7900004467
0.7900014562
0.7900013731
0.7900014273
0.7900014031
0.7900014
0.7900013953
0.7900013862
0.7900013822
0.7900013928
0.7900014153
0.7900014409
0.7900014639
0.7900014909
0.7900015386
0.7900015836
0.7900016324
0.790001677
0.7900017193
0.7900017367
0.7900017162
0.7900016257
0.7900015501
0.7900014465
0.7900013616
0.7900013171
0.7899999116
0.7899998445
0.7899999203
0.7900000023
0.7900001079
0.7900003147
0.790000597
0.7900009036
0.7900013685
0.7900014017
0.7900014248
0.7900014238
0.7900014097
0.7900013838
0.790001354
0.7900013306
0.790001319
0.7900013203
0.7900013352
0.7900013693
0.7900014288
0.7900015042
0.7900015735
0.7900016479
0.7900017173
0.790001784
0.7900018257
0.7900018215
0.7900017332
0.7900016563
0.7900015326
0.7900014198
0.7900013447
0.7899999545
0.7899999772
0.7900000481
0.7900001292
0.7900002911
0.7900005816
0.7900009393
0.7900012379
0.7900014389
0.7900014378
0.790001414
0.7900013761
0.7900013308
0.7900012846
0.7900012442
0.7900012164
0.7900012006
0.7900011955
0.7900012075
0.7900012525
0.7900013418
0.7900014496
0.7900015474
0.7900016524
0.79000175
0.790001843
0.7900019073
0.790001914
0.7900018136
0.7900017505
0.7900016278
0.7900015071
0.7900014151
0.789999944
0.7900000568
0.7900001538
0.790000274
0.7900004888
0.7900008123
0.7900011517
0.7900013704
0.7900014477
0.7900014199
0.7900013671
0.7900013019
0.7900012316
0.7900011673
0.7900011156
0.7900010762
0.7900010461
0.7900010265
0.7900010272
0.7900010723
0.7900011977
0.7900013444
0.7900014814
0.7900016206
0.7900017465
0.7900018665
0.790001957
0.7900019823
0.7900018804
0.7900018236
0.7900017166
0.7900015995
0.7900014958
0.7899999094
0.790000095
0.7900002388
0.7900004122
0.7900006746
0.7900010085
0.7900012987
0.7900014345
0.7900014335
0.7900013645
0.790001277
0.7900011862
0.7900010982
0.790001017
0.7900009427
0.7900008711
0.790000799
0.7900007325
0.7900006885
0.7900007108
0.7900009251
0.7900011567
0.7900013477
0.7900015256
0.7900016694
0.7900018028
0.7900019108
0.7900019587
0.7900018895
0.7900018335
0.7900017377
0.7900016296
0.7900015234
0.7899999144
0.7900001298
0.7900003289
0.7900005669
0.7900008747
0.7900011934
0.7900014036
0.7900014511
0.790001391
0.7900012896
0.7900011826
0.7900010792
0.7900009808
0.7900008877
0.790000799
0.7900007111
0.7900006166
0.7900005019
0.7900003434
0.7900001167
0.7900006693
0.7900009896
0.7900012371
0.7900014384
0.7900015901
0.7900017158
0.7900018138
0.790001867
0.7900018206
0.7900017733
0.7900016937
0.7900016024
0.7900015112
0.7899999803
0.7900001839
0.7900004179
0.7900006917
0.790001003
0.7900012806
0.7900014356
0.7900014473
0.7900013672
0.7900012515
0.7900011342
0.7900010241
0.7900009184
0.7900008114
0.7900006953
0.7900005568
0.7900003739
0.7900001173
0.7899997469
0.7899994012
0.7900001297
0.7900006709
0.7900010488
0.7900013116
0.7900014791
0.7900016046
0.7900016981
0.7900017594
0.7900017339
0.7900016977
0.790001634
0.790001562
0.7900014937
0.790000081
0.7900002546
0.7900004879
0.7900007564
0.7900010448
0.7900012946
0.7900014392
0.7900014553
0.7900013752
0.7900012494
0.790001117
0.7900009934
0.790000877
0.7900007593
0.7900006257
0.7900004463
0.7900001501
0.7899995871
0.7899984252
0.7899951208
0.7899997909
0.7900001944
0.7900008827
0.7900011998
0.7900013872
0.7900015181
0.7900016162
0.7900017267
0.7900016854
0.7900016492
0.7900015949
0.7900015402
0.7900014963
0.7900001919
0.7900003352
0.7900005423
0.7900007804
0.7900010385
0.7900012758
0.7900014347
0.7900014763
0.7900014118
0.7900012857
0.7900011417
0.7900010053
0.7900008801
0.7900007603
0.7900006346
0.7900004848
0.7900002797
0.7899999784
0.7899995124
0.7899984418
0.7900001114
0.7900004757
0.7900009012
0.7900011626
0.7900013279
0.7900014431
0.7900015205
0.7900016239
0.7900016263
0.7900016122
0.7900015762
0.7900015436
0.7900015276
0.7900002967
0.7900004175
0.7900005905
0.7900007907
0.7900010183
0.7900012485
0.7900014289
0.7900015055
0.7900014682
0.7900013542
0.79000121
0.7900010668
0.7900009369
0.7900008192
0.7900007076
0.7900005929
0.7900004643
0.7900003143
0.7900001345
0.7899998361
0.7900004585
0.7900007261
0.7900009837
0.7900011781
0.7900013121
0.7900013986
0.790001434
0.7900014426
0.7900015554
0.7900016031
0.7900016073
0.7900016031
0.7900016027
0.7900003848
0.7900004936
0.7900006366
0.7900008025
0.7900010026
0.7900012256
0.7900014256
0.790001539
0.7900015371
0.7900014469
0.7900013167
0.7900011786
0.7900010499
0.7900009367
0.7900008383
0.7900007506
0.790000671
0.7900006013
0.7900005429
0.7900004907
0.790000739
0.7900009082
0.7900010716
0.7900012135
0.790001316
0.7900013703
0.7900013743
0.7900013513
0.7900015229
0.7900016311
0.7900016823
0.7900016763
0.7900016255
0.7900004502
0.7900005583
0.790000681
0.7900008213
0.7900009992
0.7900012136
0.7900014266
0.7900015721
0.7900016069
0.7900015469
0.7900014404
0.7900013234
0.7900012107
0.7900011084
0.7900010218
0.7900009506
0.7900008941
0.7900008583
0.7900008427
0.7900008488
0.7900009516
0.7900010461
0.7900011453
0.7900012419
0.7900013126
0.7900013412
0.7900013356
0.7900013302
0.7900015193
0.7900016767
0.7900017378
0.7900016755
0.7900015388
0.7900004899
0.7900006082
0.790000722
0.7900008473
0.79000101
0.7900012162
0.7900014367
0.7900016086
0.7900016822
0.7900016634
0.7900015939
0.7900015058
0.7900014124
0.7900013244
0.7900012535
0.7900011958
0.7900011352
0.7900011031
0.7900010861
0.7900010869
0.7900011211
0.7900011597
0.7900012072
0.7900012628
0.7900013063
0.7900013213
0.7900013242
0.7900013554
0.7900015326
0.7900016913
0.7900016624
0.7900015174
0.7900012109
0.7900005006
0.790000639
0.7900007557
0.7900008756
0.7900010291
0.7900012269
0.7900014478
0.7900016353
0.7900017381
0.7900017565
0.790001728
0.7900016797
0.7900016184
0.7900015509
0.7900014926
0.7900014421
0.7900013769
0.7900013389
0.7900012999
0.7900012782
0.7900012694
0.790001264
0.7900012656
0.7900012835
0.7900013111
0.7900013251
0.790001346
0.790001419
0.7900015341
0.7900016024
0.7900014305
0.7900013339
0.7900008455
0.7900004778
0.790000643
0.7900007743
0.7900008988
0.790001051
0.7900012477
0.790001477
0.7900016903
0.7900018365
0.7900019036
0.7900019115
0.7900018798
0.7900018225
0.7900017683
0.7900017805
0.7900018443
0.7900016136
0.7900015873
0.7900014923
0.7900014471
0.7900014041
0.7900013637
0.7900013257
0.7900013053
0.7900013152
0.7900013409
0.7900013822
0.7900014749
0.7900014741
0.7900014133
0.7900011944
0.7900011034
0.7900006512
0.790000417
0.7900006077
0.7900007638
0.7900009031
0.79000106
0.7900012561
0.7900014875
0.790001715
0.7900018929
0.7900020009
0.7900020459
0.7900020453
0.7900020108
0.7900019676
0.7900019963
0.7900020557
0.7900017702
0.7900017516
0.7900016374
0.7900015753
0.7900015014
0.7900014318
0.7900013628
0.7900013068
0.7900012908
0.7900013215
0.790001385
0.790001461
0.7900013611
0.7900012191
0.7900010183
0.7900008838
0.7900004789
0.7900003199
0.790000521
0.7900007061
0.790000871
0.7900010405
0.7900012349
0.7900014536
0.7900016679
0.7900018436
0.7900019571
0.7900019968
0.7900019728
0.790001967
0.7900022054
0.7900027852
0.7900030932
0.7900019874
0.7900020286
0.7900017313
0.7900016514
0.7900015301
0.7900014332
0.7900013404
0.7900012576
0.7900012149
0.7900012365
0.7900013092
0.7900013706
0.7900012483
0.7900010695
0.7900008709
0.7900006865
0.7900003265
0.7900002023
0.790000384
0.7900005869
0.7900007839
0.7900009793
0.790001182
0.7900013871
0.7900015711
0.7900017109
0.7900017809
0.7900017433
0.7900016292
0.7900017046
0.7900023043
0.7900033186
0.7900038798
0.7900021039
0.790002071
0.7900017439
0.7900016357
0.7900014877
0.7900013719
0.7900012656
0.790001166
0.7900010986
0.7900011007
0.7900011763
0.7900012454
0.7900011552
0.790000963
0.7900007452
0.7900005168
0.7900002052
0.7900000946
0.7900002259
0.7900004152
0.7900006327
0.7900008624
0.7900010932
0.790001306
0.7900014724
0.7900015791
0.790001613
0.7900015256
0.7900013063
0.7900012008
0.7900016519
0.7900026593
0.7900035047
0.7900018876
0.7900018915
0.7900016776
0.7900015539
0.7900014171
0.7900012958
0.7900011888
0.7900010837
0.7900009917
0.7900009567
0.7900010177
0.7900011062
0.790001059
0.7900008778
0.7900006358
0.7900003784
0.790000123
0.79000003
0.7900000994
0.790000239
0.7900004424
0.7900006914
0.7900009585
0.7900012041
0.7900013841
0.7900014832
0.7900015113
0.7900014461
0.7900012362
0.7900009622
0.7900009867
0.7900015878
0.7900024203
0.7900017355
0.7900017179
0.7900015956
0.7900014655
0.7900013539
0.7900012379
0.7900011379
0.7900010375
0.790000929
0.7900008492
0.7900008655
0.7900009533
0.7900009417
0.7900007705
0.7900005106
0.7900002427
0.790000035
0.790000035
0.7900000533
0.7900001284
0.7900002809
0.7900005099
0.7900007879
0.7900010629
0.7900012748
0.7900013942
0.7900014352
0.7900014126
0.7900013011
0.7900010856
0.7900008952
0.7900010109
0.7900015775
0.7900016272
0.7900015747
0.7900014818
0.7900013766
0.7900012947
0.790001196
0.790001102
0.7900010041
0.7900008936
0.7900007908
0.7900007566
0.7900008069
0.7900008078
0.790000654
0.7900003902
0.7900001284
0.7899999634
0.7900001295
0.7900001173
0.7900001401
0.7900002319
0.7900004058
0.7900006417
0.7900008921
0.7900011039
0.790001244
0.7900013107
0.7900013215
0.790001285
0.7900011947
0.7900010735
0.7900010364
0.7900012628
0.790001415
0.7900013622
0.7900013018
0.7900012427
0.7900011938
0.7900011189
0.7900010298
0.7900009348
0.790000841
0.7900007477
0.7900006883
0.7900006838
0.7900006615
0.7900005309
0.7900002929
0.7900000585
0.789999931
0.7900003184
0.7900003098
0.7900003169
0.7900003713
0.7900004826
0.790000618
0.7900007404
0.7900008457
0.7900009364
0.7900010024
0.790001034
0.7900010311
0.7900009999
0.7900009573
0.790000945
0.7900010212
0.7900010731
0.7900010535
0.7900010488
0.7900010498
0.7900010465
0.7900010068
0.7900009326
0.7900008493
0.7900007865
0.7900007107
0.7900006245
0.7900005386
0.7900004596
0.7900003292
0.7900001295
0.7899999231
0.7899998102
0.7899980171
0.7899984484
0.7899987232
0.7899988455
0.7899989456
0.7899991028
0.7899993198
0.7899995432
0.7899997451
0.7899999037
0.7900000334
0.7900001475
0.7900002576
0.7900003708
0.7900004851
0.790000599
0.790000714
0.7900008594
0.7900011663
0.7900008992
0.7900011025
0.7900011513
0.7900011135
0.790001045
0.7900009431
0.790000806
0.790000693
0.7900005235
0.7899980116
0.7899986825
0.7899989992
0.7899990764
0.789999159
0.789999346
0.7899995847
0.7899998016
0.7899999488
0.7900000375
0.7900001217
0.7900002071
0.790000302
0.7900004118
0.7900005284
0.7900006419
0.7900007545
0.7900008745
0.7900010031
0.7900010213
0.790001135
0.7900011462
0.7900010847
0.790000986
0.7900008731
0.7900007374
0.7900005975
0.7900004809
0.7900004133
0.7900003672
0.7900003401
0.7900003418
0.7899984716
0.7899988799
0.7899991729
0.7899992955
0.7899993797
0.7899995868
0.7899998362
0.7900000328
0.7900001872
0.790000245
0.7900003046
0.7900003637
0.7900004291
0.7900005175
0.7900006194
0.7900007173
0.7900008145
0.7900009189
0.7900010157
0.7900010762
0.7900011297
0.7900011312
0.7900010625
0.7900009692
0.7900008671
0.7900007762
0.7900007043
0.7900006781
0.7900006897
0.7900007299
0.7900007738
0.7900008121
0.7899987695
0.7899989148
0.7899991656
0.7899993938
0.7899996772
0.7900000581
0.790000441
0.7900005491
0.7900006397
0.7900005365
0.7900005638
0.790000538
0.790000532
0.7900005728
0.7900006732
0.7900007997
0.7900008838
0.7900009756
0.7900010608
0.790001119
0.7900011455
0.7900011255
0.7900010575
0.7900010009
0.790000938
0.790000926
0.7900007518
0.7900009633
0.7900010522
0.7900011158
0.7900011654
0.7900011975
0.7900012071
0.7899988631
0.7899990062
0.7899992265
0.7899995672
0.7900000331
0.79000035
0.7900007896
0.7900004931
0.7900007806
0.7900006825
0.7900006823
0.7900006946
0.7900007105
0.7900007176
0.7900007541
0.7900008353
0.7900009112
0.7900010339
0.790001096
0.7900011341
0.7900011428
0.7900011177
0.7900011147
0.7900011566
0.7900011838
0.7900012071
0.79000122
0.7900012549
0.7900012767
0.7900012984
0.7900013214
0.7900013406
0.7900013474
0.7899989229
0.7899990697
0.7899992776
0.7899996282
0.7900002157
0.7900007312
0.7900004854
0.7899984569
0.7900010074
0.7900008337
0.7900009221
0.7900008073
0.7900008479
0.790000877
0.7900009167
0.7900009682
0.7900010149
0.7900010686
0.7900011097
0.7900011368
0.790001196
0.7900012559
0.7900013099
0.7900013383
0.7900013426
0.7900013472
0.7900013411
0.7900013351
0.7900013203
0.7900013119
0.7900013125
0.7900013183
0.7900013254
0.7899991317
0.7899992312
0.7899994134
0.7899996868
0.7900000416
0.7900004979
0.7900010005
0.7900009851
0.7900013239
0.790001082
0.7900010654
0.7900010463
0.7900010469
0.7900010651
0.7900010945
0.7900011323
0.7900011752
0.7900012235
0.7900012726
0.7900013171
0.7900013562
0.7900013777
0.7900013907
0.790001397
0.7900014
0.7900014073
0.7900013975
0.7900013641
0.7900013071
0.790001259
0.7900012288
0.7900012198
0.7900012262
0.7899993435
0.7899993894
0.7899995437
0.7899997646
0.790000055
0.790000451
0.7900008545
0.7900010529
0.7900012322
0.7900012274
0.790001276
0.7900012726
0.7900012803
0.7900012869
0.7900012886
0.7900012903
0.7900012983
0.7900013123
0.790001328
0.7900013411
0.7900013564
0.7900013739
0.7900013929
0.7900014111
0.7900014291
0.7900014489
0.7900014411
0.7900013938
0.7900013031
0.7900012141
0.7900011484
0.790001117
0.7900011196
0.7899995378
0.7899995623
0.7899996697
0.7899998108
0.7900000039
0.7900002705
0.7900006053
0.7900009277
0.7900011564
0.7900012407
0.7900012821
0.7900013048
0.7900013158
0.7900013122
0.7900012955
0.7900012738
0.7900012604
0.7900012586
0.7900012677
0.7900012838
0.7900013042
0.7900013294
0.7900013621
0.7900013979
0.790001438
0.7900014864
0.7900014963
0.7900014501
0.7900013389
0.7900012115
0.790001111
0.7900010511
0.7900010383
0.7899996706
0.7899997067
0.7899997769
0.7899998835
0.7900000704
0.7900003594
0.7900007122
0.7900010281
0.7900012046
0.7900012646
0.7900012783
0.7900012737
0.790001256
0.7900012267
0.7900011928
0.7900011601
0.7900011328
0.7900011136
0.7900011065
0.7900011186
0.790001157
0.7900012125
0.7900012841
0.7900013577
0.7900014369
0.7900015168
0.7900015543
0.7900015176
0.7900013988
0.7900012518
0.7900011246
0.7900010363
0.7900009988
0.7899997219
0.7899998002
0.7899998663
0.7899999729
0.7900001644
0.7900004433
0.7900007666
0.7900010379
0.7900011905
0.7900012376
0.7900012322
0.7900012009
0.7900011522
0.7900010947
0.7900010365
0.7900009837
0.7900009396
0.7900009051
0.7900008822
0.7900008867
0.7900009464
0.7900010428
0.790001162
0.7900012787
0.7900013962
0.7900015049
0.7900015665
0.790001552
0.7900014323
0.7900013021
0.7900011653
0.7900010547
0.7900009917
0.7899997285
0.789999851
0.7899999417
0.7900000703
0.7900002753
0.7900005496
0.7900008414
0.7900010661
0.7900011789
0.7900012
0.7900011678
0.7900011015
0.7900010156
0.7900009201
0.7900008237
0.7900007325
0.7900006491
0.790000577
0.7900005222
0.7900005208
0.7900006548
0.7900008048
0.7900009818
0.7900011453
0.7900012949
0.7900014231
0.7900015025
0.7900015169
0.7900014074
0.79000129
0.7900011608
0.7900010525
0.7900009829
0.7899997647
0.789999895
0.7900000152
0.7900001717
0.7900003908
0.7900006553
0.7900009097
0.7900010879
0.7900011659
0.7900011624
0.7900010991
0.7900009973
0.7900008728
0.7900007376
0.7900006031
0.7900004766
0.790000358
0.7900002324
0.7900000488
0.7899998165
0.7900002612
0.7900005695
0.7900008187
0.7900010172
0.7900011831
0.7900013137
0.7900013934
0.7900014212
0.7900013282
0.7900012321
0.7900011275
0.7900010409
0.7900009844
0.7899998488
0.789999952
0.7900000846
0.7900002547
0.7900004731
0.790000718
0.7900009412
0.7900010931
0.7900011542
0.7900011351
0.7900010489
0.7900009178
0.7900007581
0.7900005834
0.7900004047
0.7900002242
0.7900000242
0.7899997348
0.7899992518
0.7899992696
0.7900000861
0.7900002819
0.7900006581
0.7900008834
0.7900010596
0.7900011883
0.7900012661
0.7900013049
0.7900012361
0.7900011678
0.7900010941
0.790001035
0.7900009962
0.7899999547
0.7900000205
0.7900001433
0.7900003061
0.7900005097
0.790000734
0.7900009407
0.7900010868
0.7900011482
0.7900011253
0.7900010284
0.7900008788
0.7900006954
0.790000494
0.7900002836
0.790000052
0.7899997247
0.7899990571
0.7899972199
0.7899933581
0.7899991493
0.7899997487
0.7900004917
0.7900007633
0.7900009483
0.7900010703
0.7900011443
0.790001196
0.7900011605
0.790001125
0.7900010822
0.7900010467
0.7900010182
0.7900000628
0.7900000957
0.7900001944
0.7900003356
0.7900005177
0.7900007243
0.790000925
0.7900010794
0.7900011549
0.7900011419
0.7900010483
0.7900008952
0.7900007046
0.790000497
0.7900002881
0.7900000818
0.789999854
0.7899995309
0.7899988439
0.7899972789
0.7899996241
0.7900000703
0.7900005056
0.7900007278
0.7900008677
0.7900009523
0.7900009941
0.7900010214
0.7900010678
0.7900010906
0.7900010871
0.7900010728
0.7900010451
0.7900001634
0.7900001742
0.7900002453
0.7900003604
0.7900005197
0.790000711
0.7900009106
0.7900010798
0.7900011783
0.7900011863
0.7900011091
0.7900009682
0.7900007877
0.7900005908
0.790000398
0.7900002236
0.7900000693
0.7899999212
0.7899997268
0.7899993236
0.7900001005
0.7900003593
0.7900005872
0.79000073
0.7900008029
0.7900008195
0.7900007976
0.7900007678
0.790000932
0.7900010398
0.7900010938
0.7900011071
0.7900010774
0.7900002502
0.7900002523
0.7900003014
0.7900003931
0.790000532
0.7900007105
0.7900009107
0.7900010961
0.7900012202
0.7900012553
0.7900012043
0.7900010883
0.7900009329
0.7900007613
0.7900005942
0.79000045
0.7900003402
0.7900002666
0.7900002169
0.7900001559
0.7900004328
0.7900005802
0.7900006963
0.7900007638
0.7900007674
0.7900007121
0.7900006306
0.7900005701
0.7900008248
0.7900010033
0.7900011107
0.7900011545
0.7900011036
0.7900003185
0.7900003264
0.7900003639
0.7900004393
0.7900005629
0.7900007316
0.7900009327
0.7900011316
0.7900012777
0.7900013387
0.7900013174
0.7900012362
0.7900011184
0.7900009834
0.7900008489
0.7900007318
0.7900006465
0.7900005995
0.7900005864
0.7900005956
0.7900007033
0.790000777
0.7900008262
0.7900008373
0.7900007874
0.7900006787
0.7900005611
0.790000507
0.7900007869
0.7900010005
0.7900011298
0.7900011635
0.7900010127
0.7900003636
0.7900003912
0.7900004297
0.7900004986
0.7900006136
0.7900007767
0.7900009792
0.7900011879
0.7900013502
0.7900014317
0.7900014374
0.7900013921
0.7900013164
0.7900012247
0.7900011285
0.7900010356
0.7900009624
0.7900009187
0.7900009017
0.7900009059
0.790000941
0.7900009666
0.7900009757
0.7900009537
0.7900008765
0.7900007424
0.7900006123
0.7900005724
0.7900008122
0.7900009664
0.7900009693
0.7900009344
0.7900006366
0.7900003805
0.7900004384
0.7900004907
0.7900005641
0.7900006784
0.7900008396
0.7900010417
0.7900012513
0.7900014148
0.7900014992
0.7900015165
0.7900014982
0.7900014653
0.7900014233
0.7900013704
0.7900013079
0.7900012473
0.7900012024
0.7900011692
0.7900011503
0.7900011437
0.7900011376
0.7900011264
0.7900010948
0.790001015
0.7900008838
0.7900007558
0.7900007061
0.7900008237
0.790000808
0.7900005977
0.7900005276
0.790000178
0.7900003636
0.790000456
0.790000534
0.790000624
0.790000747
0.7900009114
0.7900011107
0.7900013083
0.7900014484
0.7900015031
0.7900014988
0.790001482
0.7900014831
0.7900015004
0.7900015145
0.790001507
0.7900014448
0.7900014149
0.7900013669
0.7900013266
0.790001287
0.790001252
0.7900012233
0.790001194
0.790001142
0.7900010354
0.7900009182
0.7900008298
0.7900007779
0.7900005792
0.7900002785
0.7900001947
0.7899998472
0.7900003097
0.7900004312
0.7900005423
0.7900006598
0.790000802
0.7900009767
0.7900011766
0.7900013621
0.7900014769
0.7900015019
0.7900014683
0.7900014148
0.7900013831
0.7900014089
0.7900014706
0.7900014874
0.7900015099
0.7900015043
0.7900014682
0.7900014182
0.7900013463
0.7900012775
0.7900012238
0.7900011877
0.7900011586
0.7900011064
0.7900010181
0.7900008972
0.7900007081
0.7900003988
0.7900000747
0.7899999691
0.7899996218
0.7900002236
0.7900003562
0.7900004982
0.7900006505
0.7900008214
0.7900010147
0.790001222
0.7900014048
0.7900015097
0.7900015227
0.7900014776
0.7900014043
0.7900013276
0.7900012489
0.7900011698
0.7900010425
0.7900014329
0.7900015252
0.7900014741
0.7900014202
0.7900013111
0.7900012057
0.7900011236
0.790001072
0.7900010521
0.7900010458
0.790001015
0.7900009127
0.790000672
0.7900003216
0.7899999858
0.7899998347
0.7899994949
0.7900001228
0.7900002403
0.7900003967
0.7900005804
0.7900007855
0.7900010057
0.7900012285
0.7900014197
0.7900015333
0.7900015553
0.790001514
0.7900014171
0.7900012493
0.7900010501
0.7900009712
0.7900008892
0.7900013129
0.7900014274
0.7900013987
0.7900013326
0.7900011953
0.7900010644
0.7900009646
0.7900009011
0.7900008783
0.7900008945
0.7900009234
0.7900008902
0.7900006864
0.7900003531
0.7900000082
0.7899997976
0.7899994643
0.7900000359
0.7900001169
0.7900002591
0.7900004542
0.7900006873
0.7900009384
0.790001184
0.7900013909
0.7900015224
0.79000157
0.7900015616
0.790001506
0.7900013674
0.790001148
0.790001038
0.7900009978
0.7900013033
0.7900013489
0.7900012989
0.7900012017
0.7900010499
0.7900009108
0.7900008098
0.7900007453
0.7900007153
0.7900007288
0.7900007908
0.7900008388
0.790000732
0.7900004567
0.7900001207
0.7899998522
0.7899995361
0.7899999934
0.7900000325
0.7900001357
0.7900003104
0.7900005469
0.7900008185
0.7900010881
0.7900013137
0.7900014629
0.7900015314
0.7900015494
0.790001544
0.7900014929
0.7900013562
0.7900012135
0.7900011524
0.7900013152
0.790001286
0.7900012083
0.7900010826
0.7900009296
0.7900007975
0.7900007047
0.7900006457
0.790000609
0.7900006045
0.7900006631
0.7900007566
0.7900007533
0.7900005706
0.7900002709
0.789999971
0.789999679
0.7900000228
0.7900000273
0.7900000824
0.7900002111
0.7900004168
0.7900006777
0.7900009513
0.7900011864
0.7900013471
0.7900014299
0.7900014605
0.7900014734
0.7900014774
0.790001446
0.7900013857
0.7900013165
0.7900013118
0.7900012358
0.7900011338
0.7900009989
0.790000858
0.7900007409
0.7900006609
0.7900006104
0.7900005675
0.790000541
0.7900005718
0.7900006553
0.7900007011
0.7900006062
0.7900003707
0.7900000931
0.7899998617
0.7900001427
0.7900001243
0.7900001393
0.7900002172
0.790000369
0.7900005781
0.7900008058
0.7900010099
0.7900011602
0.7900012483
0.7900012879
0.7900013034
0.7900013138
0.790001318
0.7900013018
0.7900012628
0.7900012102
0.7900011322
0.7900010405
0.790000929
0.79000082
0.7900007283
0.7900006628
0.7900006157
0.7900005658
0.7900005209
0.7900005166
0.7900005517
0.7900005755
0.7900005148
0.7900003415
0.7900001227
0.7899999678
0.7900003432
0.790000336
0.7900003404
0.7900003855
0.7900004803
0.7900005963
0.7900006994
0.7900007846
0.7900008585
0.7900009173
0.7900009553
0.7900009736
0.7900009802
0.7900009802
0.7900009749
0.7900009658
0.7900009467
0.7900009108
0.7900008776
0.7900008371
0.790000795
0.7900007473
0.7900006972
0.7900006482
0.7900005985
0.7900005355
0.7900004776
0.7900004283
0.7900003833
0.7900002933
0.7900001335
0.7899999414
0.7899998207
0.7899980446
0.7899984341
0.7899986558
0.7899987509
0.7899988411
0.7899989769
0.7899991742
0.7899994008
0.7899996209
0.7899998028
0.7899999449
0.7900000634
0.7900001757
0.7900002895
0.7900004143
0.7900005485
0.7900006885
0.7900008484
0.7900009742
0.7900009924
0.7900011027
0.7900012199
0.7900011858
0.790001091
0.7900009698
0.7900008354
0.7900007268
0.7900006061
0.7900005261
0.7899979997
0.7899985416
0.7899988498
0.789998936
0.7899990211
0.7899991658
0.7899993725
0.7899995999
0.7899998014
0.7899999514
0.7900000664
0.7900001618
0.7900002534
0.7900003519
0.7900004671
0.7900005943
0.7900007234
0.7900008604
0.790000984
0.7900010841
0.7900011605
0.7900012054
0.7900011535
0.7900010479
0.7900009188
0.7900007836
0.7900006727
0.7900005749
0.7900005106
0.7900004563
0.7900004089
0.7900003766
0.789998228
0.7899986593
0.7899989745
0.7899990901
0.7899991805
0.7899993392
0.789999564
0.7899998032
0.7900000022
0.7900001393
0.7900002365
0.7900003078
0.7900003751
0.7900004493
0.7900005445
0.7900006531
0.7900007799
0.7900009019
0.7900010164
0.7900011134
0.7900011699
0.7900011857
0.7900011319
0.7900010384
0.7900009288
0.790000823
0.790000743
0.7900006834
0.7900006527
0.7900006409
0.7900006405
0.7900006432
0.7899985259
0.7899987663
0.7899989923
0.7899991525
0.7899993184
0.7899995384
0.7899997999
0.7900000088
0.7900002101
0.7900003485
0.7900004506
0.7900005009
0.7900005376
0.790000585
0.7900006707
0.7900007795
0.7900008863
0.7900009804
0.7900010744
0.7900011489
0.7900011864
0.7900011809
0.7900011317
0.7900010633
0.7900009889
0.7900009307
0.7900009983
0.7900009265
0.7900009127
0.7900009213
0.7900009352
0.7900009393
0.7900009273
0.7899986356
0.7899988547
0.7899990284
0.7899992449
0.789999469
0.7899997006
0.7899999035
0.7900000128
0.7900001744
0.790000486
0.7900005761
0.7900006415
0.7900006822
0.790000707
0.7900006945
0.7900005571
0.7900009356
0.7900010511
0.7900011293
0.7900011798
0.7900012003
0.7900011839
0.7900011552
0.7900011341
0.7900011144
0.7900010985
0.7900010925
0.7900010986
0.7900011078
0.790001117
0.7900011213
0.7900011147
0.7900010919
0.7899987618
0.7899989207
0.7899990692
0.7899992507
0.7899994936
0.7899996478
0.7899998831
0.7899997652
0.7899998589
0.790000832
0.7900007114
0.7900007756
0.7900008465
0.7900009023
0.7900009438
0.7900009712
0.7900010603
0.7900011177
0.7900011679
0.7900012077
0.790001241
0.7900012456
0.7900012467
0.7900012425
0.7900012311
0.7900012212
0.7900012153
0.7900012053
0.7900011947
0.7900011829
0.7900011679
0.7900011483
0.7900011211
0.7899989552
0.78999907
0.7899992089
0.7899993871
0.7899996121
0.7899998378
0.7900000205
0.7900003305
0.7900007407
0.7900007653
0.7900008957
0.7900009568
0.7900009999
0.7900010385
0.790001072
0.7900011044
0.790001163
0.790001212
0.7900012566
0.7900012913
0.7900013139
0.7900013165
0.7900013149
0.7900013053
0.7900012896
0.7900012784
0.7900012611
0.7900012333
0.7900011922
0.7900011458
0.790001106
0.7900010805
0.790001066
0.7899991407
0.7899992263
0.7899993476
0.7899995066
0.7899997099
0.789999949
0.7900002086
0.7900004317
0.790000674
0.7900008856
0.790001031
0.7900010962
0.790001135
0.7900011604
0.7900011768
0.7900011905
0.7900012128
0.7900012426
0.7900012761
0.7900013028
0.7900013177
0.790001322
0.7900013248
0.7900013218
0.7900013106
0.7900013109
0.7900012944
0.7900012537
0.7900011813
0.7900010911
0.7900010156
0.7900009688
0.7900009455
0.7899993188
0.7899993846
0.7899994808
0.7899996049
0.7899997711
0.7899999893
0.7900002618
0.7900005597
0.7900008158
0.7900009746
0.790001077
0.7900011341
0.790001165
0.7900011774
0.7900011752
0.7900011719
0.7900011756
0.7900011896
0.7900012126
0.7900012358
0.7900012519
0.7900012619
0.7900012744
0.790001285
0.7900012902
0.7900013384
0.790001341
0.7900013019
0.7900012024
0.7900010656
0.7900009529
0.7900008825
0.7900008595
0.789999454
0.7899995177
0.7899995914
0.7899996952
0.7899998536
0.7900000759
0.7900003515
0.7900006368
0.7900008695
0.7900010122
0.7900010886
0.7900011215
0.7900011283
0.7900011165
0.7900010957
0.7900010733
0.7900010569