/*--------------------------------*- C++ -*----------------------------------*\
  =========                 |
  \\      /  F ield         | OpenFOAM: The Open Source CFD Toolbox
   \\    /   O peration     | Website:  https://openfoam.org
    \\  /    A nd           | Version:  8
     \\/     M anipulation  |
\*---------------------------------------------------------------------------*/
FoamFile
{
    version     2.0;
    format      ascii;
    class       volScalarField;
    location    "1.9";
    object      T;
}
// * * * * * * * * * * * * * * * * * * * * * * * * * * * * * * * * * * * * * //

dimensions      [0 0 0 1 0 0 0];

internalField   nonuniform List<scalar> 
67286
(
300.0028982
300.0028137
300.0027141
300.0027112
300.0026876
300.0025268
300.0024719
300.0025039
300.0025345
300.0025561
300.0025659
300.0025734
300.0025867
300.0026118
300.0026507
300.0027046
300.0027802
300.0028994
300.0030253
300.0029104
300.0027966
300.0027743
300.0027289
300.0027037
300.0026675
300.0026183
300.0025669
300.0025142
300.0027656
300.0026482
300.0026109
300.0026663
300.0025929
300.0024537
300.002471
300.002517
300.0025495
300.0025841
300.002598
300.0026054
300.0026159
300.002641
300.0026816
300.0027313
300.0027849
300.0028437
300.0028917
300.002887
300.002784
300.0027362
300.0026874
300.0026543
300.002616
300.002571
300.0025288
300.0024951
300.0024922
300.0024821
300.0024689
300.0024613
300.0025983
300.0024927
300.0024924
300.002554
300.0025082
300.0024704
300.0025057
300.0025074
300.0025406
300.0025826
300.0025977
300.0026072
300.0026182
300.0026403
300.0026762
300.0027204
300.002761
300.0028052
300.0028423
300.0028591
300.0027842
300.0027313
300.0026813
300.0026448
300.0026121
300.0025804
300.0025531
300.002521
300.0025095
300.002506
300.0025015
300.0024934
300.0025003
300.0025036
300.0025114
300.0024875
300.0024565
300.0024594
300.0023897
300.0021789
300.0023916
300.002546
300.0025783
300.0026041
300.0025971
300.0026043
300.0026368
300.0026958
300.0027288
300.0027566
300.0027755
300.0027848
300.0027538
300.0027124
300.002675
300.0026438
300.0026242
300.0026138
300.0026107
300.0025883
300.0025938
300.0025998
300.0025956
300.0025821
300.0025619
300.0025824
300.0026594
300.0026337
300.0025232
300.002654
300.0025707
300.0020566
300.0011752
300.0022478
300.0025177
300.0025748
300.0025901
300.0025924
300.0026028
300.0026363
300.0026859
300.0026719
300.0026701
300.0027092
300.002717
300.0027112
300.0026826
300.0026372
300.0026248
300.0026282
300.002616
300.0026144
300.0026263
300.0026588
300.0026723
300.0026694
300.002657
300.002637
300.0027194
300.0027967
300.0028281
300.0028067
300.0024734
300.0010015
299.9983257
299.9972952
300.0012243
300.0018997
300.0024636
300.0025546
300.0025187
300.0025366
300.0025659
300.0026085
300.0026267
300.0026222
300.0026363
300.0026359
300.0026227
300.0026097
300.0026477
300.0026637
300.0026537
300.0026238
300.0026268
300.0026582
300.0027054
300.0027144
300.002708
300.0026981
300.0026862
300.0026425
300.0027034
300.0026848
300.0026455
300.0026356
300.0025298
300.0018148
300.0005105
300.0021833
300.0024133
300.0024261
300.0024173
300.0024127
300.0024243
300.0024495
300.0024848
300.0025201
300.0025546
300.0025944
300.0026329
300.0026692
300.0026922
300.0027
300.0026866
300.0026569
300.0026286
300.0026448
300.0026905
300.0027412
300.0027409
300.0027272
300.0027146
300.0027089
300.0025767
300.0026461
300.0026505
300.0026547
300.0026618
300.0026148
300.0024581
300.0021156
300.0023435
300.0024502
300.0024355
300.0024476
300.0024468
300.0024615
300.0024876
300.0025218
300.0025609
300.0026033
300.0026463
300.0026849
300.0027117
300.0027192
300.0027136
300.0026937
300.0026676
300.002657
300.0026837
300.0027387
300.002794
300.0027862
300.00276
300.0027345
300.0027179
300.0025009
300.0025818
300.0026108
300.0026436
300.0026629
300.0026422
300.0025945
300.002535
300.0025202
300.0025221
300.0025031
300.0024931
300.0024955
300.0025102
300.0025342
300.0025649
300.0026015
300.0026425
300.002684
300.0027191
300.0027414
300.0027481
300.0027407
300.0027222
300.0027048
300.002709
300.0027481
300.0028117
300.0028744
300.002858
300.0028124
300.0027665
300.0027342
300.0024396
300.0025474
300.0026038
300.0026364
300.0026282
300.0025855
300.0025432
300.0025261
300.0025151
300.0025258
300.0025247
300.0025258
300.002531
300.0025424
300.0025621
300.0025914
300.0026312
300.0026801
300.0027316
300.0027749
300.0027978
300.0028009
300.0027886
300.0027698
300.0027592
300.0027744
300.0028255
300.0029001
300.0029675
300.0029334
300.0028648
300.0027986
300.0027504
300.0024025
300.0025304
300.0025882
300.0026019
300.002577
300.0025375
300.002516
300.0025235
300.0025345
300.0025433
300.0025452
300.0025492
300.0025579
300.0025723
300.0025948
300.0026287
300.0026761
300.0027355
300.0028005
300.0028557
300.0028741
300.0028699
300.0028488
300.0028262
300.0028157
300.0028326
300.0028837
300.002958
300.0030231
300.0029612
300.0028774
300.0028045
300.0027525
300.0024021
300.0025239
300.0025651
300.0025622
300.0025335
300.0025074
300.0025086
300.0025338
300.0025585
300.0025746
300.0025845
300.0025939
300.0026063
300.0026245
300.0026529
300.0026963
300.0027586
300.0028388
300.002931
300.0030139
300.0030052
300.0029707
300.0029238
300.00288
300.0028469
300.0028382
300.0028622
300.0029119
300.0029731
300.0029154
300.0028393
300.0027741
300.0027293
300.0024286
300.0025203
300.0025381
300.0025243
300.0025019
300.0024978
300.0025226
300.0025607
300.0025923
300.0026136
300.0026291
300.0026433
300.002659
300.0026794
300.0027091
300.002754
300.0028224
300.0029252
300.0030767
300.0032999
300.0031169
300.0030326
300.0029559
300.00289
300.0028353
300.0028078
300.002815
300.0028482
300.0029076
300.0028622
300.0028012
300.0027497
300.0027154
300.002455
300.0025191
300.0025207
300.0025052
300.0024925
300.0025004
300.0025287
300.0025632
300.0025916
300.002612
300.0026281
300.002644
300.0026637
300.0026916
300.0027332
300.002797
300.0028965
300.0030446
300.0032425
300.0034283
300.0032313
300.0031613
300.0030076
300.002902
300.0028221
300.0027725
300.0027593
300.0027744
300.0028339
300.0028031
300.0027597
300.002724
300.0027006
300.002471
300.0025251
300.0025225
300.0025099
300.0025015
300.0025083
300.0025289
300.0025553
300.0025799
300.0026
300.0026171
300.0026345
300.0026562
300.0026874
300.0027357
300.002816
300.0029641
300.0032496
300.0037419
300.0052042
300.00341
300.0033278
300.0030223
300.0028862
300.0027908
300.0027274
300.0026983
300.0026847
300.002749
300.0027346
300.0027105
300.0026921
300.0026808
300.0024807
300.0025386
300.0025391
300.0025292
300.0025192
300.0025177
300.0025268
300.0025439
300.0025638
300.0025826
300.0025999
300.0026173
300.002638
300.0026662
300.0027074
300.0027701
300.0028702
300.0030273
300.0032567
300.0037468
300.0031836
300.0030842
300.0029263
300.002822
300.0027386
300.0026825
300.0026619
300.0026479
300.0026787
300.0026666
300.0026567
300.0026544
300.0026546
300.0024878
300.0025552
300.0025608
300.0025524
300.0025382
300.0025272
300.0025245
300.0025319
300.0025457
300.0025614
300.0025771
300.0025932
300.0026114
300.0026342
300.0026648
300.0027069
300.002766
300.0028473
300.0029552
300.003136
300.0029488
300.0028882
300.0028089
300.0027367
300.0026773
300.0026538
300.0026783
300.0027389
300.0026733
300.0026269
300.0026098
300.0026114
300.0026155
300.0024927
300.00257
300.0025807
300.002573
300.0025549
300.0025355
300.002522
300.0025194
300.0025261
300.0025369
300.0025492
300.0025629
300.0025785
300.0025964
300.0026177
300.0026433
300.0026746
300.0027129
300.0027607
300.0028247
300.0027745
300.002747
300.0027016
300.0026509
300.0026188
300.002635
300.0027032
300.002809
300.0026832
300.0026061
300.0025702
300.0025655
300.0025694
300.0024938
300.00258
300.0025953
300.0025884
300.0025674
300.0025415
300.002519
300.0025073
300.0025067
300.0025117
300.0025188
300.0025284
300.002541
300.002556
300.0025715
300.0025867
300.0026018
300.0026181
300.0026383
300.0026644
300.0026577
300.0026455
300.0026139
300.002577
300.002567
300.0026101
300.0026995
300.0028128
300.0026698
300.0025791
300.0025266
300.0025133
300.0025071
300.0024899
300.0025835
300.0026034
300.0025974
300.0025742
300.002543
300.0025122
300.0024909
300.0024807
300.0024773
300.0024777
300.002483
300.0024939
300.0025078
300.0025212
300.0025324
300.0025439
300.0025517
300.0025622
300.0025771
300.0025816
300.0025739
300.0025474
300.0025184
300.002521
300.002575
300.0026673
300.002772
300.0026263
300.0025329
300.0024981
300.0024872
300.002521
300.0024804
300.0025797
300.0026046
300.0026002
300.0025758
300.0025406
300.0025035
300.0024748
300.0024581
300.0024494
300.0024447
300.0024449
300.0024527
300.0024679
300.0024856
300.0024974
300.0025001
300.0025045
300.0025127
300.0025241
300.0025305
300.0025238
300.0024997
300.0024738
300.002478
300.0025309
300.0026151
300.002701
300.0025575
300.0024997
300.0025591
300.0025155
300.0026828
300.0024659
300.0025682
300.0025981
300.0025958
300.0025706
300.002532
300.0024905
300.00246
300.0024466
300.0024439
300.0024412
300.0024321
300.0024167
300.0024005
300.0023834
300.0023761
300.0024569
300.0024521
300.0024751
300.0024845
300.0024922
300.0024871
300.0024664
300.0024417
300.00244
300.0024808
300.0025497
300.0026068
300.0025109
300.0025307
300.0026338
300.002573
300.0027439
300.0024495
300.0025503
300.002584
300.0025845
300.0025598
300.0025196
300.0024772
300.0024491
300.0024413
300.0024455
300.0024481
300.0024387
300.0024163
300.0023952
300.002384
300.0024005
300.0024386
300.0024263
300.0024479
300.0024529
300.0024644
300.0024639
300.0024496
300.0024277
300.0024172
300.0024383
300.0024862
300.0025274
300.0025086
300.0025809
300.0026536
300.0026126
300.0027674
300.0024363
300.0025299
300.0025639
300.0025667
300.0025447
300.002507
300.0024676
300.002443
300.0024367
300.002437
300.0024252
300.0023852
300.0023221
300.0022679
300.0022683
300.0023906
300.0023983
300.002343
300.0024342
300.0024283
300.0024573
300.0024658
300.0024619
300.0024455
300.0024267
300.0024252
300.0024508
300.0024891
300.0025291
300.0026097
300.0026527
300.0026397
300.0027796
300.0024317
300.0025143
300.0025429
300.0025447
300.0025257
300.0024942
300.0024622
300.0024436
300.0024394
300.0024355
300.0024089
300.0023393
300.0022252
300.0021064
300.0020595
300.002166
300.0023128
300.0022961
300.0024421
300.002436
300.0024868
300.0025061
300.0025129
300.0025037
300.002481
300.0024572
300.0024552
300.002487
300.0025497
300.0026229
300.0026543
300.0026684
300.0027944
300.0024363
300.0025098
300.0025283
300.002523
300.0025036
300.0024785
300.0024574
300.0024488
300.0024517
300.0024552
300.0024393
300.0023768
300.0022543
300.0020947
300.001991
300.00203
300.0023596
300.0023575
300.0024903
300.0024927
300.002553
300.0025789
300.0025906
300.0025877
300.0025702
300.0025353
300.0025009
300.0025066
300.0025648
300.0026303
300.0026651
300.0027036
300.002811
300.002441
300.0025131
300.0025233
300.0025064
300.0024799
300.0024572
300.0024471
300.0024523
300.002467
300.0024818
300.0024866
300.0024642
300.0023902
300.0022533
300.0021221
300.0021216
300.0024913
300.0024627
300.0025538
300.0025767
300.0026318
300.0026583
300.0026687
300.0026701
300.0026671
300.0026415
300.0025856
300.0025479
300.0025793
300.0026417
300.0026906
300.0027518
300.0028495
300.0024246
300.0025054
300.0025151
300.0024883
300.002451
300.002425
300.0024226
300.0024426
300.002473
300.0025014
300.0025219
300.0025302
300.0025151
300.0024608
300.0023763
300.0023354
300.0025603
300.0025491
300.0026134
300.0026502
300.0026938
300.0027161
300.0027242
300.0027298
300.0027447
300.002742
300.0026886
300.002612
300.0025984
300.0026513
300.0027185
300.0027992
300.0029035
300.0023571
300.0024564
300.0024748
300.0024462
300.0024034
300.0023763
300.0023806
300.0024131
300.0024585
300.0025022
300.0025375
300.002564
300.0025817
300.0025863
300.0025712
300.0025414
300.0026057
300.0026138
300.0026609
300.0027001
300.0027335
300.0027514
300.0027588
300.0027693
300.002798
300.002814
300.0027758
300.002687
300.0026344
300.0026652
300.0027431
300.0028318
300.0029456
300.0022206
300.0023362
300.0023686
300.0023529
300.0023252
300.0023158
300.002333
300.0023677
300.0024094
300.002451
300.0024885
300.0025209
300.0025495
300.0025735
300.0025858
300.0025747
300.0025729
300.0025848
300.0026143
300.0026444
300.0026686
300.0026842
300.0026951
300.0027125
300.0027467
300.0027696
300.0027452
300.0026719
300.0026214
300.0026348
300.0027041
300.0027812
300.0028765
300.0027674
300.0027019
300.0026576
300.0026337
300.0025834
300.0024942
300.0024401
300.0024476
300.0024795
300.0025179
300.0025511
300.0025805
300.0026102
300.0026449
300.0026896
300.0027428
300.0027952
300.0028117
300.0026754
300.0027221
300.0027952
300.0027824
300.0027344
300.0026797
300.0026252
300.0025857
300.0025442
300.002566
300.0026564
300.0025485
300.0025316
300.0025412
300.0024961
300.0024211
300.0024009
300.0024142
300.0024537
300.0025049
300.0025463
300.0025843
300.002621
300.0026579
300.0027016
300.0027535
300.0028068
300.0028439
300.002842
300.0028446
300.0028245
300.0027716
300.0027178
300.0026678
300.0026132
300.0025645
300.0025249
300.0025127
300.0024987
300.0024771
300.0024624
300.0024599
300.0024703
300.0024236
300.0024295
300.002451
300.0024271
300.0024007
300.0024057
300.0024254
300.0024456
300.0025005
300.0025384
300.0025785
300.0026181
300.0026546
300.0026917
300.0027356
300.0027866
300.0028279
300.0028523
300.0028609
300.0028335
300.0027708
300.0027156
300.0026679
300.0026257
300.0025833
300.0025469
300.0025092
300.0024866
300.0024711
300.0024601
300.0024523
300.0024909
300.0025103
300.0024812
300.002416
300.0023307
300.0022593
300.0021851
300.0022035
300.0022465
300.002424
300.0024776
300.0025577
300.0026197
300.0026663
300.0026896
300.0027045
300.0027427
300.0027756
300.0027975
300.0028039
300.0027859
300.0027462
300.0027063
300.0026722
300.0026624
300.0026453
300.0027074
300.0025749
300.0025355
300.0025129
300.002495
300.002479
300.0024648
300.0026299
300.002635
300.0025749
300.0024514
300.0023109
300.0022117
300.0020334
300.002145
300.0021641
300.0024186
300.0024798
300.0025304
300.0025696
300.0026202
300.0026621
300.0026953
300.0027136
300.0027099
300.0027326
300.0027385
300.0027249
300.002704
300.0026672
300.0026387
300.0026274
300.0026126
300.0026038
300.0025783
300.0025653
300.0025511
300.002533
300.0025141
300.0024987
300.0027177
300.002701
300.002643
300.00251
300.0022413
300.0019903
300.0024097
300.0037244
300.0030234
300.0023582
300.0023574
300.0024863
300.0024862
300.0025256
300.0025647
300.0026009
300.0026338
300.0026623
300.002689
300.0026915
300.0026532
300.0026302
300.0026352
300.0026463
300.0026492
300.0026378
300.0026291
300.0026167
300.0026115
300.0025977
300.0025737
300.0025465
300.0025273
300.0026587
300.0026753
300.0026389
300.0025601
300.0024608
300.0022825
300.0019946
300.0019427
300.0019562
300.0023933
300.0024171
300.0024307
300.0024304
300.0024421
300.0024669
300.0025013
300.0025376
300.0025736
300.0026044
300.0026243
300.0026381
300.0026597
300.0026805
300.0026935
300.0026901
300.0026733
300.0026645
300.0026674
300.0026742
300.0026641
300.002636
300.0026024
300.0025755
300.002576
300.0026243
300.0026163
300.0025752
300.0025125
300.0024131
300.0023044
300.0022628
300.0022607
300.002403
300.0024068
300.0024357
300.0024431
300.0024578
300.0024809
300.0025122
300.0025478
300.0025846
300.0026197
300.0026524
300.0026839
300.0027127
300.0027338
300.0027445
300.0027387
300.0027208
300.0027198
300.0027382
300.0027597
300.0027548
300.0027176
300.0026692
300.0026277
300.002485
300.0025635
300.002593
300.002601
300.002591
300.0025622
300.0025148
300.0024709
300.0024536
300.002482
300.00248
300.0024812
300.0024845
300.0024968
300.0025194
300.0025512
300.0025901
300.0026313
300.0026719
300.0027105
300.0027456
300.0027746
300.0027921
300.0028004
300.0027943
300.0027793
300.0027935
300.0028332
300.0028709
300.0028684
300.0028132
300.0027442
300.0026866
300.0024078
300.0025196
300.0025802
300.0026092
300.0026037
300.002563
300.0025087
300.0024717
300.0024707
300.0024915
300.0025027
300.0025116
300.0025214
300.002538
300.0025643
300.0025994
300.002642
300.0026897
300.0027394
300.0027856
300.0028213
300.0028451
300.0028521
300.0028551
300.0028488
300.0028438
300.0028743
300.0029319
300.0029702
300.0029545
300.002881
300.0028003
300.0027365
300.0023629
300.0024995
300.0025731
300.0026062
300.0026021
300.0025697
300.00253
300.0025083
300.002508
300.0025206
300.002532
300.0025437
300.0025594
300.0025819
300.0026119
300.0026495
300.0026947
300.0027476
300.0028069
300.0028632
300.0028969
300.0029113
300.0029067
300.002905
300.0028987
300.0028995
300.0029321
300.002988
300.0030168
300.0029752
300.0028969
300.0028231
300.0027664
300.0023655
300.0024997
300.0025674
300.0025949
300.0025886
300.002561
300.0025329
300.0025223
300.0025298
300.0025462
300.0025644
300.0025836
300.0026069
300.0026363
300.0026723
300.0027159
300.0027683
300.0028291
300.0028967
300.0029556
300.0029625
300.0029758
300.0029572
300.0029444
300.0029265
300.0029164
300.0029334
300.0029689
300.0029925
300.0029495
300.0028834
300.0028249
300.00278
300.0023989
300.0025084
300.0025606
300.0025796
300.0025717
300.0025508
300.0025341
300.0025327
300.0025454
300.002567
300.002592
300.0026195
300.0026513
300.0026883
300.0027307
300.0027801
300.0028409
300.0029192
300.0030267
300.003153
300.0030309
300.0030303
300.0029878
300.002957
300.002923
300.0028978
300.0028981
300.0029173
300.0029397
300.002907
300.0028582
300.002814
300.0027778
300.0024296
300.0025174
300.0025572
300.002571
300.0025643
300.0025495
300.0025392
300.0025409
300.0025543
300.0025771
300.0026054
300.0026389
300.0026781
300.002723
300.0027739
300.0028329
300.0029035
300.0029737
300.002954
300.0024896
300.0026582
300.0030496
300.0029992
300.0029578
300.0029049
300.0028648
300.0028501
300.0028559
300.0028754
300.0028559
300.0028248
300.0027932
300.002763
300.0024461
300.0025267
300.002562
300.002575
300.0025704
300.0025584
300.002549
300.0025487
300.0025591
300.0025794
300.0026076
300.0026429
300.0026853
300.0027344
300.002792
300.0028679
300.0029915
300.0032034
300.0034468
300.0034655
300.0030556
300.0032869
300.0030246
300.002942
300.0028719
300.0028243
300.0028045
300.0028018
300.0028099
300.0027985
300.0027822
300.0027621
300.0027381
300.0024529
300.0025373
300.0025742
300.0025892
300.0025862
300.0025741
300.0025618
300.0025564
300.002561
300.0025761
300.0026005
300.0026335
300.0026739
300.0027203
300.0027724
300.0028342
300.0029198
300.0030508
300.0032477
300.0034744
300.0031193
300.0030842
300.0029494
300.0028804
300.0028237
300.00279
300.0027874
300.0027967
300.0027681
300.0027476
300.0027369
300.0027251
300.0027078
300.002455
300.0025473
300.0025891
300.0026072
300.0026055
300.0025919
300.0025751
300.002563
300.0025605
300.0025688
300.0025871
300.0026141
300.0026485
300.0026883
300.0027313
300.0027773
300.0028301
300.002897
300.0029875
300.0031328
300.0029514
300.0029149
300.0028545
300.0028089
300.0027756
300.0027723
300.0028051
300.0028434
300.0027597
300.002714
300.0026963
300.002686
300.0026735
300.0024537
300.0025543
300.0026017
300.0026233
300.0026228
300.0026074
300.0025856
300.0025666
300.002557
300.0025583
300.0025692
300.0025885
300.0026144
300.0026454
300.0026786
300.0027114
300.0027431
300.0027757
300.0028137
300.0028686
300.0028098
300.0027927
300.0027651
300.0027389
300.0027294
300.0027573
300.0028222
300.0028788
300.0027506
300.0026833
300.0026561
300.0026427
300.0026339
300.0024486
300.002556
300.0026083
300.0026334
300.0026341
300.0026171
300.0025907
300.0025654
300.0025493
300.0025445
300.0025485
300.0025592
300.002576
300.0025973
300.0026211
300.0026444
300.0026643
300.0026809
300.0026972
300.0027173
300.0027047
300.0026996
300.002686
300.0026724
300.0026801
300.0027287
300.00281
300.0028645
300.0027231
300.0026442
300.0026131
300.0025941
300.0025961
300.0024391
300.0025508
300.0026068
300.0026345
300.0026363
300.0026178
300.0025873
300.0025563
300.0025344
300.0025241
300.002522
300.0025254
300.0025337
300.0025465
300.0025622
300.0025799
300.0025947
300.0026055
300.0026151
300.0026255
300.0026267
300.0026258
300.002617
300.002609
300.002624
300.0026799
300.0027616
300.0028035
300.002676
300.002614
300.0026139
300.0025929
300.0026301
300.0024257
300.0025388
300.0025965
300.0026252
300.0026276
300.0026083
300.0025754
300.0025419
300.0025191
300.0025094
300.0025066
300.0025049
300.0025033
300.0025048
300.0025119
300.0025237
300.0025357
300.0025444
300.0025532
300.0025621
300.0025676
300.0025677
300.0025592
300.0025506
300.0025634
300.0026144
300.0026865
300.0027195
300.002634
300.0026253
300.0026844
300.0026499
300.0027113
300.0024104
300.0025214
300.0025782
300.002606
300.0026079
300.0025882
300.002556
300.0025269
300.002515
300.0025199
300.0025273
300.0025231
300.0025036
300.0024785
300.0024622
300.0024646
300.0024904
300.0024966
300.0025083
300.0025177
300.0025263
300.0025285
300.0025209
300.0025089
300.0025099
300.0025472
300.0026047
300.0026403
300.0026174
300.0026691
300.0027463
300.0026948
300.0027631
300.0023972
300.0025021
300.002555
300.0025794
300.0025793
300.0025592
300.0025289
300.0025069
300.0025081
300.0025281
300.0025456
300.0025418
300.0025123
300.0024678
300.0024421
300.0024528
300.0024582
300.0024742
300.0024848
300.0024931
300.0025079
300.0025165
300.0025139
300.0025017
300.0024919
300.0025043
300.0025428
300.0025858
300.0026219
300.0027087
300.0027766
300.0027192
300.0027924
300.0023912
300.0024861
300.0025317
300.00255
300.0025462
300.0025254
300.0024974
300.0024805
300.002489
300.0025158
300.0025369
300.0025347
300.0025215
300.0025397
300.0026127
300.0026568
300.0024571
300.0024566
300.0024843
300.0024926
300.0025215
300.0025417
300.0025482
300.0025394
300.0025211
300.0025094
300.002521
300.0025599
300.0026286
300.0027274
300.0027846
300.0027342
300.0028074
300.0023954
300.0024788
300.0025137
300.0025226
300.002513
300.0024914
300.0024664
300.0024532
300.0024633
300.0024907
300.0025159
300.0025272
300.0025412
300.0025916
300.0026787
300.0027234
300.0024947
300.002483
300.0025161
300.0025298
300.0025746
300.0026061
300.0026202
300.0026153
300.0025931
300.0025625
300.0025429
300.002559
300.002627
300.0027236
300.0027788
300.0027441
300.0028143
300.0024067
300.002481
300.0025044
300.0025009
300.0024824
300.0024587
300.002438
300.0024299
300.002441
300.0024654
300.002487
300.0024999
300.0025188
300.0025673
300.0026296
300.0026704
300.0025216
300.0025304
300.0025726
300.0026002
300.0026549
300.0026914
300.002707
300.0027032
300.0026819
300.0026433
300.0025968
300.0025759
300.0026173
300.0027004
300.0027608
300.0027474
300.0028098
300.0024125
300.002484
300.0024996
300.0024837
300.0024537
300.0024253
300.0024087
300.002409
300.0024257
300.0024516
300.0024737
300.0024824
300.0024901
300.0025275
300.0025856
300.0026211
300.0025536
300.0025857
300.0026311
300.0026743
300.0027305
300.0027656
300.0027782
300.0027733
300.0027563
300.0027221
300.0026638
300.0026073
300.0026067
300.0026656
300.0027291
300.0027425
300.0027968
300.0023905
300.0024683
300.0024833
300.0024594
300.0024191
300.0023849
300.0023712
300.0023812
300.002408
300.0024405
300.0024682
300.002483
300.0024845
300.0024897
300.0025107
300.0025433
300.0025627
300.0026091
300.0026604
300.0027129
300.0027651
300.0027965
300.0028057
300.0028007
300.0027913
300.0027694
300.0027165
300.0026424
300.0026017
300.0026284
300.0026906
300.0027307
300.002784
300.002313
300.0024107
300.0024337
300.0024091
300.0023657
300.0023317
300.0023238
300.0023431
300.0023787
300.0024182
300.0024519
300.0024748
300.0024849
300.0024862
300.0024899
300.0025094
300.0025544
300.0026004
300.0026512
300.0027026
300.002747
300.0027737
300.0027824
300.0027821
300.002784
300.0027754
300.0027346
300.0026629
300.0026032
300.0026022
300.0026556
300.0027084
300.0027691
300.0021724
300.0022932
300.0023305
300.0023182
300.0022903
300.0022756
300.0022831
300.0023064
300.0023369
300.0023684
300.0023962
300.0024177
300.0024314
300.002439
300.0024455
300.0024587
300.0024879
300.0025234
300.002564
300.0026041
300.0026366
300.0026574
300.0026686
300.0026787
300.002695
300.0026987
300.0026676
300.0026066
300.0025578
300.0025512
300.0025944
300.0026466
300.0026993
300.002617
300.002584
300.0025813
300.0026023
300.0025757
300.0025025
300.0024343
300.0024136
300.0024299
300.0024663
300.0025075
300.0025458
300.0025791
300.0026109
300.0026462
300.002687
300.0027265
300.0027341
300.0026897
300.0025267
300.0027181
300.0027105
300.002677
300.0026269
300.0025839
300.0025452
300.0025217
300.0025389
300.0025465
300.0025193
300.0024769
300.0024771
300.0025047
300.0024903
300.0024439
300.0024114
300.0024061
300.0024233
300.0024607
300.0025036
300.0025461
300.0025835
300.0026172
300.002652
300.0026909
300.0027346
300.0027671
300.0027746
300.002752
300.0027641
300.0027262
300.0026778
300.0026289
300.002582
300.0025384
300.0025042
300.0025008
300.0024963
300.0024838
300.0024714
300.0024645
300.0024518
300.0024159
300.0024189
300.0024441
300.0024437
300.0024292
300.0024214
300.0024234
300.0024348
300.0024716
300.0025111
300.0025544
300.0025929
300.0026276
300.0026584
300.0026903
300.0027231
300.0027588
300.0027835
300.0027869
300.0027761
300.0027333
300.0026835
300.0026399
300.0025998
300.0025602
300.0025222
300.0024952
300.0024776
300.0024631
300.0024507
300.002441
300.0024982
300.0024998
300.0024849
300.0024716
300.0024423
300.0024249
300.0024123
300.0024244
300.0023991
300.0024476
300.0024875
300.0025346
300.002578
300.0026122
300.0026339
300.0026528
300.0026806
300.0027155
300.0027401
300.0027491
300.0027406
300.0027141
300.0026793
300.0026487
300.0026238
300.0025958
300.0025103
300.0025066
300.0024877
300.0024705
300.002454
300.0024394
300.0024271
300.0026203
300.002596
300.0025833
300.0025413
300.0024867
300.0024389
300.0024024
300.0022875
300.0023107
300.0024157
300.0025007
300.0025318
300.0025612
300.002594
300.0026504
300.0027782
300.0026792
300.002676
300.0026932
300.0027014
300.002695
300.0026824
300.0026592
300.002635
300.0026152
300.0025932
300.0025668
300.002538
300.0025142
300.002493
300.0024731
300.0024557
300.0024426
300.0026638
300.0026632
300.0026501
300.0026131
300.0025483
300.0025105
300.0023403
300.0026703
300.0030635
300.0023573
300.0024655
300.0024964
300.0025051
300.0025285
300.0025593
300.0025994
300.0026143
300.0026414
300.0026637
300.0026679
300.0026515
300.002639
300.0026323
300.0026288
300.0026236
300.0026098
300.0025874
300.002566
300.0025441
300.0025218
300.0024994
300.0024803
300.0024671
300.0026072
300.002641
300.0026357
300.0026029
300.0025585
300.002513
300.0024169
300.0021498
300.0021381
300.0024167
300.002479
300.0024749
300.0024736
300.0024849
300.0025086
300.002541
300.0025633
300.0025893
300.0026116
300.002624
300.0026278
300.0026364
300.0026471
300.0026568
300.0026607
300.0026481
300.0026297
300.0026117
300.0025948
300.0025747
300.0025493
300.0025215
300.0024971
300.0025195
300.0025814
300.0025982
300.0025869
300.002563
300.0025404
300.0025155
300.0024968
300.0024531
300.0024738
300.0024626
300.0024626
300.0024673
300.0024806
300.002502
300.0025292
300.0025563
300.0025839
300.0026098
300.0026321
300.0026522
300.0026743
300.0026941
300.0027104
300.0027157
300.0026988
300.0026831
300.0026743
300.002669
300.0026558
300.0026224
300.002583
300.0025542
300.0024216
300.0025088
300.0025529
300.0025715
300.0025733
300.0025622
300.002536
300.0025006
300.0024739
300.0024847
300.0024829
300.0024842
300.0024901
300.0025031
300.0025235
300.0025505
300.0025805
300.0026113
300.0026412
300.0026707
300.0027012
300.0027317
300.0027555
300.0027751
300.0027831
300.0027569
300.0027517
300.0027621
300.0027747
300.0027611
300.0027062
300.0026449
300.0025994
300.0023372
300.0024519
300.0025201
300.0025582
300.0025698
300.0025578
300.0025298
300.0024997
300.0024804
300.0024828
300.0024897
300.0025003
300.0025129
300.0025292
300.0025523
300.0025811
300.0026134
300.0026471
300.002681
300.0027153
300.0027526
300.0027875
300.002807
300.0028241
300.0028282
300.002811
300.0028204
300.002846
300.0028583
300.0028309
300.0027594
300.0026905
300.0026435
300.0022894
300.0024248
300.0025052
300.0025516
300.0025679
300.0025585
300.0025329
300.0025067
300.0024923
300.0024946
300.0025055
300.0025206
300.0025379
300.0025591
300.002585
300.0026146
300.0026462
300.0026794
300.0027147
300.0027525
300.0027941
300.0028287
300.0028423
300.0028574
300.0028588
300.0028476
300.0028579
300.0028839
300.0028902
300.002848
300.0027769
300.0027173
300.002678
300.0022941
300.0024256
300.0025033
300.0025488
300.002565
300.0025566
300.0025337
300.0025119
300.0025028
300.0025088
300.0025245
300.002545
300.0025684
300.0025951
300.0026247
300.0026551
300.002683
300.0027036
300.0027131
300.0027003
300.0027511
300.0028395
300.0028577
300.0028765
300.0028716
300.0028573
300.0028599
300.002876
300.0028786
300.0028358
300.0027781
300.002733
300.0027023
300.0023296
300.0024396
300.0025065
300.0025469
300.0025614
300.002554
300.0025351
300.0025181
300.0025132
300.0025227
300.0025429
300.0025687
300.0025984
300.0026306
300.0026631
300.0026927
300.0027137
300.0027141
300.0026618
300.0024709
300.0026024
300.0028172
300.0028628
300.0028783
300.0028651
300.0028445
300.0028378
300.002845
300.0028471
300.0028137
300.0027725
300.0027393
300.0027137
300.0023602
300.0024539
300.0025116
300.0025474
300.0025607
300.0025552
300.0025399
300.0025264
300.0025237
300.0025347
300.0025571
300.0025868
300.0026216
300.0026587
300.0026934
300.0027162
300.0026981
300.0025445
300.0019924
300.000574
300.0016916
300.0025702
300.0027919
300.0028583
300.0028413
300.0028193
300.0028082
300.0028103
300.0028087
300.0027873
300.0027613
300.0027363
300.0027135
300.0023752
300.0024651
300.002519
300.0025528
300.002566
300.0025621
300.0025491
300.002537
300.0025342
300.0025444
300.0025661
300.0025967
300.0026335
300.002673
300.0027102
300.0027356
300.0027157
300.0025174
300.0016007
299.992644
300.0016722
300.0025866
300.0027984
300.0028326
300.0028133
300.0027931
300.0027874
300.0027885
300.0027708
300.0027556
300.0027414
300.0027233
300.0027046
300.0023795
300.0024735
300.0025284
300.0025627
300.0025767
300.0025741
300.0025617
300.0025489
300.0025439
300.0025508