/*--------------------------------*- C++ -*----------------------------------*\
  =========                 |
  \\      /  F ield         | OpenFOAM: The Open Source CFD Toolbox
   \\    /   O peration     | Website:  https://openfoam.org
    \\  /    A nd           | Version:  8
     \\/     M anipulation  |
\*---------------------------------------------------------------------------*/
FoamFile
{
    version     2.0;
    format      ascii;
    class       volVectorField;
    location    "1.9";
    object      U;
}
// * * * * * * * * * * * * * * * * * * * * * * * * * * * * * * * * * * * * * //

dimensions      [0 1 -1 0 0 0 0];

internalField   nonuniform List<vector> 
67286
(
(0.04538731856 0.3467430465 -0.4539466271)
(0.149358381 0.2427579944 -0.3335059648)
(0.1120442675 0.190896707 -0.1758742248)
(0.06209255901 0.1392432215 -0.01869862144)
(-0.06962656627 0.06044791589 0.071359341)
(-0.1716031568 -0.01778034563 0.1292763504)
(-0.3094751521 -0.07039190799 0.1483839925)
(-0.4327962019 -0.07301104531 0.1278914802)
(-0.5452479447 -0.05515188043 0.0968156912)
(-0.6452061939 -0.04584491128 0.06602087891)
(-0.7191211902 -0.04292745255 0.03528897966)
(-0.7628890347 -0.04179871577 0.004277952982)
(-0.7740384164 -0.03899962947 -0.02733304661)
(-0.7531038447 -0.02861621241 -0.05861732137)
(-0.7087184845 -0.006974734717 -0.08765461443)
(-0.6439823819 0.02465972055 -0.1109822851)
(-0.5613791896 0.06235107601 -0.1250382987)
(-0.4627036927 0.1066451924 -0.1334962987)
(-0.3580153585 0.1613054349 -0.3135417035)
(-0.06338395433 0.2190154459 -0.2200735029)
(0.2123282053 0.2162452592 -0.09384030933)
(0.2313039238 0.2191029638 -0.03575640221)
(0.2827124318 0.2406591766 -0.006103066336)
(0.3149265318 0.2899574847 -0.0552307066)
(0.3589588272 0.2705764332 0.02216924171)
(0.359622403 0.2526762389 0.08586289158)
(0.3000937309 0.2596004087 0.1117424762)
(0.2974780036 0.2683630615 -0.03149890661)
(0.04541275341 0.4465517408 -0.3717827789)
(0.1127895582 0.32609218 -0.1753987366)
(0.04434064736 0.2414744722 0.02470144854)
(-0.03970988787 0.1535087524 0.08623373192)
(-0.1266317469 0.04233825534 0.114513435)
(-0.2025338697 -0.08354668463 0.1670415539)
(-0.3168859096 -0.1207908709 0.1633486867)
(-0.3946665013 -0.1137896477 0.1425251282)
(-0.4779896613 -0.04552606061 0.09173371909)
(-0.5736753043 -0.01054761863 0.04805027351)
(-0.6450298982 0.004994758126 0.01153195662)
(-0.6891743349 0.009583717347 -0.01830074634)
(-0.6998145702 0.01166437792 -0.04542614037)
(-0.6798657419 0.02322591853 -0.07346701386)
(-0.638056193 0.05107270036 -0.1017868985)
(-0.5793099661 0.09004701579 -0.1271328372)
(-0.4985021685 0.1306726533 -0.1479380943)
(-0.3910324581 0.1744213032 -0.1613197209)
(-0.2594005252 0.2220915781 -0.1677995256)
(-0.07338399263 0.2897485418 -0.1665656924)
(0.1290428311 0.2053406803 -0.1118143362)
(0.2160347432 0.2083913331 -0.05383823746)
(0.2864663998 0.2058677908 -0.006314194593)
(0.3290295234 0.206217392 0.03213291695)
(0.3562608224 0.1842668673 0.0717030858)
(0.3637213665 0.1651217641 0.1129322273)
(0.3415455887 0.1605465029 0.1395676611)
(0.3445834183 0.1876133627 0.07135331303)
(0.4084104486 0.1737556288 0.05849147518)
(0.4611284547 0.1288040809 0.09809935829)
(0.4853049062 0.05809406484 0.1357509606)
(0.4855700919 -0.0177937534 0.1482263294)
(0.0623912826 0.4413707108 -0.187570108)
(0.0822128218 0.2648438918 0.06391280738)
(0.01487421205 0.1736886739 0.1573844594)
(-0.05836078491 0.1064376154 0.1197399449)
(-0.1294047144 -0.0381855279 0.1418148975)
(-0.2383264286 -0.1832641797 0.1784547082)
(-0.3586262753 -0.251291588 0.1890997717)
(-0.3772012368 -0.280103318 0.1801762799)
(-0.4211824618 -0.1248460383 0.1169824643)
(-0.5419407204 -0.06225654146 0.05960808567)
(-0.6195812618 -0.02403153139 0.005268144859)
(-0.6621620362 0.006056758374 -0.03826459293)
(-0.6645287791 0.02087894745 -0.07287019354)
(-0.6377102075 0.04572446533 -0.09496570572)
(-0.5943248137 0.09082578588 -0.1024530706)
(-0.5421056249 0.1459006289 -0.1065599366)
(-0.4675871691 0.1856813281 -0.1234793312)
(-0.3671593333 0.2173947173 -0.143107471)
(-0.2466944584 0.2345707175 -0.1565169269)
(-0.09765276767 0.2443833028 -0.1627985703)
(0.07389701234 0.2076011039 -0.161174089)
(0.1795476687 0.1901035592 -0.07982354393)
(0.2522134796 0.1581360308 -0.009008240162)
(0.2918074396 0.1153141677 0.04563387056)
(0.3142932332 0.05572469339 0.08169200702)
(0.3260538238 0.002617764412 0.115651595)
(0.3341632078 -0.0440217645 0.1445478528)
(0.3609466618 -0.04564947892 0.1583164)
(0.4007885055 -0.08179590529 0.166761791)
(0.430606136 -0.1334104766 0.1663911432)
(0.448682636 -0.1736276074 0.1551541499)
(0.4530763595 -0.2078481629 0.1408791156)
(0.05147933674 0.2535067982 0.07268263541)
(0.02973329288 0.0936261306 0.1594868013)
(-0.04700624321 0.06103965552 0.1512600384)
(-0.1066269543 0.05227819998 0.158386408)
(-0.2028887382 -0.1062503441 0.2108960534)
(-0.3559790604 -0.2086999019 0.2527035026)
(-0.4710136161 -0.3659022346 0.2198950806)
(-0.3966487317 -0.5204733854 0.03995294787)
(-0.3155070184 -0.145099457 0.1789867692)
(-0.4915793855 -0.01119055809 0.1231647224)
(-0.5617211418 0.05776146819 0.004158079197)
(-0.6029197418 0.1011801404 -0.09833407654)
(-0.6062515948 0.1313098061 -0.1656111089)
(-0.5711314664 0.1572156023 -0.1806512936)
(-0.5256847338 0.1773251217 -0.132932077)
(-0.4924063785 0.1913654413 -0.0668948171)
(-0.4426926971 0.1981712502 -0.07737726868)
(-0.3617202841 0.2329655282 -0.09242962586)
(-0.255084973 0.254489148 -0.1046082502)
(-0.126067134 0.2520923934 -0.1097126791)
(0.01384620766 0.2227433246 -0.1085136541)
(0.1084125168 0.1709911679 -0.0243399666)
(0.162847367 0.1099354195 0.04590396374)
(0.1773974749 0.03136593833 0.09360136389)
(0.2053661165 -0.04852858724 0.07409047079)
(0.2444005327 -0.1285873179 0.0919218747)
(0.2818682436 -0.2077099536 0.09578992878)
(0.3249146455 -0.255957679 0.1220527558)
(0.3603447901 -0.2906076294 0.1108569794)
(0.3905290962 -0.3185721191 0.09150139845)
(0.4141504073 -0.3387230454 0.07843596239)
(0.4271469582 -0.3533854859 0.07448574189)
(0.4268450173 -0.3663299661 0.07871899374)
(-0.008178010005 0.04804540628 0.09693824659)
(-0.03150078224 0.0232267541 0.04690438044)
(-0.09364077631 -0.01002780238 0.04967284496)
(-0.1740602299 -0.08862622664 0.09435112422)
(-0.1929361374 -0.231762373 0.1079446299)
(-0.439276089 -0.4540835646 0.1207095749)
(-0.6760120787 -0.8376265367 -0.3609782106)
(-0.5920674781 -0.9504699993 -1.012337652)
(-0.2622054973 -0.4020049322 -0.06659045291)
(-0.4529906922 -0.1799719686 0.1600161248)
(-0.5530361246 -0.03368269395 0.07838984536)
(-0.6115325482 0.1218475198 0.00546368034)
(-0.6284715088 0.1952431662 -0.05088199233)
(-0.5989741281 0.2361425948 -0.08505336152)
(-0.5361509552 0.2402149147 -0.1107536336)
(-0.4494176706 0.224263286 -0.1530892001)
(-0.330259276 0.2191501714 -0.1759272969)
(-0.3332623617 0.2339816306 -0.01508440898)
(-0.2511943474 0.2149561952 -0.03165195004)
(-0.1576622188 0.1886149098 -0.02749459324)
(-0.05056480714 0.1714709282 0.0003658442249)
(0.0141211701 0.09445803707 0.0732325682)
(0.06114280337 -0.01036241195 0.1288891295)
(0.07388889839 -0.1329431778 0.1347383219)
(0.1082276457 -0.2130373484 0.1104041503)
(0.1492431614 -0.3055027522 0.0962784902)
(0.1918334981 -0.3872816261 0.08272949981)
(0.2365546265 -0.4317398037 0.05506288634)
(0.2881857538 -0.4508174571 0.01551100612)
(0.3392100307 -0.460718886 -0.009458148452)
(0.3838785043 -0.4606428646 -0.01527752534)
(0.4129584461 -0.4552787603 -0.005312541343)
(0.4222998874 -0.4492748098 0.01671442988)
(-0.07120049746 0.08380188916 0.01735227808)
(-0.1287362736 0.08423375215 -0.002113781786)
(-0.2443872747 0.06930888839 0.04850281061)
(-0.4343626334 0.03543533996 0.1750937256)
(-0.8729329686 0.005574286805 0.1403356412)
(-1.432686889 -0.02510069715 -0.6316568817)
(-1.290200433 0.04032650895 -1.974639248)
(-0.937773454 0.1129976106 -2.940497311)
(0.2375103579 -0.03115705268 -1.044202475)
(0.1644448343 -0.07025635231 0.1479367318)
(-0.3260306426 0.02114541461 0.228601694)
(-0.4692457435 0.09622177511 0.1429197957)
(-0.5893860395 0.1614884201 0.09008810789)
(-0.6053341557 0.2097144909 0.05590003226)
(-0.5948694867 0.2348478531 0.02652937123)
(-0.5537284767 0.2439422957 -0.01140856699)
(-0.4819216857 0.2461490406 -0.03552056364)
(-0.4299184879 0.2060591211 0.004167028369)
(-0.3283697303 0.1519120151 -0.01215868702)
(-0.2147165896 0.1097422052 0.01320728201)
(-0.1074458498 0.0491580845 0.1219078006)
(-0.09929119932 -0.0949015391 0.1525148622)
(-0.06158853223 -0.2145870439 0.1136399086)
(-0.03933172667 -0.3066917749 0.07564350552)
(0.004862716423 -0.3814770469 0.05058728535)
(0.0550565501 -0.4558204297 0.03849168216)
(0.0997534751 -0.5208316723 0.01356752764)
(0.1508135928 -0.541831009 -0.03312512494)
(0.2252888651 -0.5345180496 -0.08217595483)
(0.2999818029 -0.5245191044 -0.1014237114)
(0.3667082177 -0.509926482 -0.09719396818)
(0.4134128812 -0.494190809 -0.07753785275)
(0.4335226727 -0.4771946004 -0.04540302591)
(-0.06747067671 0.1577536269 -0.001110082034)
(-0.09079903337 0.1592566157 -0.02060175733)
(-0.1367775145 0.1659050069 0.00308002076)
(-0.1900587972 0.1886862432 0.06695872213)
(-0.3273807169 0.2507575676 0.1392568121)
(-0.5658662958 0.4096786589 0.09921836006)
(-0.7870414119 0.7917507975 -0.3743877417)
(-0.6034188063 0.9226383362 -1.144994676)
(-0.1256627604 0.343428236 -0.05282001399)
(-0.4517703753 0.1528804634 0.1740545729)
(-0.5376003317 0.1017556309 0.1412373002)
(-0.6223792877 0.04815353812 0.1398937808)
(-0.6655833615 0.0641702512 0.1412112214)
(-0.6771551805 0.07962215011 0.1389168269)
(-0.6680805157 0.0946276776 0.1309726387)
(-0.6370079858 0.1036176784 0.1173901749)
(-0.5805003748 0.1014326007 0.1032721219)
(-0.5122521599 0.06156748928 0.09597572885)
(-0.4340283175 -0.009725585965 0.08684210215)
(-0.3565806826 -0.1020480601 0.0849614328)
(-0.2794584458 -0.1924258337 0.07329279093)
(-0.2157416651 -0.2696661747 0.04495625883)
(-0.1693767861 -0.3446158067 0.02308317662)
(-0.1278445934 -0.4074024062 0.006595282294)
(-0.08119990489 -0.4643458646 -0.004291259643)
(-0.03453071637 -0.5204186316 -0.01870079464)
(0.0135249856 -0.5606856852 -0.0570940097)
(0.07646872002 -0.5579878688 -0.111444256)
(0.1740972466 -0.5369647784 -0.1610498401)
(0.272697666 -0.5173999072 -0.1728942118)
(0.3625823318 -0.4948149817 -0.1592627266)
(0.428316709 -0.472634669 -0.1319733222)
(0.4625427 -0.4509907081 -0.09702963557)
(-0.07117694777 0.2069030939 0.01217639917)
(-0.1081019684 0.1898742685 -0.002304122059)
(-0.1691120106 0.1604028854 0.02326168125)
(-0.2295901526 0.1286699731 0.06799802107)
(-0.3279394464 0.1185404933 0.1207752254)
(-0.4345624567 0.1570320741 0.1962006484)
(-0.5150818488 0.3338286348 0.2014667593)
(-0.3891954689 0.5561725124 0.009361921414)
(-0.2629845268 0.08934545715 0.1833324016)
(-0.4580653744 -0.007251987127 0.1692334081)
(-0.5392179635 -0.04694010707 0.1287550325)
(-0.6136244789 -0.06826534418 0.1151118765)
(-0.6730819454 -0.07990772218 0.1088387009)
(-0.7008550281 -0.08881887866 0.102344503)
(-0.7046962622 -0.09717431532 0.09343387714)
(-0.6842359728 -0.1076653121 0.08221468573)
(-0.6398585457 -0.1245690023 0.0680397013)
(-0.5764635437 -0.1541567465 0.04887335642)
(-0.5017568095 -0.1940431065 0.02477228913)
(-0.4236947547 -0.2408602422 -0.002155066921)
(-0.3471629305 -0.2892771838 -0.02531890701)
(-0.2782451246 -0.3401341136 -0.03543251222)
(-0.2241477916 -0.3877348286 -0.03429141078)
(-0.1817721408 -0.4289499034 -0.03797204745)
(-0.1439810735 -0.4692840179 -0.04714179193)
(-0.108602245 -0.5057777554 -0.07223769353)
(-0.05998085427 -0.5247554502 -0.1182284553)
(0.01254707677 -0.514774969 -0.1742472669)
(0.1325447966 -0.4831972297 -0.2257191596)
(0.2543544756 -0.455824972 -0.235309143)
(0.3673880701 -0.4308140722 -0.2137211298)
(0.4525450343 -0.4103924634 -0.1774750178)
(0.5034512657 -0.3916765521 -0.1367081068)
(-0.07078080792 0.2410291602 0.03773100611)
(-0.1110318713 0.2154274148 0.01951218235)
(-0.1684799064 0.1871750764 0.02572600367)
(-0.2102636035 0.1668688705 0.03210313669)
(-0.2688193151 0.1621621006 0.04481821826)
(-0.333403333 0.171997896 0.0813640336)
(-0.4005285529 0.2068856008 0.1330787912)
(-0.3722055854 0.2452825404 0.1563215604)
(-0.3894149645 0.0756339082 0.102062311)
(-0.5103326945 0.01864241629 0.08115864703)
(-0.5876692212 -0.0307816271 0.06801826133)
(-0.6500255592 -0.07821336081 0.05925461831)
(-0.6937666023 -0.108713048 0.04805936015)
(-0.7171055442 -0.1303686684 0.03306297438)
(-0.7194571407 -0.1457258674 0.01544767438)
(-0.6999349164 -0.1588961014 -0.00319534584)
(-0.6582947056 -0.1730766475 -0.02245966032)
(-0.6001360414 -0.1956368694 -0.0426023555)
(-0.5289526141 -0.2258041588 -0.06371882383)
(-0.4494403043 -0.2595507927 -0.08317785653)
(-0.3686743862 -0.2921231958 -0.09371773506)
(-0.2981475263 -0.3245345056 -0.08727193969)
(-0.2509180205 -0.3582877427 -0.06996238787)
(-0.2214915363 -0.3860585429 -0.06880167219)
(-0.1983456498 -0.4110666616 -0.08378581812)
(-0.1706335641 -0.4282722282 -0.1198118886)
(-0.1159121919 -0.4297332659 -0.1721007857)
(-0.03485835109 -0.4107015791 -0.2281280427)
(0.1040019652 -0.3686758254 -0.2786493117)
(0.2464584956 -0.3366129266 -0.2886507371)
(0.3799432519 -0.3166613064 -0.2600326245)
(0.481252043 -0.3075081646 -0.2153842111)
(0.5452635772 -0.3029802068 -0.1685692519)
(-0.07378420614 0.2479994449 0.0689920165)
(-0.1274019337 0.2152442745 0.03932032871)
(-0.19456925 0.1835954781 0.02692149871)
(-0.2341214264 0.156205117 0.01895378414)
(-0.2747091243 0.1325225504 0.02671678067)
(-0.3165105498 0.1105063599 0.05456873548)
(-0.3669463392 0.09961085161 0.08871859605)
(-0.4005869657 0.0975001797 0.1054744204)
(-0.453426715 0.02025922291 0.07768301025)
(-0.5328604108 -0.02325781158 0.05875709673)
(-0.6002670936 -0.06195635799 0.04318012609)
(-0.6586155037 -0.09698068368 0.0284161386)
(-0.7038799999 -0.1247286559 0.01205176741)
(-0.7300751277 -0.1436723774 -0.005825412045)
(-0.7334336996 -0.1533136967 -0.02449771334)
(-0.7158716508 -0.1601284691 -0.0437502077)
(-0.6781098228 -0.1681446599 -0.06449731298)
(-0.6219575243 -0.1796560724 -0.08764629368)
(-0.5494011529 -0.1951724016 -0.1119026755)
(-0.4633248312 -0.2129947168 -0.1323471493)
(-0.3739561937 -0.229620771 -0.1389066955)
(-0.3011334807 -0.2490121741 -0.1219474074)
(-0.2630641962 -0.271750478 -0.09467737738)
(-0.2492202952 -0.2856531885 -0.09451809188)
(-0.237944124 -0.2944251714 -0.1186600927)
(-0.211975817 -0.2944437288 -0.1632866479)
(-0.1487610672 -0.281083361 -0.2196695251)
(-0.05268091337 -0.25435588 -0.2765153239)
(0.09948298846 -0.2130632443 -0.3139198104)
(0.2534879355 -0.1835113714 -0.3195496342)
(0.3971735565 -0.1742824572 -0.2847553169)
(0.505382603 -0.1806079497 -0.2351366078)
(0.5748439148 -0.1937370186 -0.1856740222)
(-0.07683868216 0.2337673386 0.09715924025)
(-0.1430882316 0.2080724283 0.0515557371)
(-0.2139390471 0.1857079002 0.02610697242)
(-0.2482007104 0.1657227857 0.01394748768)
(-0.2789762849 0.1442410919 0.02015424099)
(-0.314888813 0.1193383877 0.0402413026)
(-0.3673526748 0.09815724066 0.05826574071)
(-0.4272167786 0.08114908835 0.0592062583)
(-0.4935904129 0.04504219542 0.04211145449)
(-0.5630237193 0.0114992617 0.02497343491)
(-0.6242784473 -0.02411501886 0.009364341901)
(-0.675176038 -0.05729711969 -0.006421246368)
(-0.7124697238 -0.08229894961 -0.02217565986)
(-0.7351855077 -0.09925839069 -0.03718914188)
(-0.7406858806 -0.1092592771 -0.05225400183)
(-0.7270231099 -0.114601757 -0.06953852603)
(-0.6932674926 -0.1189901476 -0.09109015118)
(-0.6390009318 -0.1259671121 -0.1172890258)
(-0.5640627957 -0.1370793923 -0.145530867)
(-0.4696214741 -0.149403596 -0.1692049434)
(-0.3706781046 -0.1480859221 -0.1763864999)
(-0.2955035018 -0.1435259903 -0.1554643932)
(-0.2633038877 -0.1511106042 -0.1238496588)
(-0.2602694402 -0.1516143655 -0.1254563373)
(-0.2569635687 -0.145976622 -0.1557560053)
(-0.2313605398 -0.1306243821 -0.2042935723)
(-0.162367638 -0.1012806689 -0.2589318712)
(-0.05377718044 -0.06146927521 -0.3122051314)
(0.1199767981 -0.01776385425 -0.3347971758)
(0.2812112522 0.0001411381803 -0.3098120827)
(0.4241656112 -0.009223762667 -0.2683617831)
(0.5274408844 -0.0380206081 -0.2237311489)
(0.5913099353 -0.07306276132 -0.1822849482)
(-0.08114934699 0.2072211596 0.1130819332)
(-0.1566705216 0.1996659849 0.05797949434)
(-0.2306397194 0.185401871 0.02898819311)
(-0.2656485372 0.1668788602 0.01848163245)
(-0.2966757413 0.1417004591 0.02449377395)
(-0.3334245877 0.112004312 0.0377148645)
(-0.3854928721 0.08737749083 0.04341454834)
(-0.4457214491 0.07095777882 0.03403864393)
(-0.5065142078 0.05340454929 0.01433369177)
(-0.5647417427 0.03557017495 -0.007143037356)
(-0.6170266246 0.01638614168 -0.027624089)
(-0.6628601442 -0.003189717758 -0.04621774174)
(-0.6998485944 -0.02042420058 -0.06261805005)
(-0.7241749799 -0.0323000696 -0.07688997593)
(-0.7337885207 -0.03745493787 -0.09024524983)
(-0.7275794454 -0.03604201498 -0.1049190284)
(-0.703973663 -0.02949519772 -0.1233115605)
(-0.6594996023 -0.0210348144 -0.1468787426)
(-0.5871557427 -0.01598333128 -0.1743668244)
(-0.4727677651 -0.01800442669 -0.1994309124)
(-0.3419201618 0.01503453819 -0.2033588574)
(-0.2621298789 0.03448521808 -0.1712386872)
(-0.2439668116 0.03664227225 -0.1343728966)
(-0.2490860932 0.05068746396 -0.1345070723)
(-0.2483803739 0.06989341948 -0.1608836918)
(-0.2210905942 0.09306057442 -0.2014532207)
(-0.1493322848 0.1167972435 -0.2444683516)
(-0.03755217724 0.1385444742 -0.2844998941)
(0.138899736 0.1590211581 -0.3048198689)
(0.2982488066 0.1606388804 -0.2752971655)
(0.4344065298 0.1414153002 -0.2361934717)
(0.5300899471 0.1082717081 -0.1977388319)
(0.5879947252 0.0677421254 -0.1644135337)
(-0.08725174375 0.1837506877 0.1155128382)
(-0.1680092561 0.1938505662 0.061883926)
(-0.2467966258 0.1853333042 0.03580351208)
(-0.2881600262 0.1688930568 0.02785076439)
(-0.328291189 0.1462303717 0.03196792221)
(-0.3757942037 0.123357283 0.03707496643)
(-0.4359050659 0.1090130314 0.03207556712)
(-0.4995529601 0.1043740144 0.01450050476)
(-0.5579063663 0.103574721 -0.01063103131)
(-0.6066111296 0.1037452379 -0.03709212751)
(-0.6459603942 0.1022210812 -0.06155950356)
(-0.677493487 0.09864866946 -0.08308247137)
(-0.6999853157 0.0948100742 -0.1010741158)
(-0.7121596072 0.09226785883 -0.1152663511)
(-0.7132836039 0.09192152456 -0.1257083771)
(-0.7030925371 0.09315591025 -0.132784922)
(-0.6811299666 0.09308699902 -0.1378003073)
(-0.6458804078 0.08578680873 -0.1431952191)
(-0.5903275853 0.06119401951 -0.1528023585)
(-0.4625776474 0.01132386076 -0.1692675478)
(-0.3219721736 0.07171911764 -0.1648105284)
(-0.2602842142 0.1556745487 -0.1399230944)
(-0.2394512446 0.180395331 -0.115730362)
(-0.2367828255 0.2062996956 -0.1119300651)
(-0.2309797169 0.2273134782 -0.126312394)
(-0.2007079187 0.2502732174 -0.1573563364)
(-0.128199713 0.2735573614 -0.1968341475)
(-0.01374325538 0.2906396614 -0.2344735307)
(0.1546665051 0.3043858053 -0.2619125562)
(0.3027268657 0.2983371984 -0.2374033687)
(0.4267868207 0.2706308264 -0.204282241)
(0.5149499403 0.2286272664 -0.1715681087)
(0.5713337179 0.1797970941 -0.1426135963)
(-0.09208650665 0.1718861157 0.1119190906)
(-0.1758303662 0.191625035 0.06375128676)
(-0.2596150638 0.1875731652 0.04076061022)
(-0.3075189108 0.1749955296 0.03275445874)
(-0.35503399 0.1584747091 0.03327048367)
(-0.407674014 0.1444140311 0.03351717256)
(-0.468809338 0.1389007804 0.02657926832)
(-0.5319967497 0.1425374829 0.01046378648)
(-0.589934739 0.1518748474 -0.01279732478)
(-0.6365497828 0.1637806462 -0.03882684894)
(-0.6718681333 0.1751933941 -0.06385083334)
(-0.6965382003 0.1849307677 -0.08610480213)
(-0.7104583954 0.1938397133 -0.1050030601)
(-0.7143224692 0.2033613084 -0.1203130677)
(-0.7100852475 0.2144271831 -0.1316907954)
(-0.7014458662 0.2262823251 -0.1389980057)
(-0.6926793642 0.2345550422 -0.1442089221)
(-0.6859159064 0.2292791948 -0.1554253563)
(-0.6663398362 0.1901917838 -0.1959684797)
(-0.4774619623 0.015059049 -0.2985922047)
(-0.1935815391 0.270541067 -0.2623187765)
(-0.1597579452 0.3107189646 -0.1323282063)
(-0.1983081028 0.3400463715 -0.1128959846)
(-0.2068203682 0.3572184482 -0.09931636757)
(-0.2081167691 0.3703944449 -0.1019683586)
(-0.1780473737 0.38446772 -0.1187384194)
(-0.1083495495 0.3992828355 -0.1484750831)
(0.007987155616 0.4031725596 -0.1788720919)
(0.1673389369 0.4168805862 -0.2128830398)
(0.3018322903 0.4094669239 -0.196016362)
(0.4124751188 0.3787986424 -0.1709324504)
(0.4918475685 0.3319899558 -0.1450884108)
(0.5447249778 0.2763325235 -0.1205792026)
(-0.09466652295 0.1692837537 0.1078028408)
(-0.1802439626 0.1938176712 0.06215400541)
(-0.267161425 0.1939338507 0.0395789666)
(-0.3181696488 0.1862525532 0.02983353537)
(-0.36767713 0.1765678053 0.02796001004)
(-0.4195044075 0.1707443597 0.02771902998)
(-0.47781316 0.1736812926 0.02363398288)
(-0.5390788284 0.1863262345 0.0120396194)
(-0.5971372541 0.2060716362 -0.007835279891)
(-0.6446904257 0.2294411088 -0.03313916676)
(-0.6792391103 0.2532976028 -0.05931139378)
(-0.7008401592 0.2759573725 -0.08318996041)
(-0.7094900728 0.2978237944 -0.1034532225)
(-0.7066386419 0.3203548719 -0.1195293544)
(-0.695618187 0.3453572316 -0.1307033814)
(-0.6830172599 0.3746294185 -0.1362158229)
(-0.6788850767 0.4096827013 -0.1377999188)
(-0.6970913146 0.4516095221 -0.1460961835)
(-0.8040275563 0.5004823046 -0.2141354686)
(-0.407523479 0.5407433499 -0.5788959347)
(-0.02051335871 0.568238845 -0.1681481951)
(-0.1935308263 0.5230845323 -0.119702462)
(-0.1975830214 0.5068817005 -0.09749285927)
(-0.2118956094 0.4933982753 -0.08529817286)
(-0.2081582268 0.4876087772 -0.07853627021)
(-0.1734614692 0.4837054292 -0.08116913485)
(-0.1017334487 0.4828080033 -0.09809216475)
(0.02978880524 0.4706286709 -0.1115911397)
(0.1866617356 0.4936645059 -0.1524398623)
(0.306798301 0.492662714 -0.1457029818)
(0.4011161407 0.4633014776 -0.1305846604)
(0.4681053012 0.4131373165 -0.1126804514)
(0.5139084017 0.350426572 -0.09278246209)
(-0.09729938942 0.1729769999 0.1044027265)
(-0.1835967608 0.2009149024 0.05746155642)
(-0.2711991856 0.2051634754 0.03341516661)
(-0.3215444288 0.2026831461 0.02199882497)
(-0.3689441099 0.1993137085 0.01958564419)
(-0.4170665732 0.2001939029 0.02129186742)
(-0.4714393142 0.2096490367 0.02178539425)
(-0.5303571466 0.2291461702 0.01600222913)
(-0.5883154645 0.2567518012 0.001145161574)
(-0.6377332 0.2890499261 -0.02170947919)
(-0.6727777698 0.3228305847 -0.04799033555)
(-0.6931135803 0.3562066244 -0.07303633262)
(-0.6982920092 0.3890219905 -0.09445652311)
(-0.689685894 0.4224629874 -0.1111184632)
(-0.6703068541 0.4584465814 -0.122007671)
(-0.645149397 0.499732208 -0.1257143363)
(-0.6199209956 0.5506726156 -0.1216877873)
(-0.5991137149 0.6178758984 -0.113543327)
(-0.5982559225 0.7118371953 -0.117631261)
(-0.4138832451 0.9098385083 -0.1922156269)
(-0.2312285026 0.7177600505 -0.1036069643)
(-0.2562599137 0.676122593 -0.08739425484)
(-0.2486770249 0.6312347047 -0.08062742698)
(-0.2455861663 0.6008923494 -0.06949251248)
(-0.2338867424 0.5764018463 -0.05889031559)
(-0.1916218579 0.548451501 -0.05889016384)
(-0.1102751876 0.5172143995 -0.08007337494)
(0.05231156708 0.4656588653 -0.09851708901)
(0.2102361292 0.521236566 -0.1112489538)
(0.3182690429 0.5413054992 -0.09955790777)
(0.3944549141 0.520422712 -0.08740807447)
(0.4453718525 0.4686147659 -0.07402477946)
(0.4796648384 0.3977276333 -0.05630705652)
(-0.1009471902 0.1822997974 0.1019089123)
(-0.1872238598 0.2124621638 0.0516641333)
(-0.2737492025 0.2206255394 0.02567060493)
(-0.3209281644 0.2230963548 0.01312919865)
(-0.3638904922 0.2251883418 0.01103927111)
(-0.4067702004 0.2312801188 0.015050843)
(-0.4563796122 0.2452429977 0.01988977567)
(-0.5121937774 0.2690028732 0.01985370509)
(-0.5690871547 0.3014215551 0.0110510379)
(-0.6195634808 0.3396091985 -0.007120827167)
(-0.6559570395 0.3804034001 -0.03147518667)
(-0.6758944429 0.4219035753 -0.05660941289)
(-0.6792175638 0.4631612504 -0.07873388105)
(-0.6669581662 0.504575733 -0.09584949731)
(-0.6419230911 0.5474406961 -0.1066464784)
(-0.6086936958 0.5935593077 -0.1096286117)
(-0.5727143908 0.6449796624 -0.1035542738)
(-0.5382537978 0.7031625683 -0.08995746014)
(-0.5080289269 0.7684388834 -0.07743485923)
(-0.4150569119 0.8580649799 -0.08603549471)
(-0.3244898287 0.7870984706 -0.06797526338)
(-0.3114891152 0.7517387323 -0.06465630949)
(-0.3004421359 0.7155070885 -0.06338962511)
(-0.2936422372 0.6827737992 -0.0563635869)
(-0.2806477999 0.6473589978 -0.05607155512)
(-0.2316289083 0.6025281303 -0.07911655697)
(-0.1326588612 0.5512078065 -0.1349025361)
(0.05829708888 0.4919870244 -0.1936064875)
(0.2256823486 0.5464859171 -0.1397113803)
(0.3281938231 0.5726525896 -0.09148425432)
(0.3894780894 0.554277662 -0.06018028508)
(0.4242609406 0.4980056189 -0.03579604621)
(0.4441453309 0.4168191756 -0.009710781113)
(-0.1046035042 0.1964732928 0.1005660785)
(-0.1905641968 0.2270950254 0.04673336681)
(-0.2752885413 0.2387463373 0.01902614878)
(-0.318516859 0.2456172499 0.005782965714)
(-0.3564660782 0.2523633296 0.004160392131)
(-0.3938502964 0.2625507061 0.01005014336)
(-0.4384716658 0.2794302406 0.01842014952)
(-0.4905753895 0.3050003365 0.02343813177)
(-0.545225455 0.3388305258 0.02084484121)
(-0.5949051143 0.3789037724 0.009120639391)
(-0.6324426326 0.423011804 -0.01047011998)
(-0.6525516208 0.4688259049 -0.03395946987)
(-0.6550871256 0.5152246946 -0.0561401251)
(-0.6412593043 0.5617488255 -0.07368416508)
(-0.6137286787 0.6086103814 -0.08470139307)
(-0.5772696198 0.6566759192 -0.0877917554)
(-0.5379004087 0.7062315469 -0.08168772804)
(-0.5006690588 0.7562189398 -0.06735850509)
(-0.4672245626 0.8042698761 -0.05160048133)
(-0.4176523142 0.8478149628 -0.04642085884)
(-0.3715910344 0.8248234844 -0.04405632766)
(-0.3542834044 0.801244561 -0.0463887145)
(-0.3459753809 0.7772280383 -0.04767552001)
(-0.3440791856 0.7510356909 -0.04976070353)
(-0.3332504363 0.7163985857 -0.07028839196)
(-0.2779470265 0.6697235521 -0.1237662281)
(-0.1617275249 0.6159716542 -0.2082689367)
(0.04563531177 0.5647980819 -0.2811155692)
(0.2260307674 0.5954577203 -0.1895069399)
(0.3250072074 0.604762206 -0.1063596844)
(0.3760764911 0.5717090018 -0.04356002303)
(0.3936821637 0.4992676226 0.007014206306)
(0.3907035451 0.3957450783 0.04980106122)
(-0.1069434596 0.2134122932 0.1005352842)
(-0.1924430636 0.2428302419 0.04389110141)
(-0.2752387184 0.2573374978 0.01486030363)
(-0.314964298 0.2678077928 0.001162399186)
(-0.3484965563 0.2781625351 -0.0001096815741)
(-0.381016313 0.2910132367 0.007120425061)
(-0.4210811205 0.3086755144 0.01816666392)
(-0.4695683772 0.3327790003 0.02729749983)
(-0.5215802485 0.3635230008 0.03030869333)
(-0.5692704674 0.4003081599 0.02563088591)
(-0.6056022031 0.4425990576 0.0133251389)
(-0.6260803102 0.4894972907 -0.004991954086)
(-0.6288927154 0.5388525523 -0.02539335701)
(-0.6147319397 0.5879565559 -0.04306818908)
(-0.5868101385 0.6367727816 -0.05479569438)
(-0.5502579357 0.6866467209 -0.05917870552)
(-0.5121328323 0.7365019064 -0.05501855057)
(-0.4775995706 0.781369772 -0.04271910824)
(-0.448769771 0.8202439852 -0.02861447848)
(-0.4203095584 0.8471007368 -0.02221490246)
(-0.3954974817 0.8435963431 -0.02430400695)
(-0.3822518818 0.8334685003 -0.02881384403)
(-0.3787085205 0.8235374232 -0.03278005312)
(-0.3823722121 0.8101879493 -0.04570375968)
(-0.3730197648 0.785823535 -0.08520791008)
(-0.3134327739 0.7473058153 -0.1568233335)
(-0.1872721223 0.6989985848 -0.2483011776)
(0.01929263062 0.6536973004 -0.3136908382)
(0.2046918152 0.6549459102 -0.2093539603)
(0.2940974245 0.634655374 -0.1021302983)
(0.3292229737 0.569180384 -0.004200249128)
(0.3265946222 0.4676089795 0.07492670394)
(0.306893039 0.3435111511 0.1280247263)
(-0.1070622917 0.2301181437 0.1018416635)
(-0.1920252165 0.2573104643 0.04372570351)
(-0.2732113885 0.274127226 0.01384772738)
(-0.3109284328 0.2876088768 1.643535271e-05)
(-0.3420200068 0.3009514049 -0.0007122892489)
(-0.3719670763 0.3157759369 0.008071696748)
(-0.4098979377 0.3333165244 0.0220219581)
(-0.4568432153 0.3542931077 0.0355175333)
(-0.5070129281 0.3787663208 0.04438647577)
(-0.5513709837 0.407179332 0.04715505009)
(-0.5830150409 0.4412130685 0.04324723657)
(-0.5993459205 0.4825706751 0.03240203198)
(-0.6007335474 0.530570431 0.01661532713)
(-0.5874782435 0.5817112399 0.0005648205481)
(-0.559482425 0.6330422347 -0.0116628405)
(-0.5221953605 0.6851570756 -0.01958461815)
(-0.4881093419 0.7375836696 -0.02148677922)
(-0.4601703108 0.7796864222 -0.01396738269)
(-0.4371991664 0.8158227024 -0.004649919991)
(-0.4193036296 0.8383785207 -0.0007820939691)
(-0.4041584067 0.845356643 -0.004389934558)
(-0.3945821202 0.8477003756 -0.008987658126)
(-0.3935284473 0.8519862657 -0.01450263449)
(-0.3990376017 0.8538028368 -0.03504033178)
(-0.3900200087 0.844200119 -0.0856913866)
(-0.3312762403 0.8182501854 -0.1627334372)
(-0.2065147567 0.7780044967 -0.2478902091)
(-0.02185369518 0.7339693426 -0.3004408295)
(0.1566733417 0.70417821 -0.1820440649)
(0.2194437638 0.6472361334 -0.05222424629)
(0.2285413594 0.5222889551 0.05389636016)
(0.2265403913 0.3785836968 0.1302175285)
(0.1627896209 0.2062171219 0.1262766484)
(-0.1045054187 0.243284876 0.1042433823)
(-0.1887406277 0.2678329256 0.04651312609)
(-0.2686417079 0.2864849223 0.01626992219)
(-0.3059731164 0.3022992837 0.002541461327)
(-0.3365775681 0.3176127862 0.00246109604)
(-0.3660123977 0.332766345 0.0126577484)
(-0.4037768033 0.347419097 0.02847134243)
(-0.4509722599 0.3603203498 0.04356594363)
(-0.5008300767 0.3704481431 0.05353922483)
(-0.542654176 0.3800796773 0.05836560271)
(-0.5687557339 0.3961257243 0.05994404516)
(-0.577830701 0.4254056636 0.05900314852)
(-0.573205604 0.4669358713 0.05520228551)
(-0.5573505869 0.5118645444 0.0489614718)
(-0.5283242068 0.5560186899 0.04128833965)
(-0.4896122694 0.6147784176 0.03060861898)
(-0.4612777954 0.6984606482 0.01857385753)
(-0.4405744855 0.741371498 0.01957960311)
(-0.4224462304 0.7844812002 0.02109747264)
(-0.4115523336 0.807926178 0.021254372)
(-0.4005444492 0.8226585894 0.01722438208)
(-0.3922124587 0.834890138 0.01422734044)
(-0.3899980495 0.8512488436 0.01029778852)
(-0.393513415 0.8689055001 -0.01085013821)