/*--------------------------------*- C++ -*----------------------------------*\
  =========                 |
  \\      /  F ield         | OpenFOAM: The Open Source CFD Toolbox
   \\    /   O peration     | Website:  https://openfoam.org
    \\  /    A nd           | Version:  8
     \\/     M anipulation  |
\*---------------------------------------------------------------------------*/
FoamFile
{
    version     2.0;
    format      ascii;
    class       scalarField;
    location    "0.9/lagrangian/reactingCloud1";
    object      age;
}
// * * * * * * * * * * * * * * * * * * * * * * * * * * * * * * * * * * * * * //


74
(
0.2679533867
0.2687495928
0.2665844156
0.2471910709
0.2660125794
0.2644084875
0.2290894169
0.2287581675
0.2164120148
0.215858379
0.2157433963
0.2155126181
0.2145888364
0.210067077
0.200052112
0.1980378704
0.1880404092
0.1640522643
0.1460436915
0.1400851369
0.1240341747
0.2560618954
0.2296947375
0.09818264364
0.09622042464
0.2224555925
0.2213462815
0.1900362167
0.2282665561
0.2243619631
0.2195516826
0.08013944047
0.07611273653
0.2436532396
0.2020790354
0.2571959506
0.2128408451
0.06814484499
0.2091048688
0.06618134946
0.1780377958
0.1740511233
0.06016004102
0.2228565121
0.05814982211
0.05614295718
0.05021913595
0.2354982388
0.04622197395
0.08357631467
0.04009072724
0.2131810687
0.2626852917
0.03406622636
0.03206871434
0.02604991863
0.2198586535
0.2475508503
0.2169057912
0.01808427534
0.2187016095
0.01607965048
0.01407502562
0.2446126515
0.210635579
0.2453322104
0.0100657759
0.03005121663
0.006056526175
0.239515776
0.00404797814
0.002064873027
0.09012699191
0.0001086775277
)


// ************************************************************************* //
