/*--------------------------------*- C++ -*----------------------------------*\
  =========                 |
  \\      /  F ield         | OpenFOAM: The Open Source CFD Toolbox
   \\    /   O peration     | Website:  https://openfoam.org
    \\  /    A nd           | Version:  8
     \\/     M anipulation  |
\*---------------------------------------------------------------------------*/
FoamFile
{
    version     2.0;
    format      ascii;
    class       scalarField;
    location    "0.9/lagrangian/reactingCloud1";
    object      d;
}
// * * * * * * * * * * * * * * * * * * * * * * * * * * * * * * * * * * * * * //


74
(
0.0006436159204
0.0005591371679
0.0007550400969
0.0006012222707
0.0005747154088
0.0007468425502
0.001020121836
0.0007532824772
0.0008982024474
0.0006649311656
0.0005118607698
0.0005227763805
0.0005816881952
0.0007819127826
0.0007476505965
0.0005486420664
0.0005292404381
0.0009325386564
0.0006286463945
0.0008357749614
0.0009208682284
0.0009917001797
0.0009460447805
0.0005657371147
0.000658261236
0.0008415116892
0.0005481650781
0.0006078408121
0.0005441147299
0.0007862448327
0.000634194334
0.0006610790348
0.001029972214
0.0005256680563
0.001021696669
0.0006225293688
0.0008501123437
0.001197605459
0.0008454303415
0.001039585879
0.0008628293842
0.0005167827085
0.00118318123
0.0006328282245
0.0008248851971
0.0009742119247
0.0006876851942
0.001004650289
0.0007487263237
0.0005082525549
0.0008094891584
0.0009068670067
0.0007440958236
0.0009225859207
0.0005733767496
0.000746372763
0.0005466720825
0.0007438125387
0.0006544988701
0.0006406262183
0.0005776957509
0.000768546501
0.0007462818669
0.000504801141
0.0007959481728
0.0006597834878
0.0006715598573
0.0005527969513
0.001017228777
0.0005904385876
0.001088317646
0.0006783508475
0.0007687975909
0.0005266957624
)


// ************************************************************************* //
