/*--------------------------------*- C++ -*----------------------------------*\
  =========                 |
  \\      /  F ield         | OpenFOAM: The Open Source CFD Toolbox
   \\    /   O peration     | Website:  https://openfoam.org
    \\  /    A nd           | Version:  8
     \\/     M anipulation  |
\*---------------------------------------------------------------------------*/
FoamFile
{
    version     2.0;
    format      ascii;
    class       scalarField;
    location    "0.9/lagrangian/reactingCloud1";
    object      mass0;
}
// * * * * * * * * * * * * * * * * * * * * * * * * * * * * * * * * * * * * * //


74
(
1.388317357e-07
9.102559072e-08
2.241395347e-07
1.131653828e-07
9.884778511e-08
2.169179935e-07
5.527955655e-07
2.225778874e-07
3.773385022e-07
1.530870611e-07
6.983352353e-08
7.439714871e-08
1.024894517e-07
2.489335072e-07
2.188238601e-07
8.647009436e-08
7.761714841e-08
4.24618736e-07
1.300822109e-07
3.05679765e-07
4.088755018e-07
5.078665326e-07
4.409034536e-07
9.480748717e-08
1.493459552e-07
3.103050742e-07
8.577140257e-08
1.175894047e-07
8.388414219e-08
2.530939893e-07
1.328236747e-07
1.512720789e-07
5.721042162e-07
7.563854712e-08
5.584246172e-07
1.25628436e-07
3.199170492e-07
8.993731616e-07
3.146602681e-07
5.882741121e-07
3.363360371e-07
7.226409093e-08
8.672662309e-07
1.319671813e-07
2.938861724e-07
4.841266006e-07
1.702815696e-07
5.280233872e-07
2.197697577e-07
6.836709579e-08
2.777357158e-07
3.883642307e-07
2.145334518e-07
4.111677945e-07
9.870038741e-08
2.177037801e-07
8.507248242e-08
2.142885197e-07
1.459940384e-07
1.376615795e-07
1.003935792e-07
2.376889933e-07
2.176242514e-07
6.698374166e-08
2.62580692e-07
1.495590663e-07
1.585816042e-07
8.844953213e-08
5.511306139e-07
1.071846558e-07
6.749407262e-07
1.634412737e-07
2.379220338e-07
7.650293464e-08
)


// ************************************************************************* //
