/*--------------------------------*- C++ -*----------------------------------*\
  =========                 |
  \\      /  F ield         | OpenFOAM: The Open Source CFD Toolbox
   \\    /   O peration     | Website:  https://openfoam.org
    \\  /    A nd           | Version:  8
     \\/     M anipulation  |
\*---------------------------------------------------------------------------*/
FoamFile
{
    version     2.0;
    format      ascii;
    class       scalarField;
    location    "0.9/lagrangian/reactingCloud1";
    object      nParticle;
}
// * * * * * * * * * * * * * * * * * * * * * * * * * * * * * * * * * * * * * //


74
(
111.1888802
101.0057822
102.3965799
589.0508938
107.6991739
104.5852311
102.2661133
205.6821278
123.0946601
100.4505716
101.4421478
495.0890028
101.3237748
110.3570562
2280.228967
5832.139131
6428.371596
1170.759057
3821.631165
1661.756751
1229.011205
100.3992008
100.0268793
5398.551206
3287.435023
100.0197351
101.7195067
4241.685013
100.7110233
100.2179904
100.5844379
3400.134989
899.4678757
194.9441744
897.0949533
137.6447378
100.3944101
577.9011871
100.2420619
834.4305373
1482.510258
6893.671261
570.4012071
101.3573793
1674.443667
1044.87735
2871.382734
145.8324143
2250.210703
103.7344191
1836.448246
100.1328
100.7252967
1206.19232
5055.388292
2329.552758
491.5041579
100.0157928
100.7100596
3563.037114
100.6021907
2108.453607
2302.850956
100.0410625
100.1930707
101.1077947
3160.241807
5701.441109
909.3238564
100.323751
746.8440341
3057.253574
2161.63209
6392.550521
)


// ************************************************************************* //
