/*--------------------------------*- C++ -*----------------------------------*\
  =========                 |
  \\      /  F ield         | OpenFOAM: The Open Source CFD Toolbox
   \\    /   O peration     | Website:  https://openfoam.org
    \\  /    A nd           | Version:  8
     \\/     M anipulation  |
\*---------------------------------------------------------------------------*/
FoamFile
{
    version     2.0;
    format      ascii;
    class       labelField;
    location    "0.9/lagrangian/reactingCloud1";
    object      origId;
}
// * * * * * * * * * * * * * * * * * * * * * * * * * * * * * * * * * * * * * //


74
(
447
446
448
457
449
450
342
343
351
353
354
355
356
508
365
366
371
383
392
395
403
453
466
416
417
475
481
370
469
471
488
425
427
144
364
452
358
431
512
432
376
378
435
474
436
437
440
462
442
631
445
502
201
448
449
452
486
221
492
456
489
457
458
226
505
143
460
450
462
234
463
464
420
465
)


// ************************************************************************* //
