/*--------------------------------*- C++ -*----------------------------------*\
  =========                 |
  \\      /  F ield         | OpenFOAM: The Open Source CFD Toolbox
   \\    /   O peration     | Website:  https://openfoam.org
    \\  /    A nd           | Version:  8
     \\/     M anipulation  |
\*---------------------------------------------------------------------------*/
FoamFile
{
    version     2.0;
    format      ascii;
    class       Cloud<basicReactingMultiphaseParcel>;
    location    "0.9/lagrangian/reactingCloud1";
    object      positions;
}
// * * * * * * * * * * * * * * * * * * * * * * * * * * * * * * * * * * * * * //

74
(
(0.05063922053 0.4084015003 0.135226836 0.4057324432) 2139 6175 1
(0.000997934657 0.7850284975 0.0258045845 0.1881689833) 3218 9437 2
(0.07849841815 0.1560371655 0.6903775734 0.07508684297) 1046 3071 2
(0.5012579698 0.3798621924 0.08311433867 0.03576549905) 2725 8018 1
(0.05927013925 0.3177514697 0.2316394499 0.3913389412) 3251 9438 1
(0.2775554371 0.3899997866 0.1399426407 0.1925021355) 2163 6347 1
(0.07604057789 0.3565244028 0.2816077183 0.2858273011) 5892 17290 1
(0.1140030865 0.05265252919 0.5000700968 0.3332742875) 6840 17161 1
(0.268089135 0.339684934 0.22260491 0.169621021) 8890 26062 1
(0.0674425619 0.2548411656 0.2403329422 0.4373833303) 8774 25721 2
(0.3721871805 0.05132690016 0.5418164043 0.03466951498) 9902 29011 1
(0.06833834745 0.06809818018 0.7267059915 0.1368574808) 9865 26055 2
(0.1883426035 0.2561037744 0.1116369302 0.443916692) 9902 28921 1
(0.335016372 0.2924096323 0.07963292635 0.2929410693) 9728 25639 2
(0.08014961267 0.1610552848 0.004084153313 0.7547109492) 4449 13043 1
(0.3351331179 0.07151766661 0.3882756076 0.2050736079) 2666 7841 2
(0.04952559027 0.4044499274 0.4335297656 0.1124947168) 12321 36069 2
(0.00584071819 0.05628893192 0.04156202357 0.8963083263) 15078 41446 2
(0.08837693691 0.1725337507 0.4002946531 0.3387946592) 18970 55524 2
(0.6854755828 0.09473126727 0.1654575439 0.05433560602) 20798 60867 2
(0.01620986105 0.1799550364 0.3640129802 0.4398221224) 58853 176254 2
(0.2521171986 0.5435728901 0.1907165992 0.01359331209) 408 1213 2
(0.3520780392 0.2817449694 0.257036852 0.1091401393) 5890 17284 1
(0.08790480259 0.1827731284 0.3765942567 0.3527278123) 63307 187186 2
(0.2923422151 0.2098178286 0.2882640497 0.2095759066) 63390 187406 1
(0.3017275752 0.07431241896 0.1939316805 0.4300283254) 7874 23086 1
(0.349738722 0.2523306359 0.2694382945 0.1284923476) 8888 25967 2
(0.4364197678 0.2741785253 0.2383814042 0.0510203027) 5538 16243 1
(0.0831119284 0.2716164916 0.01815710705 0.6271144729) 7934 20389 1
(0.1797870652 0.1562669204 0.6175476765 0.0463983379) 7905 23181 1
(0.1931621572 0.3206755083 0.2927407083 0.1934216262) 8887 23174 2
(0.5028921454 0.04107683158 0.08246127822 0.3735697448) 58722 98341 1
(0.417508469 0.1712857934 0.001126611664 0.4100791259) 65599 192870 1
(0.3815778638 0.1730853471 0.4083858789 0.03695091021) 3668 10776 1
(0.3781289935 0.09492996549 0.4058077384 0.1211333026) 450 1338 1
(0.1139153147 0.6998762018 0.1780105034 0.008197980125) 3983 11714 2
(0.2401690352 0.2781399444 0.4315841879 0.0501068324) 8703 25513 2
(0.08858516023 0.4522305924 0.1684257523 0.2907584951) 37147 113734 1
(0.04945160092 0.3966258929 0.4254154726 0.1285070335) 9865 28896 1
(0.1315058442 0.0741434045 0.05833371234 0.736017039) 37013 110333 2
(0.1026637883 0.466257401 0.1388081563 0.2922706544) 9452 27680 1
(0.5587497001 0.1095801819 0.2986497967 0.03302032133) 12303 36014 1
(0.2287824139 0.5885779326 0.02971044796 0.1529292056) 39238 119962 2
(0.2982121527 0.1931622868 0.2902209106 0.2184046498) 7931 23258 1
(0.569409406 0.1185901045 0.06966722579 0.2423332638) 38071 116534 1
(0.6978350005 0.05041701247 0.0318696638 0.2198783232) 39070 119465 1
(0.4821801206 0.02937056858 0.3065958788 0.1818534321) 39166 119745 2
(0.1469867696 0.4324793016 0.2733541684 0.1471797604) 4999 14575 2
(0.1647442152 0.5467212374 0.1328924596 0.1556420878) 41195 125695 1
(0.4934748765 0.1212701106 0.2458680777 0.1393869353) 59795 178576 1
(0.4051069293 0.33845002 0.2171579301 0.03928512053) 43287 131837 2
(0.3346955076 0.2283786958 0.4271017993 0.009823997317) 8917 26144 1
(0.4086558757 0.04829015396 0.2278018165 0.3152521538) 2962 8715 1
(0.1317453416 0.1120600902 0.235428742 0.5207658262) 43387 132130 1
(0.03978723147 0.320691875 0.3754834214 0.2640374721) 43484 132419 2
(0.2789876532 0.5900018079 0.1216529301 0.009357608876) 45523 135265 1
(0.08939818326 0.1408910607 0.3769751546 0.3927356015) 7965 23361 2
(0.02430600996 0.1476374793 0.1235803959 0.7044761149) 5973 14626 1
(0.313006966 0.2336629026 0.2178622066 0.2354679248) 8945 26224 1
(0.2935857544 0.1293897969 0.4801024272 0.09692202149) 46593 141533 1
(0.04576251864 0.02980268851 0.210484587 0.7139502059) 8948 26230 1
(0.06303464082 0.3816407344 0.3601004732 0.1952241516) 46686 141809 1
(0.1408388201 0.0601613808 0.3803207789 0.4186790202) 46686 141717 1
(0.143017734 0.4636185999 0.2482972834 0.1450663827) 7943 23199 1
(0.09775179178 0.2046267679 0.5760450607 0.1215763796) 9939 29100 1
(0.261210956 0.1332456129 0.3886317081 0.216911723) 5904 17224 2
(0.07612678318 0.1387837759 0.1100993305 0.6749901104) 47751 144934 2
(0.5344993711 0.03940211682 0.1493801278 0.2767183843) 44420 135164 2
(0.5056576627 0.04233638688 0.3977180589 0.05428789154) 48818 148058 1
(0.1865410837 0.1196034304 0.01538744848 0.6784680374) 7911 205525 2
(0.1826762032 0.1211401078 0.5094087081 0.186774981) 48786 147968 2
(0.03473710547 0.8056894344 0.03804616618 0.1215272939) 49886 151097 1
(0.2042711218 0.1292404271 0.3538799931 0.312608458) 33064 206549 2
(0.01292984136 0.4466965043 0.5342227688 0.006150885553) 49886 151185 2
)


// ************************************************************************* //
