/*--------------------------------*- C++ -*----------------------------------*\
  =========                 |
  \\      /  F ield         | OpenFOAM: The Open Source CFD Toolbox
   \\    /   O peration     | Website:  https://openfoam.org
    \\  /    A nd           | Version:  8
     \\/     M anipulation  |
\*---------------------------------------------------------------------------*/
FoamFile
{
    version     2.0;
    format      ascii;
    class       volScalarField;
    location    "0.8";
    object      k;
}
// * * * * * * * * * * * * * * * * * * * * * * * * * * * * * * * * * * * * * //

dimensions      [0 2 -2 0 0 0 0];

internalField   nonuniform List<scalar> 
67193
(
0.01210053024
0.01169090556
0.01110684074
0.0108772912
0.01114459007
0.01157543806
0.01208703815
0.01262950484
0.01319165398
0.01405273615
0.01514352245
0.01570820348
0.01705889208
0.01819232308
0.01844578125
0.01798752518
0.01725901845
0.01662904064
0.01623553103
0.01602140037
0.01585680827
0.0156177583
0.01520082547
0.01451072823
0.01345564018
0.01197864388
0.0101361138
0.008174827703
0.006465441434
0.005217055182
0.004358198057
0.003614074397
0.003032725327
0.003084942464
0.01723727826
0.0164254464
0.01478856384
0.01341366863
0.01352850547
0.01423684137
0.01523848339
0.01640727643
0.01770507302
0.01934227977
0.02130035112
0.02301017151
0.02538443779
0.02675804833
0.02672005025
0.02555704511
0.02379995849
0.02200302582
0.02051951021
0.01941532961
0.01857201786
0.01782166277
0.01701163907
0.01601092674
0.01470215549
0.01300373352
0.01095619395
0.008814062907
0.006958000635
0.005620791531
0.004754413495
0.004196639336
0.003991043086
0.004058331255
0.02346724215
0.02252384151
0.02029369929
0.01722080603
0.01651077782
0.01722038667
0.01864716354
0.02047552371
0.02268197313
0.02542861633
0.02883914425
0.03207781417
0.03484462091
0.03589021959
0.03530780633
0.03351739791
0.03098518167
0.02823690975
0.02573551241
0.02370358336
0.02210017784
0.02074487739
0.01943805895
0.01801265052
0.01634034007
0.01433972989
0.01203190233
0.00962414253
0.007472970277
0.005875114577
0.004893018677
0.004408228622
0.004236498311
0.004384231968
0.02940367589
0.02824678779
0.02626534615
0.02177197331
0.0195729737
0.01995237539
0.02188351845
0.02462450538
0.02815759362
0.03254588503
0.03767286062
0.04259374333
0.04520673615
0.04552110383
0.04405336465
0.04142137489
0.03815431307
0.03467611148
0.03138752722
0.02855476813
0.02620601045
0.02418337261
0.02226540488
0.0202554397
0.01802009764
0.01551039899
0.01279353859
0.01008431227
0.007698608104
0.005916101792
0.004836803423
0.004353805906
0.004232618944
0.004376117348
0.03490705811
0.03343068689
0.03208380123
0.02695868342
0.02284648637
0.02237463163
0.02487638884
0.02890250176
0.03395407437
0.04006991248
0.04674906238
0.05311077666
0.05559351449
0.05533885404
0.0530161733
0.04939413426
0.04520240775
0.04094065331
0.03695571984
0.03346862716
0.03049404803
0.02786641055
0.02535121503
0.02272566638
0.0198357286
0.01666541715
0.01338458194
0.01030477805
0.007729713419
0.005852229673
0.004728650971
0.004242735786
0.00413943955
0.004269616468
0.03917779837
0.03875286405
0.0377874945
0.03268251568
0.02666199521
0.02452135747
0.02740169992
0.03281747522
0.03944910333
0.04721837937
0.05514036175
0.06245687232
0.06497146546
0.06441277081
0.06142793133
0.05684005176
0.0515774087
0.04635277252
0.04162117783
0.03756754768
0.03409489139
0.03097454984
0.027976881
0.02486532807
0.02143663079
0.01766672156
0.01382285731
0.01036851164
0.007645106672
0.00574054993
0.004618926925
0.004138426791
0.004041966622
0.004157261623
0.0438836622
0.0451974848
0.04397002389
0.03877974749
0.0313504848
0.02658667174
0.02921650824
0.03590009409
0.04392330021
0.05295807701
0.06174841722
0.0695045352
0.07211670936
0.07142540116
0.06796701311
0.06253835039
0.05621532857
0.05000451514
0.04460943485
0.04016324384
0.03634567824
0.03282032795
0.02941496749
0.0259876056
0.02225307098
0.01813858992
0.01395642489
0.01028454206
0.007506276302
0.005628627526
0.004535868678
0.004067039426
0.003977954757
0.00407755882
0.05077129658
0.05279634521
0.0511868794
0.04506851413
0.03697075361
0.02903875055
0.03016275664
0.03772770381
0.04669760383
0.05640726882
0.06565371338
0.07348054711
0.07610836461
0.07529893661
0.07142475985
0.0652400498
0.05797865901
0.05105633172
0.0454616646
0.04102924151
0.03704047389
0.0331396098
0.02933419983
0.02567196234
0.02185438171
0.01769213458
0.01352055827
0.009937248927
0.00729045888
0.005520283078
0.004483640677
0.004033420534
0.003951234195
0.004049425205
0.05737450415
0.05995677372
0.05852792287
0.05185960944
0.0422091988
0.03263344899
0.03040817556
0.03822897973
0.04753215772
0.0572181812
0.06652518624
0.07392082621
0.07650109144
0.07548113744
0.07110751597
0.06415966867
0.05615049664
0.04909654017
0.04408614198
0.04017086221
0.03616514642
0.03191318392
0.02776653304
0.02393105747
0.02015800171
0.01618795199
0.01238533735
0.009254340669
0.006978371548
0.005417676198
0.004466020306
0.004041142461
0.003966991232
0.004110946748
0.06193848923
0.06498048229
0.06427704292
0.0578235698
0.04721099864
0.03633390552
0.03051604668
0.03787623519
0.04684716451
0.05571688303
0.06439516297
0.07075745436
0.07308940367
0.0716313278
0.06652543845
0.0587325599
0.05032279514
0.04401785046
0.04036425575
0.03731504904
0.03351405367
0.02917997834
0.0249504896
0.02109629058
0.01742032847
0.01385098725
0.01074806822
0.008378184475
0.006652517354
0.005362339175
0.004502708278
0.00410091369
0.00403777357
0.00439400848
0.06588783069
0.06734847329
0.06764035619
0.06153223129
0.05073925178
0.03869787669
0.03107203919
0.03744144419
0.04561530788
0.05306361754
0.0599305933
0.06435928764
0.06564774596
0.06303301343
0.05670629884
0.04830405704
0.0406982411
0.03623433857
0.03408630244
0.03190166228
0.02870258442
0.02489997265
0.02108369409
0.01750479977
0.01416346018
0.01131323015
0.00916777758
0.007668451616
0.006499229299
0.005447261965
0.004643991736
0.004244537595
0.004259055009
0.005261404249
0.07759664263
0.06952691656
0.07064975227
0.06315177761
0.05180775163
0.03916327615
0.03116509382
0.03719249284
0.04444506555
0.05054995906
0.05532650235
0.05674304667
0.0556820853
0.0515160219
0.04520420166
0.03862137185
0.03336992454
0.02986065945
0.02730335177
0.0247935281
0.02207940219
0.01926759837
0.01642249627
0.01367548277
0.01127651797
0.009450686545
0.008245387892
0.007454467589
0.006713506905
0.005820650696
0.00501341843
0.004599631749
0.00487318261
0.007256662768
0.1162931507
0.08365967221
0.08057369081
0.06704719911
0.05138541628
0.03719540065
0.02983458002
0.03666377952
0.04300601669
0.04827803997
0.05326123836
0.05179938987
0.04942770922
0.04607728304
0.04172173481
0.03685536785
0.03204650311
0.02760165319
0.02364109771
0.02026723372
0.01746698205
0.01506875973
0.01293436877
0.01107132281
0.009579996884
0.008567236418
0.008034842192
0.007779216849
0.007428195425
0.006716000577
0.005947524258
0.005658429086
0.006558972607
0.010333984
0.1857109556
0.1292931099
0.1075826157
0.08273280948
0.05677166055
0.03672315742
0.02799019546
0.03393794664
0.04028760313
0.04484989626
0.04860179166
0.04816880752
0.04766546275
0.04542081888
0.04173217558
0.03701161173
0.03174913335
0.02652008501
0.02185875038
0.01805114115
0.01506348161
0.01271338183
0.01085829885
0.009455018787
0.00854360518
0.008162947161
0.008243938535
0.008547225102
0.008690064395
0.008381709277
0.008076349424
0.008480975205
0.01007123226
0.01375201242
0.245458331
0.1882141291
0.1506237535
0.1136857216
0.07520987428
0.04455082138
0.02787860115
0.03043425589
0.03671471271
0.04104696669
0.04423466578
0.04559895152
0.04566959612
0.04370530198
0.04025371495
0.03564524969
0.03027874207
0.02475613707
0.01980693409
0.01590257514
0.01304964465
0.01099019301
0.009505479511
0.008526542093
0.008109431226
0.00827793178
0.008893553154
0.009685783405
0.01032912269
0.01070806465
0.01159003868
0.01331203439
0.01506330969
0.01737867296
0.2330023849
0.20114665
0.1795746153
0.1436749252
0.09854370574
0.06029836786
0.03288388373
0.02729373759
0.03215049634
0.03612548315
0.03883631881
0.04010765308
0.04036639559
0.03776473894
0.03405022189
0.02988339422
0.02529577684
0.02064103947
0.01654701873
0.0134370854
0.01123839605
0.009664836288
0.008588032605
0.008069688234
0.008206695597
0.008870847971
0.009853044252
0.01095903304
0.01198197477
0.01322749152
0.01566821029
0.01856994088
0.02016218158
0.02105711358
0.1757618684
0.1639267903
0.1580153092
0.1228279545
0.07772658842
0.04440051683
0.02518013333
0.02362821691
0.02701692256
0.0294973955
0.03063976877
0.03029554714
0.03104766855
0.02940503617
0.02719909187
0.02449238875
0.02137805542
0.01783252372
0.01435561664
0.01167020879
0.009926144143
0.008775262235
0.008177073042
0.008269299521
0.009003140137
0.009954814069
0.01100051453
0.01214956251
0.01345504053
0.01584108742
0.01979958683
0.0231559438
0.02433847509
0.02423296509
0.1055538704
0.1059455638
0.1142333909
0.08079337686
0.0477909169
0.02754152155
0.01858367293
0.01976837486
0.02203498627
0.0227715941
0.02288276072
0.02346553897
0.02673390919
0.02998111903
0.02924607585
0.02696461091
0.02396253763
0.02045096657
0.0165458494
0.01289354099
0.01024056328
0.009008586505
0.008885171903
0.009486159843
0.0104481254
0.01132870422
0.01222116683
0.01324002888
0.01483063083
0.01893404145
0.02400312261
0.02686364038
0.0273324943
0.0265814867
0.05421196183
0.05725200661
0.07100923901
0.04385565046
0.02606011862
0.01731758001
0.01424342741
0.01617480781
0.01801454522
0.01940786108
0.023071464
0.02905921662
0.03505884495
0.0361395331
0.0335351224
0.03000218157
0.02647325662
0.02318427282
0.01976329687
0.01598693676
0.0125501028
0.01160833598
0.01209991588
0.0122281701
0.01232435187
0.01271137973
0.01332991277
0.01411945511
0.01627357868
0.02283074539
0.02831124437
0.03011853463
0.02940815752
0.02814119103
0.02597358679
0.02900276295
0.03963614386
0.02276599458
0.01565233415
0.01232157237
0.01122978849
0.01406820574
0.01809202852
0.02328562478
0.02953643334
0.03667292712
0.04485526043
0.04493417717
0.03927812501
0.03312219246
0.02834527901
0.02491954715
0.02208188794
0.01871824131
0.01527580036
0.01717568228
0.01901507809
0.01752746703
0.01517809034
0.01387276296
0.01370263601
0.01427763022
0.01790972377
0.02697755004
0.03184239576
0.03256774565
0.03087840619
0.02908003662
0.01452834218
0.01642677039
0.02124946227
0.01453203062
0.0119282737
0.01029131071
0.01034855132
0.01509109149
0.02086255763
0.02652544636
0.032943205
0.04224150968
0.04940248132
0.04889317406
0.04232315074
0.03481408558
0.02931318436
0.02586612112
0.02299273055
0.01941591936
0.0177918843
0.02684426747
0.02951121635
0.02604364785
0.0207217328
0.01634163721
0.01398919398
0.01373055943
0.01879034765
0.02676140515
0.03158113713
0.03223794314
0.03024816797
0.02895697484
0.01068223718
0.01171376502
0.01339226266
0.01175429123
0.01067482388
0.009516509321
0.009859074222
0.01360252817
0.01763075568
0.02172787689
0.02856496145
0.03919732228
0.04743078902
0.04642859916
0.03980038608
0.032110468
0.0265559305
0.02266928959
0.01840701382
0.01696538529
0.02653170357
0.04142862501
0.04120051998
0.03525949638
0.02783728175
0.02103437529
0.01639707574
0.01399783531
0.01338141229
0.01516233936
0.02128786533
0.02422317083
0.02250049142
0.02179299534
0.009218384167
0.009871553919
0.01053078675
0.01030118076
0.009826989047
0.008960366006
0.009135284811
0.01126790745
0.01373488929
0.01719120637
0.02400081405
0.03568172399
0.04552928767
0.04375219407
0.03578112875
0.02869797169
0.02305068043
0.01756034224
0.01516779841
0.02870400477
0.04651714566
0.05689449031
0.05265435901
0.04344012878
0.03388469262
0.02558080752
0.01927631108
0.01530613689
0.01320338966
0.01240453069
0.01709332023
0.02066462933
0.01905416418
0.01773347371
0.008472348516
0.008945699831
0.009296879451
0.009304886577
0.009089694707
0.008442830291
0.008459457969
0.009525666082
0.0109533359
0.01307526453
0.01685726657
0.02335074744
0.03112878128
0.03181200603
0.02667542214
0.02131502302
0.01663383154
0.01505012775
0.02671780551
0.04252826685
0.06075811231
0.06556121352
0.05947791123
0.0483817011
0.03697248558
0.02749247155
0.02048390489
0.01591246961
0.01331527733
0.01196724284
0.01410348527
0.01681770287
0.01544278592
0.01413255752
0.007543092011
0.008024610132
0.008426855721
0.008594004122
0.008591093208
0.008431452837
0.007953117948
0.008043976981
0.008895225299
0.01025963916
0.01211072329
0.01458252404
0.01801331777
0.02222287417
0.02346937215
0.01974761163
0.01713570868
0.01520523521
0.01403095316
0.02213773146
0.03634090474
0.05800284538
0.06136506408
0.05333449649
0.04065342166
0.02868081755
0.02058854728
0.01618128198
0.01371646419
0.0122313196
0.01120735955
0.01140564693
0.01252008709
0.01200399635
0.01327193006
0.006566649501
0.007389071192
0.007782577132
0.007891160681
0.007843739673
0.007693189729
0.007547428881
0.008106973242
0.009417367814
0.01120982481
0.01320005448
0.01524056225
0.01705612385
0.01799688773
0.0186458854
0.01827306763
0.01726932105
0.01492382839
0.01314759085
0.01523689481
0.02561896503
0.02846555338
0.03966504539
0.03483350754
0.02656286674
0.01964110042
0.01584908916
0.01394377827
0.01262670722
0.01147881975
0.01033442529
0.009335344657
0.009352749709
0.01205944005
0.01922141133
0.005372678082
0.00633597679
0.006876732215
0.00691299618
0.006723099735
0.006795763445
0.007289775751
0.008465538673
0.01022388161
0.01216531661
0.01401873206
0.01575457887
0.01726029885
0.01765396706
0.01862321567
0.01877593599
0.01706489396
0.0148697011
0.0155887704
0.02188127362
0.03554206397
0.03612146085
0.03185866751
0.02645110296
0.02052717879
0.01592539455
0.01349300317
0.01240498968
0.01163149873
0.01073852814
0.009350057191
0.008638803921
0.01415523431
0.03228487258
0.04365585257
0.005574666954
0.005190489808
0.005609240877
0.005470526408
0.005100256755
0.005889072353
0.006909298781
0.008250693902
0.009881363917
0.01162871335
0.01328812791
0.01477604391
0.01603090254
0.01702404789
0.0179598332
0.01782188014
0.01700418755
0.01823018498
0.02313119219
0.03203825057
0.04277009454
0.04440277924
0.0424182802
0.03791965072
0.03188603961
0.02490409289
0.018368312
0.01374417286
0.01120216438
0.009736137667
0.008404125541
0.007097203739
0.006671338841
0.009274214589
0.0171124662
0.005648059345
0.004250171097
0.003996051385
0.004472389744
0.005512865034
0.006681911436
0.00787635314
0.009298758745
0.01099647262
0.01272956385
0.01418499736
0.01510982445
0.01542303469
0.0157156744
0.01759208754
0.0212472006
0.02704992679
0.03482965913
0.0436169144
0.05101982279
0.05190429289
0.04910956174
0.04509137992
0.0407838062
0.03547418471
0.02890354726
0.02155610054
0.01500749872
0.01071998307
0.008617856579
0.007887242865
0.007977368898
0.00848867202
0.01024640282
0.004460041359
0.003706223159
0.004093309132
0.004785797007
0.005773050539
0.006701100453
0.007541592914
0.00855352128
0.01005377685
0.01193709589
0.01378260818
0.01513874886
0.04461990038
0.04045115445
0.03604865625
0.02932885313
0.02160695557
0.0153287428
0.01197436007
0.01086309067
0.01093810833
0.01279238562
0.01756385687
0.004683723939
0.005326926205
0.006132690059
0.006858236546
0.007428929817
0.007869706841
0.01191252392
0.01173960918
0.01157876471
0.01164310991
0.01196957177
0.01249408141
0.0133020279
0.01435829798
0.01547667893
0.0171113862
0.0200251189
0.01882452684
0.0180975019
0.01786319443
0.01761531161
0.01724562504
0.01685481652
0.01652121585
0.01622942561
0.01592122351
0.01555075106
0.01508374538
0.01447096334
0.01364026255
0.01251698179
0.01107012077
0.009376774284
0.007666003851
0.006228632295
0.005158754761
0.00436155539
0.003495331101
0.002845667086
0.003035432309
0.0160788634
0.01543900373
0.01477950852
0.01469351176
0.0155640808
0.01706617814
0.01937906645
0.02249381927
0.02594527697
0.02987798145
0.03270062008
0.03252980164
0.03107182
0.02931681133
0.02748766814
0.02569603253
0.02405822098
0.02257472582
0.02114887776
0.01971477564
0.01830318519
0.01696927966
0.01568697471
0.01434800083
0.0128547759
0.01119390721
0.009468662759
0.00789150583
0.006669582203
0.005894309163
0.005432694715
0.005120839333
0.004985880045
0.00430258654
0.02104920513
0.01966393891
0.01820611848
0.01745577956
0.01849267306
0.02079943477
0.0242951099
0.02879753704
0.0337177794
0.03901682709
0.04251422148
0.04365534066
0.04302425792
0.0410188655
0.03804133998
0.03473074266
0.03165939564
0.02893295073
0.02640580752
0.02398595715
0.0217176116
0.01965380108
0.01772104353
0.01577705668
0.01376330421
0.01172595183
0.009757509037
0.008001482804
0.006620448923
0.00574164445
0.005375110541
0.005372964167
0.005367588355
0.004729353394
0.02757607097
0.02518765811
0.02284661659
0.02117152655
0.02195156482
0.02499611243
0.02967262623
0.03542314409
0.04170820936
0.04857369631
0.05379847061
0.05666295649
0.05714288984
0.05514362096
0.05107670358
0.04602697554
0.04112036085
0.03680971144
0.03296711752
0.02941853083
0.02611996776
0.02307564264
0.02020007222
0.0173834864
0.01464034687
0.0120802606
0.009796742347
0.007862181503
0.006348388212
0.005345179424
0.004905432555
0.004971181852
0.005137682254
0.004675973391
0.03634026394
0.03264850184
0.02912323234
0.02598230599
0.02580561088
0.02925831027
0.03518596365
0.0421549141
0.05009668015
0.05911445873
0.06650824957
0.07125392749
0.07289600283
0.07105618092
0.066064302
0.05922495174
0.05220425411
0.04597935367
0.04062220259
0.03588263284
0.03150537901
0.02739189759
0.02340204419
0.01947894369
0.01577886162
0.01251790045
0.009814341586
0.007682970695
0.006072453401
0.004965117297
0.004382593061
0.004330464484
0.004567163358
0.004397752972
0.04784952738
0.04295907994
0.03804432562
0.03250965391
0.03015552675
0.0331163474
0.04029077583
0.04868075804
0.05842807444
0.06963619057
0.07900366291
0.08535001533
0.0880009986
0.08643521086
0.08083146028
0.07251650085
0.06354157422
0.05538271241
0.04836521701
0.04225188074
0.03677393625
0.03164314939
0.02655900859
0.02147855973
0.01677636023
0.01282034595
0.009728725572
0.007445081746
0.005788888441
0.00462042933
0.003903267902
0.003681121019
0.003955159872
0.004096723396
0.06174209731
0.0561416352
0.05024834514
0.04196764826
0.03578979456
0.03676852677
0.04478531343
0.05469598319
0.06598446017
0.07886283527
0.08953829249
0.09686180199
0.1001282115
0.0987458953
0.09274577433
0.08338810739
0.07297188304
0.06334079084
0.05494041549
0.04748461579
0.04074382897
0.03449820977
0.02837173861
0.02229073369
0.01687131804
0.0125681219
0.009383438737
0.007133624922
0.005525229434
0.004347131628
0.003544631733
0.003206834236
0.003534914563
0.003900052039
0.07537823313
0.07099578631
0.06513604456
0.05483768754
0.0437975406
0.04092813606
0.048727868
0.05989099578
0.07214782444
0.08569780264
0.09691175615
0.1045480735
0.107953823
0.1064829963
0.1000623006
0.089923497
0.07864335714
0.06834524119
0.05928426428
0.05081032924
0.04262126325
0.0348958341
0.02764352125
0.02090153085
0.01539698392
0.01142405406
0.008644415194
0.006715619461
0.005288731028
0.004165881905
0.003347328842
0.002989048061
0.003390822042
0.003852500693
0.08646275242
0.08482589526
0.08020535347
0.06958985291
0.05465593965
0.0463696431
0.05249337109
0.06416028908
0.0765341944
0.08977389159
0.1008248535
0.1082456924
0.1113504592
0.1094555166
0.1024492577
0.09165333773
0.08004268016
0.0698816341
0.06087817018
0.05177521178
0.04219034875
0.03281738577
0.02456507592
0.017727435
0.01283614317
0.009733634001
0.007692988487
0.006276633244
0.005129059168
0.004112689951
0.003334417637
0.003029482769
0.003498840361
0.003970300816
0.09544506125
0.09594761494
0.0926754376
0.0827642795
0.066443187
0.05294426891
0.05636386296
0.06752257223
0.07905391802
0.09124939905
0.101617326
0.1084894283
0.1109682846
0.1083686111
0.1006340761
0.08929854944
0.07769622835
0.06795622677
0.05920103052
0.04974347147
0.03926677995
0.02905588117
0.02063015901
0.01447367161
0.01056492833
0.008284726524
0.006907051315
0.00598823673
0.00513097937
0.004230214751
0.003511173359
0.003291714728
0.003832642513
0.004318801149
0.106029494
0.1061071471
0.1024652625
0.09245393712
0.07578443912
0.05917833303
0.05994283308
0.06981762196
0.07975319888
0.09044144385
0.09971765673
0.1059716022
0.107766402
0.1043944339
0.09595583958
0.08420135856
0.07249607211
0.06271796188
0.05385206389
0.04426583423
0.03394862883
0.02448838182
0.01724289266
0.01230116267
0.009243257569
0.00744483645
0.006507418588
0.005975469391
0.005360768117
0.004546809651
0.003869628803
0.003738266493
0.004395101087
0.005109521139
0.1269170554
0.1216071657
0.1125758688
0.09941460477
0.08153868019
0.06216275638
0.06164047438
0.07029551514
0.07873501024
0.08767040069
0.09524983386
0.1010000069
0.1023045881
0.09823636487
0.08918692397
0.07708208253
0.06498626441
0.05458506626
0.04521275105
0.0358686819
0.02700151096
0.01977647294
0.0145737392
0.01095860699
0.008520538721
0.007093354052
0.00649644837
0.006261139028
0.005835924116
0.005076808946
0.004410373351
0.004348575791
0.005181303758
0.006740991844
0.1748500462
0.1548652022
0.1291268989
0.1067333971
0.08350361886
0.05972545264
0.0593016884
0.06797445747
0.07585554392
0.08334524607
0.08895796173
0.09399523269
0.0946113646
0.08987038089
0.08082620462
0.06924060861
0.05719245497
0.04603450716
0.03605302701
0.02744156717
0.02066082963
0.01571344472
0.01212295752
0.009508634109
0.007785235575
0.006900857862
0.006708789084
0.006767025552
0.006528288066
0.005833526685
0.005167141934
0.005173016419
0.006390012258
0.009272122135
0.2547930922
0.2155109772
0.1621950523
0.1209788269
0.08215153856
0.05284510459
0.05222913853
0.06368669052
0.07161780016
0.07868203826
0.08377933929
0.08684922345
0.08577132498
0.08087037177
0.07286349793
0.06265111173
0.05140051647
0.040359111
0.0306339588
0.02298839811
0.01742700547
0.01341403022
0.0104693905
0.008393398299
0.007164660996
0.006788004964
0.007025204139
0.007412729735
0.007410346006
0.006863573998
0.00634299693
0.006626996701
0.008445771053
0.01196381629
0.3106234223
0.2780982244
0.2127244552
0.1516973451
0.08797004712
0.04825876264
0.04501395209
0.05721719633
0.06535349609
0.07210666155
0.07683834123
0.07826622666
0.07669353895
0.07260293842
0.06608625342
0.05738958371
0.04723178635
0.03696171076
0.0279888641
0.02106539105
0.016037718
0.01239829791
0.009765428852
0.007970737006
0.006984852836
0.006843984318
0.007381589702
0.008125598419
0.008487377145
0.008331685603
0.008400043307
0.009413862277
0.01143591677
0.01452329506
0.3125677128
0.28244182
0.2319515505
0.1761154728
0.09597777404
0.04416183192
0.03861035156
0.0485526219
0.05718228276
0.06309313768
0.06726247661
0.06850032839
0.06737775456
0.06474644808
0.05995601957
0.05276077463
0.04368327638
0.03421073128
0.02586939168
0.01948800109
0.01484922057
0.01151710918
0.009181103135
0.007658690803
0.006838628228
0.006778612413
0.007493263225
0.00868344195
0.009719880982
0.01033099945
0.01132966008
0.01309510777
0.01475606665
0.01703461543
0.2603787839
0.2430420311
0.2080611727
0.1625162689
0.08489508667
0.03664815803
0.03026114265
0.03893888782
0.04677588276
0.0521749334
0.05641802881
0.05850555741
0.05750606399
0.05490658361
0.05046136048
0.04290709099
0.03398965673
0.02687515103
0.02141920347
0.01680659146
0.01303902462
0.01034588962
0.008596929021
0.007559426485
0.007024368073
0.007108111476
0.007897252463
0.009357069082
0.01105331349
0.01266644229
0.01465276068
0.01691033939
0.0179787424
0.01932538891
0.1517918507
0.1584118827
0.1442698444
0.1068464905
0.05125413199
0.0263205702
0.0231040733
0.02925641226
0.03437287328
0.03717829775
0.03892512798
0.03954106409
0.04064378583
0.04059080808
0.03787917891
0.03230223502
0.02608296712
0.02128032102
0.01738906845
0.01398969921
0.01123100078
0.009417546995
0.008462551345
0.008091830139
0.008177540807
0.008804499298
0.009731552859
0.01113456061
0.0130567377
0.01591488337
0.01934981215
0.02187270732
0.02176634053
0.02132385557
0.06242268385
0.07498625184
0.07395614222
0.05261213272
0.02879110741
0.01925587704
0.01760445775
0.02110299448
0.02378842886
0.02520543011
0.02698378889
0.03031661271
0.03551085136
0.03688156581
0.03244632982
0.02675791397
0.02162622102
0.01764498684
0.01459804754
0.01217607455
0.01029899943
0.009491367366
0.009409776512
0.009707277274
0.010441993
0.01139379243
0.01228680785
0.01339457804
0.01558077827
0.02090435609
0.02617033445
0.02813767492
0.02658307143
0.02299605837
0.0246925087
0.03206628076
0.03539867451
0.02686555469
0.0186337045
0.01460213909
0.01369037037
0.01582458159
0.01826747232
0.0204775341
0.0248042244
0.03872541387
0.05290475054
0.05295980846
0.0428177121
0.03010933152
0.02110902193
0.01658461017
0.01431358082
0.01301107037
0.01185396199
0.01191460328
0.01252070384
0.01280912481
0.0131764725
0.01350739534
0.0137591247
0.01447663685
0.01772210332
0.02647646784
0.03172427093
0.03237170385
0.0297525392
0.02326576031
0.01281930607
0.01674618967
0.02015647203
0.01773507914
0.0145229295
0.01218643666
0.01149098853
0.01364184181
0.01639320258
0.01983216802
0.03028213627
0.04957747593
0.0617654469
0.0608468822
0.04937733573
0.03411054562
0.02339816056
0.01940751588
0.0174294754
0.01621962927
0.01633145094
0.01851751926
0.01994939279
0.01853014808
0.01681960729
0.01545971538
0.01440100193
0.01446689233
0.0189615528
0.02875400222
0.03228371201
0.03138224129
0.0276533684
0.02018428688
0.009024614309
0.01127662144
0.01395516604
0.01389590747
0.01240775497
0.01073961966
0.01011039604
0.01181331895
0.01413403832
0.01834912657
0.03139192275
0.05277515441
0.06472836046
0.06253247259
0.04984894918
0.0354810004
0.02521462948
0.02004198657
0.01744269158
0.01812564314
0.0263108065
0.03501701253
0.03549575707
0.02778551173
0.02126267997
0.0177530457
0.01538718539
0.01442311533
0.01750043279
0.02635581046
0.02880102647
0.0265131499
0.02136907281
0.01501138901
0.007612619539
0.008848665028
0.01069607318
0.01127275425
0.01058218413
0.009429722321
0.009016411058
0.01020245951
0.01223490093
0.01664295024
0.02888087458
0.05360014366
0.06079848006
0.0599417416
0.04534453531
0.03081187139
0.02342074418
0.01913081046
0.01797682532
0.02848724379
0.05023976319
0.0599703466
0.05511683386
0.0402409457
0.02738598754
0.02053487884
0.01660718794
0.014033442
0.01307676072
0.01422460084
0.01673275738
0.01773093807
0.01584428652
0.01361942197
0.008740428669
0.007793181344
0.009002189335
0.009593878755
0.009230048314
0.00842307471
0.008326610733
0.009570109701
0.01223517564
0.01662796021
0.02282086166
0.03220552084
0.03755297489
0.03663980751
0.03185954789
0.02730376391
0.0235021288
0.02056633574
0.02418029086
0.04743286841
0.06843167418
0.07193597218
0.06359296767
0.04664983217
0.03134508951
0.02242410323
0.01737823282
0.01404162697
0.01212345169
0.01148500326
0.01261622943
0.01393700128
0.01339661751
0.01199132693
0.007743417009
0.00685675306
0.007413456927
0.008620528304
0.009127357525
0.008529983005
0.007905792729
0.008323618326
0.01029574358
0.01386283843
0.01826406249
0.02289036495
0.02785684652
0.03056477192
0.03145474444
0.03065855782
0.02906523606
0.02621779431
0.02283199665
0.02538249225
0.0494318353
0.06633574121
0.06853389268
0.05924772202
0.0431582973
0.02978769417
0.02175749594
0.01680375546
0.01333251059
0.01111579988
0.01004633552
0.0100316165
0.01075852911
0.01175862247
0.01112469007
0.006620238129
0.006310257687
0.00699742439
0.00856525812
0.009259560593
0.008209210725
0.007864620299
0.009031724299
0.01182915682
0.01584173397
0.02050622407
0.02522854736
0.02882580694
0.03041282123
0.03124176486
0.03125693618
0.02979895145
0.02743779871
0.02344331997
0.02161064438
0.03034804241
0.04918850073
0.05079394449
0.04083996014
0.0299564124
0.02291125446
0.01828047917
0.01477595501
0.01210710509
0.01027595752
0.009054947059
0.008646038092
0.01042766899
0.01905872575
0.01478260751
0.005130969646
0.005620130158
0.006501958306
0.007983198158
0.008007947954
0.007407641393
0.007977646071
0.009971437562
0.01334086703
0.0173935156
0.02172454826
0.02596779361
0.02874739703
0.0298176912
0.03054859963
0.03063389559
0.02995945866
0.02824196361
0.02512400453
0.02388773626
0.02677123133
0.03101531545
0.02873999918
0.02398404635
0.02004957327
0.01726975572
0.01493206564
0.01282193568
0.01107516563
0.009779698604
0.008728097881
0.009412304448
0.01769293526
0.08328752408
0.05807943956
0.004919943087
0.005015617944
0.005752059247
0.006251699111
0.005963605973
0.006640646099
0.008097915975
0.01044281553
0.01353832837
0.01698011762
0.02065081753
0.02428149523
0.02738957533
0.02948910273
0.03033941008
0.03071079898
0.03073798958
0.02984623244
0.02898632424
0.02913029188
0.03048817356
0.03061424898
0.02725633451
0.02398802611
0.02054688977
0.01685539582
0.01359850098
0.01130093509
0.009770369913
0.008615601723
0.007665169455
0.007143970195
0.008231649914
0.01293534866
0.01181982279
0.004966586656
0.00480847726
0.0052465664
0.005806968825
0.00662582092
0.008324677446
0.01054268626
0.01337576038
0.01679251258
0.02077134092
0.02456583109
0.02750533734
0.02926323582
0.02985672254
0.03049202815
0.03112093896
0.03195336112
0.03469012691
0.03937326248
0.04244880996
0.04115873445
0.03509522834
0.02793133831
0.02151870888
0.01777412401
0.01521875592
0.01258882181
0.01016358721
0.008529694728
0.007693615759
0.007689531092
0.008334724532
0.009156127147
0.008721027048
0.00437825307
0.004628081859
0.005305519029
0.005975545632
0.006706581625
0.008027783277
0.01004932349
0.01270397623
0.01607338279
0.02071105432
0.02541312687
0.02888437359
0.02554761513
0.01909663102
0.01675445385
0.01530800434
0.01275113855
0.01059758854
0.009668041834
0.00969273118
0.0103695498
0.01131081306
0.01218882534
0.005090669664
0.00587887333
0.006548217148
0.007624315092
0.009228487931
0.01133597674
0.0120504508
0.01211125877
0.01222496146
0.01246912735
0.01286670284
0.01346825949
0.01443420981
0.01575196364
0.01708196063
0.01879706801
0.0211769432
0.02084416388
0.01997233276
0.01926703909
0.01869219533
0.01817403878
0.01767767953
0.01715615253
0.01656164756
0.01588507519
0.01515853262
0.01440923933
0.01361533228
0.01270777751
0.01160543697
0.01026767526
0.008755002333
0.007262642661
0.006019126242
0.00504205992
0.004158189874
0.003132031159
0.002468641186
0.002904528594
0.0149335187
0.01490702109
0.0151350718
0.01586339451
0.01722700086
0.0192269569
0.02216821346
0.02599503438
0.0300957117
0.03396171333