/*--------------------------------*- C++ -*----------------------------------*\
  =========                 |
  \\      /  F ield         | OpenFOAM: The Open Source CFD Toolbox
   \\    /   O peration     | Website:  https://openfoam.org
    \\  /    A nd           | Version:  8
     \\/     M anipulation  |
\*---------------------------------------------------------------------------*/
FoamFile
{
    version     2.0;
    format      ascii;
    class       volScalarField;
    location    "0.8";
    object      O2;
}
// * * * * * * * * * * * * * * * * * * * * * * * * * * * * * * * * * * * * * //

dimensions      [0 0 0 0 0 0 0];

internalField   nonuniform List<scalar> 
67193
(
0.2100043014
0.2100042573
0.2100041909
0.2100041029
0.210004024
0.2100039802
0.210003954
0.2100039141
0.2100038233
0.2100037015
0.21000354
0.2100035787
0.2100035603
0.2100035825
0.2100036495
0.2100037492
0.2100038565
0.210003951
0.2100040308
0.210004106
0.2100041858
0.2100042738
0.2100043708
0.2100044817
0.2100046195
0.2100048026
0.210005032
0.210005264
0.210005427
0.2100055097
0.210005611
0.2100058157
0.2100060472
0.2100060327
0.2100041034
0.2100040789
0.2100040748
0.2100040204
0.2100038959
0.2100037786
0.2100036802
0.2100035892
0.2100034894
0.2100033952
0.2100033265
0.2100033126
0.2100032831
0.2100033026
0.2100033799
0.2100035071
0.2100036634
0.2100038197
0.2100039579
0.2100040778
0.2100041869
0.2100042894
0.2100043851
0.2100044769
0.2100045785
0.210004716
0.210004908
0.2100051274
0.210005303
0.2100053869
0.2100054106
0.2100054465
0.210005505
0.2100054778
0.2100039547
0.210003852
0.210003823
0.2100037858
0.2100036515
0.2100035026
0.2100033732
0.2100032657
0.2100031728
0.2100031113
0.2100030624
0.2100030496
0.2100030325
0.2100030662
0.2100031551
0.2100032905
0.2100034584
0.2100036418
0.2100038207
0.210003984
0.2100041328
0.21000427
0.2100043934
0.2100044989
0.2100045903
0.2100046872
0.2100048168
0.2100049848
0.2100051566
0.2100052773
0.2100053227
0.2100053195
0.2100053127
0.2100052705
0.2100038995
0.2100037519
0.2100036762
0.2100036327
0.2100034964
0.2100033272
0.2100031742
0.2100030548
0.2100029629
0.2100029016
0.2100028493
0.2100028087
0.2100028125
0.2100028788
0.2100029993
0.2100031484
0.210003312
0.2100034867
0.2100036694
0.2100038505
0.2100040262
0.2100041971
0.210004361
0.210004508
0.2100046263
0.2100047153
0.2100047947
0.2100048953
0.2100050323
0.2100051675
0.2100052409
0.210005251
0.2100052432
0.210005201
0.2100037961
0.2100036839
0.2100036064
0.2100035633
0.2100034221
0.2100032292
0.2100030454
0.2100029065
0.2100027982
0.2100027122
0.2100026262
0.2100025589
0.2100025873
0.2100026907
0.2100028556
0.2100030416
0.2100032204
0.210003388
0.2100035537
0.2100037237
0.2100038986
0.2100040782
0.2100042643
0.2100044514
0.2100046184
0.2100047378
0.2100048008
0.2100048442
0.210004932
0.2100050573
0.2100051394
0.2100051581
0.2100051621
0.2100051357
0.210003643
0.2100035766
0.2100035452
0.2100035388
0.210003407
0.2100031896
0.2100029669
0.2100027984
0.2100026629
0.2100025387
0.2100024163
0.2100023348
0.2100023879
0.2100025261
0.2100027332
0.2100029591
0.2100031633
0.21000334
0.2100035066
0.2100036751
0.2100038431
0.2100040073
0.210004178
0.2100043665
0.2100045608
0.2100047168
0.2100047901
0.2100048006
0.2100048439
0.2100049472
0.2100050239
0.2100050453
0.2100050615
0.2100050569
0.2100034753
0.2100034114
0.2100034392
0.2100035094
0.2100034325
0.2100032031
0.2100029356
0.2100027314
0.2100025636
0.2100024032
0.2100022563
0.2100021772
0.2100022529
0.2100024221
0.2100026653
0.2100029235
0.2100031484
0.2100033412
0.2100035281
0.2100037158
0.2100038906
0.2100040424
0.2100041769
0.2100043234
0.2100044989
0.210004661
0.210004742
0.2100047376
0.2100047521
0.2100048342
0.2100049007
0.2100049237
0.2100049526
0.2100049725
0.2100032576
0.2100031695
0.2100032519
0.2100034256
0.2100034656
0.2100032694
0.2100029541
0.2100027157
0.2100025207
0.2100023386
0.2100021857
0.2100021209
0.210002215
0.2100024108
0.2100026814
0.2100029577
0.2100031893
0.210003396
0.2100036113
0.2100038229
0.2100040033
0.2100041415
0.2100042449
0.2100043411
0.2100044687
0.2100046016
0.2100046677
0.2100046516
0.2100046523
0.2100047202
0.2100047775
0.2100048043
0.2100048494
0.210004894
0.210002995
0.2100028863
0.2100030139
0.2100032776
0.2100034544
0.2100033791
0.210003021
0.2100027583
0.2100025475
0.2100023642
0.2100022252
0.2100021837
0.2100022901
0.210002506
0.2100027927
0.2100030694
0.2100032917
0.2100035071
0.2100037414
0.2100039562
0.2100041219
0.2100042359
0.2100043101
0.2100043718
0.2100044563
0.2100045469
0.2100045824
0.210004554
0.2100045517
0.2100046126
0.2100046638
0.2100046971
0.2100047627
0.2100048388
0.2100028085
0.2100026717
0.2100028209
0.2100031219
0.2100034155
0.2100034725
0.2100031298
0.2100028499
0.2100026347
0.2100024715
0.2100023722
0.2100023611
0.2100024761
0.2100027027
0.2100029912
0.2100032534
0.2100034599
0.2100036762
0.2100038998
0.210004083
0.2100042113
0.2100042915
0.2100043391
0.2100043798
0.2100044365
0.2100044887
0.2100044949
0.2100044615
0.2100044643
0.2100045233
0.2100045728
0.2100046159
0.2100047079
0.2100048289
0.2100028179
0.2100026471
0.2100027813
0.2100030559
0.21000339
0.2100035294
0.210003263
0.2100029607
0.2100027492
0.2100026214
0.2100025884
0.2100026223
0.2100027462
0.2100029681
0.2100032395
0.2100034883
0.2100036947
0.2100038881
0.2100040544
0.2100041771
0.210004258
0.2100043049
0.210004334
0.2100043646
0.2100044016
0.2100044248
0.2100044168
0.2100043927
0.2100044061
0.2100044665
0.2100045229
0.2100045842
0.2100047146
0.2100048783
0.2100030103
0.2100028904
0.2100029325
0.2100031533
0.210003445
0.2100036012
0.2100033614
0.2100030645
0.2100028595
0.210002763
0.2100027664
0.2100028906
0.2100030594
0.2100032997
0.2100035699
0.2100038092
0.2100039848
0.2100040953
0.2100041534
0.2100041806
0.210004197
0.2100042182
0.2100042516
0.2100042913
0.2100043266
0.2100043484
0.2100043555
0.2100043581
0.2100043871
0.2100044553
0.2100045348
0.2100046326
0.2100048126
0.210004974
0.2100029666
0.2100032571
0.2100031034
0.2100033493
0.2100036069
0.210003706
0.2100034646
0.210003187
0.2100029817
0.210002889
0.2100028606
0.2100030558
0.2100032804
0.2100035274
0.2100037707
0.2100039768
0.210004119
0.2100041835
0.2100041784
0.2100041374
0.2100041018
0.2100040949
0.2100041173
0.2100041602
0.210004213
0.2100042664
0.2100043138
0.2100043543
0.2100044043
0.2100044898
0.2100046145
0.2100047795
0.210005006
0.2100050993
0.2100022253
0.2100031475
0.2100029734
0.2100033447
0.2100037784
0.210003914
0.2100036935
0.2100033909
0.2100031756
0.2100030716
0.2100030367
0.210003175
0.2100033606
0.2100035515
0.2100037553
0.2100039452
0.2100040855
0.2100041505
0.2100041394
0.210004084
0.2100040271
0.2100039999
0.2100040135
0.2100040662
0.2100041468
0.2100042366
0.2100043171
0.2100043821
0.2100044456
0.2100045458
0.2100047124
0.2100049405
0.2100051759
0.2100052357
0.2100015014
0.2100024863
0.2100023907
0.2100028953
0.2100036176
0.2100040452
0.2100039233
0.2100035727
0.2100033453
0.2100032299
0.2100031823
0.2100032549
0.2100033637
0.2100035056
0.2100036844
0.210003865
0.2100040006
0.2100040585
0.2100040354
0.2100039687
0.2100039101
0.2100038961
0.210003937
0.2100040295
0.2100041567
0.2100042833
0.2100043817
0.2100044511
0.2100045102
0.2100046019
0.2100047445
0.2100049327
0.2100051401
0.2100052613
0.2100020718
0.2100022528
0.2100018757
0.2100025304
0.210003331
0.210003941
0.2100040833
0.2100037704
0.2100035379
0.2100034278
0.2100033861
0.2100034316
0.2100035074
0.2100036195
0.2100037747
0.2100039212
0.2100040222
0.2100040555
0.2100040154
0.2100039383
0.2100038836
0.2100038932
0.2100039709
0.2100041109
0.2100042859
0.210004434
0.2100045297
0.2100045878
0.2100046245
0.2100046763
0.210004722
0.2100047787
0.2100049129
0.2100050929
0.2100030202
0.2100030143
0.2100026825
0.2100033501
0.2100040731
0.21000446
0.2100043348
0.2100039027
0.2100037352
0.2100036733
0.2100036746
0.2100037474
0.2100037932
0.2100038329
0.2100038804
0.2100039472
0.210004015
0.2100040716
0.2100040765
0.2100040277
0.210003988
0.2100040276
0.2100041411
0.2100043238
0.2100045315
0.21000468
0.21000476
0.2100047945
0.2100047837
0.2100047616
0.2100046961
0.2100046362
0.2100046644
0.2100048021
0.2100038787
0.2100038644
0.2100034279
0.2100040869
0.210004567
0.2100047397
0.2100045108
0.2100040405
0.2100039116
0.2100039113
0.210003936
0.2100039735
0.2100039688
0.2100039866
0.2100039649
0.2100039497
0.2100039487
0.2100039958
0.2100040825
0.2100041571
0.2100042085
0.2100043091
0.2100044434
0.2100046329
0.210004828
0.2100049541
0.210005015
0.2100050153
0.2100049153
0.2100047964
0.2100046749
0.2100045752
0.210004507
0.2100044936
0.2100043599
0.210004406
0.2100040636
0.2100046001
0.2100048245
0.2100048724
0.2100046711
0.2100041966
0.2100040367
0.210004052
0.2100040501
0.210004031
0.2100040007
0.2100041267
0.2100041913
0.2100042126
0.2100041654
0.2100041109
0.2100041217
0.2100042247
0.2100043925
0.2100046062
0.2100047515
0.2100049181
0.2100050581
0.2100051382
0.2100051707
0.2100051269
0.2100049103
0.2100047439
0.2100046269
0.2100045207
0.210004434
0.210004215
0.2100045577
0.2100046606
0.2100045252
0.210004841
0.2100049312
0.2100049538
0.2100048298
0.2100043111
0.2100040853
0.2100040667
0.2100040635
0.2100040366
0.2100039157
0.2100041136
0.2100043227
0.2100044543
0.2100044523
0.210004376
0.2100043037
0.2100043584
0.2100045872
0.2100048201
0.2100049487
0.2100050796
0.2100051575
0.2100051839
0.2100051982
0.2100051263
0.2100047418
0.2100046524
0.2100045143
0.2100043996
0.2100043265
0.2100039594
0.210004644
0.210004787
0.2100047894
0.210004902
0.2100049113
0.2100048893
0.210004746
0.2100042959
0.2100041447
0.2100041505
0.2100041276
0.2100040341
0.2100039877
0.2100042934
0.2100045884
0.210004791
0.2100048112
0.2100047128
0.2100045952
0.2100046738
0.210004944
0.2100048614
0.2100048496
0.210004966
0.2100050539
0.2100050432
0.2100049847
0.2100048817
0.2100044875
0.2100047065
0.2100045332
0.2100044086
0.2100043251
0.2100037783
0.2100047261
0.2100048991
0.210004921
0.2100049216
0.2100048502
0.2100048219
0.2100046614
0.2100043683
0.2100043632
0.2100044696
0.210004538
0.2100044885
0.2100044026
0.2100046654
0.210004744
0.2100048318
0.2100048071
0.2100047181
0.2100048463
0.2100051448
0.2100051445
0.2100046386
0.2100045462
0.2100046561
0.2100048112
0.2100049073
0.2100049168
0.2100049257
0.2100049349
0.2100049091
0.2100047604
0.210004591
0.2100045297
0.2100042531
0.210004809
0.2100049745
0.2100050067
0.2100049767
0.2100048634
0.2100048185
0.2100046234
0.2100044713
0.2100045829
0.2100047345
0.2100048
0.2100047539
0.2100044427
0.2100046351
0.2100047957
0.2100047838
0.2100047246
0.210004859
0.2100051923
0.2100050535
0.2100046348
0.2100042436
0.2100042083
0.2100043522
0.2100045362
0.2100047239
0.2100048498
0.2100049192
0.2100049534
0.2100049451
0.2100047638
0.2100046185
0.2100046376
0.210004554
0.2100049573
0.2100051347
0.2100050849
0.2100050625
0.2100049235
0.2100048301
0.2100046206
0.2100045706
0.2100047427
0.2100048984
0.210004924
0.2100049056
0.2100048378
0.2100048329
0.2100047739
0.2100047776
0.2100049323
0.2100051708
0.2100050006
0.2100045968
0.2100041429
0.2100038442
0.2100038996
0.210004104
0.2100043033
0.2100044989
0.210004681
0.2100048225
0.2100049109
0.2100049513
0.2100047714
0.2100047786
0.2100049512
0.2100051153
0.2100050468
0.2100049598
0.2100051382
0.2100051233
0.2100050989
0.2100049711
0.2100048437
0.2100046787
0.2100047174
0.2100048986
0.2100050113
0.2100049977
0.2100049229
0.2100048185
0.2100047216
0.2100047321
0.210004787
0.2100049204
0.2100051382
0.2100049625
0.2100045271
0.2100038777
0.210003651
0.2100038518
0.2100041936
0.2100044387
0.2100045396
0.2100046339
0.2100047828
0.2100049283
0.2100050403
0.2100049975
0.2100050649
0.2100051657
0.2100061848
0.2100052408
0.2100050295
0.2100052139
0.2100051496
0.2100051312
0.2100050078
0.2100049056
0.2100048479
0.2100049358
0.2100050403
0.2100050527
0.2100049924
0.2100048918
0.2100047789
0.210004658
0.2100045813
0.2100046348
0.2100048779
0.2100051102
0.2100051221
0.210004784
0.2100047562
0.2100043875
0.2100044801
0.210004621
0.210004639
0.2100046112
0.2100046651
0.2100047929
0.21000494
0.2100050797
0.2100051486
0.2100053217
0.210006188
0.2100084656
0.2100052564
0.210005136
0.2100052225
0.2100052299
0.2100052378
0.2100051377
0.2100051091
0.2100051547
0.2100052272
0.2100052106
0.2100051001
0.2100049542
0.2100047956
0.2100046859
0.2100045544
0.210004525
0.2100046519
0.2100049054
0.2100050295
0.2100048824
0.2100044645
0.2100044204
0.2100045769
0.2100047923
0.210004958
0.2100049938
0.2100049498
0.210004947
0.2100050318
0.2100052017
0.2100055427
0.2100061036
0.2100069465
0.210008051
0.2099970719
0.2100056049
0.2100054535
0.2100054262
0.2100055263
0.2100056494
0.210005494
0.2100054666
0.210005501
0.2100054747
0.2100053687
0.2100052264
0.2100050628
0.2100048977
0.2100048006
0.2100046924
0.2100047024
0.2100048067
0.2100048939
0.2100048506
0.2100046507
0.2100044002
0.2100043132
0.2100042977
0.2100044229
0.2100046619
0.2100049377
0.2100051326
0.2100051906
0.2100051642
0.2100051446
0.2100052199
0.210005303
0.210005525
0.2100061919
0.2100092044
0.2100057857
0.2100058527
0.2100059945
0.2100058659
0.2100057015
0.2100055748
0.2100055045
0.2100054467
0.2100053933
0.2100053162
0.2100052251
0.2100051334
0.2100050699
0.2100050266
0.2100049609
0.2100048731
0.2100047412
0.2100045755
0.2100044252
0.2100043556
0.210004342
0.2100043639
0.2100043516
0.2100043692
0.2100045188
0.2100047716
0.2100050306
0.2100051995
0.2100052918
0.2100054062
0.2100055172
0.2100057225
0.2100059771
0.2100068171
0.2100060991
0.2100059997
0.21000581
0.210005587
0.2100054688
0.2100053766
0.2100053125
0.2100052623
0.2100052477
0.2100052269
0.2100051881
0.210005152
0.2100043391
0.2100042799
0.2100043531
0.2100046125
0.2100048862
0.2100050355
0.2100050818
0.2100050469
0.2100051939
0.2100054246
0.210006713
0.210005574
0.210005464
0.2100054246
0.2100053376
0.2100052164
0.2100051096
0.2100044568
0.2100044358
0.2100043876
0.2100043165
0.2100042458
0.2100042049
0.2100041932
0.2100041793
0.2100041087
0.2100039543
0.2100037823
0.2100037576
0.2100037446
0.2100037631
0.2100038133
0.2100038923
0.2100039867
0.2100040834
0.210004178
0.210004271
0.2100043626
0.2100044526
0.2100045432
0.210004644
0.2100047734
0.2100049488
0.2100051626
0.2100053646
0.2100054958
0.2100055764
0.2100057163
0.2100059984
0.2100062965
0.2100061505
0.2100042894
0.2100043076
0.2100043053
0.2100042494
0.2100041501
0.2100040501
0.210003955
0.2100038534
0.2100037271
0.2100035738
0.2100034641
0.2100034548
0.2100034831
0.2100035369
0.2100036202
0.2100037386
0.2100038855
0.2100040451
0.2100042038
0.2100043535
0.2100044876
0.2100046005
0.2100046904
0.2100047665
0.2100048531
0.2100049788
0.2100051464
0.210005312
0.210005418
0.2100054531
0.2100054822
0.2100055706
0.2100056622
0.2100055778
0.2100040854
0.2100040703
0.2100040588
0.2100040037
0.2100038999
0.2100037779
0.2100036382
0.2100034828
0.2100033235
0.2100031837
0.2100031119
0.2100031219
0.2100031849
0.2100032855
0.2100034178
0.2100035748
0.2100037543
0.210003947
0.2100041413
0.2100043263
0.2100044912
0.2100046276
0.210004731
0.2100048057
0.2100048692
0.2100049483
0.2100050585
0.210005185
0.2100052931
0.2100053555
0.2100053772
0.210005391
0.2100054034
0.2100053449
0.2100040167
0.2100039559
0.2100039004
0.2100038134
0.2100036955
0.2100035509
0.2100033703
0.2100031697
0.2100029841
0.2100028464
0.2100027814
0.2100027934
0.2100028778
0.2100030238
0.2100032163
0.2100034325
0.2100036547
0.2100038744
0.210004085
0.210004283
0.2100044591
0.2100046048
0.2100047163
0.2100047962
0.2100048541
0.2100049057
0.2100049682
0.2100050526
0.2100051553
0.2100052476
0.2100053056
0.2100053341
0.2100053393
0.2100052714
0.2100039772
0.2100039108
0.2100038357
0.2100037154
0.2100035648
0.2100033862
0.2100031638
0.2100029239
0.210002722
0.2100025714
0.2100024898
0.2100024923
0.2100025899
0.2100027747
0.210003025
0.2100033026
0.2100035731
0.210003823
0.2100040513
0.2100042574
0.2100044377
0.2100045851
0.2100046957
0.2100047735
0.210004827
0.2100048622
0.2100048884
0.2100049324
0.2100050199
0.2100051267
0.210005213
0.210005269
0.2100052886
0.2100052201
0.2100038535
0.2100038164
0.2100037789
0.2100036817
0.2100035081
0.2100032926
0.210003033
0.2100027608
0.2100025355
0.2100023545
0.2100022462
0.2100022365
0.2100023451
0.2100025653
0.2100028716
0.2100032129
0.2100035358
0.2100038174
0.2100040606
0.2100042722
0.2100044556
0.2100046073
0.2100047129
0.2100047719
0.2100048029
0.2100048158
0.2100048124
0.2100048232
0.2100048924
0.2100049992
0.2100050975
0.210005173
0.2100052107
0.2100051546
0.2100035787
0.2100035752
0.210003621
0.210003642
0.2100035095
0.21000327
0.2100029787
0.2100026746
0.2100024174
0.2100022006
0.2100020681
0.2100020509
0.2100021714
0.2100024238
0.2100027806
0.2100031799
0.2100035512
0.2100038629
0.2100041207
0.2100043368
0.2100045162
0.2100046586
0.2100047553
0.2100047903
0.2100047787
0.2100047539
0.2100047222
0.2100047117
0.2100047677
0.2100048649
0.2100049594
0.2100050437
0.2100051048
0.2100050763
0.2100031824
0.2100031884
0.2100033146
0.2100035043
0.2100035263
0.2100033047
0.2100029903
0.2100026574
0.2100023651
0.2100021212
0.2100019729
0.2100019547
0.2100020881
0.2100023691
0.210002767
0.2100032097
0.2100036138
0.2100039433
0.2100042086
0.2100044245
0.2100045936
0.2100047149
0.2100047811
0.2100047856
0.2100047326
0.2100046674
0.2100046129
0.2100045946
0.2100046433
0.2100047234
0.2100048023
0.2100048898
0.2100049846
0.210004999
0.2100027868
0.2100027653
0.2100029272
0.2100032442
0.2100034879
0.2100033682
0.2100030462
0.2100026984
0.2100023755
0.210002117
0.2100019631
0.2100019501
0.210002097
0.210002401
0.2100028267
0.2100032922
0.2100037049
0.2100040309
0.2100042856
0.2100044875
0.2100046349
0.2100047226
0.2100047498
0.2100047175
0.2100046395
0.2100045562
0.2100044959
0.2100044807
0.2100045225
0.2100045777
0.2100046368
0.2100047321
0.2100048736
0.2100049418
0.2100024976
0.2100024378
0.2100025926
0.2100029618
0.2100033662
0.2100034213
0.2100031238
0.2100027816
0.2100024373
0.2100021748
0.2100020246
0.2100020226
0.2100021835
0.2100025036
0.2100029419
0.2100034085
0.2100038087
0.2100041112
0.2100043349
0.2100045035
0.2100046144
0.2100046592
0.2100046478
0.210004594
0.2100045162
0.2100044419
0.2100043908
0.2100043818
0.2100044116
0.2100044381
0.2100044839
0.2100046016
0.2100048012
0.2100049279
0.2100023722
0.2100022956
0.2100024181
0.2100027809
0.2100032516
0.2100034484
0.2100032023
0.210002882
0.2100025301
0.2100022698
0.2100021301
0.210002144
0.2100023187
0.2100026458
0.2100030809
0.2100035336
0.2100039114
0.2100041804
0.2100043598
0.2100044774
0.2100045351
0.2100045344
0.2100044992
0.2100044496
0.2100043957
0.2100043445
0.2100043084
0.2100043039
0.2100043193
0.2100043259
0.2100043777
0.2100045373
0.2100047973
0.2100049702
0.2100023585
0.2100023378
0.2100024306
0.2100027658
0.2100032268
0.2100034923
0.2100032778
0.2100029745
0.2100026256
0.210002376
0.2100022496
0.2100022803
0.210002467
0.2100027927
0.2100032125
0.2100036419
0.2100039916
0.2100042234
0.2100043535
0.2100044076
0.2100044007
0.2100043598
0.2100043204
0.2100042973
0.2100042815
0.2100042611
0.2100042458
0.2100042487
0.2100042594
0.2100042739
0.2100043627
0.2100045779
0.210004879
0.2100050444
0.210002257
0.2100024179
0.2100025537
0.2100028846
0.2100033311
0.2100035936
0.2100033892
0.2100030521
0.210002726
0.2100024892
0.2100023756
0.210002406
0.2100025901
0.2100028947
0.2100032756
0.210003662
0.2100039792
0.2100041878
0.2100042851
0.2100042869
0.2100042291
0.2100041652
0.2100041338
0.210004139
0.2100041628
0.2100041823
0.2100041984
0.2100042191
0.2100042473
0.2100043096
0.2100044662
0.2100047361
0.2100050394
0.2100051056
0.2100018176
0.2100022191
0.2100025773
0.2100030431
0.2100035966
0.2100038125
0.2100036247
0.2100032453
0.2100028961
0.210002641
0.2100025064
0.2100025194
0.2100026721
0.2100029259
0.2100032452
0.2100035752
0.210003853
0.2100040366
0.210004105
0.2100040767
0.2100040069
0.2100039551
0.2100039532
0.2100039981
0.2100040644
0.210004127
0.2100041762
0.2100042235
0.2100042908
0.2100044207
0.2100046509
0.2100049532
0.2100052019
0.2100051859
0.2100015783
0.2100017949
0.210002316
0.2100030039
0.2100037733
0.2100040123
0.2100038344
0.210003472
0.2100031204
0.2100028511
0.2100026922
0.210002673
0.2100027753
0.2100029692
0.2100032239
0.2100034935
0.2100037159
0.2100038555
0.2100038924
0.2100038582
0.2100038139
0.2100038097
0.2100038612
0.2100039515
0.2100040484
0.2100041286
0.2100041932
0.210004266
0.2100043778
0.2100045603
0.2100048204
0.2100051017
0.2100052858
0.2100052751
0.2100017661
0.2100017952
0.2100023115
0.2100030581
0.2100040219
0.2100042236
0.2100039967
0.2100036867
0.2100033684
0.2100031193
0.2100029651
0.2100029367
0.2100030103
0.2100031595
0.2100033608
0.2100035703
0.21000372
0.2100037965
0.2100037978
0.2100037687
0.2100037697
0.2100038313
0.2100039433
0.2100040754
0.2100041961
0.2100042822
0.2100043405
0.2100044113
0.2100045439
0.2100047326
0.2100049532
0.2100051703
0.2100053124
0.2100053115
0.2100024804
0.2100024021
0.2100027877
0.210003385
0.2100042548
0.2100044481
0.2100041816
0.2100038737
0.2100036367
0.2100034475
0.2100033411
0.210003345
0.2100034212
0.2100035504
0.2100037115
0.2100038736
0.2100039583
0.2100039619
0.2100039055
0.2100038736
0.2100039316
0.210004063
0.210004222
0.2100043859
0.2100045458
0.2100046672
0.2100047417
0.2100048051
0.2100049031
0.2100050118
0.2100051429
0.2100052859
0.2100053803
0.2100053041
0.2100034355
0.2100033445
0.2100035064
0.2100040304
0.2100046436
0.2100046854
0.2100043781
0.2100040366
0.2100038866
0.2100038135
0.2100038001
0.2100038535
0.2100039149
0.2100040241
0.2100041363
0.2100042045
0.2100041827
0.2100041235
0.2100041019
0.2100041557
0.2100042856
0.2100044465
0.2100045972
0.2100047758
0.2100049806
0.2100051503
0.2100052647
0.2100053478
0.2100053822
0.2100053458
0.2100053249
0.210005352
0.2100054343
0.2100052686
0.2100040798
0.2100041115
0.2100041753
0.2100045438
0.2100048542
0.2100048752
0.2100045887
0.2100041906
0.2100040477
0.2100040405
0.2100040744
0.2100041821
0.2100042142
0.2100043105
0.2100044531
0.2100045232
0.2100044615
0.2100043905
0.2100043916
0.2100044885
0.2100046438
0.2100047861
0.2100048994
0.2100050771
0.2100052732
0.2100054139
0.2100055038
0.2100055638
0.2100055164
0.2100053652
0.2100052094
0.210005171
0.2100052771
0.210005174
0.2100043638
0.2100045187
0.2100045757
0.2100047842
0.2100049527
0.2100049905
0.210004753
0.2100043277
0.210004128
0.21000415
0.2100041999
0.2100041306
0.2100039098
0.2100040916
0.2100044733
0.2100047106
0.2100047519
0.2100047414
0.2100047936
0.2100048569
0.2100049678
0.2100050859
0.2100051606
0.2100052627
0.2100053666
0.2100054499
0.2100055092
0.2100055157
0.2100053802
0.2100051343
0.2100049366
0.2100048977
0.210005015
0.2100050264
0.2100045257
0.2100047413
0.2100047867
0.2100048385
0.2100048972
0.210004906
0.2100047326
0.2100043751
0.2100042217
0.2100042501
0.2100041647
0.2100039133
0.2100038177
0.2100041303
0.2100046974
0.2100050715
0.2100051445
0.2100051655
0.2100052175
0.2100052337
0.2100053088
0.210005417
0.2100054086
0.2100053352
0.210005265
0.2100052554
0.2100052787
0.2100052559
0.2100051653
0.2100049234
0.2100047494
0.2100047363
0.2100048499
0.2100049188
0.2100046707
0.2100049053
0.210004932
0.2100048593
0.2100048199
0.210004805
0.2100046674
0.2100044306
0.2100044006
0.2100045222
0.2100044802
0.2100041467
0.2100040399
0.2100042987
0.2100047955
0.2100050212
0.2100051087
0.2100051711
0.2100052548
0.2100053981
0.2100053861
0.2100053923
0.2100053087
0.2100052414
0.2100051221
0.2100050756
0.2100051113
0.2100051592
0.2100050738
0.2100048213
0.2100047082
0.2100047245
0.2100047655
0.2100046837
0.2100048079
0.2100050307
0.2100050646
0.2100049552
0.2100048541
0.2100047909
0.2100046521
0.2100045389
0.2100046766
0.2100049438
0.2100049808
0.2100045282
0.2100044114
0.2100045859
0.2100048999
0.2100049404
0.2100049385
0.2100050893
0.210005299
0.2100052838
0.2100050154
0.2100048461
0.2100048111
0.2100048882
0.2100048909
0.2100049017
0.2100049971
0.2100051176
0.2100051564
0.2100050636
0.2100050519
0.2100049686
0.2100048033
0.2100045017
0.2100049022
0.2100050879
0.2100051807
0.2100050862
0.2100049444
0.2100048285
0.2100046931
0.2100046882
0.210004925
0.2100051679
0.2100051991
0.2100050166
0.2100049483
0.2100048867
0.2100048158
0.2100047932
0.2100049218
0.2100051327
0.2100051726
0.2100048878
0.2100044574
0.2100042175
0.210004255
0.2100044521
0.2100045808
0.210004668
0.2100048242
0.2100050218
0.2100051516
0.2100051163
0.2100049931
0.2100049123
0.2100048029
0.2100045642
0.2100048825
0.2100050274
0.2100052036
0.2100052724
0.2100052214
0.2100050492
0.2100048982
0.2100047998
0.2100048769
0.2100050744
0.2100051662
0.2100051194
0.2100049743
0.2100048043
0.2100046559
0.2100045842
0.2100045763
0.2100046954
0.2100049532
0.2100050069
0.2100045915
0.2100041594
0.2100038867
0.2100039366
0.210004162
0.2100043471
0.2100044994
0.2100047187
0.2100049806
0.2100051838
0.2100052008
0.2100049849
0.2100047514
0.2100042518
0.2100032235
0.2100061968
0.2100052011
0.2100053785
0.2100054061
0.2100053813
0.2100051556
0.2100050151
0.2100049862
0.2100050809
0.2100051598
0.210005127
0.2100050181
0.2100048473
0.2100046408
0.2100044581
0.21000434
0.2100043144
0.2100044811
0.210004805
0.2100049844
0.2100048931
0.2100045471
0.2100044343
0.2100044906
0.2100045176
0.2100045176
0.2100046127
0.2100048183
0.2100050569
0.2100052045
0.2100052216
0.2100050654
0.2100048112
0.2100041053
0.2100030671
0.2100054761
0.2100053171
0.2100053989
0.2100055423
0.2100055033
0.2100053156
0.2100052328
0.2100052633
0.2100053225
0.2100052849
0.210005143
0.2100049581
0.2100047526
0.2100045496
0.2100043782
0.2100043129
0.2100042565
0.2100044282
0.2100046964
0.2100047863
0.2100047913
0.2100047721
0.2100048144
0.2100048721
0.2100048998
0.2100048968
0.2100049405
0.210005055
0.2100051767
0.2100052396
0.2100052248
0.2100050073
0.2100035007
0.2100016991
0.2100030708
0.2100058415
0.2100056008
0.2100056105
0.2100057762
0.2100058057
0.2100056322
0.210005552
0.2100055544
0.2100055151
0.2100053874
0.2100052154
0.2100050221
0.2100048236
0.2100046435
0.2100044963
0.2100044078
0.2100043843
0.2100044884
0.2100046296
0.2100046758
0.2100047447
0.210004859
0.2100049692
0.2100049866
0.2100050257
0.2100051122
0.2100051871
0.2100052251
0.2100052487
0.210005272
0.2100053134
0.2100052569
0.2100050315
0.2100043796
0.2100034391
0.2100059157
0.2100059782
0.2100061346
0.2100060327
0.2100058158
0.2100056744
0.2100055925
0.2100055156
0.2100054167
0.210005288
0.2100051365
0.2100049825
0.2100048496
0.2100047546
0.2100046799
0.21000462
0.2100046184
0.2100046143
0.2100045855
0.2100046578
0.2100048826
0.210005164
0.2100053143
0.2100053158
0.2100052328
0.2100051986
0.2100052323
0.2100052887
0.2100053546
0.2100054189
0.2100053774
0.2100052791
0.210004891
0.2100043164
0.2100062221
0.2100061799
0.2100060797
0.2100058216
0.2100055493
0.2100054391
0.2100054029
0.2100053802
0.2100053434
0.2100052858
0.2100051938
0.2100050943
0.210005385
0.210005397
0.210005278
0.2100051755
0.2100051917
0.2100052314
0.2100052394
0.2100051596
0.2100051262
0.210004952
0.2100049662
0.210005741
0.2100055578
0.2100054309
0.2100053473
0.2100053108
0.210005284
0.2100045684
0.2100045615
0.2100045281
0.2100044716
0.2100044067
0.2100043557
0.2100043268
0.2100043025
0.2100042372
0.2100040703
0.2100039046
0.2100038742
0.2100038717
0.2100038939
0.2100039409
0.2100040123
0.2100041013
0.2100041988
0.2100042985
0.210004396
0.2100044892
0.2100045788
0.2100046703
0.2100047752
0.2100049096
0.2100050831
0.21000528
0.2100054517
0.2100055615
0.2100056596
0.2100058534
0.2100062272
0.2100065586
0.2100062917
0.2100044384
0.2100044598
0.2100044489
0.2100043909
0.210004295
0.2100041818
0.2100040532
0.2100039088
0.2100037466
0.2100035818
0.2100034735
0.2100034658
0.2100035187
0.2100036019
0.210003709
0.2100038415
0.2100039962
0.2100041646
0.2100043353
0.210004496
0.2100046371
0.2100047556
0.2100048559
0.2100049504
0.2100050579
0.2100051912
0.2100053367
0.2100054504
0.2100055007
0.2100055119
0.2100055739
0.2100057438
0.2100058656
0.2100056938
0.2100042132
0.2100042229
0.2100042089
0.2100041444
0.2100040303
0.2100038779
0.2100036852
0.2100034703
0.2100032631
0.2100031104
0.2100030289
0.2100030413
0.2100031288
0.210003265
0.2100034326
0.2100036228
0.2100038297
0.2100040463
0.2100042614
0.2100044606
0.2100046324
0.2100047729
0.2100048856
0.2100049795
0.2100050678
0.2100051629
0.2100052621
0.2100053452
0.2100053948
0.2100054124
0.210005428
0.210005479
0.2100055176
0.2100054301
0.2100040733
0.2100040523
0.2100040105
0.2100039236
0.2100037872
0.2100035953
0.2100033472
0.2100030848
0.210002855
0.2100027064
0.210002633
0.2100026505
0.2100027587
0.2100029405
0.2100031722
0.2100034284
0.2100036897
0.2100039453
0.2100041859
0.2100043999
0.2100045807
0.2100047283
0.2100048471
0.2100049415
0.2100050173
0.210005082
0.2100051418
0.2100052007
0.2100052595
0.2100053107
0.2100053546
0.2100053997
0.2100054234
0.2100053438
0.2100039569
0.2100039291
0.2100038732
0.210003771
0.2100036117
0.210003382
0.2100030847
0.2100027858
0.2100025408
0.2100023769
0.2100022885
0.2100022968
0.2100024146
0.210002634
0.2100029294
0.2100032589
0.210003583
0.2100038811
0.210004143
0.2100043617
0.2100045404
0.2100046846
0.2100048007
0.2100048904
0.2100049522
0.2100049881
0.2100050108
0.2100050456
0.2100051096
0.2100051905
0.2100052733
0.2100053478
0.2100053821
0.2100052991
0.2100037378
0.2100037442
0.2100037232
0.2100036565
0.2100035053
0.210003255
0.2100029156
0.2100025854
0.2100023167
0.210002119
0.2100020014
0.2100019931
0.2100021142
0.2100023641
0.2100027173
0.2100031201
0.2100035113
0.2100038551
0.2100041413
0.2100043655
0.2100045375
0.2100046705
0.2100047744
0.2100048493
0.2100048893
0.2100048936
0.2100048812
0.2100048939
0.2100049582
0.2100050574
0.2100051713
0.2100052767
0.2100053249
0.2100052448
0.2100033412
0.2100033956
0.2100034537
0.2100034932
0.2100034222
0.2100031923
0.2100028285
0.2100024689
0.2100021687
0.2100019306
0.2100017813
0.2100017562
0.2100018794
0.2100021537
0.2100025546
0.2100030203
0.2100034716
0.2100038587
0.2100041716
0.2100044088
0.2100045722
0.2100046846
0.2100047629
0.2100048091
0.2100048158
0.210004785
0.2100047442
0.2100047429
0.2100048056
0.2100049108
0.2100050416