/*--------------------------------*- C++ -*----------------------------------*\
  =========                 |
  \\      /  F ield         | OpenFOAM: The Open Source CFD Toolbox
   \\    /   O peration     | Website:  https://openfoam.org
    \\  /    A nd           | Version:  8
     \\/     M anipulation  |
\*---------------------------------------------------------------------------*/
FoamFile
{
    version     2.0;
    format      ascii;
    class       volScalarField;
    location    "0.8";
    object      p;
}
// * * * * * * * * * * * * * * * * * * * * * * * * * * * * * * * * * * * * * //

dimensions      [1 -1 -2 0 0 0 0];

internalField   nonuniform List<scalar> 
67193
(
100003.9255
100003.9214
100003.9122
100003.9038
100003.8983
100003.8959
100003.8971
100003.9023
100003.9124
100003.9225
100003.9378
100003.9451
100003.9486
100003.9473
100003.9407
100003.9285
100003.9128
100003.8966
100003.8825
100003.8715
100003.8639
100003.8598
100003.8585
100003.8596
100003.8627
100003.8675
100003.8732
100003.8793
100003.8849
100003.8889
100003.8898
100003.8923
100003.8959
100003.9027
100003.8693
100003.8763
100003.8773
100003.8751
100003.8719
100003.8692
100003.869
100003.8718
100003.8774
100003.8809
100003.8841
100003.8899
100003.888
100003.8812
100003.8712
100003.8594
100003.8469
100003.8347
100003.8241
100003.8158
100003.8107
100003.809
100003.8108
100003.8159
100003.8239
100003.8344
100003.846
100003.8569
100003.8658
100003.8721
100003.8766
100003.8792
100003.8804
100003.8861
100003.8233
100003.8372
100003.8459
100003.8505
100003.8508
100003.8494
100003.8497
100003.853
100003.8585
100003.8628
100003.8657
100003.868
100003.8644
100003.8554
100003.8433
100003.8308
100003.8188
100003.8084
100003.7998
100003.7932
100003.7894
100003.7887
100003.7914
100003.7974
100003.8066
100003.8182
100003.831
100003.843
100003.8524
100003.8588
100003.8627
100003.8664
100003.869
100003.8748
100003.7815
100003.7989
100003.8133
100003.8249
100003.8307
100003.8319
100003.8336
100003.8381
100003.8447
100003.8511
100003.854
100003.8586
100003.8575
100003.8483
100003.8329
100003.8157
100003.7999
100003.7872
100003.7779
100003.771
100003.767
100003.7661
100003.7687
100003.7751
100003.7851
100003.7979
100003.812
100003.8254
100003.8357
100003.8425
100003.8463
100003.85
100003.8532
100003.8594
100003.7561
100003.7722
100003.7884
100003.8067
100003.819
100003.8241
100003.8273
100003.8337
100003.8432
100003.8538
100003.8602
100003.8692
100003.8724
100003.8636
100003.8449
100003.8217
100003.7992
100003.7807
100003.7673
100003.7581
100003.7526
100003.7505
100003.7524
100003.7584
100003.7684
100003.7816
100003.7964
100003.8104
100003.821
100003.8275
100003.8308
100003.8345
100003.8377
100003.8448
100003.75
100003.7608
100003.7747
100003.7974
100003.8173
100003.8274
100003.832
100003.8403
100003.853
100003.868
100003.8792
100003.8924
100003.8986
100003.889
100003.8665
100003.8374
100003.8088
100003.785
100003.7672
100003.7541
100003.7449
100003.7399
100003.7399
100003.7449
100003.7543
100003.7672
100003.7822
100003.7965
100003.8072
100003.8135
100003.8163
100003.82
100003.8235
100003.8315
100003.7612
100003.7671
100003.7761
100003.7972
100003.8258
100003.8421
100003.8483
100003.8576
100003.8727
100003.8908
100003.9055
100003.9207
100003.9273
100003.9156
100003.8891
100003.8552
100003.8225
100003.796
100003.7758
100003.7597
100003.747
100003.7381
100003.7338
100003.736
100003.744
100003.7561
100003.7704
100003.7844
100003.7951
100003.8011
100003.8037
100003.8072
100003.8107
100003.8205
100003.7846
100003.7908
100003.7964
100003.8101
100003.8393
100003.8662
100003.8751
100003.8839
100003.8996
100003.9175
100003.9326
100003.9467
100003.9507
100003.9358
100003.9059
100003.8693
100003.8357
100003.8095
100003.7893
100003.7721
100003.7569
100003.7442
100003.7354
100003.7327
100003.7383
100003.7489
100003.7617
100003.7747
100003.7848
100003.7906
100003.7932
100003.797
100003.8003
100003.8115
100003.8117
100003.8218
100003.8262
100003.8363
100003.8568
100003.8937
100003.9089
100003.9159
100003.9297
100003.9434
100003.9553
100003.9652
100003.9642
100003.9459
100003.9139
100003.8774
100003.8455
100003.8214
100003.8023
100003.785
100003.7685
100003.7532
100003.7411
100003.7353
100003.7383
100003.7465
100003.757
100003.7681
100003.7771
100003.7826
100003.7854
100003.7897
100003.7929
100003.8054
100003.8363
100003.8505
100003.8561
100003.8665
100003.8775
100003.9177
100003.9399
100003.9476
100003.9568
100003.9638
100003.9706
100003.9742
100003.9671
100003.9458
100003.914
100003.8804
100003.8519
100003.8296
100003.8108
100003.793
100003.7757
100003.7595
100003.7472
100003.7416
100003.7432
100003.7487
100003.7561
100003.7646
100003.7721
100003.7773
100003.7803
100003.7854
100003.7895
100003.8025
100003.8584
100003.8755
100003.8804
100003.8913
100003.8962
100003.9325
100003.9578
100003.9698
100003.9724
100003.974
100003.9767
100003.9748
100003.9636
100003.9424
100003.9145
100003.8858
100003.8602
100003.8378
100003.8171
100003.7974
100003.7791
100003.7641
100003.7545
100003.7509
100003.7515
100003.7539
100003.758
100003.7636
100003.7696
100003.7743
100003.7777
100003.7834
100003.7888
100003.8031
100003.8807
100003.9004
100003.899
100003.9053
100003.9051
100003.934
100003.9561
100003.969
100003.9681
100003.9693
100003.9729
100003.9692
100003.9583
100003.9408
100003.9184
100003.8939
100003.8693
100003.8458
100003.8236
100003.8033
100003.7862
100003.774
100003.7667
100003.7627
100003.7607
100003.76
100003.7609
100003.7638
100003.7683
100003.7728
100003.7763
100003.7827
100003.7878
100003.8036
100003.9226
100003.933
100003.9144
100003.9027
100003.9003
100003.9218
100003.9369
100003.9365
100003.94
100003.946
100003.9545
100003.9562
100003.9512
100003.9397
100003.922
100003.9
100003.8758
100003.8519
100003.8298
100003.8107
100003.7957
100003.7851
100003.7775
100003.7721
100003.7681
100003.7653
100003.7635
100003.7638
100003.7665
100003.7707
100003.7747
100003.7816
100003.7846
100003.8007
100004.0451
100003.9978
100003.9366
100003.8829
100003.8681
100003.8924
100003.9139
100003.9108
100003.9095
100003.9175
100003.9275
100003.9346
100003.9366
100003.9323
100003.92
100003.9013
100003.8785
100003.8553
100003.8343
100003.8169
100003.8035
100003.7936
100003.7861
100003.7802
100003.7752
100003.7706
100003.7663
100003.7636
100003.7637
100003.7666
100003.7705
100003.7782
100003.7806
100003.8018
100004.1627
100004.0776
100003.9818
100003.8628
100003.8107
100003.8485
100003.884
100003.8853
100003.8771
100003.8858
100003.8973
100003.9089
100003.9164
100003.9163
100003.9081
100003.8928
100003.8712
100003.8498
100003.8313
100003.8168
100003.8059
100003.7979
100003.792
100003.7873
100003.7825
100003.7764
100003.7697
100003.7643
100003.7616
100003.7621
100003.7652
100003.7743
100003.7783
100003.812
100004.117
100004.0831
100004.0281
100003.8824
100003.7713
100003.7871
100003.8405
100003.855
100003.8449
100003.8506
100003.8618
100003.8746
100003.8863
100003.8935
100003.8901
100003.879
100003.859
100003.8394
100003.8231
100003.8111
100003.8028
100003.7974
100003.7942
100003.7916
100003.7878
100003.7809
100003.7726
100003.7656
100003.7619
100003.7609
100003.7623
100003.7717
100003.778
100003.8272
100003.9076
100003.9359
100003.9291
100003.8218
100003.7392
100003.7535
100003.7988
100003.8158
100003.8108
100003.8181
100003.8313
100003.8471
100003.8636
100003.872
100003.8716
100003.8628
100003.8411
100003.8222
100003.8088
100003.7998
100003.7942
100003.792
100003.792
100003.7912
100003.7878
100003.7811
100003.7741
100003.7686
100003.7658
100003.7638
100003.7624
100003.7713
100003.7791
100003.8419
100003.723
100003.7546
100003.7692
100003.7366
100003.7104
100003.7322
100003.7677
100003.7849
100003.7865
100003.7966
100003.814
100003.8313
100003.8402
100003.8413
100003.8391
100003.8239
100003.8087
100003.7968
100003.7892
100003.7845
100003.7827
100003.7839
100003.7858
100003.785
100003.7813
100003.7769
100003.7732
100003.7712
100003.7701
100003.7679
100003.7665
100003.7797
100003.7855
100003.8568
100003.6626
100003.6735
100003.681
100003.6958
100003.6982
100003.7171
100003.7463
100003.7647
100003.7711
100003.7807
100003.7947
100003.8024
100003.802
100003.8087
100003.8057
100003.7896
100003.7765
100003.7684
100003.7659
100003.7665
100003.7685
100003.7721
100003.7733
100003.7727
100003.7712
100003.7688
100003.7659
100003.7668
100003.7674
100003.7699
100003.7794
100003.8035
100003.8011
100003.8702
100003.6657
100003.6701
100003.667
100003.6884
100003.6923
100003.7061
100003.7306
100003.7486
100003.7503
100003.7513
100003.7551
100003.7794
100003.8174
100003.8343
100003.8233
100003.7895
100003.7629
100003.7495
100003.7481
100003.7539
100003.7593
100003.7626
100003.756
100003.7539
100003.7555
100003.7548
100003.7513
100003.7535
100003.7534
100003.7655
100003.7947
100003.8269
100003.8138
100003.8701
100003.6696
100003.6782
100003.6729
100003.6852
100003.6875
100003.6988
100003.7165
100003.7269
100003.7207
100003.7197
100003.7439
100003.7988
100003.8436
100003.8516
100003.831
100003.7884
100003.7531
100003.7362
100003.739
100003.7508
100003.7547
100003.7494
100003.7334
100003.728
100003.732
100003.7355
100003.7372
100003.7426
100003.7397
100003.7464
100003.7762
100003.7995
100003.7867
100003.8501
100003.6716
100003.6952
100003.6757
100003.6828
100003.6811
100003.6914
100003.7024
100003.7051
100003.6997
100003.7064
100003.7329
100003.7865
100003.8338
100003.8424
100003.8215
100003.77
100003.727
100003.7236
100003.7405
100003.7557
100003.7433
100003.7328
100003.7293
100003.7146
100003.7118
100003.7155
100003.7176
100003.7198
100003.7205
100003.7226
100003.7249
100003.7403
100003.74
100003.8069
100003.6601
100003.6881
100003.671
100003.6822
100003.6767
100003.6875
100003.6946
100003.6944
100003.6912
100003.6964
100003.7134
100003.7597
100003.8244
100003.8136
100003.7596
100003.7279
100003.727
100003.7408
100003.7509
100003.7437
100003.7289
100003.7686
100003.7823
100003.7473
100003.7191
100003.7065
100003.7026
100003.7035
100003.7098
100003.7244
100003.7458
100003.7874
100003.8057
100003.9139
100003.6897
100003.7704
100003.6789
100003.6944
100003.6791
100003.6885
100003.6917
100003.6897
100003.6869
100003.6901
100003.6967
100003.703
100003.7102
100003.7145
100003.7256
100003.7344
100003.7397
100003.7399
100003.7247
100003.7128
100003.7526
100003.8266
100003.8211
100003.764
100003.7204
100003.7007
100003.693
100003.6917
100003.6949
100003.705
100003.7134
100003.8011
100003.8823
100004.0947
100003.6807
100003.6539
100003.7072
100003.6801
100003.693
100003.6866
100003.6932
100003.695
100003.6923
100003.6881
100003.6878
100003.6928
100003.7019
100003.7155
100003.7291
100003.7391
100003.7375
100003.7279
100003.7211
100003.7071
100003.7102
100003.7492
100003.78
100003.763
100003.7233
100003.7008
100003.6947
100003.6967
100003.7057
100003.7262
100003.7619
100003.7725
100003.861
100003.8687
100003.9167
100003.9282
100003.6995
100003.7722
100003.6978
100003.7085
100003.7001
100003.7033
100003.7026
100003.6979
100003.692
100003.69
100003.6938
100003.7036
100003.7195
100003.732
100003.7373
100003.7248
100003.7169
100003.712
100003.7004
100003.7048
100003.7205
100003.7458
100003.7321
100003.7085
100003.6923
100003.6831
100003.6803
100003.6821
100003.6964
100003.7245
100003.6948
100003.6976
100003.5922
100004.0636
100003.747
100003.6947
100003.7367
100003.7067
100003.7165
100003.713
100003.715
100003.7119
100003.7047
100003.6969
100003.6935
100003.6952
100003.7024
100003.7147
100003.7259
100003.736
100003.7198
100003.7118
100003.7014
100003.6871
100003.6823
100003.7083
100003.732
100003.7203
100003.7054
100003.6989
100003.7041
100003.724
100003.7669
100003.8519
100003.982
100004.0096
100003.7534
100004.1036
100006.4947
100003.7594
100003.7154
100003.7422
100003.727
100003.728
100003.7283
100003.7272
100003.7198
100003.7092
100003.6999
100003.6953
100003.6955
100003.6986
100003.7036
100003.7103
100003.7154
100003.7116
100003.7049
100003.6945
100003.6791
100003.6706
100003.6791
100003.683
100003.6869
100003.686
100003.687
100003.6929
100003.7015
100003.7083
100003.7118
100003.7272
100003.6854
100003.7657
100003.5658
100004.0039
100003.7296
100003.7436
100003.7342
100003.7297
100003.7296
100003.7256
100003.7164
100003.7066
100003.6994
100003.6954
100003.6958
100003.6969
100003.6992
100003.7036
100003.7062
100003.7029
100003.6981
100003.6959
100003.7001
100003.7161
100003.7147
100003.6873
100003.6652
100003.6578
100003.6639
100003.68
100003.7045
100003.7392
100003.7845
100003.8504
100003.8976
100004.0218
100004.118
100004.4672
100003.7404
100003.7392
100003.7299
100003.7228
100003.7177
100003.7123
100003.7055
100003.6999
100003.6968
100003.6946
100003.6965
100003.6966
100003.6641
100003.6559
100003.6679
100003.6891
100003.713
100003.7376
100003.7655
100003.763
100003.8756
100003.8962
100004.3718
100003.7327
100003.7202
100003.7079
100003.6985
100003.6942
100003.6918
100003.7712
100003.7723
100003.7693
100003.7659
100003.7624
100003.7598
100003.7598
100003.7629
100003.7689
100003.7735
100003.7831
100003.7894
100003.7873
100003.7811
100003.7732
100003.7637
100003.7523
100003.7397
100003.7273
100003.7167
100003.7093
100003.7059
100003.7069
100003.712
100003.7206
100003.7313
100003.7429
100003.7534
100003.7612
100003.7658
100003.7685
100003.7727
100003.7744
100003.783
100003.7249
100003.7341
100003.739
100003.7414
100003.7394
100003.7361
100003.7345
100003.7354
100003.7378
100003.7393
100003.7399
100003.7415
100003.7351
100003.725
100003.7144
100003.7048
100003.6958
100003.6866
100003.6776
100003.6697
100003.6647
100003.6635
100003.6667
100003.6741
100003.6853
100003.6996
100003.7153
100003.7299
100003.7409
100003.7482
100003.7526
100003.756
100003.7588
100003.765
100003.6794
100003.6944
100003.7062
100003.7169
100003.7194
100003.7172
100003.7159
100003.7171
100003.7193
100003.7209
100003.7221
100003.7193
100003.712
100003.7017
100003.6907
100003.6798
100003.6706
100003.663
100003.6565
100003.6512
100003.6479
100003.6476
100003.6511
100003.6584
100003.6695
100003.6836
100003.6994
100003.7145
100003.726
100003.7331
100003.7372
100003.7416
100003.7452
100003.753
100003.6336
100003.6526
100003.6681
100003.688
100003.6989
100003.7001
100003.7001
100003.7026
100003.7061
100003.7088
100003.7091
100003.7053
100003.6988
100003.6893
100003.6776
100003.6652
100003.6538
100003.6442
100003.6365
100003.6309
100003.627
100003.6258
100003.6285
100003.6357
100003.6475
100003.6628
100003.6796
100003.6954
100003.7076
100003.7149
100003.7189
100003.7238
100003.728
100003.737
100003.6038
100003.6237
100003.6385
100003.6631
100003.6844
100003.6917
100003.6932
100003.6974
100003.7021
100003.7051
100003.7054
100003.7016
100003.6963
100003.6874
100003.6749
100003.6611
100003.648
100003.6367
100003.6273
100003.6197
100003.614
100003.6109
100003.6116
100003.6174
100003.6289
100003.6451
100003.663
100003.6794
100003.6915
100003.6985
100003.7021
100003.7074
100003.712
100003.7216
100003.5942
100003.6101
100003.6238
100003.6466
100003.6767
100003.6929
100003.6958
100003.7014
100003.7069
100003.7102
100003.7106
100003.7072
100003.7028
100003.6937
100003.6797
100003.6636
100003.6481
100003.6347
100003.6233
100003.6138
100003.6066
100003.6022
100003.6004
100003.6031
100003.6123
100003.6281
100003.6472
100003.6644
100003.6767
100003.6834
100003.6867
100003.6922
100003.6967
100003.7071
100003.6016
100003.6127
100003.6259
100003.6446
100003.677
100003.7039
100003.7099
100003.7159
100003.7216
100003.724
100003.7239
100003.7202
100003.7155
100003.7053
100003.6896
100003.6715
100003.6544
100003.6394
100003.6261
100003.6143
100003.6052
100003.5997
100003.5976
100003.5969
100003.6017
100003.6149
100003.6336
100003.6513
100003.6638
100003.6705
100003.6737
100003.6795
100003.6839
100003.6946
100003.6163
100003.6247
100003.6376
100003.6577
100003.686
100003.7233
100003.7359
100003.7413
100003.7459
100003.7456
100003.7429
100003.7374
100003.7309
100003.719
100003.7019
100003.683
100003.6656
100003.6502
100003.6353
100003.6211
100003.6099
100003.603
100003.5999
100003.5982
100003.5987
100003.6077
100003.6243
100003.6414
100003.6536
100003.6602
100003.6635
100003.6696
100003.674
100003.6852
100003.6326
100003.6427
100003.6562
100003.678
100003.7046
100003.7465
100003.7706
100003.7765
100003.7775
100003.7718
100003.7646
100003.7559
100003.7464
100003.7327
100003.715
100003.6968
100003.6804
100003.665
100003.6487
100003.6325
100003.6196
100003.6113
100003.6068
100003.6039
100003.6023
100003.608
100003.6213
100003.636
100003.6469
100003.6532
100003.6565
100003.6627
100003.6675
100003.6795
100003.6467
100003.6618
100003.6766
100003.6993
100003.727
100003.7699
100003.8051
100003.8168
100003.8095
100003.7967
100003.785
100003.7734
100003.7613
100003.7466
100003.7298
100003.7134
100003.6981
100003.6818
100003.6633
100003.6453
100003.6312
100003.6219
100003.6163
100003.6128
100003.6113
100003.6151
100003.6244
100003.6352
100003.6439
100003.6496
100003.6527
100003.6588
100003.6641
100003.6778
100003.6563
100003.68
100003.6942
100003.7167
100003.7435
100003.7853
100003.8246
100003.8472
100003.8295
100003.8111
100003.7979
100003.7871
100003.7758
100003.763
100003.749
100003.7343
100003.7182
100003.6993
100003.6786
100003.6593
100003.6442
100003.634
100003.6279
100003.6244
100003.6237
100003.626
100003.6309
100003.6373
100003.6436
100003.6484
100003.6513
100003.6575
100003.6637
100003.6802
100003.6552
100003.6952
100003.7027
100003.7238
100003.7448
100003.7837
100003.8185
100003.8417
100003.8214
100003.8058
100003.7953
100003.7915
100003.7861
100003.7776
100003.7655
100003.7498
100003.7312
100003.711
100003.691
100003.673
100003.6586
100003.6481
100003.6414
100003.6379
100003.6366
100003.6363
100003.6371
100003.6396
100003.6435
100003.6476
100003.6506
100003.6572
100003.6639
100003.6835
100003.6363
100003.6954
100003.6936
100003.7087
100003.7217
100003.7569
100003.7835
100003.7819
100003.782
100003.7781
100003.7723
100003.7808
100003.7824
100003.7776
100003.7672
100003.7526
100003.7348
100003.7162
100003.6981
100003.6821
100003.6691
100003.6594
100003.653
100003.6488
100003.6458
100003.643
100003.6407
100003.6395
100003.6405
100003.644
100003.6478
100003.6554
100003.6609
100003.6813
100003.6186
100003.6756
100003.6623
100003.6607
100003.6735
100003.7212
100003.758
100003.7484
100003.7509
100003.7526
100003.756
100003.7645
100003.7671
100003.7658
100003.7606
100003.7511
100003.7359
100003.7193
100003.7026
100003.6878
100003.6761
100003.6676
100003.662
100003.6579
100003.654
100003.649
100003.6427
100003.6364
100003.6325
100003.634
100003.6382
100003.6468
100003.6508
100003.6733
100003.602
100003.6481
100003.6221
100003.6038
100003.6053
100003.6554
100003.7193
100003.7137
100003.7184
100003.724
100003.7319
100003.739
100003.7442
100003.7481
100003.7489
100003.7458
100003.7325
100003.7179
100003.7027
100003.6894
100003.6792
100003.6725
100003.6685
100003.6657
100003.6619
100003.6549
100003.6449
100003.6331
100003.6226
100003.6187
100003.6201
100003.6281
100003.6318
100003.6629
100003.5833
100003.6031
100003.5671
100003.5438
100003.5453
100003.5775
100003.6584
100003.684
100003.686
100003.6953
100003.7046
100003.7133
100003.7211
100003.7311
100003.7371
100003.7392
100003.7242
100003.7096
100003.6963
100003.6853
100003.6771
100003.6726
100003.6711
100003.6704
100003.6675
100003.6591
100003.6473
100003.6339
100003.6199
100003.61
100003.6046
100003.6082
100003.6098
100003.6515
100003.5145
100003.5474
100003.5271
100003.5211
100003.5298
100003.5676
100003.6338
100003.6583
100003.6593
100003.6679
100003.6775
100003.6901
100003.6994
100003.705
100003.7067
100003.7101
100003.6968
100003.6887
100003.6819
100003.6752
100003.6693
100003.6676
100003.669
100003.6704
100003.6684
100003.66
100003.6477
100003.6362
100003.6242
100003.6127
100003.6031
100003.6049
100003.6032
100003.647
100003.4659
100003.495
100003.4915
100003.5094
100003.5245
100003.5652
100003.6173
100003.6395
100003.6423
100003.6512
100003.6616
100003.6671
100003.6658
100003.6636
100003.6612
100003.6543
100003.6461
100003.6434
100003.6457
100003.6496
100003.6535
100003.6573
100003.661
100003.6622
100003.6604
100003.6546
100003.645
100003.6345
100003.6255
100003.6159
100003.6079
100003.6119
100003.6094
100003.6492
100003.4681
100003.4857
100003.4875
100003.5137
100003.5289
100003.5632
100003.6024
100003.6245
100003.6272
100003.6275
100003.6223
100003.6193
100003.6318
100003.6398
100003.642
100003.6393
100003.6314
100003.6217
100003.6161
100003.6212
100003.6316
100003.6373
100003.6387
100003.6404
100003.642
100003.6389
100003.6323
100003.6253
100003.6209
100003.6151
100003.6111
100003.6158
100003.612
100003.6456
100003.4969
100003.5031
100003.5027
100003.5234
100003.5336
100003.5577
100003.5859
100003.6051
100003.5964
100003.5863
100003.5881
100003.606
100003.6218
100003.6311
100003.6294
100003.6209
100003.6138
100003.6069
100003.5991
100003.5978
100003.6057
100003.6032
100003.5997
100003.6073
100003.6175
100003.6199
100003.6155
100003.6101
100003.6093
100003.604
100003.6043
100003.6113
100003.6027
100003.6289
100003.514
100003.5206
100003.5162
100003.5303
100003.5351
100003.5495
100003.571
100003.5787
100003.5649
100003.566
100003.576
100003.5925
100003.613
100003.6202
100003.6152
100003.6032
100003.5949
100003.5885
100003.5787
100003.5801
100003.586
100003.5703
100003.5647
100003.5673
100003.5783
100003.5904
100003.5967
100003.5993
100003.5976
100003.5908
100003.5879
100003.5879
100003.5755
100003.5873
100003.5206
100003.5328
100003.5244
100003.5355
100003.5358
100003.5446
100003.5609
100003.5641
100003.5568
100003.5607
100003.5689
100003.5879
100003.6066
100003.6094
100003.5952
100003.5779
100003.564
100003.5505
100003.5569
100003.5768
100003.5621
100003.5482
100003.5543
100003.5506
100003.5505
100003.5577
100003.5691
100003.5792
100003.5887
100003.5905
100003.5731
100003.5584
100003.5296
100003.525
100003.5203
100003.5336
100003.5272
100003.5383
100003.5367
100003.5447
100003.557
100003.5581
100003.5519
100003.5529
100003.5554
100003.5671
100003.5743
100003.5755
100003.5641
100003.5472
100003.5488
100003.5692
100003.5832
100003.5551
100003.5327
100003.5417
100003.5503
100003.5474
100003.5449
100003.5454
100003.549
100003.5528
100003.5574
100003.5626
100003.5484
100003.5297
100003.4893
100003.4616
100003.5082
100003.5281
100003.5333
100003.5452
100003.5411
100003.5495
100003.5583
100003.5577
100003.552
100003.5509
100003.5512
100003.5523
100003.5413
100003.548
100003.5492
100003.5622
100003.5798
100003.5864
100003.5523
100003.5346
100003.5353
100003.5506
100003.5536
100003.5434
100003.538
100003.5381
100003.5397
100003.5388
100003.5346
100003.5257
100003.4904
100003.4633
100003.4172
100003.3963
100003.5181
100003.5305
100003.5462
100003.5426
100003.5523
100003.5493
100003.558
100003.5645
100003.5633
100003.5574
100003.5548
100003.5567
100003.5616
100003.5555
100003.5635
100003.5834
100003.5863
100003.5828
100003.5832
100003.5588
100003.539
100003.523
100003.5268
100003.5309
100003.53
100003.5324
100003.5369
100003.5393
100003.5382
100003.5301
100003.5147
100003.427
100003.3159
100003.0123
100002.3414
100004.3646
100003.595
100003.6485
100003.5655
100003.5741
100003.5647
100003.5715
100003.5739
100003.5696
100003.5625
100003.559
100003.5608
100003.5673
100003.5731
100003.5799
100003.5896
100003.5812
100003.5823
100003.5818
100003.5709
100003.5404
100003.5451
100003.5324
100003.525
100003.5228
100003.5271
100003.5305
100003.5276
100003.5241
100003.5051
100003.4776
100003.3673
100003.2112
100002.7507
100001.9588
100003.5951
100003.5553
100003.5922
100003.5692
100003.5772
100003.5778
100003.5831
100003.5817
100003.5739
100003.5647
100003.5588
100003.5585
100003.5646
100003.576
100003.5876
100003.6248
100003.5857
100003.5836
100003.5668
100003.5371
100003.5002
100003.4965
100003.4934
100003.5069
100003.5262
100003.5397
100003.5461
100003.5503
100003.5518
100003.5352
100003.4732
100003.2398
100002.1949
100001.7637
100002.5837
100003.6438
100003.5815
100003.6094
100003.5914
100003.5944
100003.5959
100003.5961
100003.5891
100003.5787
100003.5691
100003.563
100003.561
100003.5631
100003.5678
100003.5731
100003.5811
100003.5754
100003.5669
100003.5472
100003.5217
100003.5037
100003.4947
100003.4788
100003.471
100003.478
100003.5027
100003.5307
100003.5502
100003.5576
100003.5484
100003.529
100003.4198
100003.2193
100002.7653
100002.0805
100003.5891
100003.6064
100003.5964
100003.5932
100003.5971
100003.5933
100003.5841
100003.5748
100003.5676
100003.5626
100003.5613
100003.5637
100003.5688
100003.5758
100003.5783
100003.5635
100003.5499
100003.5362
100003.5235
100003.5126
100003.5054
100003.4975
100003.4876
100003.4776
100003.4739
100003.4931
100003.5321
100003.5726
100003.5999
100003.6099
100003.5488
100003.4671
100003.1813
100002.7158
100003.6002
100003.6022
100003.5922
100003.5855
100003.5841
100003.5764
100003.5689
100003.5639
100003.5616
100003.5605
100003.5602
100003.5625
100003.5061
100003.4974
100003.4861
100003.4999
100003.5365
100003.5653
100003.5797
100003.544
100003.5385
100003.4013
100003.2723
100003.5899
100003.5784
100003.5707
100003.5565
100003.5524
100003.5514
100003.5891
100003.597
100003.6018
100003.6053
100003.6078
100003.6103
100003.614
100003.619
100003.6249
100003.6306
100003.6374
100003.6401
100003.6367
100003.6291
100003.6191
100003.6074
100003.5948
100003.582
100003.57
100003.5603
100003.554
100003.5515
100003.5527
100003.5569
100003.5636
100003.5723
100003.5826
100003.5931
100003.6023
100003.6086
100003.6136
100003.6198
100003.6217
100003.6296
100003.5584
100003.5698
100003.5781
100003.5841
100003.5878
100003.5903
100003.593
100003.5962
100003.6
100003.6022
100003.6027
100003.6044
100003.6015
100003.5942
100003.5842
100003.5728
100003.561
100003.5496
100003.5395
100003.532
100003.5279
100003.5276
100003.5307
100003.5364
100003.5445
100003.5548
100003.5665
100003.5783
100003.5887
100003.5974
100003.6037
100003.6087
100003.6106
100003.6153
100003.5303
100003.545
100003.557
100003.5663
100003.5721
100003.5755
100003.5784
100003.5819
100003.5855
100003.5877
100003.5881
100003.588
100003.585
100003.5785
100003.5686
100003.5573
100003.5458
100003.5351
100003.526
100003.5196
100003.5164
100003.5167
100003.5201
100003.526
100003.5339
100003.5437
100003.5551
100003.5665
100003.5765
100003.585
100003.592
100003.5989
100003.6024
100003.6077
100003.5006
100003.5187
100003.5342
100003.5472
100003.5566
100003.5619
100003.5664
100003.5712
100003.5743
100003.5759
100003.5757
100003.5742
100003.5704
100003.5635
100003.554
100003.543
100003.5318
100003.5212
100003.5116
100003.5043
100003.5005
100003.5004
100003.5036
100003.5095
100003.5174
100003.5271
100003.5385
100003.5501
100003.5605
100003.5692
100003.5765
100003.5841
100003.5889
100003.5956
100003.4808
100003.5008
100003.5186
100003.5345
100003.5477
100003.556
100003.5621
100003.5675
100003.5707
100003.5719
100003.5709
100003.5686
100003.5644
100003.5573
100003.5475
100003.536
100003.524
100003.5125
100003.5023
100003.4943
100003.4895
100003.4888
100003.492
100003.4977
100003.5051
100003.5141
100003.5249
100003.5361
100003.5462
100003.5547
100003.5619
100003.57
100003.5756
100003.583
100003.4737
100003.4927
100003.5116
100003.5304
100003.5474
100003.5594
100003.5676
100003.5735
100003.5762
100003.5759
100003.5736
100003.5703
100003.5655
100003.5578
100003.5471
100003.5347
100003.5217
100003.509
100003.4972
100003.4877
100003.4819
100003.4803
100003.4833
100003.4888
100003.4955
100003.5034
100003.5131
100003.5237
100003.5332
100003.5411
100003.548
100003.5561
100003.5621
100003.5699
100003.4762
100003.4933
100003.513
100003.5359
100003.5576
100003.5744
100003.585
100003.5918
100003.5924
100003.5889
100003.584
100003.5787
100003.5726
100003.5638
100003.5522
100003.5389
100003.5251
100003.5113
100003.4979
100003.4864
100003.4791
100003.4764
100003.4783
100003.4837
100003.4897
100003.4963
100003.5046
100003.5141
100003.5226
100003.5298
100003.5362
100003.5443
100003.5499
100003.5582
100003.4861
100003.5012
100003.521
100003.5473
100003.5766
100003.6007
100003.616
100003.6253
100003.6209
100003.611
100003.601
100003.5922
100003.5839
100003.5738
100003.5614
100003.5478
100003.5337
100003.519
100003.5042
100003.4909
100003.4817
100003.4777
100003.4783
100003.4821
100003.4873
100003.4927
100003.4995
100003.5075
100003.5149
100003.5213
100003.527
100003.5349
100003.5401
100003.549
100003.4993
100003.5138
100003.5337
100003.5626
100003.599
100003.6348
100003.6589
100003.6775
100003.6616
100003.6404
100003.6223
100003.6086
100003.5974
100003.586
100003.5735
100003.5602
100003.5463
100003.5311
100003.5151
100003.5008
100003.4904
100003.485
100003.4841
100003.4858
100003.4891
100003.4931
100003.4982
100003.5045
100003.5106
100003.5159
100003.5209
100003.5283
100003.5332
100003.5427
100003.5127
100003.5278
100003.5479
100003.5786
100003.62
100003.6687
100003.7041
100003.7502
100003.7092
100003.6713
100003.6435
100003.6247
100003.6111
100003.5993
100003.5875
100003.5752
100003.5615
100003.5456
100003.5287
100003.5138
100003.5029
100003.4965
100003.4943
100003.4943
100003.4954
100003.4975
100003.5008
100003.5052
100003.5097
100003.5139
100003.5179
100003.5244
100003.5296
100003.5392
100003.5242
100003.5409
100003.5601
100003.5905
100003.6335
100003.6917
100003.7281
100003.8275
100003.7415
100003.6902
100003.6566
100003.6364
100003.6232
100003.6128
100003.6029
100003.5919
100003.578
100003.5612
100003.5435
100003.528
100003.5166
100003.5095
100003.5063
100003.5053
100003.505
100003.5053
100003.5065
100003.5088
100003.5115
100003.5141
100003.5169
100003.5226
100003.5283
100003.5381
100003.5303
100003.5503
100003.5665
100003.5931
100003.6297
100003.6837
100003.7101
100003.8143
100003.7202
100003.6804
100003.6535
100003.6389
100003.6303
100003.6237
100003.6164
100003.6064
100003.5922
100003.5751
100003.5573
100003.5419
100003.5303
100003.5227
100003.519
100003.5176
100003.5166
100003.5154
100003.5143
100003.514
100003.5143
100003.515
100003.516
100003.5209
100003.5266
100003.5376
100003.5234
100003.5496
100003.5619
100003.5822
100003.6083
100003.643
100003.6551
100003.6671
100003.6525
100003.6406
100003.6315
100003.6292
100003.6286
100003.6273
100003.6239
100003.6164
100003.6025
100003.5859
100003.5684