/*--------------------------------*- C++ -*----------------------------------*\
  =========                 |
  \\      /  F ield         | OpenFOAM: The Open Source CFD Toolbox
   \\    /   O peration     | Website:  https://openfoam.org
    \\  /    A nd           | Version:  8
     \\/     M anipulation  |
\*---------------------------------------------------------------------------*/
FoamFile
{
    version     2.0;
    format      ascii;
    class       surfaceScalarField;
    location    "0.8";
    object      phi;
}
// * * * * * * * * * * * * * * * * * * * * * * * * * * * * * * * * * * * * * //

dimensions      [1 0 -1 0 0 0 0];

internalField   nonuniform List<scalar> 
196504
(
-2.513589247e-05
-2.318264221e-05
2.171734016e-05
-2.393566971e-05
-2.050348572e-05
1.930310609e-05
-2.399412702e-05
-1.685793145e-05
1.691624227e-05
-2.480134477e-05
-1.416138033e-05
1.496846179e-05
-2.494572886e-05
-1.350822608e-05
1.365248319e-05
-2.421482576e-05
-1.346095591e-05
1.272993238e-05
-2.215033641e-05
-1.398875539e-05
1.192414856e-05
-1.864818401e-05
-1.480227728e-05
1.130000634e-05
-1.410677852e-05
-1.569742411e-05
1.115589677e-05
-5.357868157e-06
-1.836345265e-05
9.614412204e-06
8.009422204e-06
-2.062567866e-05
7.258248289e-06
1.732838424e-05
-2.153009557e-05
1.221097338e-05
2.486970096e-05
-2.369493664e-05
1.615343925e-05
3.230564369e-05
-2.59161445e-05
1.847999648e-05
3.901941751e-05
-2.662657386e-05
1.991256757e-05
4.44065877e-05
-2.596526152e-05
2.057782916e-05
4.855136592e-05
-2.463490797e-05
2.04898373e-05
5.192883412e-05
-2.328522935e-05
1.990744075e-05
5.498540365e-05
-2.227672052e-05
1.921980692e-05
5.789043867e-05
-2.163392415e-05
1.872852612e-05
6.052422979e-05
-2.117905882e-05
1.854489011e-05
6.257630252e-05
-2.069648703e-05
1.864402611e-05
6.362625405e-05
-2.001571393e-05
1.89653674e-05
6.318180104e-05
-1.900259303e-05
1.944664782e-05
6.0764745e-05
-1.752485141e-05
1.994150884e-05
5.608376477e-05
-1.549642697e-05
2.017700954e-05
4.921537553e-05
-1.307917039e-05
1.994716277e-05
4.102207151e-05
-1.085245893e-05
1.90453664e-05
3.283084486e-05
-9.598820179e-06
1.778965182e-05
2.522589812e-05
-9.257032951e-06
1.686158941e-05
1.742610139e-05
-8.701607101e-06
1.650102048e-05
9.829656794e-06
-7.985853679e-06
1.558192094e-05
3.295801209e-06
-8.524217524e-06
1.505770068e-05
-1.193959961e-05
1.523502938e-05
-2.107750832e-05
-4.277562144e-05
2.064796198e-05
-2.169888518e-05
-3.870188606e-05
1.881962794e-05
-2.261282826e-05
-3.318873443e-05
1.724460432e-05
-2.402562915e-05
-2.833861892e-05
1.55899048e-05
-2.440191292e-05
-2.645677894e-05
1.332471066e-05
-2.351926921e-05
-2.551094966e-05
1.116723176e-05
-2.099328179e-05
-2.569663435e-05
9.181777803e-06
-1.648598606e-05
-2.668539383e-05
7.375707541e-06
-1.010695103e-05
-2.811333735e-05
6.036761696e-06
-1.507715589e-06
-3.105980034e-05
4.09698678e-06
8.028235514e-06
-3.357982879e-05
3.418060681e-06
1.72969063e-05
-3.572129716e-05
4.922377134e-06
2.642003124e-05
-3.895492763e-05
6.136692126e-06
3.4548701e-05
-4.142746643e-05
7.382454694e-06
4.122172544e-05
-4.207878388e-05
8.778962187e-06
4.63440883e-05
-4.10529991e-05
9.965122686e-06
5.027284896e-05
-3.90801115e-05
1.051615937e-05
5.355008484e-05
-3.688789021e-05
1.032510967e-05
5.657451295e-05
-3.498713396e-05
9.685641478e-06
5.943555641e-05
-3.354117135e-05
9.045836662e-06
6.193350564e-05
-3.24070294e-05
8.729636471e-06
6.369558849e-05
-3.132345871e-05
8.864491162e-06
6.427138926e-05
-3.006640659e-05
9.47448622e-06
6.318493863e-05
-2.848074251e-05
1.05641911e-05
6.003717278e-05
-2.644427151e-05
1.206677751e-05
5.475401831e-05
-2.388954893e-05
1.367587052e-05
4.778209479e-05
-2.099127334e-05
1.488362192e-05
3.996232913e-05
-1.834920647e-05
1.531610743e-05
3.217905201e-05
-1.669728981e-05
1.488133933e-05
2.50756743e-05
-1.607074045e-05
1.391667922e-05
1.889261753e-05
-1.558224278e-05
1.306329211e-05
1.339483053e-05
-1.512161115e-05
1.263314922e-05
7.627512164e-06
-1.572286259e-05
1.296557123e-05
-1.877214059e-05
1.445966728e-05
-1.387797744e-05
-5.640180944e-05
1.793767356e-05
-1.668120541e-05
-5.209572423e-05
1.619691724e-05
-1.918327132e-05
-4.639466664e-05
1.570785936e-05
-2.256487162e-05
-4.047107657e-05
1.551392606e-05
-2.455020039e-05
-3.724640856e-05
1.277483261e-05
-2.443820091e-05
-3.489914852e-05
9.276080989e-06
-2.217314436e-05
-3.413907825e-05
6.177275039e-06
-1.775260895e-05
-3.480705488e-05
3.701015981e-06
-1.134112178e-05
-3.648913214e-05
1.96419692e-06
-3.035850879e-06
-3.959486161e-05
2.296726113e-07
6.680164477e-06
-4.307976084e-05
-2.162096162e-07
1.700905319e-05
-4.493729608e-05
-1.11303189e-06
2.730600617e-05
-4.751543281e-05
-1.736612534e-06
3.643789193e-05
-4.92307319e-05
-1.328809836e-06
4.391193276e-05
-4.941388894e-05
-1.391521247e-07
4.951203832e-05
-4.826788943e-05
1.614541656e-06
5.361100652e-05
-4.63168167e-05
3.137464467e-06
5.681689357e-05
-4.414296705e-05
4.048885535e-06
5.96807658e-05
-4.216201673e-05
4.310674724e-06
6.243803156e-05
-4.056433962e-05
4.265538748e-06
6.491634364e-05
-3.924414599e-05
4.358417804e-06
6.666426045e-05
-3.793365507e-05
4.861874981e-06
6.714418997e-05
-3.638839245e-05
5.84163887e-06
6.585070939e-05
-3.445543949e-05
7.267752275e-06
6.241007615e-05
-3.207458678e-05
9.070520418e-06
5.67535468e-05
-2.928120581e-05
1.104775896e-05
4.932047219e-05
-2.630037291e-05
1.274174836e-05
4.089219236e-05
-2.367885576e-05
1.375750235e-05
3.243480308e-05
-2.198045489e-05
1.374012439e-05
2.484383475e-05
-2.117438235e-05
1.269417851e-05
1.868893141e-05
-2.059361957e-05
1.11658514e-05
1.387785322e-05
-2.036128742e-05
1.005033156e-05
8.60385814e-06
-2.092398913e-05
1.047470327e-05
-2.292085975e-05
1.275216418e-05
-6.844514991e-06
-6.345587911e-05
1.386396647e-05
-1.086143361e-05
-5.984895898e-05
1.176999239e-05
-1.399986622e-05
-5.507553122e-05
1.181914901e-05
-1.918375884e-05
-4.946421677e-05
1.4176896e-05
-2.358302629e-05
-4.526433834e-05
1.241706543e-05
-2.496771415e-05
-4.14501337e-05
7.935548112e-06
-2.332819509e-05
-3.944501747e-05
3.666303836e-06
-1.916916507e-05
-3.948305155e-05
5.168568644e-07
-1.295669841e-05
-4.122214265e-05
-1.479562815e-06
-5.092290812e-06
-4.423920503e-05
-3.220172988e-06
4.21742757e-06
-4.746960703e-05
-4.919987306e-06
1.556573192e-05
-4.917529174e-05
-7.110437663e-06
2.721642653e-05
-5.086540824e-05
-8.300871292e-06
3.770187904e-05
-5.164056589e-05
-8.075796308e-06
4.638920349e-05
-5.126347905e-05
-6.837940363e-06
5.307714326e-05
-5.001453558e-05
-4.941528e-06
5.795088924e-05
-4.838592141e-05
-2.804904186e-06
6.152747555e-05
-4.683098584e-05
-8.888601766e-07
6.44316072e-05
-4.558227077e-05
5.157978315e-07
6.70853094e-05
-4.462762218e-05
1.409224757e-06
6.945616848e-05
-4.372177681e-05
2.10638808e-06
7.107901534e-05
-4.25963947e-05
3.039485475e-06
7.131887805e-05
-4.103890334e-05
4.410221698e-06
6.957533116e-05
-3.890879885e-05
6.196465212e-06
6.546390439e-05
-3.620891316e-05
8.245302532e-06
5.898781651e-05
-3.311718304e-05
1.031160979e-05
5.064353103e-05
-3.000757367e-05
1.205102932e-05
4.128506083e-05
-2.743086805e-05
1.311002362e-05
3.197975093e-05
-2.58063816e-05
1.31307733e-05
2.393592044e-05
-2.497910511e-05
1.184808571e-05
1.788769413e-05
-2.435729802e-05
9.811438435e-06
1.343178264e-05
-2.412333748e-05
8.217501234e-06
8.553602064e-06
-2.450435623e-05
8.458093297e-06
-2.557042943e-05
1.120272068e-05
-2.396731353e-06
-6.518566899e-05
8.696952735e-06
-5.920137173e-06
-6.277048852e-05
6.444757015e-06
-8.156149034e-06
-5.935105178e-05
6.511363246e-06
-1.381884586e-05
-5.496859527e-05
1.116692246e-05
-2.080149889e-05
-5.046347677e-05
1.21816465e-05
-2.453975824e-05
-4.549183789e-05
7.779825505e-06
-2.411928628e-05
-4.218893895e-05
2.323323498e-06
-2.067295149e-05
-4.13715013e-05
-1.55799882e-06
-1.510296974e-05
-4.282727463e-05
-3.964953885e-06
-7.734950361e-06
-4.537139081e-05
-6.235933084e-06
1.816839146e-06
-4.797651451e-05
-9.044983318e-06
1.407631436e-05
-4.937958495e-05
-1.205529358e-05
2.677415397e-05
-5.02516669e-05
-1.331171329e-05
3.841872143e-05
-5.026175702e-05
-1.302353383e-05
4.826655185e-05
-4.944427212e-05
-1.166722559e-05
5.597472292e-05
-4.819277874e-05
-9.530148907e-06
6.160544838e-05
-4.709468971e-05
-6.922210108e-06
6.561439699e-05
-4.654185221e-05
-4.298366239e-06
6.868003862e-05
-4.648596664e-05
-2.162261688e-06
7.131947492e-05
-4.654072618e-05
-7.266813422e-07
7.362524992e-05
-4.631057997e-05
2.826469076e-07
7.519862804e-05
-4.560630218e-05
1.436119794e-06
7.535931803e-05
-4.424422655e-05
3.044199109e-06
7.333905182e-05
-4.210053496e-05
5.211547059e-06
6.862534928e-05
-3.920817573e-05
7.712492116e-06
6.125580938e-05
-3.583019285e-05
1.008206326e-05
5.188829447e-05
-3.251574716e-05
1.187519326e-05
4.156555358e-05
-2.992033664e-05
1.281170853e-05
3.149061587e-05
-2.838839316e-05
1.265644168e-05
2.307992686e-05
-2.760524001e-05
1.103630986e-05
1.715795567e-05
-2.698065034e-05
8.54480903e-06
1.309427698e-05
-2.669390335e-05
6.63373528e-06
8.489750792e-06
-2.683007803e-05
6.929743657e-06
-2.727796485e-05
1.019678502e-05
-2.210440238e-06
-6.333734031e-05
2.822175528e-06
-2.979337436e-06
-6.223668836e-05
2.348932336e-07
-2.747852712e-06
-6.010885693e-05
5.261203462e-07
-7.093201465e-06
-5.708431256e-05
6.460883856e-06
-1.582950207e-05
-5.292965176e-05
1.120230772e-05
-2.262735388e-05
-4.726733252e-05
8.573187675e-06
-2.414192038e-05
-4.275996901e-05
2.085453604e-06
-2.170826738e-05
-4.095726936e-05
-2.848008605e-06
-1.675538615e-05
-4.179659476e-05
-5.983666614e-06
-9.560779776e-06
-4.354636783e-05
-9.019721517e-06
4.29175115e-07
-4.537810158e-05
-1.258845487e-05
1.328131702e-05
-4.628583516e-05
-1.594598319e-05
2.661570807e-05
-4.646506597e-05
-1.712109987e-05
3.899343244e-05
-4.595047915e-05
-1.668913365e-05
4.957566495e-05
-4.495471648e-05
-1.507195178e-05
5.786307611e-05
-4.395644161e-05
-1.252394861e-05
6.376597165e-05
-4.35929761e-05
-9.404846431e-06
6.774672109e-05
-4.417543606e-05
-6.347439037e-06
7.063654748e-05
-4.536040587e-05
-4.015697735e-06
7.312507649e-05
-4.641930177e-05
-2.61030265e-06
7.540271259e-05
-4.684287857e-05
-1.745724176e-06
7.709475912e-05
-4.649429064e-05
-8.044781411e-07
7.743374319e-05
-4.535017187e-05
7.66512022e-07
7.550316981e-05
-4.340901054e-05
3.238573761e-06
7.059538575e-05
-4.060903054e-05
6.308139371e-06
6.267730539e-05
-3.720286048e-05
9.290226391e-06
5.254516878e-05
-3.382708042e-05
1.144293067e-05
4.146760136e-05
-3.127552676e-05
1.243220621e-05
3.086466447e-05
-2.988867207e-05
1.210265412e-05
2.232694892e-05
-2.921827775e-05
1.01501825e-05
1.668028332e-05
-2.863819619e-05
7.303638341e-06
1.30201051e-05
-2.826812861e-05
5.233834323e-06
8.62418752e-06
-2.816931267e-05
5.734586972e-06
-2.827953465e-05
9.625194781e-06
-5.441579091e-06
-5.918139239e-05
-3.665620034e-06
-2.096228888e-06
-5.950072719e-05
-6.081545095e-06
1.510748831e-06
-5.856675963e-05
-5.149310557e-06
1.373270535e-07
-5.627585302e-05
5.647395281e-07
-8.792200486e-06
-5.247698858e-05
8.476661253e-06
-1.875902477e-05
-4.683325378e-05
9.532558785e-06
-2.279292818e-05
-4.132575358e-05
2.599521278e-06
-2.156959588e-05
-3.854772784e-05
-3.633013395e-06
-1.710736871e-05
-3.863525757e-05
-7.623675349e-06
-9.921183234e-06
-3.942509005e-05
-1.130755015e-05
3.938534772e-07
-4.046096722e-05
-1.523224392e-05
1.345324325e-05
-4.072888655e-05
-1.8616409e-05
2.699224441e-05
-4.032404458e-05
-1.96801043e-05
3.96113411e-05
-3.947263536e-05
-1.909704352e-05
5.03416992e-05
-3.851171351e-05
-1.717349684e-05
5.84758193e-05
-3.793909355e-05
-1.415164338e-05
6.380241778e-05
-3.835349078e-05
-1.05663001e-05
6.700089509e-05
-3.996660719e-05
-7.407564421e-06
6.930662471e-05
-4.216948963e-05
-5.496949281e-06
7.16215127e-05
-4.399164749e-05
-4.742893531e-06
7.403216094e-05
-4.490049438e-05
-4.353430347e-06
7.599614699e-05
-4.486593671e-05
-3.592780132e-06
7.66770246e-05
-4.399994928e-05
-2.031576392e-06
7.512905795e-05
-4.238544535e-05
5.238938074e-07
7.045055449e-05
-3.999675026e-05
4.065686192e-06
6.254053402e-05
-3.694203476e-05
7.648628824e-06
5.221944712e-05
-3.384073913e-05
1.033415432e-05
4.08640281e-05
-3.155698088e-05
1.163626307e-05
3.009681792e-05
-3.041955782e-05
1.129747114e-05
2.169074838e-05
-2.990428501e-05
9.091439779e-06
1.64574936e-05
-2.937398464e-05
5.968401629e-06
1.318877446e-05
-2.893830379e-05
3.938255148e-06
8.915619553e-06
-2.867035376e-05
4.77355969e-06
-2.86582636e-05
9.293714628e-06
-9.034325094e-06
-5.398036615e-05
-9.762834115e-06
-1.6865842e-06
-5.512855732e-05
-1.172017677e-05
4.974458139e-06
-5.485256218e-05
-1.037551252e-05
6.392214187e-06
-5.30102394e-05
-4.683637855e-06
-5.639324353e-07
-4.926510946e-05
3.744020563e-06
-1.284143373e-05
-4.411442542e-05
9.558453985e-06
-1.97628241e-05
-3.787468474e-05
3.470128692e-06
-1.983140415e-05
-3.442101161e-05
-4.05829482e-06
-1.578422552e-05
-3.387073996e-05
-8.811813896e-06
-8.678724115e-06
-3.371500604e-05
-1.281566731e-05
1.711177379e-06
-3.4108062e-05
-1.674286568e-05
1.462081902e-05
-3.36616154e-05
-1.997696325e-05
2.791672338e-05
-3.272977014e-05
-2.089023488e-05
4.028045091e-05
-3.169285848e-05
-2.014357942e-05
5.056094152e-05
-3.089043344e-05
-1.790187792e-05
5.77925879e-05
-3.074040068e-05
-1.443048698e-05
6.174320825e-05
-3.174105966e-05
-1.056324262e-05
6.361376348e-05
-3.405208974e-05
-7.785311178e-06
6.524911338e-05
-3.685666775e-05
-6.948464668e-06
6.761345869e-05
-3.906303941e-05
-7.293305033e-06
7.040408639e-05
-4.025628257e-05
-7.435249203e-06
7.270893136e-05
-4.058303725e-05
-6.58820822e-06
7.363132164e-05
-4.024615784e-05
-4.676693351e-06
7.232144732e-05
-3.929341037e-05
-1.782712305e-06
6.801248454e-05
-3.760731503e-05
1.918939541e-06
6.047367713e-05
-3.521477977e-05
5.810929153e-06
5.05172638e-05
-3.273029707e-05
8.845316694e-06
3.947920274e-05
-3.097105002e-05
1.045145181e-05
2.902697692e-05
-3.01808819e-05
1.021285299e-05
2.10791485e-05
-2.978926053e-05
7.832091734e-06
1.638369487e-05
-2.926210568e-05
4.582855478e-06
1.347384257e-05
-2.880484178e-05
2.775671662e-06
9.199551581e-06
-2.8574892e-05
4.178112574e-06
-2.864566716e-05
9.186240109e-06
-1.115529368e-05
-4.857761707e-05
-1.347330709e-05
-1.252076802e-06
-4.964029387e-05
-1.539177555e-05
7.935660656e-06
-4.969096135e-05
-1.43496452e-05
1.160269486e-05
-4.748253409e-05
-9.195047369e-06
7.259641773e-06
-4.386619682e-05
-1.056150572e-06
-5.399370514e-06
-3.902736306e-05
7.571697674e-06
-1.534017099e-05
-3.218270194e-05
4.248605294e-06
-1.661439035e-05
-2.887473827e-05
-4.272228888e-06
-1.29502203e-05
-2.799872912e-05
-9.536300198e-06
-5.98544028e-06
-2.717117916e-05
-1.350868005e-05
4.240327064e-06
-2.724959397e-05
-1.708427847e-05
1.658649115e-05
-2.606585789e-05
-1.994195155e-05
2.925934917e-05
-2.471082817e-05
-2.069183096e-05
4.09379997e-05
-2.36207069e-05
-1.975084934e-05
5.029347716e-05
-2.306201952e-05
-1.718396921e-05
5.613925753e-05
-2.325236771e-05
-1.333393087e-05
5.841767666e-05
-2.456880616e-05
-9.450834729e-06
5.907003476e-05
-2.715869422e-05
-7.545969107e-06
6.043235987e-05
-3.004033772e-05
-8.178935415e-06
6.314410158e-05
-3.21722201e-05
-9.602911502e-06
6.629407599e-05
-3.343898954e-05
-9.967688473e-06
6.866349235e-05
-3.422566395e-05
-8.727278659e-06
6.941799372e-05
-3.475726156e-05
-6.243948375e-06
6.796277038e-05
-3.486402637e-05
-2.974764287e-06
6.379381416e-05
-3.416776874e-05
7.287596267e-07
5.672659524e-05
-3.266748506e-05
4.51923122e-06
4.754274811e-05
-3.102922729e-05
7.48204796e-06
3.736511176e-05
-2.993663973e-05
9.142469409e-06
2.771356134e-05
-2.94615747e-05
8.931465311e-06
2.050864361e-05
-2.905029775e-05
6.465159264e-06
1.639419196e-05
-2.842117536e-05
3.272716379e-06
1.371866959e-05
-2.799518249e-05
1.865057039e-06
9.232179449e-06
-2.812611409e-05
4.036907134e-06
-2.893490416e-05
9.520612004e-06
-1.164843022e-05
-4.436151417e-05
-1.399000826e-05
-5.067528693e-07
-4.441571953e-05
-1.636657313e-05
1.047977368e-05
-4.452490532e-05
-1.615291751e-05
1.575158922e-05
-4.073082323e-05
-1.202386278e-05
1.34440579e-05
-3.690429917e-05
-4.654687787e-06
1.556866368e-06
-3.165254622e-05
4.512097418e-06
-1.040131022e-05
-2.462700293e-05
4.402262331e-06
-1.27147041e-05
-2.204036921e-05
-4.5211558e-06
-9.384356764e-06
-2.136765131e-05
-9.96153411e-06
-2.448023534e-06
-2.050286588e-05
-1.360470308e-05
7.55411402e-06
-2.086245592e-05
-1.638929805e-05
1.903804923e-05
-1.900410831e-05
-1.854569143e-05
3.07685572e-05
-1.741250921e-05
-1.90288314e-05
4.140811652e-05
-1.644755646e-05
-1.781272744e-05
4.954673158e-05
-1.630726295e-05
-1.489341689e-05
5.405310145e-05
-1.699596018e-05
-1.076285996e-05
5.532473932e-05
-1.866707634e-05
-7.173496337e-06
5.574898857e-05
-2.114102519e-05
-6.442109171e-06
5.746284038e-05
-2.34053191e-05
-8.349138064e-06
6.048907108e-05
-2.491590421e-05
-1.028289684e-05
6.351373311e-05
-2.604603076e-05
-1.041805552e-05
6.533299702e-05
-2.73591075e-05
-8.686337911e-06
6.532436842e-05
-2.892884174e-05
-5.820385151e-06
6.319864906e-05
-3.024202476e-05
-2.496943249e-06
5.876797482e-05
-3.061376277e-05
8.759478678e-07
5.218586936e-05
-3.010711289e-05
4.020961082e-06
4.408916034e-05
-2.93803751e-05
6.447043219e-06
3.516210309e-05
-2.890383596e-05
7.893410049e-06
2.660234563e-05
-2.85631295e-05
7.660445812e-06
2.019181036e-05
-2.789957574e-05
5.258927264e-06
1.645650057e-05
-2.705123352e-05
2.364470775e-06
1.364964509e-05
-2.670598348e-05
1.51675689e-06
8.635771826e-06
-2.753334203e-05
4.420201603e-06
-3.1026137e-05
1.072610414e-05
-9.665026482e-06
-4.362101332e-05
-1.197429854e-05
1.633941912e-06
-4.151048009e-05
-1.420455341e-05
1.382168938e-05
-4.146279155e-05
-1.525021536e-05
1.985223207e-05
-3.440583013e-05
-1.235588606e-05
1.802798481e-05
-2.896120129e-05
-6.11918131e-06
6.804647222e-06
-2.279730393e-05
2.367814263e-06
-5.973737411e-06
-1.557444147e-05
3.725625491e-06
-9.39708736e-06
-1.362728441e-05
-4.989901839e-06
-6.516001038e-06
-1.395004088e-05
-1.029878013e-05
4.467753702e-07
-1.394675722e-05
-1.351891713e-05
1.042644477e-05
-1.560655102e-05
-1.523557159e-05
2.092049375e-05
-1.335899462e-05
-1.613914222e-05
3.135463561e-05
-1.196713626e-05
-1.587948773e-05
4.078058115e-05
-1.183712123e-05
-1.403636052e-05
4.801489734e-05
-1.290070916e-05
-1.06408709e-05
5.227622569e-05
-1.465787351e-05
-6.59945148e-06
5.422283028e-05
-1.664552095e-05
-3.968249317e-06
5.571490863e-05
-1.82998981e-05
-4.333368653e-06
5.802546538e-05
-1.920856779e-05
-6.50756046e-06
6.080783569e-05
-1.968438563e-05
-8.014238801e-06
6.293864552e-05
-2.054695656e-05
-7.630334915e-06
6.352724451e-05
-2.22686022e-05
-5.679653916e-06
6.225273266e-05
-2.461744303e-05
-3.037528225e-06
5.906624552e-05
-2.664771873e-05
-4.085429128e-07
5.424804445e-05
-2.774506244e-05
1.948703433e-06
4.83234161e-05
-2.806050163e-05
3.877158841e-06
4.151705748e-05
-2.810988266e-05
5.534961989e-06
3.393954413e-05
-2.809824131e-05
6.770982709e-06
2.642426632e-05
-2.773296444e-05
6.684152863e-06
2.049789627e-05
-2.666720388e-05
4.693017802e-06
1.657542335e-05
-2.554123235e-05
2.411478646e-06
1.29873347e-05
-2.544117338e-05
2.32228198e-06
7.140740744e-06
-2.756028491e-05
5.872539654e-06
-3.704134717e-05
1.31549532e-05
-3.101627662e-06
-4.720391051e-05
-1.08854494e-05
7.151539554e-06
-4.21746027e-05
-9.589411509e-06
1.961784923e-05
-4.153984907e-05
-1.238961523e-05
2.551065032e-05
-3.022770746e-05
-1.007127339e-05
2.238106021e-05
-2.120862185e-05
-4.623308856e-06
9.607260367e-06
-1.287929712e-05
2.855532168e-06
-3.991458083e-06
-5.21573181e-06
3.239839994e-06
-7.77053125e-06
-4.301370752e-06
-5.546959469e-06
-5.665717366e-06
-5.601594727e-06
-1.045330746e-05
8.547919633e-07
-7.042979782e-06
-1.342429219e-05
1.099493894e-05
-1.07854713e-05
-1.496119812e-05
2.051126595e-05
-8.824639989e-06
-1.405063442e-05
2.946530721e-05
-8.423184143e-06
-1.249793347e-05
3.771867175e-05
-9.937043491e-06
-1.015338241e-05
4.450030599e-05
-1.238071398e-05
-7.30158717e-06
4.942955022e-05
-1.480768991e-05
-4.779423425e-06
5.292227639e-05
-1.660869943e-05
-3.529602114e-06
5.582485376e-05
-1.755486702e-05
-3.647742396e-06
5.861950187e-05
-1.793525344e-05
-4.06819383e-06
6.10033957e-05
-1.838250636e-05
-3.686115054e-06
6.224167544e-05
-1.945224686e-05
-2.333448672e-06
6.176943267e-05
-2.119451037e-05
-6.024255772e-07
5.94307606e-05
-2.317337791e-05
8.939181299e-07
5.569952823e-05
-2.479065627e-05
1.873378965e-06
5.124146266e-05
-2.579147984e-05
2.503604682e-06
4.636989e-05
-2.64606806e-05
3.270804204e-06
4.087403401e-05
-2.711451261e-05
4.499488541e-06
3.453397686e-05
-2.760163938e-05
5.842424457e-06
2.78481656e-05
-2.736574309e-05
6.317535595e-06
2.191077213e-05
-2.604830081e-05
5.317415989e-06
1.712915254e-05
-2.484901685e-05
4.088315657e-06
1.22962006e-05
-2.547352052e-05
4.864205782e-06
5.979059015e-06
-3.019823069e-05
8.953994064e-06
-4.747998761e-05
1.641661046e-05
1.016254119e-05
-4.907997803e-05
-1.96744562e-05
1.86965827e-05
-4.272591093e-05
-7.983113041e-06
2.920483096e-05
-4.088121524e-05
-1.116724047e-05
3.414518173e-05
-2.772188381e-05
-7.446516517e-06
2.748965154e-05
-1.427322597e-05
-2.801722608e-07
9.800136835e-06
-2.805552573e-06
7.61552751e-06
-4.262590469e-06
4.169552239e-06
4.677279304e-06
-7.463070787e-06
3.810288398e-06
-4.91127924e-06
-5.972753182e-06
2.848571801e-06
-9.940522734e-06
-1.946536524e-07
6.050839783e-07
-1.342616012e-05
8.560353225e-06
-2.754312899e-06
-1.678612442e-05
1.683266414e-05
-3.086851842e-06
-1.401003145e-05
2.486908541e-05
-4.639706334e-06
-1.181981214e-05
3.264966885e-05
-7.438699845e-06
-1.027883469e-05
3.935512501e-05
-1.022571531e-05
-8.860375997e-06
4.455239015e-05
-1.245958872e-05
-7.545324433e-06
4.842432537e-05
-1.404627809e-05
-6.434376435e-06
5.140499881e-05
-1.520813022e-05
-5.32751695e-06
5.364830828e-05
-1.630637763e-05
-3.872400665e-06
5.505444075e-05
-1.763116689e-05
-2.157812435e-06
5.548161815e-05
-1.91918127e-05
-6.880867749e-07
5.490835204e-05
-2.077439149e-05
1.525348389e-07
5.34099192e-05
-2.211160996e-05
4.359215742e-07
5.117797196e-05
-2.310294265e-05
5.433726691e-07
4.848897798e-05
-2.400189851e-05
8.984531101e-07
4.538905677e-05
-2.516895637e-05
1.807161096e-06
4.157898058e-05
-2.659840122e-05
3.292875164e-06
3.679975306e-05
-2.785499785e-05
5.03146231e-06
3.113159831e-05
-2.820331837e-05
6.504585203e-06
2.50449102e-05
-2.718009405e-05
7.217319704e-06
1.918382469e-05
-2.665462253e-05
7.665515348e-06
1.349413958e-05
-2.920583087e-05
9.420812509e-06
7.484954356e-06
-3.76875366e-05
1.349730932e-05
-5.948639054e-05
1.949018168e-05
2.391890668e-05
-3.648089001e-05
-4.291962245e-05
3.349012187e-05
-3.21782083e-05
-2.011926535e-05
4.161273473e-05
-3.156247382e-05
-1.744169173e-05
4.535186199e-05
-2.120431016e-05
-1.025703381e-05
3.616903607e-05
-8.169929746e-06
3.079223487e-06
1.554060085e-05
4.011284251e-06
1.381135108e-05
-1.101194741e-06
1.099161832e-05
9.819544707e-06
-6.33589324e-06
1.119947356e-05
-2.154614338e-06
-5.796258009e-06
1.075690648e-05
-8.448035167e-06
-1.692093136e-06
8.572211694e-06
-1.207130679e-05
3.789907067e-06
6.365250458e-06
-1.460152962e-05
1.098155011e-05
3.50690735e-06
-1.37853289e-05
1.935759563e-05
6.269512427e-07
-1.364260175e-05
2.75624575e-05
-2.602075015e-06
-1.304136972e-05
3.465017147e-05
-5.26812301e-06
-1.204519658e-05
4.01730243e-05
-7.278687206e-06
-1.070368078e-05
4.401518327e-05
-8.886308828e-06
-9.002119599e-06
4.635814642e-05
-1.047741684e-05
-7.073763024e-06
4.752404564e-05
-1.226765348e-05
-5.204831076e-06
4.793115786e-05
-1.418913186e-05
-3.849495605e-06
4.794294343e-05
-1.601583725e-05
-3.188261023e-06
4.775629779e-05
-1.76202527e-05
-2.968146626e-06
4.737028799e-05
-1.902439767e-05
-2.702002123e-06
4.672397958e-05
-2.042294743e-05
-2.034617072e-06
4.585002019e-05
-2.214141567e-05
-9.875622082e-07
4.467138946e-05
-2.432860957e-05
3.371624315e-07
4.286197601e-05
-2.676447063e-05
1.974305453e-06
4.012399683e-05
-2.904988699e-05
3.931658202e-06
3.6065287e-05
-3.055550685e-05
6.409671833e-06
3.048928328e-05
-3.083204689e-05
9.226720222e-06
2.437786505e-05
-3.242778727e-05
1.188333724e-05
1.882584486e-05
-3.81180093e-05
1.446294652e-05
1.253749249e-05
-4.873423339e-05
1.733379718e-05
-6.87327195e-05
2.178256549e-05
2.042514037e-05
-2.653948013e-06
-6.554331032e-05
3.437469743e-05
-4.141613069e-06
-4.198641652e-05
4.726180513e-05
-1.068344068e-05
-3.376641837e-05
5.499026785e-05
-5.834726922e-06
-2.30983537e-05
4.782526915e-05
3.410163369e-06
-4.415396609e-06
2.591862927e-05
1.329130896e-05
1.26263594e-05
3.580994543e-06
1.934277759e-05
1.398626941e-05
-6.286843878e-06
1.899797229e-05
2.069185837e-06
-7.67935984e-06
1.784327673e-05
-5.693947922e-06
-4.882866939e-06
1.560250744e-05
-9.826827196e-06
5.176982569e-07
1.33790043e-05
-1.241430269e-05
7.775982624e-06
1.021552834e-05
-1.396684146e-05
1.596373862e-05
7.230384863e-06
-1.479108679e-05
2.41308393e-05
3.463791103e-06
-1.423283958e-05
3.147858172e-05
3.939589836e-07
-1.300969986e-05
3.70867658e-05
-1.516609087e-06
-1.137017474e-05
4.041785101e-05
-2.960958603e-06
-9.256414302e-06
4.179252146e-05
-4.772211933e-06
-7.079954397e-06
4.205417169e-05
-7.127523733e-06
-5.401989109e-06
4.211406926e-05
-9.581686696e-06
-4.667704515e-06
4.24531598e-05
-1.173750552e-05
-4.617948811e-06
4.309189381e-05
-1.369180463e-05
-4.567875103e-06
4.368819196e-05
-1.568607e-05
-3.935477426e-06
4.396084721e-05
-1.802992658e-05
-2.666669293e-06
4.407686107e-05
-2.086792821e-05
-1.390611494e-06
4.418393739e-05
-2.393737657e-05
-4.995060143e-07
4.403300318e-05
-2.70602609e-05
4.454711854e-07
4.320663617e-05
-3.037392837e-05
2.149124988e-06
4.090536081e-05
-3.343977734e-05
5.184250883e-06
3.656830402e-05
-3.592715929e-05
9.430872349e-06
3.13929668e-05
-4.052362922e-05
1.326988339e-05
2.637564897e-05
-4.868600553e-05
1.558401997e-05
1.863666853e-05
-5.839857316e-05
1.74020254e-05
-7.308832885e-05
2.299096936e-05
-1.378507747e-05
3.677513068e-05
-6.057342304e-05
8.854346736e-06
2.799534223e-05
-5.477663482e-05
3.43434683e-05
1.651756067e-05
-5.269037521e-05
5.081325818e-05
1.641173794e-05
-3.871654051e-05
5.105807849e-05
1.96139726e-05
-1.644892509e-05
3.506878547e-05
2.437593867e-05
4.904407384e-06
1.115019947e-05
2.820349583e-05
1.505764797e-05
-4.184199741e-06
2.688510476e-05
7.447089278e-06
-8.060387551e-06
2.397299816e-05
-2.253659346e-06
-6.426401218e-06
2.096210958e-05
-6.993656848e-06
-1.888942952e-06
1.852877491e-05
-9.687239291e-06
4.219449435e-06
1.531573715e-05
-1.120855703e-05
1.143280066e-05
1.197134836e-05
-1.195422598e-05
2.059230085e-05
4.335246541e-06
-1.003083563e-05
2.952566154e-05
-8.502103755e-07
-7.689072366e-06
3.625335173e-05
-2.824536234e-06
-5.419682504e-06
3.955258591e-05
-3.15395144e-06
-3.106225507e-06
4.000701966e-05
-3.528912465e-06
-1.697821607e-06
3.926781452e-05
-4.64744175e-06
-1.741103174e-06
3.884694854e-05
-6.233661888e-06
-2.927545549e-06
3.915193478e-05
-7.950677411e-06
-4.092371779e-06
3.996891767e-05
-1.026359965e-05
-4.245917529e-06
4.057772038e-05
-1.317616648e-05
-3.119600741e-06
4.070653022e-05
-1.664272358e-05
-1.517055226e-06
4.113572587e-05
-2.037145106e-05
-9.26837531e-07
4.222514454e-05
-2.372853868e-05
-1.299508745e-06
4.344257308e-05
-2.695983983e-05
-1.319155791e-06
4.393781003e-05
-3.081434428e-05
-5.615525033e-08
4.258378349e-05
-3.52789816e-05
3.191888755e-06
3.908162505e-05
-3.989811047e-05
7.471771313e-06
3.522432998e-05
-4.672589949e-05
1.005823723e-05
3.111955893e-05
-5.533915916e-05
1.075660785e-05
2.275120514e-05
-6.271130593e-05
1.26797752e-05
-7.217703259e-05
2.183858623e-05
-2.175843092e-05
5.942380947e-05
-3.72762416e-05
-1.728128399e-07
4.888621325e-05
-4.24767963e-05
2.499997585e-05
3.894299735e-05
-4.759853328e-05
4.067693218e-05
3.33888372e-05
-3.26543697e-05
4.039073223e-05
3.014236492e-05
-1.024250716e-05
2.63685897e-05
2.999623578e-05
8.401562068e-06
6.60965778e-06
3.114903607e-05
1.681314498e-05
-6.397042864e-06
2.972456206e-05
1.01670385e-05
-1.004204975e-05
2.582683163e-05
1.791017011e-06
-9.146573481e-06
2.207703901e-05
-2.010506957e-06
-5.984501005e-06
1.814722573e-05
-2.780566221e-06
-1.00877575e-06
1.232382212e-05
-1.983796681e-06
8.338703448e-06
5.337129467e-06
-2.71320069e-06
2.057054045e-05
-4.668044843e-06
-3.228455142e-06
3.143060348e-05
-9.797658964e-06
-1.912516358e-06
3.91726073e-05
-1.087561766e-05
3.091483777e-07
4.214905839e-05
-1.007117169e-05
3.940770492e-06
4.163348384e-05
-8.364925433e-06
5.351478643e-06
3.975337765e-05
-6.663014497e-06
3.895425483e-06
3.824741186e-05
-5.739786829e-06
1.011672367e-06
3.747395358e-05
-6.112802e-06
-1.065005263e-06
3.735101554e-05
-9.168365463e-06
-9.730537078e-07
3.672043747e-05
-1.337934074e-05
8.328319345e-07
3.574229121e-05
-1.748912565e-05
1.823480284e-06
3.628307008e-05
-2.087964537e-05
-3.377572318e-08
3.843512984e-05
-2.338808374e-05
-2.493789669e-06
4.083532818e-05
-2.590656109e-05
-3.454801461e-06
4.173655993e-05
-2.954968712e-05
-2.167238384e-06
3.977014186e-05
-3.452379438e-05
1.209875281e-06
3.617119688e-05
-4.064045843e-05
4.339945072e-06
3.403126132e-05
-4.829739561e-05
3.710098569e-06
3.188230687e-05
-5.574865723e-05
2.557135491e-06
2.44782762e-05
-6.068434676e-05
5.375767428e-06
-6.62136951e-05
1.851363529e-05
-2.130808491e-05
6.239121516e-05
-1.163482809e-05
-4.205917157e-06
5.392029192e-05
-2.213659856e-05
1.699935492e-05
4.850666841e-05
-3.076927419e-05
2.980642004e-05
3.791626986e-05
-1.733482293e-05
2.942114062e-05
3.1161514e-05
-6.341849881e-07
1.982256044e-05
2.838354064e-05
1.121098197e-05
5.110429002e-06
2.860012252e-05
1.726078274e-05
-7.426885973e-06
2.856287323e-05
1.369877964e-05
-1.288594657e-05
2.340863967e-05
7.877070598e-06
-1.383652624e-05
1.644990429e-05
6.577580971e-06
-1.18061962e-05
7.322785095e-06
8.794032471e-06
-6.406898151e-06
-3.089144439e-06
1.001364292e-05
7.229565353e-06
-1.14572485e-05
3.15793021e-06
2.232527841e-05
-1.65253889e-05
-3.23833567e-06
3.329579981e-05
-1.812675658e-05
-2.641387586e-06
4.0885921e-05
-1.717609866e-05
-1.289631315e-06
4.504595756e-05
-1.461474918e-05
3.834899909e-07
4.585795262e-05
-1.160246978e-05
2.42540223e-06
4.400462014e-05
-8.793156646e-06
3.983194784e-06
4.080045986e-05
-6.806552717e-06
4.270487677e-06
3.722223941e-05
-6.681596618e-06
4.146408388e-06
3.441407166e-05
-1.209939411e-05
5.738428033e-06
3.153754935e-05