/*--------------------------------*- C++ -*----------------------------------*\
  =========                 |
  \\      /  F ield         | OpenFOAM: The Open Source CFD Toolbox
   \\    /   O peration     | Website:  https://openfoam.org
    \\  /    A nd           | Version:  8
     \\/     M anipulation  |
\*---------------------------------------------------------------------------*/
FoamFile
{
    version     2.0;
    format      ascii;
    class       volScalarField;
    location    "1.5";
    object      N2;
}
// * * * * * * * * * * * * * * * * * * * * * * * * * * * * * * * * * * * * * //

dimensions      [0 0 0 0 0 0 0];

internalField   nonuniform List<scalar> 
67193
(
0.79000137
0.7900014086
0.7900014473
0.7900014884
0.7900015032
0.7900015478
0.7900015794
0.7900016181
0.7900016431
0.7900016396
0.7900016107
0.7900015863
0.7900016053
0.7900015692
0.7900015164
0.7900014964
0.7900015198
0.7900015575
0.7900015795
0.7900015818
0.7900015769
0.7900015761
0.7900015816
0.790001589
0.7900015924
0.7900015897
0.7900015829
0.7900015737
0.790001561
0.7900015391
0.7900014919
0.7900013795
0.7900011176
0.7900005385
0.7900013332
0.7900013689
0.7900013713
0.7900013456
0.7900012965
0.7900012849
0.7900013215
0.7900013912
0.7900014656
0.7900015063
0.7900015259
0.7900015881
0.7900016782
0.7900016601
0.7900015691
0.7900014747
0.7900014282
0.7900014336
0.7900014523
0.7900014519
0.7900014324
0.7900014107
0.7900013967
0.7900013897
0.7900013822
0.790001372
0.7900013642
0.7900013618
0.7900013636
0.7900013643
0.7900013474
0.790001259
0.7900009543
0.7900002382
0.7900012661
0.7900012412
0.7900011724
0.7900010969
0.7900010553
0.7900009854
0.7900010169
0.7900010978
0.7900012077
0.7900013087
0.7900014436
0.7900016177
0.7900017173
0.7900017158
0.7900016318
0.7900015051
0.7900013902
0.790001334
0.7900013325
0.790001341
0.7900013322
0.7900013105
0.7900012862
0.7900012631
0.7900012334
0.7900011985
0.7900011758
0.7900011714
0.7900011792
0.790001191
0.7900011918
0.7900011299
0.7900008352
0.789999951
0.7900011272
0.7900010474
0.7900009549
0.790000897
0.790000911
0.790000789
0.7900007947
0.7900008612
0.7900009793
0.7900011446
0.7900014186
0.7900016032
0.7900016604
0.7900016731
0.7900016155
0.790001516
0.7900013922
0.7900012948
0.7900012591
0.7900012614
0.7900012617
0.7900012449
0.7900012124
0.7900011702
0.7900011086
0.7900010326
0.7900009809
0.7900009698
0.7900009851
0.7900010064
0.7900010153
0.7900009676
0.7900007206
0.7899998805
0.7900009735
0.790000886
0.7900008116
0.7900007934
0.790000832
0.7900006994
0.7900006766
0.790000719
0.7900008196
0.7900010125
0.7900013603
0.7900014891
0.7900015394
0.7900015663
0.7900015257
0.7900014433
0.7900013402
0.7900012424
0.790001195
0.7900011921
0.7900011987
0.7900011897
0.790001154
0.7900010943
0.7900010098
0.7900008936
0.7900007944
0.7900007559
0.7900007726
0.7900008053
0.7900008152
0.7900007524
0.7900005077
0.7899998751
0.7900008704
0.7900008048
0.7900007579
0.7900007545
0.7900007771
0.7900006725
0.790000637
0.7900006618
0.7900007371
0.7900008951
0.7900011899
0.7900013
0.7900013587
0.7900013848
0.7900013497
0.7900012746
0.7900011903
0.7900011205
0.790001093
0.7900011013
0.7900011196
0.7900011227
0.7900010923
0.7900010228
0.7900009652
0.7900008524
0.7900006996
0.7900005877
0.7900005622
0.7900005902
0.7900005927
0.7900004809
0.7900001378
0.789999493
0.7900008338
0.7900007857
0.7900007513
0.7900007472
0.790000728
0.790000674
0.7900006433
0.7900006562
0.7900007177
0.7900008183
0.7900009826
0.7900010696
0.7900011537
0.7900011512
0.7900010976
0.7900010214
0.79000096
0.7900009323
0.790000941
0.7900009735
0.7900010116
0.7900010312
0.7900010187
0.7900009532
0.7900009857
0.7900009257
0.7900007569
0.790000556
0.7900004213
0.790000387
0.790000355
0.7900001652
0.7899996584
0.7899988213
0.7900008381
0.7900007896
0.7900007581
0.7900007392
0.7900006741
0.790000673
0.7900006619
0.7900006742
0.7900007349
0.7900008217
0.7900009104
0.7900009837
0.7900010205
0.7900009627
0.7900008592
0.7900007736
0.7900007332
0.7900007355
0.7900007707
0.7900008249
0.7900008842
0.7900009207
0.7900009412
0.7900008937
0.7900010016
0.7900010204
0.7900008806
0.7900006403
0.7900003917
0.7900002325
0.7900001134
0.7899998252
0.7899991972
0.7899983028
0.7900008486
0.7900007857
0.7900007442
0.7900007032
0.790000604
0.7900006397
0.7900006541
0.7900006829
0.7900007578
0.7900008622
0.7900009408
0.7900009597
0.7900008911
0.7900007594
0.7900006415
0.7900005669
0.7900005415
0.7900005533
0.790000601
0.7900006725
0.7900007499
0.7900008003
0.7900008551
0.7900008256
0.7900009207
0.7900010066
0.7900009147
0.7900006756
0.7900003707
0.7900000938
0.7899998541
0.7899994744
0.7899988579
0.7899981454
0.790000854
0.7900007624
0.7900006951
0.7900006328
0.7900005216
0.7900005649
0.7900006005
0.7900006581
0.790000765
0.790000895
0.790000965
0.7900009058
0.7900007068
0.7900005286
0.7900004195
0.7900003657
0.7900003567
0.7900003701
0.7900004276
0.7900005157
0.7900006089
0.7900006651
0.7900007095
0.7900006585
0.7900006669
0.7900007145
0.7900006379
0.7900004087
0.7900000965
0.7899997975
0.7899995015
0.7899991119
0.7899986305
0.7899981649
0.7900008566
0.7900007381
0.7900006422
0.7900005644
0.7900004658
0.7900004856
0.7900005348
0.7900006251
0.7900007693
0.7900009127
0.7900009531
0.7900008003
0.7900005171
0.7900003393
0.7900002481
0.7900001994
0.7900001944
0.7900001827
0.7900002437
0.790000354
0.7900004623
0.7900005104
0.7900004807
0.7900003576
0.7900002873
0.7900001995
0.7899999931
0.7899997211
0.7899994781
0.7899992766
0.7899990571
0.7899987791
0.7899984751
0.7899982081
0.790000866
0.7900007421
0.7900006245
0.7900005329
0.7900004576
0.7900004432
0.7900005046
0.7900006246
0.7900007908
0.7900009088
0.7900008672
0.7900006122
0.7900003019
0.7900001646
0.790000101
0.7900000478
0.7900000454
0.7899999577
0.7900000085
0.7900001697
0.7900003093
0.7900003444
0.7900002558
0.7900000777
0.7899999225
0.7899997657
0.7899995633
0.7899993289
0.7899991007
0.7899989117
0.7899987459
0.7899985706
0.7899983919
0.7899982498
0.7900008282
0.790000722
0.7900005933
0.7900004732
0.7900003766
0.790000366
0.7900004443
0.7900005882
0.7900007584
0.7900008318
0.7900006777
0.7900003729
0.7900001139
0.7900000104
0.7899999787
0.7899999095
0.789999908
0.7899996707
0.789999647
0.7899999389
0.7900001422
0.7900001464
0.7899999877
0.7899997847
0.7899996131
0.7899994527
0.789999282
0.7899990843
0.7899988689
0.789998691
0.7899985723
0.7899984725
0.7899983711
0.7899983004
0.7900007157
0.7900006737
0.7900005829
0.7900004628
0.7900003565
0.7900003579
0.7900004484
0.7900006169
0.7900007246
0.7900006826
0.7900004393
0.7900001827
0.790000009
0.7899998854
0.7899998764
0.7899997914
0.7899997905
0.7899994017
0.7899993132
0.7899998392
0.7900000073
0.7899999121
0.7899997085
0.7899995514
0.7899994388
0.7899993235
0.7899991895
0.7899990186
0.7899988135
0.7899986393
0.7899985409
0.7899984748
0.7899984079
0.7899983706
0.7900005991
0.7900005866
0.7900005598
0.7900004843
0.7900004124
0.7900004437
0.7900005721
0.7900006665
0.7900006666
0.7900005036
0.790000252
0.7900000414
0.7900000542
0.7899998596
0.7899997954
0.7899995695
0.7899993184
0.7899985947
0.7899964179
0.7899987272
0.7899994537
0.7899995214
0.7899994401
0.7899994048
0.7899993579
0.7899992745
0.7899991678
0.7899990299
0.7899988538
0.7899986965
0.7899986075
0.7899985465
0.7899984861
0.7899984598
0.7900004527
0.7900004245
0.7900004386
0.7900004313
0.7900004496
0.7900005062
0.7900005651
0.7900005065
0.7900005164
0.7900002922
0.790000087
0.7899999617
0.7900002484
0.7900000602
0.7899999302
0.7899999045
0.7900000142
0.7900002118
0.7900003708
0.7900003396
0.7899999875
0.7899995323
0.7899993778
0.7899993806
0.7899993627
0.7899992925
0.7899991944
0.7899990817
0.7899989406
0.7899988099
0.7899987277
0.7899986547
0.7899985857
0.7899985595
0.7900002685
0.7900002654
0.7900002879
0.7900003128
0.7900003989
0.7900004173
0.7900003627
0.7900003659
0.7900003377
0.79000011
0.7900000131
0.7900000315
0.7900004487
0.7900003216
0.7900001146
0.7899999373
0.789999879
0.7899997959
0.7899997335
0.7899998515
0.7899995817
0.7899992887
0.7899993034
0.7899993831
0.7899993932
0.7899993347
0.789999243
0.7899991456
0.7899990415
0.789998942
0.7899988661
0.789998769
0.7899986852
0.7899986566
0.7900000696
0.7900000978
0.7900001359
0.7900001666
0.7900002217
0.7900001677
0.7900001002
0.7900001991
0.7900001525
0.7900000566
0.7900001235
0.79000025
0.7900006041
0.7900005588
0.7900003556
0.7900001644
0.7900000669
0.7900001058
0.7900001707
0.789999991
0.7899994353
0.7899991673
0.7899992649
0.7899993773
0.7899994035
0.7899993564
0.7899992802
0.7899992077
0.7899991443
0.789999073
0.7899989969
0.7899988584
0.7899987588
0.7899987331
0.7899998512
0.7899999352
0.7899999981
0.790000011
0.78999998
0.7899998798
0.7899998424
0.789999958
0.790000066
0.7900001971
0.7900003322
0.790000456
0.7900006809
0.7900006932
0.7900005077
0.790000303
0.7900001283
0.7900000064
0.7899999497
0.7899996958
0.7899991581
0.7899990203
0.7899991906
0.7899993206
0.7899993539
0.7899993225
0.7899992827
0.7899992586
0.7899992442
0.7899991918
0.7899990986
0.7899988862
0.7899987668
0.7899987611
0.7899996586
0.789999783
0.7899998599
0.7899998465
0.7899997558
0.7899996591
0.7899996599
0.7899998409
0.7900001153
0.7900003585
0.7900004522
0.7900004669
0.7900005408
0.7900005902
0.7900004388
0.7900002684
0.7900001047
0.7899999394
0.7899997258
0.789999272
0.789998813
0.7899988645
0.7899990917
0.7899992167
0.7899992411
0.7899992367
0.7899992632
0.7899993082
0.7899993378
0.7899992908
0.7899991535
0.7899988382
0.7899986615
0.7899986913
0.789999238
0.7899995633
0.7899997107
0.7899997161
0.7899996206
0.7899995484
0.7899995685
0.7899997049
0.7899999459
0.7900002118
0.7900003578
0.7900003739
0.7900003526
0.7900003235
0.7900001237
0.7899999328
0.7899997728
0.7899995829
0.789999115
0.7899985805
0.789998543
0.7899988293
0.7899990883
0.7899991765
0.789999162
0.7899991778
0.7899992642
0.7899993653
0.7899994132
0.789999368
0.7899991627
0.7899988487
0.7899984995
0.7899984808
0.789998623
0.7899991428
0.7899995299
0.7899996333
0.7899995814
0.789999533
0.7899995576
0.7899996675
0.7899998441
0.7900000959
0.7900003092
0.7900003996
0.7900004059
0.7900002692
0.7900000211
0.7899997666
0.7899994991
0.789998968
0.7899984718
0.7899983771
0.7899986866
0.7899989724
0.7899992289
0.7899993101
0.7899992432
0.7899992226
0.789999289
0.7899994021
0.7899994473
0.789999434
0.7899992114
0.789999267
0.789998657
0.7899982486
0.7899976339
0.7899980656
0.7899986911
0.7899992872
0.78999949
0.7899995157
0.7899995583
0.7899996905
0.7899998724
0.7900000805
0.7900002846
0.7900003796
0.7900004436
0.7899999486
0.7899996975
0.7899994423
0.7899989396
0.7899984779
0.7899984235
0.7899986849
0.7899989913
0.7899991817
0.7899994312
0.7899995537
0.7899994815
0.7899993856
0.7899993396
0.7899993943
0.789999431
0.7899995437
0.7899995615
0.7900003173
0.7899996173
0.7899984195
0.7899968708
0.789996978
0.7899971081
0.7899975764
0.7899982611
0.7899986565
0.7899989185
0.7899994099
0.7899998183
0.7899999928
0.7900000043
0.7899999189
0.7899998688
0.7899990996
0.7899989307
0.7899986944
0.7899984554
0.7899984319
0.7899987908
0.789999127
0.7899993104
0.7899994231
0.7899996824
0.7899998127
0.7899997585
0.7899996431
0.7899994964
0.7899994314
0.7899994942
0.7900000582
0.79000013
0.7900013892
0.7900013782
0.7899999531
0.7899966649
0.789995612
0.7899958222
0.7899958107
0.7899959082
0.7899962055
0.7899968894
0.7899976058
0.7899982739
0.7899992346
0.78999929
0.78999896
0.7899986143
0.7899986939
0.789998565
0.7899986088
0.7899985299
0.789998539
0.7899988111
0.7899992611
0.7899995102
0.789999589
0.7899996916
0.7899999379
0.7900000562
0.7900000118
0.7899999016
0.7899997256
0.7899995128
0.7899993818
0.7899994091
0.7899993296
0.7899998593
0.7899991642
0.7899989926
0.7899965718
0.7899962254
0.7899958624
0.7899957784
0.7899957302
0.7899958492
0.7899963504
0.7899975969
0.7899976125
0.7899974895
0.7899978156
0.7899975035
0.789997187
0.7899976696
0.7899984094
0.7899987476
0.7899987568
0.7899989044
0.7899992662
0.7899996461
0.7899997964
0.7899998236
0.7899998943
0.7900000959
0.7900002174
0.7900001976
0.7900001062
0.7899999483
0.7899997008
0.7899994338
0.7899993434
0.7899992381
0.7899996085
0.7899992354
0.7899997826
0.7899964153
0.789996047
0.7899954632
0.7899955784
0.7899954985
0.7899957132
0.7899958057
0.7899960168
0.78999609
0.7899961896
0.7899961695
0.7899961862
0.7899964718
0.7899972447
0.789998369
0.7899991117
0.7899992149
0.789999311
0.789999637
0.789999922
0.7900000085
0.7899999889
0.7900000103
0.790000161
0.790000275
0.7900002747
0.7900002105
0.7900000879
0.7899998639
0.7899995568
0.7899993796
0.7899995378
0.7899999607
0.790000175
0.7900004687
0.7899962569
0.7899962329
0.7899961648
0.7899960645
0.7899959606
0.7899959266
0.7899958897
0.7899959072
0.7899958441
0.7899958588
0.7899959516
0.7899961928
0.7899966772
0.7899974931
0.7899985751
0.7899994637
0.7899996858
0.7899997167
0.7899999564
0.7900001123
0.7900001472
0.7900001432
0.7900001846
0.7900002989
0.7900003218
0.7900002332
0.7900000947
0.7899999358
0.7899997339
0.789999551
0.7899996102
0.789999946
0.7900002801
0.7900005579
0.7900008763
0.7899964048
0.7899962465
0.7899962285
0.7899961415
0.7899960884
0.7899960508
0.7899960373
0.7899960735
0.7899962019
0.7899964525
0.7899968697
0.7899974879
0.7899983038
0.7899991909
0.789999875
0.790000102
0.7900001397
0.7900002964
0.79000039
0.7900003984
0.7900003004
0.7900002589
0.790000308
0.7900002314
0.7900001224
0.7900000128
0.7899999393
0.7899998808
0.7899998609
0.7900000142
0.7900001262
0.7900004063
0.7900007774
0.7900009346
0.7899968267
0.7899967281
0.7899965955
0.7899964827
0.7899964007
0.7899964013
0.7899964709
0.7899966244
0.7899969017
0.7899973204
0.7899978754
0.7899985366
0.7900001356
0.7900000705
0.789999995
0.7899998873
0.7899998333
0.7900001022
0.7900002186
0.7900003149
0.7900006028
0.7900007814
0.7900007469
0.7899968736
0.7899968045
0.7899967993
0.7899969062
0.7899971262
0.7899974596
0.7900013695
0.7900014086
0.7900014574
0.7900015197
0.7900015676
0.7900016066
0.7900016249
0.7900016377
0.7900016366
0.7900016179
0.7900015868
0.7900015615
0.79000155
0.7900015419
0.7900015473
0.7900015648
0.790001582
0.7900015885
0.7900015837
0.790001572
0.7900015599
0.7900015533
0.7900015536
0.7900015577
0.7900015615
0.7900015631
0.7900015621
0.7900015584
0.7900015497
0.7900015286
0.7900014775
0.790001357
0.7900010919
0.7900005052
0.79000132
0.7900013715
0.7900014183
0.7900014538
0.7900014652
0.7900014567
0.7900014621
0.7900014814
0.7900015005
0.7900015024
0.7900014924
0.790001484
0.7900014684
0.7900014643
0.7900014728
0.790001487
0.7900014898
0.7900014779
0.7900014563
0.7900014281
0.7900013974
0.7900013707
0.7900013518
0.7900013399
0.7900013319
0.7900013264
0.7900013242
0.7900013262
0.7900013308
0.7900013312
0.7900013065
0.7900011994
0.7900008841
0.7900001976
0.7900012726
0.7900013099
0.7900013237
0.7900013094
0.7900012791
0.790001242
0.7900012389
0.7900012605
0.7900012907
0.7900013137
0.7900013305
0.7900013053
0.7900012732
0.7900012747
0.7900012918
0.7900013299
0.7900013622
0.7900013666
0.7900013493
0.7900013202
0.7900012847
0.7900012488
0.7900012162
0.7900011878
0.7900011628
0.7900011418
0.7900011283
0.7900011244
0.7900011289
0.790001136
0.7900011261
0.7900010379
0.79000071
0.7899998694
0.7900011952
0.7900012057
0.7900011752
0.7900011128
0.7900010439
0.7900010011
0.7900010063
0.7900010458
0.7900010934
0.7900011428
0.7900011708
0.7900010894
0.7900010603
0.7900010792
0.7900011093
0.7900011505
0.7900012085
0.7900012466
0.7900012495
0.7900012303
0.7900011983
0.7900011586
0.7900011138
0.7900010672
0.7900010224
0.790000981
0.7900009501
0.7900009332
0.7900009293
0.7900009323
0.7900009248
0.7900008511
0.7900005614
0.7899996834
0.7900010968
0.7900010715
0.7900009813
0.7900008702
0.7900007638
0.7900007306
0.79000076
0.7900008399
0.7900009244
0.7900010035
0.7900010221
0.790000867
0.7900008429
0.7900008756
0.7900009276
0.7900009829
0.7900010479
0.7900011108
0.7900011396
0.79000114
0.7900011204
0.7900010838
0.7900010318
0.790000969
0.7900009062
0.7900008426
0.7900007912
0.7900007572
0.7900007383
0.7900007266
0.790000703
0.7900006124
0.790000339
0.789999671
0.7900009886
0.790000909
0.7900007604
0.7900006183
0.7900004719
0.7900004647
0.7900005181
0.7900006339
0.7900007645
0.7900008745
0.7900008917
0.7900006243
0.7900006714
0.7900007013
0.7900007595
0.7900008205
0.7900008881
0.7900009581
0.7900010065
0.7900010303
0.7900010306
0.7900010055
0.7900009544
0.7900008799
0.7900007987
0.790000712
0.7900006424
0.7900005924
0.7900005589
0.7900005252
0.790000466
0.7900003109
0.7899999423
0.7899993166
0.7900008698
0.7900007398
0.7900005636
0.7900003906
0.7900002122
0.7900002376
0.7900003109
0.7900004463
0.7900006052
0.7900007397
0.790000792
0.7900002445
0.7900005755
0.7900005968
0.7900006331
0.7900006715
0.7900007238
0.7900007861
0.7900008453
0.7900008911
0.7900009155
0.7900009082
0.7900008675
0.7900007853
0.7900006695
0.7900005662
0.7900004834
0.790000418
0.790000379
0.7900003262
0.7900002195
0.7899999628
0.7899994004
0.7899986222
0.7900007542
0.7900006002
0.7900004108
0.7900002176
0.7900000172
0.7900000718
0.7900001614
0.7900003058
0.7900004827
0.7900006678
0.7900007771
0.790000713
0.7900006699
0.7900005943
0.7900005413
0.7900005224
0.7900005431
0.7900005934
0.7900006607
0.7900007262
0.7900007746
0.7900007874
0.790000765
0.7900006754
0.7900005065
0.7900003901
0.7900003051
0.7900002209
0.7900001724
0.7900001122
0.7899999592
0.7899996002
0.7899988895
0.789998065
0.7900006676
0.7900005072
0.7900003134
0.7900001105
0.7899999009
0.7899999707
0.7900000701
0.7900002152
0.7900003972
0.7900005985
0.7900007281
0.7900006956
0.7900005966
0.7900004672
0.7900003707
0.7900003272
0.7900003368
0.7900003838
0.7900004622
0.7900005456
0.7900006142
0.7900006442
0.7900006398
0.7900005383
0.7900003237
0.790000191
0.7900001016
0.7899999947
0.7899999225
0.7899998569
0.7899996696
0.7899992539
0.7899985678
0.7899978898
0.7900006286
0.7900004657
0.7900002714
0.790000069
0.7899998666
0.7899999309
0.7900000294
0.7900001701
0.7900003483
0.7900005454
0.7900006531
0.7900005776
0.7900004092
0.7900002568
0.7900001597
0.7900001159
0.7900001287
0.7900001685
0.7900002547
0.790000357
0.7900004395
0.7900004776
0.7900004749
0.790000373
0.7900001616
0.7900000055
0.7899998867
0.7899997471
0.7899996514
0.7899995563
0.7899993468
0.7899989427
0.7899983906
0.7899979311
0.7900006051
0.7900004529
0.7900002692
0.7900000813
0.7899999028
0.7899999422
0.7900000283
0.790000161
0.7900003296
0.7900005053
0.7900005528
0.7900004098
0.7900002091
0.7900000604
0.7899999705
0.7899999249
0.7899999419
0.7899999495
0.7900000319
0.7900001583
0.7900002546
0.79000029
0.7900002665
0.7900001813
0.7900000466
0.789999899
0.7899997405
0.7899995586
0.7899993913
0.7899992381
0.789999023
0.7899986841
0.7899982852
0.7899979992
0.790000569
0.7900004376
0.7900002756
0.7900001106
0.7899999641
0.789999972
0.7900000421
0.7900001677
0.790000326
0.7900004581
0.7900004153
0.7900002142
0.790000026
0.7899998908
0.7899998162
0.7899997589
0.7899997758
0.7899997009
0.7899997315
0.7899999303
0.7900000596
0.7900000892
0.7900000362
0.7899999333
0.7899998151
0.7899996629
0.7899994729
0.7899992695
0.7899990893
0.7899989365
0.7899987548
0.7899985011
0.7899982248
0.7899980545
0.7900005146
0.7900004077
0.7900002707
0.7900001246
0.7900000012
0.7899999906
0.7900000554
0.7900001832
0.7900003384
0.7900003904
0.7900002471
0.7900000415
0.7899998765
0.7899997576
0.7899997073
0.7899996297
0.789999609
0.7899993875
0.7899992035
0.7899996449
0.7899998539
0.7899998793
0.7899997925
0.7899996718
0.789999543
0.7899993869
0.7899992054
0.7899990219
0.7899988576
0.7899987234
0.789998585
0.7899984056
0.789998212
0.7899981093
0.7900004388
0.7900003632
0.7900002606
0.7900001386
0.7900000354
0.7900000231
0.7900000913
0.7900002252
0.7900003595
0.7900002875
0.7900000861
0.7899999017
0.7899997668
0.789999661
0.7899996391
0.7899995622
0.7899994035
0.7899990739
0.7899981728
0.7899994259
0.789999699
0.7899996681
0.7899995538
0.7899994455
0.789999337
0.7899991984
0.7899990342
0.7899988793
0.7899987468
0.7899986392
0.7899985353
0.7899984018
0.7899982509
0.7899981768
0.790000335
0.7900002822
0.7900002179
0.7900001335
0.7900000598
0.7900000555
0.790000127
0.7900002643
0.7900003089
0.7900001582
0.78999996
0.789999792
0.7899996793
0.7899995907
0.7899995793
0.7899995647
0.7899989857
0.7900014249
0.7899967715
0.7899981559
0.7899989945
0.7899992731
0.7899993065
0.7899992809
0.7899992244
0.7899991152
0.7899989692
0.7899988416
0.7899987472
0.7899986686
0.7899985859
0.7899984706
0.7899983312
0.7899982593
0.7900001971
0.7900001574
0.7900001215
0.7900000782
0.7900000415
0.7900000471
0.7900001168
0.790000194
0.7900001808
0.7900000248
0.7899998496
0.7899997031
0.7899995965
0.7899995685
0.7899996224
0.789999734
0.789999815
0.7899999301
0.7899999484
0.7900000678
0.7899997735
0.7899994252
0.789999268
0.7899992391
0.7899992127
0.7899991335
0.7899990108
0.7899989015
0.789998834
0.7899987762
0.7899987016
0.7899985839
0.7899984358
0.7899983514
0.7900000258
0.7900000046
0.7899999879
0.789999971
0.7899999607
0.7899999652
0.7900000064
0.790000056
0.7900000428
0.7899999159
0.7899997585
0.7899996309
0.7899995218
0.7899995043
0.7899995366
0.7899995993
0.7899996921
0.7899997765
0.7899994029
0.7899995228
0.7899993425
0.7899991793
0.7899991647
0.7899992141
0.789999236
0.7899991955
0.789999108
0.7899990246
0.7899989733
0.7899989248
0.7899988467
0.7899987129
0.7899985453
0.7899984436
0.7899998179
0.789999826
0.7899998286
0.7899998239
0.7899998124
0.7899997925
0.7899998033
0.7899998747
0.789999909
0.7899998321
0.7899997015
0.7899996042
0.7899995011
0.7899994887
0.7899994799
0.7899995927
0.7899997786
0.7899999299
0.7899998921
0.7899996187
0.7899992128
0.7899990454
0.7899990987
0.7899991979
0.7899992576
0.7899992555
0.7899992109
0.7899991642
0.7899991311
0.789999082
0.7899989895
0.7899988312
0.7899986416
0.7899985246
0.789999573
0.7899996299
0.7899996547
0.7899996604
0.7899996366
0.7899996032
0.7899996211
0.7899997136
0.7899998126
0.7899997966
0.7899997172
0.7899995974
0.7899994643
0.7899994689
0.7899994212
0.7899994585
0.7899995504
0.7899995689
0.7899994572
0.7899992088
0.7899989336
0.7899989007
0.7899990321
0.7899991699
0.7899992581
0.7899992922
0.7899992937
0.7899992871
0.7899992729
0.7899992166
0.789999105
0.7899989197
0.7899987115
0.7899985839
0.7899993284
0.7899994492
0.7899995147
0.7899995211
0.7899994869
0.7899994566
0.7899994907
0.7899996112
0.7899997712
0.7899998317
0.789999772
0.7899995724
0.7899993784
0.789999404
0.7899993467
0.7899993289
0.7899993254
0.7899992717
0.7899990957
0.7899988331
0.7899986922
0.7899987903
0.7899989793
0.7899991407
0.7899992462
0.7899993114
0.7899993551
0.7899993825
0.7899993816
0.7899993136
0.7899991896
0.7899989762
0.7899987554
0.7899986143
0.7899989947
0.789999247
0.7899993674
0.7899994087
0.7899993828
0.7899993642
0.7899994216
0.7899995569
0.7899997489
0.7899999131
0.7899999296
0.789999751
0.7899994596
0.7899994437
0.7899993257
0.7899992217
0.7899990988
0.789998938
0.7899986792
0.7899984832
0.7899985365
0.7899987533
0.78999897
0.7899991413
0.789999249
0.7899993319
0.7899994025
0.7899994484
0.7899994526
0.7899993784
0.7899992699
0.7899990143
0.7899987865
0.7899986112
0.7899987428
0.7899990141
0.7899992519
0.7899993475
0.7899993487
0.7899993543
0.7899994358
0.789999591
0.7899997766
0.7899999845
0.7900001042
0.7900000359
0.7899997026
0.789999511
0.7899992726
0.7899990716
0.7899988358
0.7899985849
0.7899983892
0.7899983754
0.7899985659
0.7899988126
0.7899990121
0.7899991794
0.7899992753
0.7899993615
0.7899994365
0.7899994829
0.7899994897
0.7899994455
0.7899993939
0.7899990713
0.7899988239
0.7899985562
0.7899981371
0.7899983761
0.7899987703
0.7899991153
0.7899992645
0.7899993352
0.7899994409
0.7899996521
0.7899998675
0.790000065
0.7900002162
0.79000015
0.78999964
0.7899992314
0.7899990128
0.7899988023
0.7899985624
0.7899983957
0.7899983941
0.7899985202
0.7899987216
0.7899989315
0.7899991221
0.789999273
0.7899993366
0.7899994037
0.7899994583
0.7899994881
0.7899995082
0.7899995651
0.7899995839
0.7899993243
0.7899990586
0.789998472
0.7899976431
0.7899975275
0.7899976405
0.7899980003
0.7899984487
0.7899987807
0.7899990472
0.7899995343
0.7899998472
0.789999932
0.7899998138
0.7899994148
0.7899989662
0.7899986369
0.7899985917
0.7899985013
0.7899984232
0.7899984394
0.7899986131
0.7899988026
0.7899989625
0.7899991793
0.7899993393
0.7899994487
0.789999459
0.7899994645
0.7899994725
0.7899994679
0.7899994775
0.7899995274
0.7899994154
0.7899991366
0.7899991043
0.7899986472
0.7899974383
0.7899978409
0.7899970815
0.7899966657
0.7899965465
0.7899967191
0.7899972261
0.7899978729
0.7899986335
0.7899991976
0.789999041
0.7899984088
0.7899980252
0.7899981968
0.7899983953
0.7899985409
0.7899985389
0.7899985589
0.7899986881
0.7899989429
0.7899991059
0.7899992744
0.7899994258
0.7899995547
0.7899996367
0.7899996201
0.7899995604
0.7899994939
0.7899994469
0.7899994029
0.7899993588
0.7899994296
0.7899992462
0.7899991994
0.7899990737
0.7899971584
0.7899969976
0.789996726
0.7899963567
0.7899962134
0.7899962495
0.7899965293
0.7899975056
0.7899972209
0.7899977653
0.7899976202
0.7899972713
0.7899972206
0.7899977435
0.7899983993
0.789998738
0.7899987857
0.7899988418
0.7899990292
0.789999279
0.7899994061
0.7899995108
0.7899995803
0.7899996775
0.7899997589
0.7899997507
0.7899996649
0.7899995353
0.789999429
0.7899993572
0.7899992732
0.7899992715
0.7899993236
0.7899995918
0.7899995165
0.7899970443
0.7899968885
0.7899975591
0.7899964878
0.789996467
0.789996161
0.7899961569
0.7899963319
0.7899963956
0.7899964226
0.7899964261
0.7899965149
0.789996848
0.7899975701
0.789998491
0.7899990493
0.7899991531
0.7899991916
0.7899993924
0.7899996234
0.7899996971
0.7899997083
0.7899997098
0.7899997673
0.7899998327
0.789999819
0.7899997242
0.7899995725
0.7899994431
0.7899993577
0.7899993075
0.7899993812
0.7899994849
0.7899996398
0.7899997077
0.7899969062
0.7899967692
0.7899966273
0.7899963999
0.7899962703
0.7899961645
0.7899961288
0.7899961699
0.7899962024
0.7899962716
0.7899964018
0.789996658
0.7899971202
0.7899978462
0.7899987427
0.789999391
0.7899995576
0.789999571
0.7899997535
0.789999935
0.7899999761
0.789999934
0.7899999005
0.7899999013
0.7899999183
0.7899998584
0.7899997332
0.7899995738
0.7899994712
0.7899994209
0.7899994728
0.7899995547
0.7899995947
0.7899996883
0.7899996689
0.7899968904
0.7899967565
0.7899965849
0.7899964514
0.7899963508
0.7899963048
0.7899963128
0.7899963847
0.7899965387
0.7899967939
0.7899971853
0.7899977404
0.789998456
0.789999231
0.789999758
0.7899999424
0.7899999516
0.7900000882
0.7900002083
0.7900002121
0.7900001339
0.7900000439
0.7899999742
0.7899999439
0.7899998618
0.7899997409
0.789999619
0.7899995823
0.7899996521
0.7899997112
0.7899996675
0.7899996762
0.7899997029
0.7899995802
0.7899971513
0.7899970172
0.7899968589
0.7899967258
0.7899966307
0.7899966327
0.7899966987
0.7899968508
0.7899971043
0.7899974703
0.7899979544
0.789998541
0.7900000026
0.7899999253
0.7899998241
0.7899997097
0.7899996944
0.7899998558
0.7899998251
0.7899997559
0.7899997518
0.7899997264
0.7899995753
0.7899971423
0.7899970551
0.7899970307
0.7899970869
0.7899972383
0.7899974969
0.7900013741
0.7900014079
0.7900014536
0.7900015089
0.7900015552
0.7900015927
0.7900016111
0.7900016167
0.7900016084
0.7900015879
0.7900015624
0.7900015457
0.7900015435
0.7900015498
0.7900015632
0.7900015782
0.7900015853
0.7900015812
0.7900015686
0.790001552
0.7900015364
0.790001526
0.7900015221
0.7900015226
0.7900015249
0.7900015272
0.7900015286
0.7900015279
0.7900015216
0.7900015006
0.7900014461
0.7900013201
0.7900010529
0.7900004576
0.790001304
0.7900013451
0.7900013881
0.7900014236
0.7900014435
0.7900014488
0.7900014562
0.7900014663
0.7900014721
0.7900014665
0.7900014535
0.7900014442
0.7900014461
0.7900014573
0.7900014676
0.7900014722
0.7900014649
0.7900014462
0.7900014202
0.7900013903
0.7900013599
0.7900013334
0.7900013132
0.7900012994
0.7900012905
0.7900012857
0.7900012851
0.7900012887
0.7900012936
0.7900012909
0.7900012567
0.7900011347
0.7900008173
0.790000153
0.7900012368
0.7900012675
0.790001284
0.7900012802
0.7900012638
0.7900012396
0.7900012352
0.7900012468
0.790001263
0.7900012721
0.7900012682
0.7900012479
0.7900012534
0.7900012837
0.7900013124
0.7900013293
0.7900013321
0.79000132
0.7900012962
0.7900012646
0.7900012292
0.7900011942
0.7900011619
0.7900011336
0.7900011098
0.7900010913
0.7900010798
0.7900010766
0.7900010801
0.7900010823
0.7900010594
0.7900009466
0.7900005986
0.7899998063
0.7900011453
0.7900011549
0.7900011356
0.7900010896
0.7900010373
0.7900009932
0.790000987
0.7900010103
0.7900010436
0.7900010688
0.7900010565
0.7900009965
0.7900009988
0.79000105
0.7900011124
0.7900011561
0.7900011807
0.7900011871
0.7900011762
0.790001152
0.7900011184
0.7900010787
0.7900010355
0.7900009916
0.7900009504
0.7900009143
0.7900008861
0.790000869
0.7900008626
0.7900008599
0.7900008392
0.7900007391
0.7900004146
0.7899995425
0.7900010337
0.7900010173
0.7900009558
0.7900008634
0.7900007685
0.7900007213
0.7900007307
0.7900007804
0.7900008413
0.790000883
0.7900008517
0.7900007285
0.7900007361
0.7900007949
0.790000885
0.7900009588
0.7900010083
0.790001038
0.7900010478
0.7900010394
0.790001015
0.7900009763
0.7900009257
0.7900008677
0.7900008091
0.7900007546
0.790000707
0.7900006709
0.7900006476
0.7900006293
0.7900005936
0.7900004821
0.7900001835
0.7899994828
0.790000913
0.7900008654
0.7900007568
0.7900006039
0.7900004605
0.7900004313
0.790000474
0.7900005658
0.7900006614
0.7900007231
0.7900006835
0.7900005076
0.7900005411
0.7900005881
0.7900006733
0.7900007564
0.7900008198
0.790000868
0.7900008999
0.7900009129
0.7900009048
0.790000874
0.7900008224
0.790000754
0.7900006771
0.7900006073
0.790000543
0.7900004865
0.7900004419
0.7900003986
0.7900003263
0.790000152
0.7899997709
0.78999918
0.790000791
0.79000071
0.7900005463
0.7900003431
0.790000161
0.7900001638
0.7900002402
0.790000371
0.7900005049
0.7900006014
0.7900005783
0.7900005489
0.7900004675
0.7900004674
0.7900005069
0.7900005642
0.790000622
0.7900006781
0.7900007288
0.7900007646
0.7900007776
0.7900007608
0.7900007154
0.7900006384
0.790000537
0.7900004573
0.7900003855
0.7900003126
0.7900002462
0.790000174
0.7900000488
0.7899997627
0.7899991706