/*--------------------------------*- C++ -*----------------------------------*\
  =========                 |
  \\      /  F ield         | OpenFOAM: The Open Source CFD Toolbox
   \\    /   O peration     | Website:  https://openfoam.org
    \\  /    A nd           | Version:  8
     \\/     M anipulation  |
\*---------------------------------------------------------------------------*/
FoamFile
{
    version     2.0;
    format      ascii;
    class       volScalarField;
    location    "1.5";
    object      nut;
}
// * * * * * * * * * * * * * * * * * * * * * * * * * * * * * * * * * * * * * //

dimensions      [0 2 -1 0 0 0 0];

internalField   nonuniform List<scalar> 
67193
(
0.000138867204
0.0001415381198
0.0001486295746
0.000158424184
0.0001712933338
0.000171817226
0.0001712574987
0.0001683088288
0.0001639991166
0.0001598730838
0.0001596771416
0.000171996991
0.0001944866786
0.0001998593851
0.0001903168325
0.0001735121125
0.0001564716962
0.0001440534662
0.0001370628743
0.0001337923931
0.0001326544984
0.0001328060631
0.0001337722845
0.0001351878769
0.0001367655154
0.0001381609461
0.0001390132546
0.0001390390376
0.000137998634
0.0001356271013
0.0001315442417
0.0001251960962
0.000115409465
9.411196513e-05
0.0001675295855
0.0001759715715
0.0001903289715
0.0002074087047
0.0002262465688
0.0002181412015
0.0002115721774
0.0002041778295
0.0001967425135
0.0001919647264
0.0002004366666
0.0002342114729
0.0002638085955
0.0002680240741
0.0002546796294
0.0002313802744
0.0002045087232
0.0001807741156
0.000164811474
0.0001564598012
0.0001529737488
0.0001521361224
0.0001527938124
0.0001542721921
0.0001561417283
0.0001577414247
0.0001583772057
0.0001577047641
0.0001554938458
0.0001514619209
0.000145187917
0.0001359688061
0.0001221532826
9.480369062e-05
0.0001867905533
0.0002047823902
0.0002275283782
0.0002505369793
0.0002715964904
0.0002567010059
0.0002432488577
0.0002295463108
0.0002169837802
0.0002105320774
0.0002299914659
0.0002810849132
0.0003109706745
0.000312673374
0.00029663965
0.0002709687171
0.0002405744708
0.0002103731054
0.0001862219305
0.0001712974661
0.0001640363347
0.0001613254649
0.0001611569652
0.0001624634025
0.0001650600471
0.0001675084028
0.0001680973426
0.0001668799488
0.0001640205763
0.0001592262932
0.0001519866125
0.0001415726693
0.0001260773578
9.385080322e-05
0.0002102991456
0.0002382097174
0.0002671202257
0.0002925878775
0.0003124636062
0.0002957666846
0.0002771244661
0.000256963281
0.0002374344289
0.0002260295767
0.0002510749765
0.0003120103028
0.000341568543
0.0003416407185
0.0003234375952
0.0002952307189
0.0002633809137
0.000231720987
0.0002043400022
0.0001850768624
0.0001739894556
0.000168505222
0.0001665821913
0.0001672300142
0.0001725245533
0.000177788872
0.0001774789803
0.0001739333313
0.0001693591461
0.0001636621085
0.0001558926075
0.0001451454189
0.0001296939715
9.675726644e-05
0.0002391785251
0.0002738847466
0.0003051207781
0.0003308903611
0.0003479954128
0.0003332660646
0.0003120620555
0.0002874717959
0.0002617676743
0.0002421992381
0.0002600572007
0.0003199820709
0.0003500938651
0.0003502822976
0.0003313610709
0.0003024430512
0.0002706954137
0.0002411956059
0.0002159075055
0.0001968926911
0.00018413179
0.0001760493735
0.0001717739762
0.0001719745195
0.0001867723876
0.0001993256102
0.0001962639412
0.0001857982883
0.0001754067153
0.0001666567821
0.0001577241387
0.0001466982329
0.0001318476999
0.0001016055144
0.0002689262071
0.0003061485006
0.0003377878908
0.0003635261472
0.0003781311126
0.0003656014614
0.0003438538037
0.0003172619757
0.0002880258551
0.0002607117503
0.0002587713929
0.0003011359044
0.0003329254377
0.0003354286822
0.0003176986068
0.0002910561317
0.0002637829547
0.0002407533717
0.0002218458185
0.0002066424658
0.0001943761854
0.000184452442
0.0001778848377
0.0001798350248
0.0002153853109
0.0002378757118
0.0002310374051
0.0002100151462
0.0001879697946
0.0001711131574
0.0001585647552
0.0001465750065
0.0001322955181
0.0001051410245
0.000293656762
0.0003310715916
0.0003631552463
0.0003890705912
0.0004017512197
0.000391165289
0.0003691809822
0.0003418585288
0.000311201258
0.0002797119045
0.0002576828823
0.0002670644269
0.000291294063
0.0002970085335
0.0002851945724
0.0002681435187
0.0002526203669
0.0002398676893
0.000228242392
0.000216680383
0.0002049378932
0.0001934446787
0.0001850872049
0.0001930739046
0.0002559619482
0.0002855742203
0.0002754979425
0.0002450097691
0.0002101433824
0.0001805382499
0.0001603176194
0.0001461640651
0.0001333032321
0.0001118645145
0.000309509834
0.0003468269416
0.0003794724243
0.0004051157748
0.0004163281615
0.0004076163357
0.0003859697267
0.0003580699935
0.000326960536
0.000293976471
0.00026258173
0.000245171108
0.000248477711
0.0002546123444
0.0002565996811
0.0002561844176
0.0002534336733
0.0002477142078
0.0002391154887
0.0002281157532
0.0002155457639
0.0002023379227
0.0001927149121
0.0002096897475
0.0002944222335
0.0003251261371
0.0003135191675
0.0002779005472
0.0002342516972
0.0001935053713
0.0001639976789
0.0001473239755
0.0001380174613
0.0001247160505
0.0003150298818
0.0003522901089
0.0003849714375
0.000409859266
0.0004202802436
0.0004130851467
0.0003922515745
0.0003641147139
0.0003325176166
0.0002991065404
0.000266362702
0.0002434711449
0.0002432102345
0.0002542532286
0.0002635600772
0.0002680930424
0.0002672097656
0.0002617385322
0.0002522347176
0.0002392816308
0.000225044314
0.0002102391705
0.0001994518394
0.000220724291
0.0003083678148
0.0003392534375
0.0003274294409
0.0002895632173
0.0002430797185
0.0001988572551
0.000166281834
0.0001509611197
0.0001469943187
0.0001387856381
0.0003102902273
0.0003470858691
0.0003791948688
0.0004033506878
0.0004139741651
0.000407382758
0.0003872339887
0.0003591621632
0.0003271935391
0.0002939996784
0.0002636337098
0.0002473331394
0.000254947111
0.0002699731134
0.0002795435206
0.0002821875251
0.0002795879076
0.0002728398946
0.0002622592473
0.0002482018144
0.0002322765661
0.0002162800556
0.0002037705816
0.0002155279566
0.0002790841192
0.0003102238445
0.0002985497328
0.0002606670645
0.0002186965909
0.0001836639885
0.0001628552756
0.000157019515
0.0001580850744
0.0001503526699
0.0002974845499
0.0003326112827
0.0003633541894
0.0003868997436
0.0003986344409
0.0003915024096
0.0003717378691
0.0003441851054
0.0003123783173
0.0002807964381
0.0002565682405
0.0002536390611
0.0002709838069
0.000285589657
0.0002916912923
0.0002919291238
0.0002876931397
0.0002798708604
0.0002682089716
0.0002531952242
0.0002362149619
0.0002194271227
0.0002053340526
0.0002010664245
0.0002162563595
0.0002245629115
0.0002120980177
0.0001909965628
0.0001735755921
0.000164657314
0.0001636665335
0.000166834239
0.0001695574366
0.0001595270133
0.0002816518149
0.0003133377408
0.000341221625
0.0003631358512
0.0003754579429
0.0003679222462
0.00034961534
0.0003238745316
0.0002926380105
0.0002646218711
0.0002522766347
0.0002655265301
0.0002879694994
0.0002971706102
0.0002995743016
0.0002977254217
0.0002919722577
0.000283444126
0.0002703161285
0.0002540167752
0.0002362607738
0.000218949282
0.0002059458985
0.0002015268314
0.0002024424014
0.0002010355691
0.0001954779153
0.0001874511414
0.0001791249989
0.0001745066135
0.0001756233803
0.0001791977357
0.0001804910223
0.0001670820735
0.0002628002608
0.0002927749566
0.0003187201673
0.000338266719
0.0003493832015
0.0003435183606
0.0003279183762
0.0003029176081
0.0002694302184
0.00024825994
0.000256326765
0.0002828949834
0.0003039483187
0.0003064557508
0.0003044875064
0.00030030468
0.0002928325485
0.0002855907717
0.0002692315859
0.0002509537882
0.0002325849813
0.0002157447338
0.0002081601827
0.0002119810273
0.0002172066768
0.0002174114033
0.0002124202281
0.0002036484429
0.0001937493584
0.0001879146647
0.0001885762383
0.0001912617417
0.0001905154408
0.0001735268354
0.000235298461
0.0002638632007
0.0002929075029
0.0003134137456
0.0003246274433
0.0003197039117
0.0003035685961
0.0002726709186
0.0002390850082
0.0002433221598
0.0002693830175
0.0002970927517
0.0003255683358
0.000320207959
0.0003105091098
0.0003016864575
0.0002915197776
0.0002997434509
0.0002696914048
0.0002453971615
0.0002259149938
0.0002116556414
0.0002147511003
0.0002283855177
0.0002371003068
0.0002371502392
0.000230404381
0.0002194222169
0.0002075368727
0.0002003956754
0.0002004859711
0.0002022741292
0.0001995531664
0.0001790831537
0.0002217757649
0.0002333934852
0.0002585970142
0.0002840375781
0.0002999486074
0.0002946820425
0.0002740897733
0.0002428729489
0.0002268230184
0.0002532270544
0.0002828346504
0.0003144302171
0.0003608452958
0.0003486541009
0.0003271230929
0.0003076405074
0.0002913357034
0.0003819009789
0.0003155754956
0.0002430710264
0.0002181580428
0.0002102527848
0.0002277165579
0.0002481563257
0.0002572953493
0.0002551315666
0.0002451724723
0.0002314123047
0.0002180916838
0.0002106875219
0.0002109383347
0.0002121520915
0.0002075954817
0.0001838087129
0.0002216091304
0.0002229385751
0.0002329372322
0.0002533650722
0.0002716345409
0.0002649824643
0.0002421035755
0.0002170621388
0.0002339464926
0.0002668827477
0.0003045623644
0.0003497403287
0.0004069118024
0.0003931012513
0.0003633417338
0.0003287052623
0.0002967567136
0.0002747334925
0.0002496088036
0.0002271021946
0.0002090491949
0.0002149054679
0.0002453561981
0.0002672548785
0.0002738002745
0.0002688699113
0.0002560424754
0.0002394662228
0.0002253638866
0.0002189367529
0.0002201885306
0.0002210045558
0.0002145742127
0.0001876595749
0.0002205120984
0.000218904976
0.000219189089
0.0002270295791
0.0002410875313
0.0002337446761
0.0002190077436
0.0002174852831
0.0002471896923
0.000291278316
0.0003482823104
0.0004070123471
0.0004574469973
0.0004434401643
0.0004104162519
0.0003683352278
0.0003234094352
0.000282408682
0.0002496126342
0.0002215602868
0.0002052914656
0.0002253155569
0.0002621317383
0.0002802726536
0.000283610866
0.00027615264
0.0002611572275
0.0002434429958
0.0002298053853
0.0002257577022
0.000228762271
0.0002289198749
0.0002203006866
0.0001905274199
0.0002166550595
0.0002140215241
0.0002106137307
0.0002115913966
0.0002196400699
0.0002199180245
0.0002210916239
0.000230111138
0.0002693408432
0.0003352204427
0.0004089631336
0.0004709187684
0.0005087764989
0.000492780531
0.0004556023387
0.00040975436
0.0003591888239
0.0003070073958
0.0002598706197
0.0002212990052
0.0002057131331
0.0002341441155
0.0002702699244
0.0002845410287
0.0002850352358
0.0002752988454
0.0002590810552
0.0002424978677
0.0002324831804
0.0002321206008
0.0002362970308
0.0002354790482
0.0002245983985
0.0001922995638
0.0002086032916
0.0002051090967
0.000201632479
0.0002061495135
0.0002182637794
0.0002290895376
0.0002337970014
0.0002455501602
0.0003064123587
0.0003897777855
0.000465253354
0.0005229186731
0.000548804523
0.0005310069434
0.0004898879436
0.0004397160777
0.0003864632435
0.0003289371531
0.000270509043
0.000221107044
0.0002041110112
0.000234143387
0.0002672915549
0.0002791042835
0.0002766385333
0.0002647465355
0.0002491983174
0.0002373005403
0.000233777698
0.0002371222528
0.0002428010898
0.0002432180792
0.000228703897
0.0001932163881
0.0001940160421
0.0001926297253
0.0001949361064
0.000205085403
0.0002221768411
0.0002359364414
0.0002384492939
0.0002500880429
0.0003215722735
0.0004131509303
0.0004904896346
0.0005436701001
0.0005623644158
0.000541926443
0.0004966652376
0.0004425978151
0.0003871650582
0.0003271879389
0.0002620928139
0.0002076800704
0.0001941040918
0.0002259292211
0.0002547128403
0.0002638805651
0.0002571248449
0.0002444953526
0.000233961667
0.0002308349687
0.0002343721398
0.0002407769384
0.00025211143
0.0002636686768
0.000239458574
0.0001954943426
0.0001777866174
0.000180231666
0.0001865620907
0.0002005576106
0.0002190552156
0.000233858457
0.000235009986
0.0002337756532
0.0002758123113
0.0003634139794
0.000447335625
0.000511181849
0.0005337381546
0.0005029822762
0.0004453626286
0.0003805918405
0.0003136635598
0.0002499690789
0.0001974740375
0.0001702820511
0.0001870852949
0.0002226774553
0.0002477743858
0.0002501611765
0.0002380845948
0.0002273476461
0.000222887053
0.0002266483457
0.0002343997959
0.0002456705264
0.0002764736588
0.0003146834584
0.0002733841813
0.0002076224303
0.0001731251497
0.0001670310071
0.00017319511
0.0001879474432
0.0002054870373
0.0002195117059
0.0002217841012
0.0002201114638
0.0002309343831
0.0002928926938
0.0003746387696
0.0004377172818
0.0004671657285
0.000425729472
0.0003677894185
0.0003022787907
0.0002400425284
0.0001851829199
0.0001558702696
0.0001676489388
0.0002069982923
0.0002447585128
0.0002716917996
0.0002701561656
0.0002539719473
0.0002372832498
0.0002261361682
0.0002251832378
0.0002336177272
0.0002610626798
0.0003341241431
0.0003956138351
0.0003411209095
0.0002436012487
0.0002025522268
0.0001748727163
0.0001617043324
0.0001682430015
0.000183493729
0.0001962998284
0.0002004060503
0.0002015991501
0.0002027934951
0.0002292815994
0.0002955025251
0.0003576298576
0.0003949065933
0.0003283007513
0.0002744086503
0.000226384566
0.00018263641
0.0001534951039
0.0001561145177
0.0001994341099
0.0002470330151
0.0002839780655
0.0003101742165
0.000307771501
0.0002894029787
0.000264659422
0.0002406883447
0.0002272144653
0.0002348160936
0.000304149392
0.0004148444639
0.000482984601
0.0004274186232
0.0003025342843
0.0002452441796
0.0002023033787
0.0001741416727
0.000158590107
0.0001574260874
0.0001642447732
0.0001703550404
0.0001750081598
0.0001769232847
0.0001841539333
0.0002202388796
0.0002649494694
0.0003014699575
0.0002346550504
0.0002035850146
0.0001793540127
0.0001592472349
0.0001515403936
0.0001897526189
0.0002452391736
0.0002910557983
0.000326006799
0.0003479635152
0.0003429541818
0.0003232726826
0.0002960712045
0.0002640357161
0.000236020621
0.0002445200996
0.0003485639534
0.0004575985305
0.0005332372969
0.0004923521603
0.0003608311867
0.0002703060202
0.0002814857542
0.0002230700433
0.0001907858729
0.0001728549592
0.0001623837999
0.0001654750155
0.0001804979572
0.0001674716797
0.0001525221479
0.0001478034843
0.0001592024893
0.0001740765166
0.000196185068
0.0001904223341
0.0001732681698
0.0001605581379
0.0001523810085
0.0001714147174
0.0002314822872
0.0002860491182
0.0003303485848
0.0003640744372
0.0003801126551
0.0003721815222
0.0003510147105
0.0003226472332
0.0002903887516
0.0002553689337
0.0002265734789
0.0002197027838
0.0002576591515
0.0003693895792
0.0003099539972
0.000195669962
0.0002779067689
0.0002630920712
0.0002369478775
0.0002103931415
0.0001933846551
0.0001811711177
0.0001864591305
0.0002469198319
0.0002325632329
0.000182588456
0.0001545769277
0.0001371087326
0.0001265369844
0.000127304652
0.0001403328097
0.0001390158598
0.0001441687927
0.000153586423
0.0001920167718
0.0002558712996
0.0003082597318
0.0003540697422
0.0003856916824
0.0003979083888
0.0003888980292
0.0003675260565
0.0003385609219
0.0003063322948
0.0002704460521
0.0002318746501
0.0002001076816
0.000195872607
0.0002655101535
0.0002225971499
0.0002034899619
0.0002759765541
0.0002631056783
0.000265646621
0.0002315386475
0.000214410539
0.0001995092071
0.0001911391267
0.0001903498204
0.000180312445
0.0001660885838
0.0001547256189
0.0001452505922
0.0001363145518
0.0001283168145
0.0001256202454
0.0001306060984
0.0001417274923
0.000153734701
0.0001859054486
0.0002463276541
0.0003009707291
0.0003506472152
0.0003850605122
0.000396898215
0.0003872680757
0.0003659176045
0.0003369584325
0.0003050467679
0.000270734335
0.0002316830987
0.0001955618468
0.0002004447561
0.0002367083911
0.0002412642865
0.0002254042836
0.0002516850784
0.0002461713163
0.000240481667
0.0002298551365
0.0002191086441
0.0002104759686
0.0002012971715
0.0001912292145
0.0001812474237
0.0001720023225
0.0001631098564
0.0001542604199
0.000145360456
0.0001371449638
0.0001316464764
0.0001329468954
0.0001417207093
0.0001506859791
0.0001612186812
0.0002038291829
0.0002551152458
0.0003067848756
0.0003511307999
0.0003691804929
0.0003573332963
0.0003315598239
0.0002989316422
0.0002635780804
0.0002288751742
0.0001973714606
0.0001926960193
0.000242550391
0.0002691113445
0.0002640486537
0.000241166018
0.0002507532905
0.0002462385153
0.0002386764884
0.0002286110461
0.0002171240349
0.0002058730152
0.0001951522594
0.0001851858604
0.0001757384147
0.0001666527974
0.0001580679163
0.0001504884019
0.0001446135542
0.0001408670998
0.0001411529601
0.0001470718493
0.0001552030198
0.0001673814051
0.0001946936801
0.0002255359603
0.0002506910976
0.0002919346438
0.0003251036061
0.0003145513131
0.0002897991398
0.0002611581703
0.0002342069385
0.0002102051904
0.0001966175604
0.0002273111128
0.0002733060007
0.0002907032515
0.0002803836448
0.0002521421818
0.0002645038085
0.0002582577036
0.0002491463605
0.0002376577213
0.0002243553684
0.0002110559257
0.0001990854242
0.0001881296595
0.000178023209
0.0001690306304
0.0001617275441
0.0001566162332
0.0002609546919
0.0002418005993
0.0002177605164
0.0001953224165
0.0001810768902
0.0002144215027
0.0002529835834
0.0002826195302
0.0002951471987
0.0002949369961
0.0002621327817
0.0002558842152
0.0002414478083
0.0002259626573
0.0002117185685
0.00019914268
0.0001879645269
0.0001624957784
0.0001598873371
0.0001618376706
0.0001665482834
0.0001733736798
0.0001772855991
0.0001786431908
0.0001772096678
0.0001739886529
0.0001710227803
0.0001702620113
0.0001739134131
0.0001801447949
0.0001792496658
0.0001712642176
0.0001615998435
0.000154805371
0.0001516685748
0.0001505270075
0.0001501582611
0.0001504696179
0.0001515686806
0.0001532658647
0.0001551389425
0.0001567544846
0.0001576519122
0.0001574561949
0.0001558704524
0.0001526515906
0.0001475937782
0.0001404605487
0.0001309911632
0.0001182886232
9.321784399e-05
0.0004674845473
0.0004403542342
0.0004372340921
0.0004576951459
0.0004856398008
0.0005111974278
0.0005112753113
0.0005024144773
0.0004859088266
0.0004724367707
0.000472902971
0.0005010910845
0.0005316710042
0.0005187077675
0.0004659090198
0.0004110544477
0.0003851905727
0.0003870523328
0.0004004019057
0.000413956012
0.0004264451322
0.0004399998647
0.0004550896564
0.0004697117508
0.0004805541862
0.0004841999005
0.0004783221902
0.0004608644955
0.0004301608456
0.000386036751
0.0003307589119
0.0002701967019
0.0002089872188
9.585666241e-05
0.0005347769268
0.0005142521928
0.0005306510515
0.0005886347353
0.0006488540997
0.0006768708316
0.0006586895354
0.000633952292
0.0006071762115
0.0005970947524
0.0006381228005
0.0007471011887
0.0008237277589
0.0008159849479
0.0007377943312
0.0006146141666
0.0005146081666
0.0004699926391
0.000467336504
0.0004840401611
0.0005072178808
0.0005325778757
0.0005585434671
0.0005829129171
0.0006008031891
0.0006085559177
0.0006038344205
0.0005837489091
0.0005445659527
0.0004841774224
0.0004051991461
0.0003174357958
0.0002319375172
9.487005353e-05
0.0005533942808
0.0005546611044
0.0006149035969
0.0007261447866
0.000797900042
0.0008194603851
0.0007723156939
0.0007138121175
0.0006688032738
0.0006711851538
0.00077365038
0.0009371820759
0.001016874654
0.001005852322
0.0009159427398
0.000792361586
0.000654050511
0.0005561009583
0.0005204537144
0.0005233223728
0.0005427303036
0.000568587238
0.0005969029472
0.0006257835002
0.0006471488502
0.000658169161
0.0006545970564
0.0006348112053
0.000595287239
0.0005308274066
0.0004417526126
0.0003397594387
0.0002407334953
9.438722224e-05
0.0005691103413
0.0006139189274
0.0007392187175
0.0008578795139
0.0009133070519
0.0009217596537
0.000881699006
0.0007954853337
0.000714429638
0.000714998582
0.0008500766384
0.001030416211
0.001111187611
0.001104900171
0.00102200694
0.0008974738965
0.0007751189795
0.0006567360462
0.0005933907414
0.0005728740267
0.0005744078206
0.000587568931
0.0006087277016
0.0006397174209
0.0006686456964
0.0006874031331
0.0006777358519
0.0006472031268
0.0006029645635
0.0005386372211
0.0004485241539
0.0003421719749
0.0002388159364
9.696410235e-05
0.000605772766
0.0007164191467
0.0008710354223
0.000988051359
0.001038904543
0.001033957837
0.000981965997
0.0008929553283
0.0007754514276
0.0007363657147
0.0008463497916
0.001024615024
0.0011030776
0.001111341303
0.001055663959
0.000962049993
0.0008667000739
0.0007631974292
0.0006903745574
0.0006459801605
0.0006198474053
0.000609595318
0.0006187593895
0.0006621908662
0.0007258131085
0.0007666805383
0.0007363278913
0.0006643239865
0.0005899159198
0.0005172295207
0.0004286388092
0.0003243483131
0.000223270595
9.835564557e-05
0.0006760219056
0.0008338740849
0.0009945351482
0.001107329967
0.001155834195
0.001145632981
0.001084264633
0.0009835773308
0.0008581049074
0.0007507628053
0.000790896616
0.00096485786
0.001027793727
0.001066512162
0.00105666293
0.001011619678
0.0009480709175
0.0008747404569
0.0008055502543
0.0007409035303
0.0006825312947
0.0006439895408
0.0006451997653
0.0007274797425
0.0008540796041
0.0009038878845
0.0008505181695
0.0007288685967
0.0005856986427
0.000482066036
0.0003915014625
0.0002944332378
0.0002012654257
0.0001030455111
0.0007718076518
0.0009332923834
0.001089332778
0.001193203631
0.001239999399
0.001232157299
0.001171280164
0.001061666446
0.0009248554753
0.000771740969
0.0007315173812
0.0008187897175
0.0009172785443
0.001012692325
0.001063008918
0.001064211268
0.00103169685
0.0009817138708
0.0009186413205
0.0008403699302
0.0007533601944
0.0006887960236
0.0006899155155
0.0008257635588
0.0009924152037
0.0010522163
0.0009740049265
0.0007949676658
0.0005948330484
0.0004449054686
0.0003497645613
0.0002665938744
0.0001917963302
0.0001155078754
0.0008602154479
0.001004024061
0.001144426798
0.001236204439
0.001281494192
0.001279934916
0.001226674728
0.001116837645
0.000974230038
0.0008015446439
0.0007161290325
0.0007775934767
0.0009047367233
0.00103517964
0.001111660285
0.001124148326
0.001101183731
0.001055403387
0.0009917215324
0.0009173320063
0.0008152730853
0.0007318816933
0.000729675844
0.0008846347417
0.001044175049
0.001091255
0.0009963730745
0.000787566799
0.0005681484382
0.0004021921878
0.0003151226156
0.0002554870189
0.0002064983311
0.0001303142224
0.0009327698134
0.001046903466
0.001165413729
0.001244756064
0.001288050407
0.001293655752
0.001249751887
0.001146268432
0.001006541481
0.0008348120776
0.0007622234841
0.0008511665569
0.001011950806
0.001133862116
0.00117942981
0.001181546287
0.001155003587
0.001106274015
0.001037009322
0.0009531556086
0.0008516376451
0.0007557855523
0.0007331319195
0.0008387542914
0.000956329814
0.0009731430653
0.0008596961739
0.0006603718956
0.0004666380411
0.0003517352403
0.0002992414344
0.0002707251094
0.0002397319993
0.0001431098452
0.0009915260065
0.001072236528
0.00116674838
0.001234458371
0.001274484333
0.001286144608
0.001249679345
0.001153655975
0.00102041185
0.000862633695
0.0008455773716
0.000982179734
0.001141124013
0.001212136109
0.001234593304
0.001225738276
0.001192257219
0.001137378633
0.001057369262
0.0009616321362
0.0008532348158
0.0007462254488
0.0006947538642
0.0007206540983
0.0007613976949
0.0007406988036
0.0006212929561
0.0004671685398
0.000362247607
0.0003207129676
0.0003133754861
0.0003148583932
0.0002877945146
0.0001538451921
0.001043918204
0.001090517104
0.001160050998
0.001216335435
0.00125197598
0.001266121618
0.001232891843
0.001140865682
0.00101074164
0.0008921995544
0.0009552413858
0.00113319715
0.001228548532
0.001269240187
0.001276118967
0.001256783884
0.001215869142
0.00115280457
0.001054745275
0.0009407762658
0.0008143142871
0.000701743758
0.0006365662142
0.0006153963193
0.0005937372238
0.0005344987876
0.0004427551324
0.0003627675644
0.0003265446866
0.0003330106225
0.000362500004
0.0003848407508
0.0003474640318
0.0001633646474
0.001096910417
0.001113152554
0.001154376069
0.001195448499
0.001224680632
0.001235781418
0.001201361044
0.001107047797
0.0009616773924
0.0009323023517
0.001083477129
0.001225406355
0.001284082603
0.001309073964
0.001306177546
0.001277611303
0.001237079107
0.001146654007
0.001038476406
0.0008914505335
0.0007421396375
0.0006411479474
0.0006014029095
0.0005934167365
0.0005728148281
0.0005179735058
0.0004437964248
0.0003841897085
0.000366924749
0.0003957114813
0.0004472343543
0.0004753148996
0.0004146397992
0.0001720197155
0.001154820122
0.001154489598
0.001166105654
0.001183584382
0.00119936689
0.001203668097
0.00116399246
0.001054284235
0.00090622986
0.0009971688681
0.001193301613
0.00128284324
0.001314196646
0.001332947291
0.001326893954
0.001297671447
0.001293024307
0.001241529338
0.001034707723
0.0008290855328
0.0006547421993
0.0005833079917
0.0005975241607
0.0006371265093
0.0006445992418
0.0006034416521
0.0005337987103
0.0004705749043
0.0004533620324
0.0004918324423
0.0005526111668
0.0005742114107
0.0004837438606
0.0001798340219
0.001192288351
0.00119806158
0.001196823781
0.001190428915
0.00118593446
0.001178182463
0.001119869487
0.0009492211288
0.0009069890571
0.001074392956
0.001247669807
0.001313208122
0.001318294428
0.001335275388
0.001330748145
0.001316476689
0.001342398213
0.001856188906
0.001630963122
0.0007715812298
0.0005853338226
0.0005550860386
0.0006371906322
0.0007190509379
0.0007404144085
0.0007102840621
0.0006535231207
0.0005921946523
0.0005699615028
0.0006074212824
0.0006639954331
0.0006701795598
0.0005496286271
0.000186680434
0.001202319141
0.001216599969
0.001221912372
0.001209565977
0.00118850005
0.001163242609
0.001060662896
0.0009305915102
0.0009590651856
0.001136792059
0.001284121428
0.001326860282
0.001315811703
0.001323000381
0.001308313876
0.001256493436
0.001188449039
0.001138121376
0.0008408129048
0.0006021506449
0.0005042077746
0.0005662576421
0.0007140884086
0.0008080888348
0.0008364635216
0.0008125346444
0.0007602663069
0.0007158094797
0.0006966417775
0.0007273232427
0.0007682892653
0.0007535091603
0.0006073998992
0.0001922978621
0.001191116838
0.001207648176
0.001220258916
0.001216376663
0.001191532019
0.001150976119
0.001047588927
0.0009713024326
0.001006310232
0.001157649407
0.001300312539
0.00135462771
0.001364995325
0.001349379513
0.001285810616
0.001181247424
0.001013009116
0.0008397114044
0.000632506212
0.0004939490152
0.0004846046448
0.0006218198637
0.000787009611
0.0008783518201
0.0009061794099
0.0008884845865
0.0008480944646
0.0008168303298
0.0008126951886
0.0008362360164
0.0008523888603
0.0008153927948
0.0006517431375
0.0001962770402
0.001160955314
0.001173086013
0.001185142103
0.001187007354
0.001170863106
0.001142973173
0.001093101452
0.001022930491
0.001014797617
0.001160096385
0.001323209361
0.001445031941
0.001489171033
0.001449139377
0.00131717221
0.00114323319
0.0009504359639
0.0007275233077
0.0005486443753
0.0004608821051
0.0005074795708
0.0006858127701
0.0008361195272
0.0009148958383
0.000940456566
0.0009307108241
0.0009063999735
0.0008920819668
0.0008989737649
0.0009152401394
0.0009136958905
0.0008606501723
0.0006782498957
0.0001981239509
0.001107531537
0.001109954605
0.001111397383
0.001111123433
0.001101211182
0.001088209148
0.001071959493
0.001005584416
0.000969243369
0.001132494886
0.001356674288
0.001536326774
0.001591407053
0.00153299201
0.001352962828
0.001112635974
0.0008868706688
0.0006660242182
0.0004971859084
0.0004493326959
0.0005273606989
0.0007060527363
0.0008447862567
0.0009167031933
0.0009434375367
0.0009450305002
0.0009393760467
0.000940943832
0.0009542921446
0.000968228642
0.0009564289016
0.0008901736968
0.0006842932898
0.0001974794854
0.001011638026
0.0009810075554
0.0009595838483
0.0009846500741
0.0009977992691
0.0009962264571
0.0009928644264
0.0009351958718
0.0008777806512
0.001030293647
0.001304885211
0.001517731402
0.00157861395
0.00150312782
0.001287794538
0.001009201923
0.0007662886751
0.000556931132
0.0004308310134
0.0004291149711
0.0005121180941
0.0006683128452
0.0008179651606
0.0008921893662
0.0009241383915
0.0009411362296
0.0009556669912
0.0009700588033
0.0009908082647
0.001009340461
0.0009929439809
0.0009153879722
0.0006791477049
0.0001948783629
0.000830461575
0.0007752372145
0.0007656795303
0.0008134105946
0.000865765149
0.0008819673944
0.0008863986719
0.00085010048
0.0007678660011
0.0008410921964
0.001112095249
0.001334384111
0.001404478701
0.001308076371
0.001071465228
0.0008207245575
0.0005943038799
0.0004312883596
0.0003734438257
0.0004016888696
0.0004666763226
0.0005986844928
0.000767368588
0.0008502851541
0.0008833507799
0.0009172423682
0.0009576681947
0.0009846214799
0.001018196274
0.001054800099
0.001061924282
0.0009805339958
0.00070163788
0.0001939060129
0.0007080937892
0.0006026894377
0.0005649476189
0.0006030438871
0.0006847112568
0.000738254579
0.0007453297946
0.000708708653
0.0006314182087
0.000601483009
0.0007258711372
0.000939856343
0.001010878905
0.0009062101512
0.0007155500109
0.0005635419231
0.0004428336483
0.0003642940406
0.0003449187476
0.0003689991186
0.0004250265606
0.0005745593003
0.0007404401918
0.0008157345023
0.0008481762161
0.0008908691243
0.0009412209098
0.0009838437282
0.001040448126
0.001129460049
0.001220140883
0.001173129751
0.0008417793363
0.0002060506602
0.0009416438244
0.0006755403426
0.0004686322274
0.0004146309478
0.0004449927342
0.0004959434834
0.0005115539686
0.0005011309091
0.000452087227
0.0004133953603
0.0004188563454
0.0004984020932
0.0005644833376
0.0005878592118
0.0005462736139
0.0004797785579
0.0004143135627
0.0003671376951
0.0003380867579
0.0003525049029
0.0004540570425
0.0006677978349
0.000815078251
0.000874432754
0.0008945290577
0.0009118025643
0.0009251741236
0.0009479290754
0.001031788681
0.001200481238
0.001376645149
0.001390956499
0.001096457563
0.0002464064357
0.001313107863
0.0009529473461
0.0005484611789
0.0003516672631
0.0002966940089
0.0003078279018
0.000341263643
0.000312887395
0.0002853251313
0.0002726332514
0.0002852928617
0.0003287878263
0.0004263016382
0.0005773410679
0.0005775928631
0.0005151089633
0.000448759268
0.0003833693506
0.0003332707423
0.0003912544766
0.0006211495016
0.0008551687129
0.0009669367725
0.0009895471552
0.0009611713233
0.0009269491698
0.0009062768939
0.0008673881923
0.0009120620491
0.001093721133
0.001298132405
0.001315380964
0.001061949701
0.0002663659516
0.001561237783
0.001599356725
0.001266523487
0.0007527712698
0.0004811935391
0.0003838706938
0.000425031341
0.0005580131618
0.0004002502774
0.000247280843
0.000201293132
0.0002120976312
0.0002547303096
0.0003435347238
0.0004734994848
0.0005216235428
0.0005228175045
0.000476817922
0.0003829837134
0.00034509427
0.0005192388759
0.0008420740189
0.00104398152
0.001117884292
0.001110482538
0.001044102066