/*--------------------------------*- C++ -*----------------------------------*\
  =========                 |
  \\      /  F ield         | OpenFOAM: The Open Source CFD Toolbox
   \\    /   O peration     | Website:  https://openfoam.org
    \\  /    A nd           | Version:  8
     \\/     M anipulation  |
\*---------------------------------------------------------------------------*/
FoamFile
{
    version     2.0;
    format      ascii;
    class       volScalarField;
    location    "1.5";
    object      O2;
}
// * * * * * * * * * * * * * * * * * * * * * * * * * * * * * * * * * * * * * //

dimensions      [0 0 0 0 0 0 0];

internalField   nonuniform List<scalar> 
67193
(
0.20999863
0.2099985914
0.2099985527
0.2099985116
0.2099984968
0.2099984522
0.2099984206
0.2099983819
0.2099983569
0.2099983604
0.2099983893
0.2099984137
0.2099983947
0.2099984308
0.2099984836
0.2099985036
0.2099984802
0.2099984425
0.2099984205
0.2099984182
0.2099984231
0.2099984239
0.2099984184
0.209998411
0.2099984076
0.2099984103
0.2099984171
0.2099984263
0.209998439
0.2099984609
0.2099985081
0.2099986205
0.2099988824
0.2099994615
0.2099986668
0.2099986311
0.2099986287
0.2099986544
0.2099987035
0.2099987151
0.2099986785
0.2099986088
0.2099985344
0.2099984937
0.2099984741
0.2099984119
0.2099983218
0.2099983399
0.2099984309
0.2099985253
0.2099985718
0.2099985664
0.2099985477
0.2099985481
0.2099985676
0.2099985893
0.2099986033
0.2099986103
0.2099986178
0.209998628
0.2099986358
0.2099986382
0.2099986364
0.2099986357
0.2099986526
0.209998741
0.2099990457
0.2099997618
0.2099987339
0.2099987588
0.2099988276
0.2099989031
0.2099989447
0.2099990146
0.2099989831
0.2099989022
0.2099987923
0.2099986913
0.2099985564
0.2099983823
0.2099982827
0.2099982842
0.2099983682
0.2099984949
0.2099986098
0.209998666
0.2099986675
0.209998659
0.2099986678
0.2099986895
0.2099987138
0.2099987369
0.2099987666
0.2099988015
0.2099988242
0.2099988286
0.2099988208
0.209998809
0.2099988082
0.2099988701
0.2099991648
0.210000049
0.2099988728
0.2099989526
0.2099990451
0.209999103
0.209999089
0.209999211
0.2099992053
0.2099991388
0.2099990207
0.2099988554
0.2099985814
0.2099983968
0.2099983396
0.2099983269
0.2099983845
0.209998484
0.2099986078
0.2099987052
0.2099987409
0.2099987386
0.2099987383
0.2099987551
0.2099987876
0.2099988298
0.2099988914
0.2099989674
0.2099990191
0.2099990302
0.2099990149
0.2099989936
0.2099989847
0.2099990324
0.2099992794
0.2100001195
0.2099990265
0.209999114
0.2099991884
0.2099992066
0.209999168
0.2099993006
0.2099993234
0.209999281
0.2099991804
0.2099989875
0.2099986397
0.2099985109
0.2099984606
0.2099984337
0.2099984743
0.2099985567
0.2099986598
0.2099987576
0.209998805
0.2099988079
0.2099988013
0.2099988103
0.209998846
0.2099989057
0.2099989902
0.2099991064
0.2099992056
0.2099992441
0.2099992274
0.2099991947
0.2099991848
0.2099992476
0.2099994923
0.2100001249
0.2099991296
0.2099991952
0.2099992421
0.2099992455
0.2099992229
0.2099993275
0.209999363
0.2099993382
0.2099992629
0.2099991049
0.2099988101
0.2099987
0.2099986413
0.2099986152
0.2099986503
0.2099987254
0.2099988097
0.2099988795
0.209998907
0.2099988987
0.2099988804
0.2099988773
0.2099989077
0.2099989772
0.2099990348
0.2099991476
0.2099993004
0.2099994123
0.2099994378
0.2099994098
0.2099994073
0.2099995191
0.2099998622
0.210000507
0.2099991662
0.2099992143
0.2099992487
0.2099992528
0.209999272
0.209999326
0.2099993567
0.2099993438
0.2099992823
0.2099991817
0.2099990174
0.2099989304
0.2099988463
0.2099988488
0.2099989024
0.2099989786
0.20999904
0.2099990677
0.209999059
0.2099990265
0.2099989884
0.2099989688
0.2099989813
0.2099990468
0.2099990143
0.2099990743
0.2099992431
0.209999444
0.2099995787
0.209999613
0.209999645
0.2099998348
0.2100003416
0.2100011787
0.2099991619
0.2099992104
0.2099992419
0.2099992608
0.2099993259
0.209999327
0.2099993381
0.2099993258
0.2099992651
0.2099991783
0.2099990896
0.2099990163
0.2099989795
0.2099990373
0.2099991408
0.2099992264
0.2099992668
0.2099992645
0.2099992293
0.2099991751
0.2099991158
0.2099990793
0.2099990588
0.2099991063
0.2099989984
0.2099989796
0.2099991194
0.2099993597
0.2099996083
0.2099997675
0.2099998866
0.2100001748
0.2100008028
0.2100016972
0.2099991514
0.2099992143
0.2099992558
0.2099992968
0.209999396
0.2099993603
0.2099993459
0.2099993171
0.2099992422
0.2099991378
0.2099990592
0.2099990403
0.2099991089
0.2099992406
0.2099993585
0.2099994331
0.2099994585
0.2099994467
0.209999399
0.2099993275
0.2099992501
0.2099991997
0.2099991449
0.2099991744
0.2099990793
0.2099989934
0.2099990853
0.2099993244
0.2099996293
0.2099999062
0.2100001459
0.2100005256
0.2100011421
0.2100018546
0.209999146
0.2099992376
0.2099993049
0.2099993672
0.2099994784
0.2099994351
0.2099993995
0.2099993419
0.209999235
0.209999105
0.209999035
0.2099990942
0.2099992932
0.2099994714
0.2099995805
0.2099996343
0.2099996433
0.2099996299
0.2099995724
0.2099994843
0.2099993911
0.2099993349
0.2099992905
0.2099993415
0.2099993331
0.2099992855
0.2099993621
0.2099995913
0.2099999035
0.2100002025
0.2100004985
0.2100008881
0.2100013695
0.2100018351
0.2099991434
0.2099992619
0.2099993578
0.2099994356
0.2099995342
0.2099995144
0.2099994652
0.2099993749
0.2099992307
0.2099990873
0.2099990469
0.2099991997
0.2099994829
0.2099996607
0.2099997519
0.2099998006
0.2099998056
0.2099998173
0.2099997563
0.209999646
0.2099995377
0.2099994896
0.2099995193
0.2099996424
0.2099997127
0.2099998005
0.2100000069
0.2100002789
0.2100005219
0.2100007234
0.2100009429
0.2100012209
0.2100015249
0.2100017919
0.209999134
0.2099992579
0.2099993755
0.2099994671
0.2099995424
0.2099995568
0.2099994954
0.2099993754
0.2099992092
0.2099990912
0.2099991328
0.2099993878
0.2099996981
0.2099998354
0.209999899
0.2099999522
0.2099999546
0.2100000423
0.2099999915
0.2099998303
0.2099996907
0.2099996556
0.2099997442
0.2099999223
0.2100000775
0.2100002343
0.2100004367
0.2100006711
0.2100008993
0.2100010883
0.2100012541
0.2100014294
0.2100016081
0.2100017502
0.2099991718
0.209999278
0.2099994067
0.2099995268
0.2099996234
0.209999634
0.2099995557
0.2099994118
0.2099992416
0.2099991682
0.2099993223
0.2099996271
0.2099998861
0.2099999896
0.2100000213
0.2100000905
0.210000092
0.2100003293
0.210000353
0.2100000611
0.2099998578
0.2099998536
0.2100000123
0.2100002153
0.2100003869
0.2100005473
0.210000718
0.2100009157
0.2100011311
0.210001309
0.2100014277
0.2100015275
0.2100016289
0.2100016996
0.2099992843
0.2099993263
0.2099994171
0.2099995372
0.2099996435
0.2099996421
0.2099995516
0.2099993831
0.2099992754
0.2099993174
0.2099995607
0.2099998173
0.209999991
0.2100001146
0.2100001236
0.2100002086
0.2100002095
0.2100005983
0.2100006868
0.2100001608
0.2099999927
0.2100000879
0.2100002915
0.2100004486
0.2100005612
0.2100006765
0.2100008105
0.2100009814
0.2100011865
0.2100013607
0.2100014591
0.2100015252
0.2100015921
0.2100016294
0.2099994009
0.2099994134
0.2099994402
0.2099995157
0.2099995876
0.2099995563
0.2099994279
0.2099993335
0.2099993334
0.2099994964
0.209999748
0.2099999586
0.2099999458
0.2100001404
0.2100002046
0.2100004305
0.2100006816
0.2100014053
0.2100035821
0.2100012728
0.2100005463
0.2100004786
0.2100005599
0.2100005952
0.2100006421
0.2100007255
0.2100008322
0.2100009701
0.2100011462
0.2100013035
0.2100013925
0.2100014535
0.2100015139
0.2100015402
0.2099995473
0.2099995755
0.2099995614
0.2099995687
0.2099995504
0.2099994938
0.2099994349
0.2099994935
0.2099994836
0.2099997078
0.209999913
0.2100000383
0.2099997516
0.2099999398
0.2100000698
0.2100000955
0.2099999858
0.2099997882
0.2099996292
0.2099996604
0.2100000125
0.2100004677
0.2100006222
0.2100006194
0.2100006373
0.2100007075
0.2100008056
0.2100009183
0.2100010594
0.2100011901
0.2100012723
0.2100013453
0.2100014143
0.2100014405
0.2099997315
0.2099997346
0.2099997121
0.2099996872
0.2099996011
0.2099995827
0.2099996373
0.2099996341
0.2099996623
0.20999989
0.2099999869
0.2099999685
0.2099995513
0.2099996784
0.2099998854
0.2100000627
0.210000121
0.2100002041
0.2100002665
0.2100001485
0.2100004183
0.2100007113
0.2100006966
0.2100006169
0.2100006068
0.2100006653
0.210000757
0.2100008544
0.2100009585
0.210001058
0.2100011339
0.210001231
0.2100013148
0.2100013434
0.2099999304
0.2099999022
0.2099998641
0.2099998334
0.2099997783
0.2099998323
0.2099998998
0.2099998009
0.2099998475
0.2099999434
0.2099998765
0.20999975
0.2099993959
0.2099994412
0.2099996444
0.2099998356
0.2099999331
0.2099998942
0.2099998293
0.210000009
0.2100005647
0.2100008327
0.2100007351
0.2100006227
0.2100005965
0.2100006436
0.2100007198
0.2100007923
0.2100008557
0.210000927
0.2100010031
0.2100011416
0.2100012412
0.2100012669
0.2100001488
0.2100000648
0.2100000019
0.209999989
0.21000002
0.2100001202
0.2100001576
0.210000042
0.209999934
0.2099998029
0.2099996678
0.209999544
0.2099993191
0.2099993068
0.2099994923
0.209999697
0.2099998717
0.2099999936
0.2100000503
0.2100003042
0.2100008419
0.2100009797
0.2100008094
0.2100006794
0.2100006461
0.2100006775
0.2100007173
0.2100007414
0.2100007558
0.2100008082
0.2100009014
0.2100011138
0.2100012332
0.2100012389
0.2100003414
0.210000217
0.2100001401
0.2100001535
0.2100002442
0.2100003409
0.2100003401
0.2100001591
0.2099998847
0.2099996415
0.2099995478
0.2099995331
0.2099994592
0.2099994098
0.2099995612
0.2099997316
0.2099998953
0.2100000606
0.2100002742
0.210000728
0.210001187
0.2100011355
0.2100009083
0.2100007833
0.2100007589
0.2100007633
0.2100007368
0.2100006918
0.2100006622
0.2100007092
0.2100008465
0.2100011618
0.2100013385
0.2100013087
0.210000762
0.2100004367
0.2100002893
0.2100002839
0.2100003794
0.2100004516
0.2100004315
0.2100002951
0.2100000541
0.2099997882
0.2099996422
0.2099996261
0.2099996474
0.2099996765
0.2099998763
0.2100000672
0.2100002272
0.2100004171
0.210000885
0.2100014195
0.210001457
0.2100011707
0.2100009117
0.2100008235
0.210000838
0.2100008222
0.2100007358
0.2100006347
0.2100005868
0.210000632
0.2100008373
0.2100011513
0.2100015005
0.2100015192
0.210001377
0.2100008572
0.2100004701
0.2100003667
0.2100004186
0.210000467
0.2100004424
0.2100003325
0.2100001559
0.2099999041
0.2099996908
0.2099996004
0.2099995941
0.2099997308
0.2099999789
0.2100002334
0.2100005009
0.210001032
0.2100015282
0.2100016229
0.2100013134
0.2100010276
0.2100007711
0.2100006899
0.2100007568
0.2100007774
0.210000711
0.2100005979
0.2100005527
0.210000566
0.2100007886
0.210000733
0.210001343
0.2100017514
0.2100023661
0.2100019344
0.2100013089
0.2100007128
0.21000051
0.2100004843
0.2100004417
0.2100003095
0.2100001276
0.2099999195
0.2099997154
0.2099996204
0.2099995564
0.2100000514
0.2100003025
0.2100005577
0.2100010604
0.2100015221
0.2100015765
0.2100013151
0.2100010087
0.2100008183
0.2100005688
0.2100004463
0.2100005185
0.2100006144
0.2100006604
0.2100006057
0.210000569
0.2100004563
0.2100004385
0.2099996827
0.2100003827
0.2100015805
0.2100031292
0.210003022
0.2100028919
0.2100024236
0.2100017389
0.2100013435
0.2100010815
0.2100005901
0.2100001817
0.2100000072
0.2099999957
0.2100000811
0.2100001312
0.2100009004
0.2100010693
0.2100013056
0.2100015446
0.2100015681
0.2100012092
0.210000873
0.2100006896
0.2100005769
0.2100003176
0.2100001873
0.2100002415
0.2100003569
0.2100005036
0.2100005686
0.2100005058
0.2099999418
0.20999987
0.2099986108
0.2099986218
0.2100000469
0.2100033351
0.210004388
0.2100041778
0.2100041893
0.2100040918
0.2100037945
0.2100031106
0.2100023942
0.2100017261
0.2100007654
0.21000071
0.21000104
0.2100013857
0.2100013061
0.210001435
0.2100013912
0.2100014701
0.210001461
0.2100011889
0.2100007389
0.2100004898
0.210000411
0.2100003084
0.2100000621
0.2099999438
0.2099999882
0.2100000984
0.2100002744
0.2100004872
0.2100006182
0.2100005909
0.2100006704
0.2100001407
0.2100008358
0.2100010074
0.2100034282
0.2100037746
0.2100041376
0.2100042216
0.2100042698
0.2100041508
0.2100036496
0.2100024031
0.2100023875
0.2100025105
0.2100021844
0.2100024965
0.210002813
0.2100023304
0.2100015906
0.2100012524
0.2100012432
0.2100010956
0.2100007338
0.2100003539
0.2100002036
0.2100001764
0.2100001057
0.2099999041
0.2099997826
0.2099998024
0.2099998938
0.2100000517
0.2100002992
0.2100005662
0.2100006566
0.2100007619
0.2100003915
0.2100007646
0.2100002174
0.2100035847
0.210003953
0.2100045368
0.2100044216
0.2100045015
0.2100042868
0.2100041943
0.2100039832
0.21000391
0.2100038104
0.2100038305
0.2100038138
0.2100035282
0.2100027553
0.210001631
0.2100008883
0.2100007851
0.210000689
0.210000363
0.210000078
0.2099999915
0.2100000111
0.2099999897
0.209999839
0.209999725
0.2099997253
0.2099997895
0.2099999121
0.2100001361
0.2100004432
0.2100006204
0.2100004622
0.2100000393
0.209999825
0.2099995313
0.2100037431
0.2100037671
0.2100038352
0.2100039355
0.2100040394
0.2100040734
0.2100041103
0.2100040928
0.2100041559
0.2100041412
0.2100040484
0.2100038072
0.2100033228
0.2100025069
0.2100014249
0.2100005363
0.2100003142
0.2100002833
0.2100000436
0.2099998877
0.2099998528
0.2099998568
0.2099998154
0.2099997011
0.2099996782
0.2099997668
0.2099999053
0.2100000642
0.2100002661
0.210000449
0.2100003898
0.210000054
0.2099997199
0.2099994421
0.2099991237
0.2100035952
0.2100037535
0.2100037715
0.2100038585
0.2100039116
0.2100039492
0.2100039627
0.2100039265
0.2100037981
0.2100035475
0.2100031303
0.2100025121
0.2100016962
0.2100008091
0.210000125
0.209999898
0.2099998603
0.2099997036
0.20999961
0.2099996016
0.2099996996
0.2099997411
0.209999692
0.2099997686
0.2099998776
0.2099999872
0.2100000607
0.2100001192
0.2100001391
0.2099999858
0.2099998738
0.2099995937
0.2099992226
0.2099990654
0.2100031733
0.2100032719
0.2100034045
0.2100035173
0.2100035993
0.2100035987
0.2100035291
0.2100033756
0.2100030983
0.2100026796
0.2100021246
0.2100014634
0.2099998644
0.2099999295
0.210000005
0.2100001127
0.2100001667
0.2099998978
0.2099997814
0.2099996851
0.2099993972
0.2099992186
0.2099992531
0.2100031264
0.2100031955
0.2100032007
0.2100030938
0.2100028738
0.2100025404
0.2099986305
0.2099985914
0.2099985426
0.2099984803
0.2099984324
0.2099983934
0.2099983751
0.2099983623
0.2099983634
0.2099983821
0.2099984132
0.2099984385
0.20999845
0.2099984581
0.2099984527
0.2099984352
0.209998418
0.2099984115
0.2099984163
0.209998428
0.2099984401
0.2099984467
0.2099984464
0.2099984423
0.2099984385
0.2099984369
0.2099984379
0.2099984416
0.2099984503
0.2099984714
0.2099985225
0.209998643
0.2099989081
0.2099994948
0.20999868
0.2099986285
0.2099985817
0.2099985462
0.2099985348
0.2099985433
0.2099985379
0.2099985186
0.2099984995
0.2099984976
0.2099985076
0.209998516
0.2099985316
0.2099985357
0.2099985272
0.209998513
0.2099985102
0.2099985221
0.2099985437
0.2099985719
0.2099986026
0.2099986293
0.2099986482
0.2099986601
0.2099986681
0.2099986736
0.2099986758
0.2099986738
0.2099986692
0.2099986688
0.2099986935
0.2099988006
0.2099991159
0.2099998024
0.2099987274
0.2099986901
0.2099986763
0.2099986906
0.2099987209
0.209998758
0.2099987611
0.2099987395
0.2099987093
0.2099986863
0.2099986695
0.2099986947
0.2099987268
0.2099987253
0.2099987082
0.2099986701
0.2099986378
0.2099986334
0.2099986507
0.2099986798
0.2099987153
0.2099987512
0.2099987838
0.2099988122
0.2099988372
0.2099988582
0.2099988717
0.2099988756
0.2099988711
0.209998864
0.2099988739
0.2099989621
0.20999929
0.2100001306
0.2099988048
0.2099987943
0.2099988248
0.2099988872
0.2099989561
0.2099989989
0.2099989937
0.2099989542
0.2099989066
0.2099988572
0.2099988292
0.2099989106
0.2099989397
0.2099989208
0.2099988907
0.2099988495
0.2099987915
0.2099987534
0.2099987505
0.2099987697
0.2099988017
0.2099988414
0.2099988862
0.2099989328
0.2099989776
0.209999019
0.2099990499
0.2099990668
0.2099990707
0.2099990677
0.2099990752
0.2099991489
0.2099994386
0.2100003166
0.2099989032
0.2099989285
0.2099990187
0.2099991298
0.2099992362
0.2099992694
0.20999924
0.2099991601
0.2099990756
0.2099989965
0.2099989779
0.209999133
0.2099991571
0.2099991244
0.2099990724
0.2099990171
0.2099989521
0.2099988892
0.2099988604
0.20999886
0.2099988796
0.2099989162
0.2099989682
0.209999031
0.2099990938
0.2099991574
0.2099992088
0.2099992428
0.2099992617
0.2099992734
0.209999297
0.2099993876
0.209999661
0.210000329
0.2099990114
0.209999091
0.2099992396
0.2099993817
0.2099995281
0.2099995353
0.2099994819
0.2099993661
0.2099992355
0.2099991255
0.2099991083
0.2099993757
0.2099993286
0.2099992987
0.2099992405
0.2099991795
0.2099991119
0.2099990419
0.2099989935
0.2099989697
0.2099989694
0.2099989945
0.2099990456
0.2099991201
0.2099992013
0.209999288
0.2099993576
0.2099994076
0.2099994411
0.2099994748
0.209999534
0.2099996891
0.2100000577
0.2100006834
0.2099991302
0.2099992602
0.2099994364
0.2099996094
0.2099997878
0.2099997624
0.2099996891
0.2099995537
0.2099993948
0.2099992603
0.209999208
0.2099997555
0.2099994245
0.2099994032
0.2099993669
0.2099993285
0.2099992762
0.2099992139
0.2099991547
0.2099991089
0.2099990845
0.2099990918
0.2099991325
0.2099992147
0.2099993305
0.2099994338
0.2099995166
0.209999582
0.209999621
0.2099996738
0.2099997805
0.2100000372
0.2100005996
0.2100013778
0.2099992458
0.2099993998
0.2099995892
0.2099997824
0.2099999828
0.2099999282
0.2099998386
0.2099996942
0.2099995173
0.2099993322
0.2099992229
0.209999287
0.2099993301
0.2099994057
0.2099994587
0.2099994776
0.2099994569
0.2099994066
0.2099993393
0.2099992738
0.2099992254
0.2099992126
0.209999235
0.2099993246
0.2099994935
0.2099996099
0.2099996949
0.2099997791
0.2099998276
0.2099998878
0.2100000408
0.2100003998
0.2100011105
0.210001935
0.2099993324
0.2099994928
0.2099996866
0.2099998895
0.2100000991
0.2100000293
0.2099999299
0.2099997848
0.2099996028
0.2099994015
0.2099992719
0.2099993044
0.2099994034
0.2099995328
0.2099996293
0.2099996728
0.2099996632
0.2099996162
0.2099995378
0.2099994544
0.2099993858
0.2099993558
0.2099993602
0.2099994617
0.2099996763
0.209999809
0.2099998984
0.2100000053
0.2100000775
0.2100001431
0.2100003304
0.2100007461
0.2100014322
0.2100021102
0.2099993714
0.2099995343
0.2099997286
0.209999931
0.2100001334
0.2100000691
0.2099999706
0.2099998299
0.2099996517
0.2099994546
0.2099993469
0.2099994224
0.2099995908
0.2099997432
0.2099998403
0.2099998841
0.2099998713
0.2099998315
0.2099997453
0.209999643
0.2099995605
0.2099995224
0.2099995251
0.209999627
0.2099998384
0.2099999945
0.2100001133
0.2100002529
0.2100003486
0.2100004437
0.2100006532
0.2100010573
0.2100016094
0.2100020689
0.2099993949
0.2099995471
0.2099997308
0.2099999187
0.2100000972
0.2100000578
0.2099999717
0.209999839
0.2099996704
0.2099994947
0.2099994472
0.2099995902
0.2099997909
0.2099999396
0.2100000295
0.2100000751
0.2100000581
0.2100000505
0.2099999681
0.2099998417
0.2099997454
0.20999971
0.2099997335
0.2099998187
0.2099999534
0.210000101
0.2100002595
0.2100004414
0.2100006087
0.2100007619
0.210000977
0.2100013159
0.2100017148
0.2100020008
0.209999431
0.2099995624
0.2099997244
0.2099998894
0.2100000359
0.210000028
0.2099999579
0.2099998323
0.209999674
0.2099995419
0.2099995847
0.2099997858
0.209999974
0.2100001092
0.2100001838
0.2100002411
0.2100002242
0.2100002991
0.2100002685
0.2100000697
0.2099999404
0.2099999108
0.2099999638
0.2100000667
0.2100001849
0.2100003371
0.2100005271
0.2100007305
0.2100009107
0.2100010635
0.2100012452
0.2100014989
0.2100017752
0.2100019455
0.2099994854
0.2099995923
0.2099997293
0.2099998754
0.2099999988
0.2100000094
0.2099999446
0.2099998168
0.2099996616
0.2099996096
0.2099997529
0.2099999585
0.2100001235
0.2100002424
0.2100002927
0.2100003703
0.210000391
0.2100006125
0.2100007965
0.2100003551
0.2100001461
0.2100001207
0.2100002075
0.2100003282
0.210000457
0.2100006131
0.2100007946
0.2100009781
0.2100011424
0.2100012766
0.210001415
0.2100015944
0.210001788
0.2100018907
0.2099995612
0.2099996368
0.2099997394
0.2099998614
0.2099999646
0.2099999769
0.2099999087
0.2099997748
0.2099996405
0.2099997125
0.2099999139
0.2100000983
0.2100002332
0.210000339
0.2100003609
0.2100004378
0.2100005965
0.2100009261
0.2100018272
0.2100005741
0.210000301
0.2100003319
0.2100004462
0.2100005545
0.210000663
0.2100008016
0.2100009658
0.2100011207
0.2100012532
0.2100013608
0.2100014647
0.2100015982
0.2100017491
0.2100018232
0.209999665
0.2099997178
0.2099997821
0.2099998665
0.2099999402
0.2099999445
0.209999873
0.2099997357
0.2099996911
0.2099998418
0.21000004
0.210000208
0.2100003207
0.2100004093
0.2100004207
0.2100004353
0.2100010143
0.2099985751
0.2100032285
0.2100018441
0.2100010055
0.2100007269
0.2100006935
0.2100007191
0.2100007756
0.2100008848
0.2100010308
0.2100011584
0.2100012528
0.2100013314
0.2100014141
0.2100015294
0.2100016688
0.2100017407
0.2099998029
0.2099998426
0.2099998785
0.2099999218
0.2099999585
0.2099999529
0.2099998832
0.209999806
0.2099998192
0.2099999752
0.2100001504
0.2100002969
0.2100004035
0.2100004315
0.2100003776
0.210000266
0.210000185
0.2100000699
0.2100000516
0.2099999322
0.2100002265
0.2100005748
0.210000732
0.2100007609
0.2100007873
0.2100008665
0.2100009892
0.2100010985
0.210001166
0.2100012238
0.2100012984
0.2100014161
0.2100015642
0.2100016486
0.2099999742
0.2099999954
0.2100000121
0.210000029
0.2100000393
0.2100000348
0.2099999936
0.209999944
0.2099999572
0.2100000841
0.2100002415
0.2100003691
0.2100004782
0.2100004957
0.2100004634
0.2100004007
0.2100003079
0.2100002235
0.2100005971
0.2100004772
0.2100006575
0.2100008207
0.2100008353
0.2100007859
0.210000764
0.2100008045
0.210000892
0.2100009754
0.2100010267
0.2100010752
0.2100011533
0.2100012871
0.2100014547
0.2100015564
0.2100001821
0.210000174
0.2100001714
0.2100001761
0.2100001876
0.2100002075
0.2100001967
0.2100001253
0.210000091
0.2100001679
0.2100002985
0.2100003958
0.2100004989
0.2100005113
0.2100005201
0.2100004073
0.2100002214
0.2100000701
0.2100001079
0.2100003813
0.2100007872
0.2100009546
0.2100009013
0.2100008021
0.2100007424
0.2100007445
0.2100007891
0.2100008358
0.2100008689
0.210000918
0.2100010105
0.2100011688
0.2100013584
0.2100014754
0.210000427
0.2100003701
0.2100003453
0.2100003396
0.2100003634
0.2100003968
0.2100003789
0.2100002864
0.2100001874
0.2100002034
0.2100002828
0.2100004026
0.2100005357
0.2100005311
0.2100005788
0.2100005415
0.2100004496
0.2100004311
0.2100005428
0.2100007912
0.2100010664
0.2100010993
0.2100009679
0.2100008301
0.2100007419
0.2100007078
0.2100007063
0.2100007129
0.2100007271
0.2100007834
0.210000895
0.2100010803
0.2100012885
0.2100014161
0.2100006716
0.2100005508
0.2100004853
0.2100004789
0.2100005131
0.2100005434
0.2100005093
0.2100003888
0.2100002288
0.2100001683
0.210000228
0.2100004276
0.2100006216
0.210000596
0.2100006533
0.2100006711
0.2100006746
0.2100007283
0.2100009043
0.2100011669
0.2100013078
0.2100012097
0.2100010207
0.2100008593
0.2100007538
0.2100006886
0.2100006449
0.2100006175
0.2100006184
0.2100006864
0.2100008104
0.2100010238
0.2100012446
0.2100013857
0.2100010053
0.210000753
0.2100006326
0.2100005913
0.2100006172
0.2100006358
0.2100005784
0.2100004431
0.2100002511
0.2100000869
0.2100000704
0.210000249
0.2100005404
0.2100005563
0.2100006743
0.2100007783
0.2100009012
0.210001062
0.2100013208
0.2100015168
0.2100014635
0.2100012467
0.21000103
0.2100008587
0.210000751
0.2100006681
0.2100005975
0.2100005516
0.2100005474
0.2100006216
0.2100007301
0.2100009857
0.2100012135
0.2100013888
0.2100012572
0.2100009859
0.2100007481
0.2100006525
0.2100006513
0.2100006457
0.2100005642
0.210000409
0.2100002234
0.2100000155
0.2099998958
0.2099999641
0.2100002974
0.210000489
0.2100007274
0.2100009284
0.2100011642
0.2100014151
0.2100016108
0.2100016246
0.2100014341
0.2100011874
0.2100009879
0.2100008206
0.2100007247
0.2100006385
0.2100005635
0.2100005171
0.2100005103
0.2100005545
0.2100006061
0.2100009287
0.2100011761
0.2100014438
0.2100018629
0.2100016239
0.2100012297
0.2100008847
0.2100007355
0.2100006648
0.2100005591
0.2100003479
0.2100001325
0.209999935
0.2099997838
0.20999985
0.21000036
0.2100007686
0.2100009872
0.2100011977
0.2100014376
0.2100016043
0.2100016059
0.2100014798
0.2100012784
0.2100010685
0.2100008779
0.210000727
0.2100006634
0.2100005963
0.2100005417
0.2100005119
0.2100004918
0.2100004349
0.2100004161
0.2100006757
0.2100009414
0.210001528
0.2100023569
0.2100024725
0.2100023595
0.2100019997
0.2100015513
0.2100012193
0.2100009528
0.2100004657
0.2100001528
0.210000068
0.2100001862
0.2100005852
0.2100010338
0.2100013631
0.2100014083
0.2100014987
0.2100015768
0.2100015606
0.2100013869
0.2100011974
0.2100010375
0.2100008207
0.2100006607
0.2100005513
0.210000541
0.2100005355
0.2100005275
0.2100005321
0.2100005225
0.2100004726
0.2100005846
0.2100008634
0.2100008957
0.2100013528
0.2100025617
0.2100021591
0.2100029185
0.2100033343
0.2100034535
0.2100032809
0.2100027739
0.2100021271
0.2100013665
0.2100008024
0.210000959
0.2100015912
0.2100019748
0.2100018032
0.2100016047
0.2100014591
0.2100014611
0.2100014411
0.2100013119
0.2100010571
0.2100008941
0.2100007256
0.2100005742
0.2100004453
0.2100003633
0.2100003799
0.2100004396
0.2100005061
0.2100005531
0.2100005971
0.2100006412
0.2100005704
0.2100007538
0.2100008006
0.2100009263
0.2100028416
0.2100030024
0.210003274
0.2100036433
0.2100037866
0.2100037505
0.2100034707
0.2100024944
0.2100027791
0.2100022347
0.2100023798
0.2100027287
0.2100027794
0.2100022565
0.2100016007
0.210001262
0.2100012143
0.2100011582
0.2100009708
0.210000721
0.2100005939
0.2100004892
0.2100004197
0.2100003225
0.2100002411
0.2100002493
0.2100003351
0.2100004647
0.210000571
0.2100006428
0.2100007268
0.2100007285
0.2100006764
0.2100004082
0.2100004835
0.2100029557
0.2100031115
0.2100024409
0.2100035122
0.210003533
0.210003839
0.2100038431
0.2100036681
0.2100036044
0.2100035774
0.2100035739
0.2100034851
0.210003152
0.2100024299
0.210001509
0.2100009507
0.2100008469
0.2100008084
0.2100006076
0.2100003766
0.2100003029
0.2100002917
0.2100002902
0.2100002327
0.2100001673
0.210000181
0.2100002758
0.2100004275
0.2100005569
0.2100006423
0.2100006925
0.2100006188
0.2100005151
0.2100003602
0.2100002923
0.2100030938
0.2100032308
0.2100033727
0.2100036001
0.2100037297
0.2100038355
0.2100038712
0.2100038301
0.2100037976
0.2100037284
0.2100035982
0.210003342
0.2100028798
0.2100021538
0.2100012573
0.210000609
0.2100004424
0.210000429
0.2100002465
0.210000065
0.2100000239
0.210000066
0.2100000995
0.2100000987
0.2100000817
0.2100001416
0.2100002668
0.2100004262
0.2100005288
0.2100005791
0.2100005272
0.2100004453
0.2100004053
0.2100003117
0.2100003311
0.2100031096
0.2100032435
0.2100034151
0.2100035486
0.2100036492
0.2100036952
0.2100036872
0.2100036153
0.2100034613
0.2100032061
0.2100028147
0.2100022596
0.210001544
0.210000769
0.210000242
0.2100000576
0.2100000484
0.2099999118
0.2099997917
0.2099997879
0.2099998661
0.2099999561
0.2100000258
0.2100000561
0.2100001382
0.2100002591
0.210000381
0.2100004177
0.2100003479
0.2100002888
0.2100003325
0.2100003238
0.2100002971
0.2100004198
0.2100028487
0.2100029828
0.2100031411
0.2100032742
0.2100033693
0.2100033673
0.2100033013
0.2100031492
0.2100028957
0.2100025297
0.2100020456
0.210001459
0.2099999974
0.2100000747
0.2100001759
0.2100002903
0.2100003056
0.2100001442
0.2100001749
0.2100002441
0.2100002482
0.2100002736
0.2100004247
0.2100028577
0.2100029449
0.2100029693
0.2100029131
0.2100027617
0.2100025031
0.2099986259
0.2099985921
0.2099985464
0.2099984911
0.2099984448
0.2099984073
0.2099983889
0.2099983833
0.2099983916
0.2099984121
0.2099984376
0.2099984543
0.2099984565
0.2099984502
0.2099984368
0.2099984218
0.2099984147
0.2099984188
0.2099984314
0.209998448
0.2099984636
0.209998474
0.2099984779
0.2099984774
0.2099984751
0.2099984728
0.2099984714
0.2099984721
0.2099984784
0.2099984994
0.2099985539
0.2099986799
0.2099989471
0.2099995424
0.209998696
0.2099986549
0.2099986119
0.2099985764
0.2099985565
0.2099985512
0.2099985438
0.2099985337
0.2099985279
0.2099985335
0.2099985465
0.2099985558
0.2099985539
0.2099985427
0.2099985324
0.2099985278
0.2099985351
0.2099985538
0.2099985798
0.2099986097
0.2099986401
0.2099986666
0.2099986868
0.2099987006
0.2099987095
0.2099987143
0.2099987149
0.2099987113
0.2099987064
0.2099987091
0.2099987433
0.2099988653
0.2099991827
0.209999847
0.2099987632
0.2099987325
0.209998716
0.2099987198
0.2099987362
0.2099987604
0.2099987648
0.2099987532
0.209998737
0.2099987279
0.2099987318
0.2099987521
0.2099987466
0.2099987163
0.2099986876
0.2099986707
0.2099986679
0.20999868
0.2099987038
0.2099987354
0.2099987708
0.2099988058
0.2099988381
0.2099988664
0.2099988902
0.2099989087
0.2099989202
0.2099989234
0.2099989199
0.2099989177
0.2099989406
0.2099990534
0.2099994014
0.2100001937
0.2099988547
0.2099988451
0.2099988644
0.2099989104
0.2099989627
0.2099990068
0.209999013
0.2099989897
0.2099989564
0.2099989312
0.2099989435
0.2099990035
0.2099990012
0.20999895
0.2099988876
0.2099988439
0.2099988193
0.2099988129
0.2099988238
0.209998848
0.2099988816
0.2099989213
0.2099989645
0.2099990084
0.2099990496
0.2099990857
0.2099991139
0.209999131
0.2099991374
0.2099991401
0.2099991608
0.2099992609
0.2099995854
0.2100004575
0.2099989663
0.2099989827
0.2099990442
0.2099991366
0.2099992315
0.2099992787
0.2099992693
0.2099992196
0.2099991587
0.209999117
0.2099991483
0.2099992715
0.2099992639
0.2099992051
0.209999115
0.2099990412
0.2099989917
0.209998962
0.2099989522
0.2099989606
0.209998985
0.2099990237
0.2099990743
0.2099991323
0.2099991909
0.2099992454
0.209999293
0.2099993291
0.2099993524
0.2099993707
0.2099994064
0.2099995179
0.2099998165
0.2100005172
0.209999087
0.2099991346
0.2099992432
0.2099993961
0.2099995395
0.2099995687
0.209999526
0.2099994342
0.2099993386
0.2099992769
0.2099993165
0.2099994924
0.2099994589
0.2099994119
0.2099993267
0.2099992436
0.2099991802
0.209999132
0.2099991001
0.2099990871
0.2099990952
0.209999126
0.2099991776
0.209999246
0.2099993229
0.2099993927
0.209999457
0.2099995135
0.2099995581
0.2099996014
0.2099996737
0.209999848
0.2100002291
0.21000082
0.209999209
0.20999929
0.2099994537
0.2099996569
0.209999839
0.2099998362
0.2099997598
0.209999629
0.2099994951
0.2099993986
0.2099994217
0.2099994511
0.2099995325
0.2099995326
0.2099994931
0.2099994358
0.209999378
0.2099993219
0.2099992712
0.2099992354
0.2099992224
0.2099992392
0.2099992846
0.2099993616
0.209999463
0.2099995427
0.2099996145
0.2099996874
0.2099997538
0.209999826
0.2099999512
0.2100002373
0.2100008294