/*--------------------------------*- C++ -*----------------------------------*\
  =========                 |
  \\      /  F ield         | OpenFOAM: The Open Source CFD Toolbox
   \\    /   O peration     | Website:  https://openfoam.org
    \\  /    A nd           | Version:  8
     \\/     M anipulation  |
\*---------------------------------------------------------------------------*/
FoamFile
{
    version     2.0;
    format      ascii;
    class       volScalarField;
    location    "1.5";
    object      p_rgh;
}
// * * * * * * * * * * * * * * * * * * * * * * * * * * * * * * * * * * * * * //

dimensions      [1 -1 -2 0 0 0 0];

internalField   nonuniform List<scalar> 
67193
(
100004.0501
100004.0577
100004.0684
100004.0757
100004.0874
100004.0714
100004.0631
100004.0459
100004.0306
100004.018
100004.0086
100004.0042
100004.0065
100004.0038
100003.9921
100003.9739
100003.9557
100003.9408
100003.9301
100003.9235
100003.9207
100003.9212
100003.9245
100003.9303
100003.9381
100003.9473
100003.9568
100003.9663
100003.9759
100003.9857
100003.9954
100004.0062
100004.0124
100004.0375
100004.0152
100004.015
100004.0122
100004.0053
100003.9968
100003.986
100003.9797
100003.9692
100003.9605
100003.9528
100003.944
100003.9345
100003.9237
100003.917
100003.9116
100003.9078
100003.9055
100003.9038
100003.9022
100003.9009
100003.901
100003.9028
100003.9064
100003.9116
100003.9186
100003.9268
100003.9354
100003.9443
100003.9542
100003.9651
100003.9767
100003.99
100003.9982
100004.018
100003.9846
100003.9759
100003.9634
100003.9479
100003.9305
100003.9273
100003.9266
100003.9217
100003.9173
100003.9129
100003.9039
100003.893
100003.8833
100003.8788
100003.8718
100003.8682
100003.87
100003.8742
100003.8783
100003.8813
100003.8839
100003.8869
100003.891
100003.8963
100003.9035
100003.9119
100003.9206
100003.9301
100003.9408
100003.9531
100003.9665
100003.9816
100003.9919
100004.0083
100003.9504
100003.9325
100003.9123
100003.8922
100003.8746
100003.8744
100003.8762
100003.8761
100003.8773
100003.8797
100003.873
100003.8659
100003.8606
100003.8583
100003.8466
100003.8366
100003.836
100003.8419
100003.8493
100003.8562
100003.8617
100003.8664
100003.8716
100003.8772
100003.8842
100003.8925
100003.9018
100003.9124
100003.9246
100003.9384
100003.9534
100003.9701
100003.9825
100003.9984
100003.9232
100003.8974
100003.8774
100003.8665
100003.8655
100003.857
100003.847
100003.843
100003.8487
100003.86
100003.8603
100003.8594
100003.8512
100003.8465
100003.8331
100003.8193
100003.8143
100003.8183
100003.8254
100003.8334
100003.8409
100003.8473
100003.8537
100003.8591
100003.8647
100003.8716
100003.8823
100003.8955
100003.9102
100003.9261
100003.9428
100003.9609
100003.9739
100003.9908
100003.9057
100003.8757
100003.8691
100003.8885
100003.9056
100003.8846
100003.8501
100003.8249
100003.8266
100003.8452
100003.857
100003.8677
100003.841
100003.8308
100003.8189
100003.8075
100003.8019
100003.8027
100003.8076
100003.8146
100003.8227
100003.8301
100003.8376
100003.8419
100003.845
100003.8496
100003.8616
100003.8771
100003.8953
100003.9144
100003.9333
100003.9528
100003.9661
100003.9833
100003.9002
100003.8757
100003.8975
100003.9459
100003.9772
100003.9432
100003.8821
100003.8269
100003.8106
100003.829
100003.8506
100003.888
100003.8347
100003.8205
100003.8095
100003.8008
100003.7952
100003.7939
100003.7963
100003.8016
100003.8092
100003.8168
100003.8257
100003.8274
100003.8298
100003.8377
100003.8477
100003.8591
100003.879
100003.9022
100003.924
100003.9451
100003.9582
100003.9749
100003.907
100003.8961
100003.944
100004.0125
100004.0526
100004.0074
100003.9237
100003.843
100003.8037
100003.8081
100003.8257
100003.8422
100003.8235
100003.8128
100003.8048
100003.7984
100003.7935
100003.7918
100003.7925
100003.7957
100003.8018
100003.8089
100003.8191
100003.8176
100003.822
100003.8405
100003.8478
100003.8478
100003.8632
100003.8895
100003.9138
100003.9359
100003.9471
100003.9627
100003.92
100003.9217
100003.9829
100004.0598
100004.1021
100004.0497
100003.9533
100003.8594
100003.8075
100003.8024
100003.8178
100003.8295
100003.8206
100003.8111
100003.8053
100003.802
100003.7996
100003.7996
100003.7985
100003.7984
100003.8014
100003.8066
100003.8158
100003.813
100003.8172
100003.8385
100003.8443
100003.841
100003.8541
100003.8802
100003.9041
100003.9248
100003.9332
100003.9479
100003.9255
100003.935
100003.9976
100004.0714
100004.1096
100004.056
100003.9596
100003.8675
100003.8172
100003.8107
100003.8233
100003.8291
100003.8223
100003.814
100003.8128
100003.8151
100003.8162
100003.8214
100003.8187
100003.8129
100003.8096
100003.8102
100003.8144
100003.813
100003.8131
100003.8202
100003.8272
100003.8374
100003.8543
100003.8761
100003.8947
100003.9115
100003.9174
100003.9329
100003.9242
100003.9361
100003.9895
100004.0494
100004.0777
100004.0296
100003.9459
100003.8689
100003.8307
100003.8286
100003.837
100003.8363
100003.8295
100003.8256
100003.8303
100003.8398
100003.8449
100003.864
100003.8604
100003.8447
100003.8305
100003.8224
100003.8197
100003.8176
100003.816
100003.8193
100003.8276
100003.8399
100003.855
100003.8711
100003.884
100003.897
100003.9015
100003.9189
100003.9206
100003.9307
100003.9697
100004.0108
100004.0271
100003.9893
100003.9246
100003.8684
100003.8477
100003.8499
100003.852
100003.8441
100003.8412
100003.8441
100003.8541
100003.8768
100003.8878
100003.9479
100003.9482
100003.9069
100003.8697
100003.8464
100003.8337
100003.826
100003.8227
100003.8266
100003.8335
100003.8416
100003.8517
100003.863
100003.8719
100003.8829
100003.887
100003.9064
100003.9151
100003.92
100003.9438
100003.9679
100003.975
100003.9468
100003.8995
100003.8644
100003.863
100003.8654
100003.8593
100003.8486
100003.8561
100003.8665
100003.8794
100003.9249
100003.9478
100004.1049
100004.1398
100004.0176
100003.9276
100003.8807
100003.8541
100003.8357
100003.8244
100003.8214
100003.8243
100003.8316
100003.8414
100003.8517
100003.8593
100003.87
100003.8746
100003.8959
100003.9091
100003.9091
100003.917
100003.9262
100003.9278
100003.9086
100003.8769
100003.8661
100003.8747
100003.8679
100003.8583
100003.8539
100003.871
100003.8928
100003.902
100003.9675
100003.9991
100004.1576
100004.2088
100004.0248
100003.9581
100003.9175
100003.8799
100003.8483
100003.8287
100003.8206
100003.8202
100003.8255
100003.834
100003.8431
100003.8499
100003.8608
100003.8657
100003.8887
100003.9013
100003.8986
100003.8979
100003.8967
100003.8941
100003.8814
100003.8672
100003.8714
100003.879
100003.8651
100003.8604
100003.8614
100003.8848
100003.9242
100003.9455
100004.1542
100004.3678
100004.9938
100006.0612
100004.6765
100004.2554
100004.0396
100003.9214
100003.861
100003.8349
100003.8236
100003.8201
100003.8233
100003.8306
100003.8389
100003.845
100003.8562
100003.8614
100003.8858
100003.8945
100003.8922
100003.8885
100003.8828
100003.8767
100003.8708
100003.8709
100003.8769
100003.8748
100003.8599
100003.8624
100003.8694
100003.8972
100003.9149
100003.8895
100003.8829
100003.8571
100003.8339
100003.7786
100003.8184
100003.8713
100003.8907
100003.8686
100003.8471
100003.8366
100003.8299
100003.8256
100003.827
100003.8327
100003.8401
100003.8452
100003.8567
100003.8617
100003.8876
100003.8898
100003.8848
100003.881
100003.8751
100003.87
100003.8696
100003.8716
100003.8724
100003.8653
100003.8536
100003.8639
100003.8961
100003.9507
100003.9571
100003.9045
100003.8987
100003.9307
100004.111
100004.2031
100004.0756
100003.9708
100003.899
100003.8581
100003.8441
100003.8406
100003.8375
100003.8342
100003.8351
100003.8395
100003.8459
100003.8496
100003.8619
100003.8663
100003.8938
100003.8914
100003.8811
100003.8777
100003.8708
100003.8667
100003.8656
100003.8655
100003.8624
100003.8534
100003.8369
100003.8675
100003.9495
100004.0386
100004.0254
100003.922
100003.8419
100003.8014
100003.8036
100003.8265
100003.8605
100003.8781
100003.8604
100003.8392
100003.8384
100003.8406
100003.8415
100003.8415
100003.844
100003.8475
100003.8543
100003.8571
100003.8712
100003.8745
100003.9043
100003.9064
100003.8831
100003.8794
100003.868
100003.861
100003.8569
100003.8553
100003.8512
100003.8307
100003.8014
100003.8612
100003.997
100004.1029
100004.07
100003.9364
100003.8242
100003.773
100003.8021
100003.8381
100003.8545
100003.8582
100003.8424
100003.8272
100003.8314
100003.8368
100003.8415
100003.8453
100003.8508
100003.8547
100003.8636
100003.8661
100003.8828
100003.8859
100003.9198
100003.9192
100003.8944
100003.8861
100003.8668
100003.8543
100003.8462
100003.8437
100003.8381
100003.8132
100003.7779
100003.838
100003.9766
100004.0694
100004.0249
100003.8891
100003.7829
100003.7441
100003.7754
100003.8182
100003.8434
100003.8482
100003.8324
100003.8217
100003.8281
100003.8349
100003.8415
100003.8471
100003.8556
100003.8608
100003.8722
100003.875
100003.8908
100003.898
100003.9413
100004.0323
100003.9362
100003.9086
100003.8753
100003.8534
100003.8386
100003.8311
100003.8277
100003.8109
100003.771
100003.7693
100003.8416
100003.909
100003.8638
100003.7808
100003.7458
100003.7577
100003.7918
100003.8178
100003.8317
100003.8311
100003.8198
100003.8179
100003.8274
100003.8363
100003.8445
100003.8503
100003.8612
100003.8687
100003.8806
100003.8853
100003.8997
100003.9085
100003.9755
100003.9946
100003.9473
100003.9183
100003.8875
100003.8618
100003.8399
100003.8309
100003.8228
100003.8101
100003.7763
100003.7391
100003.73
100003.7418
100003.7432
100003.7441
100003.7617
100003.7834
100003.8049
100003.8189
100003.8224
100003.8133
100003.8081
100003.8125
100003.8263
100003.839
100003.8492
100003.8564
100003.8691
100003.8794
100003.8896
100003.9046
100003.9413
100003.9329
100004.0334
100004.0911
100003.9915
100003.9642
100003.9224
100003.884
100003.853
100003.8394
100003.8242
100003.8047
100003.7837
100003.7547
100003.734
100003.721
100003.7603
100003.7786
100003.7886
100003.799
100003.8119
100003.816
100003.8088
100003.7986
100003.8023
100003.8203
100003.835
100003.8462
100003.8549
100003.8637
100003.8776
100003.8876
100003.8956
100003.9531
100004.0753
100004.0332
100004.1077
100004.1029
100003.9583
100003.9348
100003.9107
100003.8914
100003.8671
100003.8439
100003.8655
100003.8415
100003.823
100003.8043
100003.7936
100003.791
100003.8018
100003.8048
100003.8058
100003.811
100003.819
100003.8122
100003.7963
100003.7943
100003.8206
100003.858
100003.8728
100003.8722
100003.8665
100003.8706
100003.8927
100003.9
100003.88
100003.9061
100004.0275
100003.9808
100004.1662
100004.1016
100004.8672
100004.1317
100004.0425
100003.9586
100003.8949
100003.8561
100003.8148
100003.8293
100003.825
100003.8122
100003.7933
100003.7903
100003.8039
100003.7991
100003.8097
100003.8061
100003.8153
100003.815
100003.8029
100003.7874
100003.8063
100003.8629
100003.9121
100003.9259
100003.9082
100003.8793
100003.8617
100003.8659
100003.8688
100003.8728
100003.858
100003.8489
100003.9421
100003.9748
100004.0453
100004.0294
100004.006
100003.9293
100003.8914
100003.883
100003.8819
100003.8089
100003.9024
100003.8092
100003.8444
100003.8383
100003.8273
100003.8279
100003.8143
100003.8193
100003.8168
100003.8191
100003.8149
100003.7998
100003.7887
100003.8254
100003.8953
100003.9492
100003.9603
100003.9326
100003.8907
100003.8618
100003.8652
100003.8727
100003.8985
100003.9134
100003.8385
100004.2798
100004.1701
100004.1983
100004.2549
100004.6055
100004.0875
100004.1584
100003.8823
100003.8716
100003.8408
100003.8169
100003.8002
100003.7997
100003.8016
100003.8075
100003.8181
100003.8244
100003.829
100003.8261
100003.8243
100003.8209
100003.8073
100003.7982
100003.8258
100003.8898
100003.9409
100003.9491
100003.9208
100003.8795
100003.8524
100003.8545
100003.8671
100003.8937
100003.8973
100003.9028
100003.9321
100003.9494
100004.0404
100004.0079
100003.9669
100003.9414
100003.9218
100003.8846
100003.8639
100003.8525
100003.8539
100003.8321
100003.8277
100003.8259
100003.8262
100003.8298
100003.8347
100003.8387
100003.8334
100003.8293
100003.8273
100003.8198
100003.8189
100003.8337
100003.8648
100003.904
100003.9092
100003.8972
100003.8743
100003.8649
100003.8718
100003.8795
100003.8939
100003.8886
100003.8971
100003.9309
100003.9306
100004.0854
100004.1119
100003.9943
100003.9534
100003.8984
100003.8622
100003.8402
100003.8265
100003.8152
100003.8141
100003.8195
100003.8266
100003.8323
100003.8423
100003.8453
100003.8366
100003.8309
100003.8284
100003.8271
100003.84
100003.8632
100003.8862
100003.8979
100003.8975
100003.8959
100003.8894
100003.8868
100003.89
100003.893
100003.891
100003.8777
100003.894
100003.8999
100003.9007
100004.0196
100004.0063
100003.9641
100003.9333
100003.9101
100003.8755
100003.8547
100003.8429
100003.8333
100003.8282
100003.8272
100003.8301
100003.938
100003.9412
100003.9315
100003.923
100003.9163
100003.9001
100003.8825
100003.8809
100003.9014
100003.904
100003.911
100003.9749
100003.9368
100003.9055
100003.8773
100003.8563
100003.8422
100004.0341
100004.0322
100004.028
100004.0206
100004.0127
100004.0075
100004.0065
100004.0029
100003.9994
100003.9947
100003.987
100003.9716
100003.9502
100003.935
100003.9275
100003.9259
100003.9259
100003.9245
100003.9222
100003.9209
100003.9213
100003.9234
100003.9273
100003.9329
100003.9398
100003.9477
100003.9563
100003.9654
100003.9749
100003.9849
100003.9952
100004.0071
100004.0156
100004.0414
100003.9987
100003.9898
100003.974
100003.9543
100003.9332
100003.9326
100003.9344
100003.9363
100003.938
100003.9375
100003.9305
100003.9085
100003.881
100003.8668
100003.8625
100003.8681
100003.8801
100003.891
100003.8968
100003.8999
100003.9023
100003.9051
100003.9088
100003.9134
100003.919
100003.9257
100003.9336
100003.9427
100003.953
100003.9646
100003.9771
100003.9915
100004.0014
100004.022
100003.964
100003.9436
100003.9143
100003.8875
100003.8648
100003.8699
100003.8762
100003.8852
100003.8931
100003.8976
100003.8903
100003.8646
100003.8444
100003.8354
100003.8306
100003.8311
100003.8411
100003.8574
100003.8712
100003.8795
100003.8845
100003.8884
100003.8923
100003.8967
100003.9017
100003.908
100003.9161
100003.9261
100003.9379
100003.9514
100003.966
100003.9822
100003.9938
100004.0096
100003.9228
100003.8877
100003.8489
100003.8267
100003.8111
100003.8151
100003.8183
100003.8303
100003.8456
100003.8597
100003.8571
100003.8363
100003.8181
100003.81
100003.8056
100003.8049
100003.8095
100003.8235
100003.8404
100003.8531
100003.8616
100003.8675
100003.8726
100003.877
100003.8809
100003.8857
100003.8943
100003.9063
100003.9203
100003.9359
100003.9525
100003.9705
100003.9842
100004
100003.8832
100003.8373
100003.8043
100003.7957
100003.7825
100003.7849
100003.7818
100003.7871
100003.8041
100003.8305
100003.8401
100003.8358
100003.8055
100003.7948
100003.7884
100003.7868
100003.7904
100003.8006
100003.8157
100003.829
100003.8393
100003.8472
100003.8537
100003.8581
100003.8582
100003.8589
100003.8681
100003.8838
100003.9026
100003.922
100003.9409
100003.9611
100003.9758
100003.9933
100003.8516
100003.8085
100003.7896
100003.7825
100003.774
100003.7723
100003.7634
100003.7616
100003.7731
100003.8092
100003.8363
100003.8855
100003.8069
100003.7934
100003.782
100003.778
100003.7798
100003.7868
100003.7975
100003.8086
100003.819
100003.8282
100003.8361
100003.8398
100003.8323
100003.83
100003.8387
100003.8562
100003.8805
100003.9066
100003.9297
100003.9523
100003.9677
100003.9864
100003.8385
100003.8037
100003.7896
100003.7898
100003.7858
100003.7785
100003.7601
100003.7514
100003.7568
100003.8003
100003.8393
100004.2001
100003.8346
100003.8114
100003.7873
100003.7777
100003.7754
100003.7783
100003.7844
100003.7927
100003.8025
100003.8124
100003.8216
100003.8243
100003.8078
100003.8069
100003.8156
100003.8315
100003.8555
100003.8884
100003.9176
100003.9433
100003.9594
100003.9784
100003.8435
100003.8137
100003.8032
100003.8119
100003.8103
100003.797
100003.7676
100003.7482
100003.7449
100003.7627
100003.7953
100003.8589
100003.814
100003.8005
100003.7864
100003.7767
100003.7719
100003.7725
100003.7761
100003.7821
100003.7908
100003.8008
100003.811
100003.8129
100003.7903
100003.7912
100003.8017
100003.8165
100003.8363
100003.8699
100003.9038
100003.9317
100003.9465
100003.965
100003.8586
100003.8293
100003.823
100003.8362
100003.8345
100003.8169
100003.7802
100003.7537
100003.7447
100003.7528
100003.7812
100003.8194
100003.805
100003.7912
100003.7798
100003.7732
100003.7701
100003.7727
100003.7756
100003.7795
100003.7857
100003.7942
100003.8041
100003.8052
100003.7818
100003.7817
100003.7924
100003.8084
100003.8274
100003.8588
100003.8923
100003.9187
100003.9302
100003.9475
100003.8652
100003.8415
100003.8399
100003.8534
100003.8497
100003.8307
100003.7932
100003.7656
100003.7552
100003.7607
100003.7849
100003.806
100003.7969
100003.7855
100003.7785
100003.7768
100003.7761
100003.7847
100003.7879
100003.7882
100003.7893
100003.7939
100003.8013
100003.8028
100003.7868
100003.7817
100003.7896
100003.8073
100003.8319
100003.8615
100003.8864
100003.9059
100003.9134
100003.9302
100003.8694
100003.8517
100003.8521
100003.8616
100003.8553
100003.8378
100003.8053
100003.7819
100003.7735
100003.7802
100003.8006
100003.8066
100003.7959
100003.7885
100003.7855
100003.7908
100003.7922
100003.8148
100003.8224
100003.8134
100003.8048
100003.8021
100003.8047
100003.8064
100003.8049
100003.8077
100003.8173
100003.8324
100003.8501
100003.8674
100003.88
100003.8927
100003.8973
100003.9152
100003.873
100003.8592
100003.8588
100003.863
100003.855
100003.8398
100003.8145
100003.7971
100003.7932
100003.8039
100003.8161
100003.8092
100003.8006
100003.7981
100003.7982
100003.8179
100003.8227
100003.8785
100003.9136
100003.8695
100003.8374
100003.8208
100003.8144
100003.8102
100003.8079
100003.811
100003.8199
100003.8329
100003.847
100003.8597
100003.8684
100003.8785
100003.8824
100003.9019
100003.8744
100003.8621
100003.8578
100003.8562
100003.8474
100003.8347
100003.8169
100003.8068
100003.8132
100003.8252
100003.8229
100003.8103
100003.8059
100003.8114
100003.8113
100003.8546
100003.8784
100003.9868
100004.1538
100003.9793
100003.8901
100003.8486
100003.8287
100003.8138
100003.8045
100003.8033
100003.8093
100003.821
100003.8351
100003.8474
100003.8553
100003.865
100003.8694
100003.8906
100003.8781
100003.8683
100003.8588
100003.8505
100003.8401
100003.8312
100003.8216
100003.8205
100003.84
100003.8342
100003.8204
100003.8107
100003.804
100003.8231
100003.8193
100003.8731
100003.9469
100004.0415
100004.2994
100003.9367
100003.8985
100003.8755
100003.8464
100003.8194
100003.8039
100003.7992
100003.8021
100003.811
100003.8242
100003.8367
100003.8445
100003.8544
100003.8599
100003.8828
100003.8757
100003.873
100003.8652
100003.8529
100003.8401
100003.8351
100003.8322
100003.8428
100003.8535
100003.8301
100003.8177
100003.8081
100003.789
100003.8296
100003.8377
100003.9565
100004.2798
100003.9178
100006.6329
100004.4288
100004.279
100004.0292
100003.8882
100003.8283
100003.8053
100003.7984
100003.7994
100003.806
100003.8177
100003.8299
100003.8378
100003.8482
100003.8546
100003.8793
100003.8685
100003.8685
100003.8665
100003.8578
100003.8463
100003.8456
100003.8486
100003.8598
100003.8464
100003.8208
100003.8068
100003.7922
100003.7619
100003.7788
100003.7646
100003.7627
100003.7642
100003.7367
100003.6843
100003.7305
100003.7991
100003.8347
100003.8205
100003.806
100003.7988
100003.7977
100003.8008
100003.8072
100003.8175
100003.8284
100003.8358
100003.8467
100003.8539
100003.8802
100003.8644
100003.8639
100003.8644
100003.861
100003.8541
100003.8561
100003.8572
100003.8538
100003.8312
100003.8008
100003.7822
100003.7709
100003.7521
100003.7642
100003.7535
100003.8037
100003.8497
100003.9517
100004.2167
100004.0288
100003.9324
100003.8559
100003.8114
100003.7988
100003.7972
100003.8006
100003.8063
100003.8138
100003.8225
100003.8316
100003.8379
100003.8491
100003.857
100003.885
100003.8667
100003.8619
100003.863
100003.8607
100003.8566
100003.8559
100003.8474
100003.8381
100003.8075
100003.7621
100003.7468
100003.7492
100003.7481
100003.7493
100003.7223
100003.7083
100003.6958
100003.7038
100003.7428
100003.796
100003.829
100003.813
100003.7941
100003.7922
100003.7973
100003.8056
100003.8143
100003.823
100003.8307
100003.8381
100003.8429
100003.8543
100003.8624
100003.8926
100003.8801
100003.8635
100003.8643
100003.8567
100003.8494
100003.843
100003.8294
100003.8173
100003.7716
100003.7173
100003.7085
100003.7229
100003.7347
100003.7315
100003.7016
100003.6893
100003.6958
100003.7391
100003.7866
100003.8072
100003.8143
100003.7974
100003.7863
100003.7898
100003.7999
100003.8121
100003.8231
100003.832
100003.838
100003.8447
100003.8477
100003.8575
100003.8666
100003.9015
100003.8886
100003.8648
100003.8641
100003.8497
100003.836
100003.8242
100003.8114
100003.798
100003.7464
100003.6864
100003.6718
100003.6847
100003.6969
100003.6926
100003.6694
100003.6627
100003.6701
100003.6964
100003.746
100003.7892
100003.8028
100003.7894
100003.7837
100003.7922
100003.8064
100003.8207
100003.8314
100003.839
100003.843
100003.8504
100003.849
100003.8502
100003.8597
100003.9067
100003.975
100003.8974
100003.8877
100003.853
100003.8293
100003.8126
100003.7994
100003.7863
100003.7514
100003.6835
100003.6505
100003.6436
100003.6477
100003.6531
100003.6538
100003.6631
100003.6873
100003.7295
100003.7703
100003.7934
100003.7943
100003.7812
100003.7789
100003.794
100003.8125
100003.8277
100003.837
100003.8436
100003.8457
100003.8542
100003.8428
100003.8249
100003.8264
100003.8924
100003.9024
100003.8919
100003.8813
100003.856
100003.8316
100003.8109
100003.7979
100003.7796
100003.7617
100003.7096
100003.6508
100003.636
100003.6374
100003.6449
100003.6541
100003.6867
100003.7226
100003.762
100003.7852
100003.7896
100003.7755
100003.7624
100003.766
100003.7839
100003.8047
100003.8245
100003.8376
100003.8464
100003.8464
100003.8534
100003.8231
100003.7884
100003.7758
100003.8445
100003.8916
100003.8839
100003.8974
100003.8796
100003.8506
100003.8223
100003.8067
100003.7869
100003.7722
100003.7424
100003.6939
100003.6619
100003.6469
100003.6845
100003.7105
100003.7425
100003.764
100003.7838
100003.7882
100003.7734
100003.7515
100003.7502
100003.7604
100003.7787
100003.7983
100003.8173
100003.8331
100003.8464
100003.8443
100003.8401
100003.796
100003.7627
100003.7509
100003.8068
100003.8439
100003.8338
100003.8546
100003.8592
100003.8548
100003.8252
100003.7947
100003.758
100003.7838
100003.7721
100003.7604
100003.7359
100003.7077
100003.7439
100003.7548
100003.7714
100003.7821
100003.7924
100003.7803
100003.7517
100003.7421
100003.7516
100003.7656
100003.7849
100003.8005
100003.8136
100003.8251
100003.8411
100003.8379
100003.8008
100003.7364
100003.7049
100003.6657
100003.7035
100003.895
100003.7175
100003.7878
100003.8386
100003.8468
100003.8419
100003.8214
100003.7922
100003.7721
100003.8049
100003.7966
100003.775
100003.7601
100003.755
100003.7572
100003.777
100003.7854
100003.7921
100003.7952
100003.765
100003.7416
100003.7436
100003.7569
100003.7774
100003.7967
100003.8064
100003.8114
100003.8155
100003.8241
100003.8316
100003.835
100003.8123
100003.7482
100003.7339
100003.8502
100003.8889
100003.8793
100003.8193
100003.8144
100003.7906
100003.8029
100003.7781
100003.6935
100003.6211
100003.6491
100003.7038
100003.7754
100003.7874
100003.7975
100003.7979
100003.8072
100003.8048
100003.8028
100003.7991
100003.7634
100003.7432
100003.7464
100003.7639
100003.7872
100003.8056
100003.8111
100003.8112
100003.8123
100003.8183
100003.8297
100003.8528
100003.8423
100003.7486
100003.7189
100003.913
100003.8914
100003.8892
100003.3086
100003.7834
100003.6768
100003.7701
100003.8008
100003.7962
100003.7653
100003.779
100003.7851
100003.7914
100003.8006
100003.8117
100003.8197
100003.8256
100003.8176
100003.8117
100003.8109
100003.7757
100003.7507
100003.7513
100003.7657
100003.7885
100003.8053
100003.81
100003.8095
100003.8096
100003.8146
100003.8313
100003.8612
100003.8559
100003.8328
100003.8166
100003.8319
100003.953
100003.9231
100003.8772
100003.857
100003.8278
100003.8171
100003.8038
100003.7895
100003.7551
100003.7748
100003.7863
100003.8011
100003.813
100003.8233
100003.8308
100003.8402
100003.8274
100003.819
100003.8224
100003.8011
100003.7782
100003.7698
100003.7797
100003.8013
100003.8165
100003.8269
100003.8317
100003.8324
100003.8428
100003.8554
100003.8709
100003.8405
100003.8317
100003.831
100003.8389
100003.9503
100003.915
100003.8883
100003.8616
100003.8406
100003.8247
100003.8137
100003.8026
100003.8004
100003.8037
100003.8114
100003.8208
100003.8293
100003.8361
100003.8598
100003.8341
100003.8245
100003.823
100003.8098
100003.8026
100003.8047
100003.8083
100003.8283
100003.8385
100003.8506
100003.8529
100003.8515
100003.8573
100003.8653
100003.8555
100003.8276
100003.835
100003.8255
100003.8415
100003.9421
100003.9185
100003.9003
100003.8816
100003.872
100003.842
100003.8276
100003.8173
100003.8137
100003.8145
100003.8177
100003.8222
100003.8846
100003.8953
100003.8931
100003.8895
100003.8954
100003.87
100003.8388
100003.8267
100003.8369
100003.8281
100003.8524
100003.9212
100003.8939
100003.8716
100003.8502
100003.8353
100003.8247
100003.9915
100003.984
100003.9761
100003.9682
100003.9617
100003.9561
100003.9529
100003.9497
100003.9467
100003.9431
100003.9379
100003.9304
100003.9222
100003.9149
100003.9082
100003.903
100003.8998
100003.8987
100003.8989
100003.9003
100003.903
100003.907
100003.9123
100003.9185
100003.9255
100003.9328
100003.9404
100003.948
100003.9557
100003.9636
100003.9719
100003.9824
100003.9907
100004.0168
100003.956
100003.9467
100003.9355
100003.9253
100003.9165
100003.9103
100003.9064
100003.9039
100003.9027
100003.9012
100003.8977
100003.8919
100003.8861
100003.8817
100003.8779
100003.8753
100003.8744
100003.8752
100003.8774
100003.8802
100003.8837
100003.888
100003.8929
100003.8986
100003.9049
100003.9119
100003.9196
100003.928
100003.9372
100003.9472
100003.9578
100003.9701
100003.9786
100003.9993
100003.9272
100003.914
100003.9004
100003.8883
100003.8787
100003.8732
100003.8701
100003.8688
100003.8687
100003.869
100003.8663
100003.8619
100003.8562
100003.8528
100003.851
100003.8506
100003.8512
100003.8534
100003.8572
100003.8618
100003.8665
100003.8715
100003.8769
100003.8827
100003.889
100003.8962
100003.9045
100003.914
100003.9249
100003.9369
100003.9494
100003.9628
100003.9715
100003.9851
100003.8985
100003.8816
100003.866
100003.8527
100003.8426
100003.8381
100003.8355
100003.8351
100003.8365
100003.8395
100003.8381
100003.836
100003.8267
100003.8233
100003.8218
100003.8225
100003.825
100003.8286
100003.8338
100003.84
100003.8463
100003.8524
100003.8586
100003.8648
100003.8711
100003.8787
100003.8877
100003.8983
100003.9105
100003.9242
100003.9384
100003.9533
100003.963
100003.9751
100003.8775
100003.8572
100003.8402
100003.8258
100003.8147
100003.811
100003.8098
100003.81
100003.8125
100003.8191
100003.8199
100003.8288
100003.8048
100003.8015
100003.7996
100003.7998
100003.802
100003.806
100003.8119
100003.819
100003.8266
100003.834
100003.8412
100003.8478
100003.8541
100003.8621
100003.8722
100003.884
100003.8975
100003.9128
100003.9286
100003.9454
100003.9562
100003.9696
100003.8663
100003.843
100003.8232
100003.8095
100003.8003
100003.7954
100003.792
100003.7932
100003.7958
100003.8066
100003.8119
100003.8517
100003.7841
100003.7855
100003.782
100003.7816
100003.783
100003.7867
100003.7926
100003.8001
100003.8084
100003.8168
100003.825
100003.832
100003.8379
100003.8463
100003.8574
100003.8705
100003.8853
100003.9019
100003.9191
100003.9377
100003.949
100003.963
100003.8651
100003.8386
100003.8171
100003.808
100003.8006
100003.7929
100003.7837
100003.7808
100003.7844
100003.7947
100003.8089
100003.7785
100003.7456
100003.7702
100003.7696
100003.7691
100003.7694
100003.7722
100003.7773
100003.7845
100003.7931
100003.8022
100003.8113
100003.8181
100003.823
100003.831
100003.8436
100003.858
100003.8742
100003.8917
100003.9096
100003.9293
100003.9418
100003.9553
100003.8688
100003.844
100003.8211
100003.8188
100003.8112
100003.8
100003.7841
100003.7755
100003.7749
100003.7802
100003.7758
100003.7297
100003.7535
100003.7659
100003.7639
100003.7615
100003.7607
100003.763
100003.7667
100003.7731
100003.7815
100003.7908
100003.8004
100003.8063
100003.8097
100003.8175
100003.8303
100003.8469
100003.8647
100003.8821
100003.8993
100003.9183
100003.9296
100003.942
100003.8712
100003.856
100003.8317
100003.8318
100003.8243
100003.8105
100003.7898
100003.7774
100003.775
100003.7803
100003.7799
100003.7733
100003.7704
100003.7669
100003.7611
100003.7574
100003.7552
100003.7587
100003.7611
100003.7662
100003.7736
100003.7825
100003.7918
100003.797
100003.7999
100003.808
100003.8212
100003.8388
100003.8568
100003.8731
100003.8883
100003.9052
100003.9131
100003.9246
100003.8692
100003.8527
100003.8381
100003.8414
100003.8337
100003.8192
100003.7975
100003.7847
100003.7829
100003.7885
100003.7906
100003.7882
100003.7781
100003.7687
100003.7608
100003.7572
100003.7525
100003.7584
100003.7587
100003.7633
100003.7696
100003.7774
100003.7856
100003.7909
100003.7949
100003.8027
100003.8155
100003.8322
100003.8488
100003.8641
100003.8775
100003.892
100003.897
100003.9076
100003.8645
100003.8479
100003.8413
100003.8438
100003.8368
100003.8238
100003.8054
100003.7955
100003.796
100003.8015
100003.8019
100003.796
100003.7833
100003.7725
100003.7629
100003.7613
100003.7495
100003.7599
100003.7564
100003.7632
100003.769
100003.7758
100003.7829
100003.7885
100003.7936
100003.8018
100003.8136
100003.8278
100003.8421
100003.856
100003.8676
100003.8795
100003.8827
100003.8938
100003.8596
100003.8474
100003.8432
100003.8432
100003.8367
100003.8262
100003.8131
100003.8077
100003.8117
100003.8159
100003.8125
100003.8028
100003.7895
100003.7788
100003.7644
100003.7676
100003.7399
100003.7402
100003.7423
100003.762
100003.7697
100003.777
100003.7833
100003.7882
100003.7934
100003.8012
100003.8114
100003.823
100003.835
100003.847
100003.857
100003.8674
100003.8702
100003.8829
100003.8541
100003.8466
100003.843
100003.8406
100003.8347
100003.8274
100003.8199
100003.8197
100003.8269
100003.8273
100003.8185
100003.8081
100003.7951
100003.7863
100003.7603
100003.7637
100003.7159
100003.6457
100003.686
100003.7411