/*--------------------------------*- C++ -*----------------------------------*\
  =========                 |
  \\      /  F ield         | OpenFOAM: The Open Source CFD Toolbox
   \\    /   O peration     | Website:  https://openfoam.org
    \\  /    A nd           | Version:  8
     \\/     M anipulation  |
\*---------------------------------------------------------------------------*/
FoamFile
{
    version     2.0;
    format      ascii;
    class       volScalarField;
    location    "0.7";
    object      alphat;
}
// * * * * * * * * * * * * * * * * * * * * * * * * * * * * * * * * * * * * * //

dimensions      [1 -1 -1 0 0 0 0];

internalField   nonuniform List<scalar> 
67286
(
0.0001614650142
0.0001754025225
0.0001773091919
0.0001791300093
0.000180519628
0.0001800741249
0.0001769821646
0.0001762347927
0.0001854121858
0.0001903534634
0.0001781142676
0.00016309
0.0001512107227
0.000142550034
0.0001353002312
0.0001274480896
0.0001256702121
0.0001233388107
0.0001204962139
0.0001451021766
0.0001886520763
0.000234331629
0.0001985153883
0.0001607866777
0.0001182944951
0.0003567345709
0.0001937584975
0.00016111333
0.000172790935
0.0001888978781
0.0001908185102
0.000192500717
0.000194139453
0.0001951073468
0.0001949577711
0.0001899434001
0.0001757054966
0.0001725051041
0.0001643767312
0.0001551145403
0.0001470543546
0.0001406295418
0.0001346882155
0.000129023633
0.0001252195013
0.0001217978918
0.0001182646146
0.0001245393354
0.0001422896896
0.0001826030008
0.0001456668781
0.0001133905167
0.0003361745089
0.0001952791117
0.0001673993171
0.0002279049234
0.0003243751095
9.573804749e-05
0.0001048205215
0.0001081267451
0.0001817721242
0.0002033981951
0.0002063225439
0.0002064092069
0.0002048159375
0.0002020243163
0.0002000935527
0.0001985822021
0.000194596194
0.000184170227
0.0001726623406
0.0001620192937
0.0001524639562
0.0001443253536
0.0001370862587
0.0001304610579
0.0001247098497
0.0001195697464
0.0001146561701
0.0001114508867
0.0001075060113
0.000118487856
8.878335797e-05
0.0002311293934
0.0001416134872
0.000164958179
0.0002162844461
0.0002981233542
9.304473782e-05
0.000106992874
0.0001136993393
0.0001116978467
0.000188893533
0.0002201719932
0.0002229585562
0.0002205011987
0.0002143265295
0.0002038868583
0.0001957000609
0.000189753345
0.0001870734568
0.000183841114
0.0001774612321
0.0001690297056
0.0001602893294
0.0001516452908
0.0001433923798
0.000135456409
0.0001280145997
0.0001206287473
0.0001129135678
0.0001058630279
9.755114303e-05
8.811782187e-05
0.0002663773395
0.0001708452013
0.0001734763579
0.0002021134885
0.0002709632851
8.941689072e-05
0.0001042288901
0.000115374732
0.0001201185538
0.0001143951321
0.0001243936754
0.0001923970382
0.0002339202508
0.0002342425279
0.0002313494477
0.0002243813144
0.0002097064466
0.0001968666962
0.0001866486443
0.0001798249615
0.0001753323064
0.0001710730762
0.0001659773682
0.0001599844641
0.0001519555029
0.0001444604567
0.0001368333064
0.0001286586819
0.0001201122821
0.0001122890052
0.0001085786746
0.0001047268607
9.764784583e-05
0.0003596954231
0.0002407546919
0.0002180550455
0.0002455464568
0.0003522018149
0.0001015973599
0.0001136078456
0.0001218807651
0.000124299016
0.0001169156024
0.0001310628516
0.0001989937517
0.0002338738786
0.0002346326005
0.0002367179953
0.0002492171001
0.0002123198871
0.0001961059101
0.000183135583
0.0001737284361
0.0001674275103
0.0001628019295
0.0001571090321
0.0001464809468
0.000133735687
0.0001290770188
0.0001296413245
0.0001287028047
0.0001240415083
0.0001141271047
0.0001125336137
0.0001113297714
0.0001087812864
9.532929623e-05
0.0003000995558
0.0002735568904
0.0003000823667
9.410700186e-05
0.0001105175606
0.0001200704847
0.0001268188666
0.0001208151375
0.0001192954771
0.0001347463657
0.0001980088038
0.0002275561419
0.0002287167355
0.0002432704475
0.0002203636184
0.0002051936841
0.0001912046305
0.0001783563971
0.0001682255468
0.0001606066808
0.0001537390846
0.0001400053695
0.0001265135333
0.0001285430804
0.0001370620757
0.0001507975203
0.0001565476202
0.0001504487164
0.0001261554929
0.0001200127093
0.0001194497993
0.0001161091784
0.0001056359652
8.847267399e-05
0.000341845471
0.0003189267231
8.777411308e-05
9.704759026e-05
0.0001051710005
0.000110294181
0.0001158078612
0.0001148175867
0.0001238208382
0.0001967736191
0.0002209678875
0.0002200694513
0.0002182617763
0.0002101148171
0.0001989049601
0.0001855121425
0.0001727126415
0.0001618248946
0.0001506857042
0.000138767627
0.0001246411936
0.0001324511391
0.0001482697857
0.0001692550266
0.0001894603157
0.0001961694253
0.0001872144425
0.0001485704108
0.0001309418584
0.000130668113
0.0001284534639
0.0001174831855
0.0001008905494
9.501299442e-05
9.08736102e-05
9.08150153e-05
9.847822517e-05
0.0001052131854
0.0001098987596
0.0001130441933
0.0001151338339
0.0001216985481
0.000195011625
0.0002144087259
0.0002125996456
0.0002095265456
0.0002025604075
0.0001916880524
0.0001784238639
0.0001668660189
0.0001570381272
0.0001472171946
0.0001317376727
0.0001377676919
0.0001592145822
0.0001822112121
0.0002089309276
0.0002266010031
0.0002284085828
0.0002176569916
0.0001797920626
0.0001486108755
0.0001420737231
0.0001373068877
0.0001308543861
0.0001192523512
0.000110335411
0.0001075500626
9.488443724e-05
9.937309988e-05
0.0001057770278
0.000110679914
0.0001171467239
0.0001268788899
0.000136813289
0.0001927116395
0.0002078185084
0.0002049921319
0.0002010512585
0.0001933036938
0.0001813005136
0.0001686705395
0.0001605069966
0.0001522919521
0.0001412354834
0.000140399344
0.0001658007972
0.000194789139
0.0002201664727
0.0002404099957
0.0002547839289
0.0002583562748
0.0002459473421
0.0002131085358
0.0001723390168
0.0001537555839
0.0001521707929
0.0001448039343
0.0001353918432
0.0001271341167
0.0001283606461
0.0001087920751
0.0001032192457
0.0001078883917
0.0001142977964
0.0001232761998
0.000138439846
0.0001666996161
0.0001895582691
0.0002007946234
0.000195928951
0.000189405054
0.0001803015695
0.0001711310681
0.0001721129434
0.0001657371813
0.0001530622239
0.0001457972316
0.0001634929838
0.0001931163204
0.0002197535044
0.0002424882269
0.0002669171754
0.0002894183368
0.0002981931539
0.0002860575094
0.0002533865397
0.0002045350885
0.0001616944892
0.0001617541146
0.0001566318394
0.0001535387547
0.0001469160272
0.0001454066874
0.0001300094053
0.0001141253365
0.0001126930324
0.0001210679075
0.0001363263716
0.0001665560649
0.0002201461182
0.0001848832068
0.0001920663526
0.0001850556371
0.0001810177914
0.0001910212638
0.0002125673145
0.0002195324281
0.0002066787806
0.0001782851081
0.0001638824629
0.0001803442085
0.0002071549432
0.0002316739904
0.0002553889597
0.0002754003005
0.0002893751202
0.0002991967534
0.0003020287987
0.0002534083101
0.0002039070757
0.0001774148022
0.0001740915452
0.0001837298346
0.000174280745
0.0001639767152
0.0001565024532
0.0001460816525
0.0001318437092
0.000134127433
0.0001664918373
0.0002162858523
0.0002669790124
0.0003233395876
0.000178388998
0.0001843918507
0.0001876181644
0.0002113277739
0.0002412102911
0.000257767092
0.0002631910802
0.0002516999316
0.0002157490897
0.0001781971794
0.0001758678669
0.0001938513327
0.0002149465665
0.0002395251505
0.0002630303581
0.0002794795673
0.0002854981492
0.0002724229675
0.0002053478421
0.0001735827858
0.0001862249617
0.0001854802368
0.000196869282
0.0001852828602
0.0001725810709
0.0001630264356
0.0001582554967
0.000146943354
0.0001375468157
0.0001520186049
0.0001940192407
0.000243701381
0.000295638486
0.0001722932418
0.0001904952575
0.0002182950907
0.0002508016093
0.0002719520964
0.0002885291279
0.000297400915
0.000291936326
0.000260290958
0.0002061323429
0.0001738420503
0.0001751897823
0.0001972513993
0.0002232182048
0.0002416968291
0.0002538330484
0.0002581462629
0.0002460219781
0.0001744916219
0.0001732339846
0.0001870859193
0.000192122607
0.0001917222466
0.000179835236
0.0001697681905
0.0001667120944
0.0001683652818
0.0001620864397
0.000150993072
0.0001458278191
0.0001674025687
0.0002102196132
0.0002554541764
0.0001758246586
0.000218265013
0.0002497631198
0.0002698296979
0.0002879339484
0.0003027871744
0.0003120524939
0.0003122933443
0.0002968534152
0.0002608206916
0.0002046478701
0.0001631198746
0.0001743814236
0.0002015688153
0.0002204333513
0.0002298517736
0.0002310961576
0.0002129114282
0.0001616065956
0.0001692658993
0.0001822406179
0.0001911521709
0.000184493479
0.0001725655353
0.000169376199
0.0001767370258
0.0001800713245
0.0001771342885
0.0001684091457
0.0001561670956
0.000155274813
0.000181761354
0.0002232985391
0.0001985807106
0.0002473372075
0.0002676630079
0.0002816262118
0.0002956634751
0.0003072592879
0.0003147510571
0.0003153577543
0.0003039430685
0.0002654376555
0.0002143300082
0.0001655248071
0.0001527957585
0.0001716837512
0.0001922921364
0.0001990306509
0.0001909985733
0.0001773175947
0.0001566887593
0.0001659663656
0.0001749448861
0.0001833329524
0.0001812005976
0.0001690240642
0.0001817575522
0.0001894082994
0.0001936265087
0.0001927933919
0.0001843020977
0.0001691839147
0.0001615711175
0.0001675747241
0.0001929631167
0.0002072438392
0.000253148502
0.0002691135041
0.0002797429603
0.000290885716
0.0003009117097
0.000307477715
0.0003072775199
0.0002945303073
0.0002560539597
0.00021158086
0.0001637921326
0.0001376196758
0.0001422171253
0.0001579288803
0.0001606165374
0.000152745406
0.0001592703194
0.0001706595418
0.0001717358834
0.0001687114913
0.0001752820758
0.000170783796
0.0001795481675
0.0001912259969
0.0001997060747
0.0002055480748
0.0002072486846
0.0002024074291
0.0001867055444
0.0001716863314
0.0001721995289
0.000182723333
0.0002040375847
0.0002485635797
0.0002642454793
0.0002731164435
0.000281362825
0.0002883147504
0.0002917782417
0.0002881511433
0.0002723770008
0.0002307912692
0.0001794268311
0.0001464746986
0.0001307110012
0.0001309500106
0.0001456060577
0.0001646662654
0.0001815515852
0.0001628377457
0.0001615159773
0.0001636779531
0.0001652469159
0.0001694862147
0.0001685788541
0.0001850098625
0.0002006638035
0.0002126633407
0.0002148612871
0.0002150554048
0.0002127948817
0.000199907623
0.0001831345066
0.0001778477075
0.0001854925237
0.0001932580228
0.0002371580648
0.0002542153445
0.0002635136684
0.0002697323378
0.0002736207553
0.0002734039786
0.0002648129869
0.0002373527082
0.0001850590078
0.0001523365065
0.0001465199388
0.0001489280954
0.0001417654028
0.0001429618293
0.0001582152989
0.0001707628563
0.0001634377848
0.0001613633003
0.0001628940046
0.0001642284652
0.0001651457546
0.0001707870978
0.0001991091742
0.0002336543617
0.0002595131509
0.000245411325
0.0002220503959
0.0002159080666
0.0002077852185
0.0001944482943
0.0001818880897
0.0001866343205
0.0001758144448
0.0002185765594
0.0002374277196
0.0002480133483
0.0002536510019
0.0002548847577
0.0002498416727
0.0002322625697
0.0001943262879
0.0001536192147
0.0001403067035
0.000140665835
0.0001436466923
0.0001390314417
0.0001453016634
0.0001542087487
0.0001601194987
0.0001575865028
0.0001577683346
0.0001584467543
0.0001589623153
0.0001660841117
0.0001992807115
0.0002556358236
0.0003227602132
0.0003682326589
0.0003438797626
0.000268011726
0.0002258958581
0.0002136036889
0.0002022654551
0.0001889047128
0.0001839783842
0.0001533931806
0.0001924147092
0.0002120111351
0.0002222429062
0.000225536883
0.0002225408168
0.0002114212142
0.000188227788
0.0001551694595
0.0001362094494
0.0001340031857
0.0001358789211
0.0001380259773
0.0001386392354
0.000145652095
0.0001502675302
0.0001519550412
0.0001507552917
0.0001509231982
0.0001525636691
0.0001651308305
0.0002077373476
0.000281070273
0.0003599684644
0.0004409458733
0.0004966462896
0.0004805802497
0.0003936465657
0.0002997096885
0.0002313316645
0.0002065173423
0.0001934505164
0.0001843536565
0.0001309914258
0.0001624698546
0.0001799122668
0.0001879215913
0.0001875370315
0.0001801223094
0.000166433149
0.0001479545725
0.0001319906407
0.0001289261309
0.000131742155
0.000134208609
0.0001362108696
0.0001390488504
0.0001438343289
0.0001460799307
0.0001473238362
0.000146694978
0.0001506801253
0.0001661341495
0.0002159809993
0.0002996125967
0.000387580579
0.0004632688465
0.0005496912239
0.0006126783862
0.000605177726
0.0005345096383
0.0004343960144
0.0003271567297
0.0002424594952
0.0002030667889
0.0001865923075
0.0001146976406
0.0001374233208
0.000149745743
0.0001546115516
0.0001520976813
0.0001444451851
0.0001347925322
0.0001261958719
0.0001227073546
0.0001254517562
0.0001301117555
0.0001334361193
0.0001364222869
0.0001404821355
0.0001453777309
0.0001491568506
0.000154222947
0.0001594807025
0.000167847495
0.0002094121135
0.0002977883904
0.0003961399783
0.0004747327099
0.0005363692631
0.0006244186682
0.0006877107461
0.0006817615863
0.0006308704585
0.0005447738131
0.0004513295404
0.0003480694921
0.0002549245801
0.0002008359028
0.0001064508091
0.0001233723529
0.0001308050155
0.0001334723115
0.0001314731838
0.0001267024133
0.0001217209801
0.000118657509
0.0001193599601
0.0001235594362
0.0001289251273
0.0001334767985
0.0001379322927
0.0001428198752
0.000147018661
0.0001498222729
0.0001553646053
0.0001651517974
0.0001990702465
0.00028084698
0.0003879121551
0.0004821195419
0.0005534380854
0.0005845948999
0.000673827299
0.0007399353939
0.0007244160974
0.0006752540106
0.0005968962132
0.0005123163949
0.0004236719534
0.0003200936059
0.0002259129201
0.0001033238032
0.000118228634
0.0001233347767
0.0001252990215
0.0001245475934
0.0001220917535
0.0001192902485
0.0001176000246
0.0001188484541
0.0001230006056
0.0001283137865
0.0001331603471
0.0001374816478
0.0001411838117
0.0001441067085
0.0001471273075
0.0001542566228
0.0001752545291
0.0002385339377
0.0003471254988
0.0004610635744
0.0005624066491
0.0006243411506
0.0006243703494
0.000697982387
0.0007865524039
0.0007322442236
0.0006694743346
0.0005859529525
0.0005000793428
0.0004161857011
0.0003240906294
0.0002362321321
0.0001009390622
0.000116204664
0.0001212005619
0.0001234315257
0.0001236591376
0.0001224853998
0.0001207166492
0.000119281522
0.0001200418782
0.0001234036502
0.0001279957736
0.0001323445489
0.0001357501899
0.0001381426851
0.0001402488443
0.0001440207144
0.0001551109571
0.0001900128859
0.0002681817895
0.0003712150369
0.0004732305946
0.0005860584545
0.0006770520631
0.0005597365538
0.0006352871198
0.0007361652606
0.0006816155258
0.0006140648014
0.0005353688518
0.0004574976418
0.0003800104847
0.0002973674842
0.0002233246881
9.511854672e-05
0.0001119359211
0.0001187800718
0.0001222683679
0.0001235417008
0.0001233124143
0.0001222339181
0.0001212316677
0.000121651501
0.0001240421056
0.0001276227056
0.0001310348059
0.000133438289
0.0001347755228
0.0001362998798
0.0001400836408
0.0001498869574
0.0001764600644
0.0002365207936
0.0003274401767
0.0004235246078
0.0005182289341
0.0006183021297
0.0004804591323
0.0005622719746
0.0006495006824
0.0005976018669
0.0005381257054
0.0004709522353
0.0004033847489
0.0003307231915
0.0002584298395
0.0002012321697
0.0001352234948
9.939007213e-05
0.0001106011821
0.0001178828661
0.0001214432852
0.0001226738804
0.000122610934
0.0001222130487
0.0001225523721
0.0001242009486
0.0001267152176
0.0001290963035
0.0001307918012
0.0001316797332
0.0001327555669
0.0001358829598
0.0001436757186
0.0001611593509
0.0001978515476
0.0002631209168
0.0003498585316
0.0004349242199
0.0005134316154
0.0004072863449
0.0004878653397
0.000567582383
0.0005110634866
0.0004610844206
0.0004033736728
0.0003410900956
0.0002759777116
0.0002187600743
0.0001802848239
0.0001715360053
0.0002645487236
8.94828213e-05
0.0001035893838
0.0001131427079
0.0001180350517
0.0001199124619
0.0001204580262
0.0001208786623
0.0001218700868
0.0001233729015
0.0001248426824
0.0001259909424
0.0001265845902
0.0001270486981
0.0001289402528
0.0001344969598
0.0001466882134
0.0001689695426
0.0002074841278
0.0002681097875
0.0003430338391
0.0004102758378
0.0003333064785
0.0004044727378
0.0004897226069
0.0004195282206
0.0003751357911
0.0003268361835
0.0002738228762
0.0002232784178
0.0001859106238
0.0001634196422
4.280663744e-05
6.488909144e-05
0.0001303270893
0.0002468563624
0.0001467537553
0.0001009837949
0.0001075797944
0.0001104519231
0.0001115703044
0.0001121563963
0.0001127305424
0.000113334907
0.0001139589127
0.0001143372871
0.000114396007
0.0001154945008
0.0001200802081
0.0001307199571
0.000147591346
0.0001702007283
0.0002009804052
0.0002427692121
0.0002853827016
0.0002542790093
0.0003013357278
0.0003760673548
0.0003081540998
0.0002725549273
0.0002391095473
0.0002051814979
0.0001772609797
0.0001586593933
0.0001459408175
0.0001491444999
0.000266193636
0.0003278249728
0.0003731816083
0.0003992283921
0.0004012760529
0.0003832189481
0.0003502348892
0.0002940330322
0.0002919258072
0.0002883402314
0.0002713593382
0.0002430244207
0.0002102952139
0.0001792996874
0.0001521939637
0.000147904903
0.0001447157903
0.0001381923353
0.000176707286
0.0003750432178
0.0004968484772
0.0003531971212
0.000152952447
0.0001106785232
0.0001805824185
0.0001437073871
0.0001390998813
0.0001606392025
0.0003345147994
0.0004195465295
0.0004695834561
0.0005018117535
0.0005242280791
0.0005333598791
0.0005271634042
0.0004560198752
0.0003768423171
0.0003213626771
0.0002758110985
0.0002385580519
0.0002076925837
0.0001771891329
0.0001561463215
0.0001462812364
0.0001414553576
0.000134570982
0.0001441106021
0.0001920505393
0.000191915486
0.0001347341983
9.34450405e-05
0.000131899227
0.0001417970126
0.0001617696029
0.0001894794883
0.0001873300844
0.0001349404307
0.0001218535262
0.0001212648212
0.0001719040901
0.0004180224035
0.0004928355757
0.0005207253486
0.0005350309978
0.0005349505622
0.0005189417923
0.000496550355
0.0004720210324
0.0004387516937
0.0003828953924
0.0003105241259
0.000253498103
0.000212545007
0.0001821381181
0.0001611077697
0.0001483839157
0.0001392324808
0.0001303451194
0.0001252841303
0.0001213348352
0.0001147705195
0.0001066561997
0.0001043027964
0.0001090345843
0.0001603003372
0.000186826048
0.0001959723218
0.0001530421961
0.0001239810334
0.0001212093231
0.0001229780751
0.0001818609511
0.0004962393652
0.0005428148625
0.0005461728599
0.0005291613026
0.0004988161766
0.000462363907
0.0004286802269
0.0004028957965
0.0003845184304
0.0003622315228
0.0003172697825
0.000262747441
0.0002208960895
0.000192376936
0.0001717560295
0.0001562436843
0.0001428515453
0.0001301639069
0.0001202601844
0.0001117726664
0.0001218963653
0.0001364914292
0.0001335771391
0.0001732057414
0.000171839075
0.0001867466438
0.0001670350378
0.0001265778912
0.0001164075328
0.0001263209956
0.0001294925965
0.0001460388365
0.0001770355433
0.0004944891265
0.0005389387636
0.0005406213421
0.000519538775
0.0004726178146
0.0004269223556
0.0003860517127
0.0003460242597
0.0003184540373
0.0003061335053
0.0002829174379
0.0002436058753
0.0002151028594
0.0002040404697
0.0001898355702
0.0001753536357
0.0001565188623
0.0001392744217
0.0001259125936
0.0001189789651
0.0001296868656
0.0002172108154
0.0002137241778
0.0002001216498
0.0001864428046
0.0001732878525
0.0001277651044
0.0001138525888
0.000111293535
0.0001309012679
0.000133616739
0.0001661859648
0.0001882713219
0.0004977064867
0.000546349472
0.0005493752267
0.0005640264247
0.000442243767
0.0004005169681
0.000351611053
0.000302596428
0.0002679412993
0.0002420056531
0.0002047883503
0.0001841681221
0.0002022745882
0.0002439607268
0.0002288746432
0.0002022081666
0.0001624196258
0.0001383531202
0.0001266631143
0.0001333983265
0.000159204349
0.0001707480927
0.0002166278258
0.0001895698065
0.0001634614922
0.0001169978718
0.0001065752799
0.0001018387758
0.0001109928402
0.0001146431452
0.0001288902904
0.0001771252303
0.000189221981
0.0004698486782
0.0005230367847
0.0007434681714
0.0004563534607
0.0004084829757
0.0003664524643
0.0003238349287
0.0002701611568
0.00021862246
0.0001930557569
0.0001603745355
0.0001638759757
0.0002506633905
0.0002966538022
0.0002261743467
0.0001921593019
0.000153145123
0.0001333983976
0.0001252344193
0.0001249837113
0.0001344740857
0.0001524603018
0.000178407393
0.0001695393008
0.0001485745746
0.0001392842396
9.663727467e-05
9.611532234e-05
8.337184843e-05
0.0001028207354
0.0001266276389
0.0001663675069
0.0001866199444
0.0004172515194
0.0004386671003
0.0004375991198
0.0004048043864
0.0003696401443
0.0003400577445
0.0002916888281
0.0002318895593
0.000192168875
0.0001738577784
0.0001457071862
0.0001682452804
0.0002686768914
0.0003338259294
0.000205459677
0.0001612879645
0.000131404362
0.0001280946787
0.0001286359223
0.0001273751176
0.0001203430892
0.0001257217363
0.0001460423461
0.0001297566001
0.000143342107
0.0001023578995
9.986132447e-05
0.00011379774
0.0001155182085
0.0001089770952
0.0001151697377
0.0001410917833
0.0001832110648
0.0003771536813
0.0003851984855
0.0003766191397
0.0003575464877
0.000331526311
0.0003148597301
0.0002914345977
0.0002377462621
0.0001923865696
0.0001501122631
0.0001400769143
0.0001466770951
0.0001826465575
0.0002007835109
0.0001507424404
0.0001266251655
0.0001151891766
0.0001248303326
0.0001473698876
0.0001465115892
0.0001373031166
0.000138976911
0.0001623167902
0.0001718648808
0.0001323116035
0.0001007470638
0.0001016140187
0.0001106043961
0.000113987784
0.0001169954889
0.0001462950496
0.0001775406301
0.000179141787
0.0003412000838
0.0003444663111
0.0003275086312
0.000309098914
0.0003039187285
0.0003094522944
0.0002939471607
0.0002336745595
0.0001800985942
0.0001500999832
0.0001470371584
0.000150668153
0.0001633215203
0.000178383082
0.0002115042965
0.0002139588154
0.000183588808
0.0001526991599
0.0001821984003
0.0001474010312
0.0001570607274
0.0001444703411
0.0001419440158
0.0001675739345
0.00012790148
0.0001067981101
0.0001019521749
0.0001080863696
0.0001159529954
0.0001258010467
0.0001461103545
0.0001653664814
0.0001745251513
0.0002958475721
0.000290401967
0.0002741763379
0.000268172383
0.0002741981611
0.000278997794
0.0002544722565
0.0002001084872
0.0001686273088
0.0001657550017
0.0001679743982
0.000180996035
0.0002271713639
0.0003013067988
0.0003652947349
0.0003642860356
0.0003156429604
0.000248287967
0.0001803945412
0.0001888759398
0.0001520055287
0.0001593612836
0.0001738540834
0.000168051518
0.0001478717375
0.0001260896617
0.0001113369052
0.0001093479159
0.000112780733
0.0001162291758
0.0001065690495
0.0001449155393
0.0001695344879
0.0002539591804
0.0002448171284
0.0002364919338
0.0002405759378
0.0002497953838
0.0002467975847
0.0002226883211
0.0001976476928
0.0001913054993
0.0001998164579
0.0002116872031
0.0002425564661
0.0003084357541
0.00036541203
0.0003904205753
0.000391164698
0.0003613278262
0.0002431289327
0.0002026098121
0.0002207018442
0.0002007770557
0.0002464673636
0.0002236612433
0.0001967799759
0.0001713167162
0.0001489220105
0.0001322883129
0.000126085118
0.0001295852755
0.0001306215025
0.0001246174509
0.0002731797963
0.0001642238717
0.0002238437455
0.0002213406605
0.0002310080696
0.0002569156915
0.0002828254827
0.000291924457
0.0002859121086
0.0002722267724
0.000258788316
0.0002643672141
0.0002719168484
0.0002736159115
0.0002891814188
0.0003422689162
0.0003909871129
0.0003787917851
0.0002869200465
0.0002096739517
0.0002276564288
0.0002417817723
0.0002512114791
0.0002951504804
0.0002581265407
0.0002218508565
0.0001981561381
0.0001770911439
0.0001581025312
0.0001465123241
0.000147267306
0.0001598575748
0.000166331249
0.0002145858444
0.0001591414352
0.0002105975882
0.0002345666727
0.0003005198279
0.0004057283668
0.0004866115098
0.0005232260657
0.0005248633327
0.0004874426012
0.0004202915178
0.0003559873958
0.0003113210392
0.0002944848544
0.000271151962
0.0002606428553
0.0002769646838
0.0002553325009
0.0002195032113
0.0002215260189
0.0002604611521
0.0002834220895
0.0002919552327
0.0003105525135
0.0002702388622
0.0002393487237
0.000235734931
0.0002269535289
0.0002045509363
0.0001819019101
0.0001659236566
0.000164508185
0.0001797587682
0.0002120007771
0.0001571646023
0.0002179202225
0.0002804803703
0.0003739765472
0.0004544244282
0.0005041094649
0.0005320760084
0.0005349588771
0.000500951408
0.0004313806528
0.0003607787584
0.0003018953251
0.0002211887397
0.0001973018315
0.0002239706029
0.000206760227
0.0001891904349
0.0001955645083
0.0002098418478
0.0002682342196
0.0002985799691
0.0003091101207
0.0003233754516
0.00027463855
0.0002722082042
0.0003049715579
0.0003255418188
0.0003066230652
0.000262659782
0.0002075428313
0.0001808968611
0.0001944655152
0.0002314035594
0.0001640530379
0.0002320976655
0.0003079999888
0.0003806016253
0.0004371832854
0.0004753149984
0.0004981216219
0.0004964437242
0.0004571353031
0.0003741411741
0.0002859012094
0.0002292083316
0.0001829295032
0.0001655615789
0.0001893908001
0.0001865663111
0.0001905756303
0.000217590755
0.000249788819
0.0003398212644
0.0003626495124
0.0003346442391
0.0003292321243
0.0002905338945
0.0003353963158
0.0004098590442
0.0004417318656
0.0004238212984
0.0003762393765
0.0002885000605
0.0002314463157
0.0002516082218
0.0003081446674
0.0001680389636
0.0002362184947
0.0003056653324
0.0003554385189
0.0003964047438
0.0004288537193
0.0004460328211
0.0004347189004
0.0003819348636
0.0002917185233
0.00022126136
0.0001818702214
0.0001737213572
0.0001872879082
0.0001914374916
0.0002280120594
0.0002759949405
0.0003304640388
0.000376192442
0.0004507408389
0.0004009745513
0.0003635216742
0.00028991694
0.0002958168568
0.0003970510083
0.0004980974291
0.0005405976049
0.0005348290502
0.000491356604
0.0004097113662
0.0002915120459
0.0002582094263
0.000291835306
0.000165059206
0.0002261920653
0.0002840122683
0.0003220722307
0.0003424946734
0.0003578417343
0.0003580542393
0.0003278712666
0.0002690066313
0.0002254824176
0.0002174634766
0.0002240600212
0.0002356418839
0.0002468153063
0.0002284572292
0.0003289571169
0.0003894853707
0.0004325039459
0.0003859565677
0.0004085872227
0.0003985085706
0.000353928374
0.0002688382292
0.0003116821407
0.0004339463993
0.0005507379474
0.0006138785395
0.0006223013017
0.0005878497313
0.0005195629858
0.0003959443983
0.0002880370601
0.0002868591771
0.000155864286
0.0002083277043
0.0002491130813
0.0002799439841
0.0002871445753
0.0002804403509
0.000263060099
0.0002325459515
0.0002010093457
0.0001936060801
0.0002042383132
0.0002165553755
0.0002309104816
0.0002456090161
0.0002462587025
0.0003227761595
0.0003735421628
0.0003992345733
0.0003853803084
0.0003935095756
0.0003818870863
0.0003258191621
0.0002633751388
0.0003312368755
0.0004561451117
0.0005706498158
0.0006548979696
0.0006865778966
0.0006539669444
0.0005857066129
0.0004912722351
0.0003484331456
0.0003026323265
0.0001419047701
0.0001879089518
0.000214128427
0.0002320270043
0.0002295767595
0.0002122925278
0.0001934857035
0.0001795327589
0.0001756189438
0.0001821512378
0.0001928449362
0.0002024665113
0.0002160030855
0.0002252326898
0.0002367149628
0.0003004466136
0.0003399836863
0.0003622335138
0.0003632215679
0.000363756825
0.0003291796474
0.0002745049651
0.0002626282297
0.0003447177434
0.0004766194946
0.0006290196029
0.0006968753203
0.0007089911001
0.0007025890147
0.0006362945945
0.0005531942826
0.0004066479477
0.0003229389807
0.0001259121578
0.0001670162548
0.0001853313045
0.0001952766027
0.0001886968052
0.0001707789506
0.0001557176635
0.0001508131498
0.0001560187673
0.0001684206877
0.0001839622554
0.0001962316694
0.0002048591695
0.0002060023363
0.0002285164399
0.0002738906982
0.0003024581033
0.0003190371669
0.0003218820882
0.0003054519929
0.0002698116828
0.0002477039326
0.0002783542669
0.0004045470902
0.0007632567062
0.001090286762
0.001104506833
0.0008528390764
0.0006603609169
0.0006362202025
0.0005656337124
0.0004360954064
0.0003389886708
0.0001117781166
0.0001490066285
0.0001631388696
0.0001718618026
0.000167422542
0.0001513181419
0.0001352499028
0.000128549515
0.000133937038
0.0001499400239
0.0001724706979
0.0001909316562
0.0002010647954
0.0002124038807
0.0002459615643
0.0002885200456
0.0003220512171
0.0003460967957
0.0003476227829
0.0003186634108
0.0002815626936
0.0002837375936
0.0003957522787
0.0008106204192
0.001358167424
0.001642807633
0.001631033718
0.001311781237
0.0008196134504
0.0005559320767
0.0004960935737
0.0004275636064
0.0003459586958
0.0001021492634
0.0001375897536
0.0001503741178
0.0001616640148
0.0001634017912
0.0001502301078
0.0001293309296
0.000116242736
0.0001196236093
0.0001375409742
0.0001627585342
0.0001834336817
0.0001993317569
0.0002290025725
0.0002742161058
0.0003090597362
0.0003368978971
0.0003658940412
0.0003769711729
0.0003553246331
0.0003396386114
0.0004329979544
0.0007388507301
0.001179692279
0.001707879304
0.001999886243
0.001986740663
0.00166022325
0.001119233974
0.000653097734
0.0004515840842
0.0003878773266
0.0003370158741
9.688814745e-05
0.0001321217331
0.000146619407
0.0001625525675
0.0001711648285
0.0001601110052
0.0001332644597
0.0001146135286
0.0001153454376
0.0001322545396
0.000155639081
0.000175001437
0.0001979478565
0.0002366864412
0.0002736024506
0.0003029737067
0.0003281846608
0.0003493177889
0.0003515174961
0.0003350761965
0.0004065384253
0.0007586068153
0.0011476762
0.001392550371
0.00185278204
0.002149380423
0.002151973203
0.00182744157
0.001299204467
0.0007782405311
0.0004907495597
0.0003627063839
0.0003157912738
9.398501529e-05
0.000129180975
0.0001461355023
0.0001663854433
0.0001807435477
0.0001729495916
0.0001457878726
0.0001242221401
0.0001209898199
0.0001341534333
0.0001536757847
0.0001714846974
0.0001954086821
0.0002291705608
0.0002567234105
0.0002815600388
0.0003000500406
0.0002986118478
0.0002663118228
0.0002853165246
0.0004930197114
0.0009667025976
0.001335630182
0.001442644107
0.001768930073
0.002089535768
0.002090637968
0.001754429609
0.001239780064
0.0007553280313
0.0004906413473
0.0003661301683
0.0003109963375
9.05028468e-05
0.0001251440056
0.0001418327015
0.0001634880909
0.0001823929587
0.0001827899952
0.0001627069569
0.0001423725352
0.0001346863288
0.0001411561451
0.0001539255558
0.000168180794
0.0001884881968
0.0002150276382
0.0002356520047
0.0002562705671
0.0002696348274
0.0002655386376
0.0002596181178
0.0002707659887
0.0004033340313
0.0008829339721
0.001194867827
0.001224843059
0.001382887782
0.001761227241
0.001749172354
0.001404254963
0.0009757280685
0.0006196606443
0.0004326321579
0.0003486753167
0.0002960816473
0.0003383603198
0.0001168402513
0.0001283414711
0.0001465563689
0.0001664113407
0.0001774082891
0.0001729422327
0.0001600010993
0.0001494440901
0.0001476307891
0.0001532532685
0.0001634613067