/*--------------------------------*- C++ -*----------------------------------*\
  =========                 |
  \\      /  F ield         | OpenFOAM: The Open Source CFD Toolbox
   \\    /   O peration     | Website:  https://openfoam.org
    \\  /    A nd           | Version:  8
     \\/     M anipulation  |
\*---------------------------------------------------------------------------*/
FoamFile
{
    version     2.0;
    format      ascii;
    class       volScalarField;
    location    "0.7";
    object      epsilon;
}
// * * * * * * * * * * * * * * * * * * * * * * * * * * * * * * * * * * * * * //

dimensions      [0 2 -3 0 0 0 0];

internalField   nonuniform List<scalar> 
67286
(
0.1644527944
0.1539149428
0.1589944509
0.1639602112
0.1678310977
0.1666169491
0.1581651173
0.1560352095
0.1816413456
0.1966193445
0.1610791352
0.1236680917
0.09858481472
0.08261705746
0.07065967769
0.05908041484
0.05662985568
0.05352424519
0.04989861113
0.08703851828
0.1913656796
0.3670986767
0.222942977
0.118333267
0.04707851335
0.004350662796
0.002363626115
0.001965001254
0.2015862631
0.1922533172
0.1981757466
0.2034806024
0.2087555471
0.2119413639
0.21149268
0.1956426802
0.1547429737
0.1463745786
0.126635798
0.1064254526
0.09069837665
0.07933435622
0.06970420038
0.06128144919
0.05601341485
0.05154170788
0.04717986798
0.05503047968
0.08203370122
0.173597624
0.08799498971
0.04146821764
0.004097917898
0.002381473098
0.00204222254
0.002779901218
0.003956300783
0.02499068702
0.03281712296
0.03603128479
0.2347231008
0.2400332884
0.2505299427
0.2508557343
0.245125954
0.2352854589
0.2286293853
0.2235030658
0.2103535084
0.1783173665
0.146902327
0.1213611454
0.1011232466
0.08577482099
0.07350075445
0.06334735122
0.05532858865
0.04876237905
0.04299085172
0.03946240132
0.03539613783
0.04740006899
0.01992834879
0.002818235482
0.001726784932
0.002012800357
0.002638574915
0.003636302377
0.02293654202
0.03489757085
0.04190497143
0.03972565736
0.2634610898
0.304515249
0.3162351015
0.3058770811
0.2809050438
0.2418751891
0.2139022559
0.1949947135
0.1868585977
0.1773489387
0.1595197363
0.137834911
0.1175309104
0.09951586866
0.0841292485
0.07091332176
0.05985039077
0.05007284135
0.0410627118
0.03383324947
0.02646223693
0.01949159732
0.003248615019
0.002083402681
0.002116570713
0.002466012438
0.003305080517
0.02035593124
0.03225580311
0.04378337305
0.04943305935
0.04267335765
0.05486079501
0.2784552487
0.3653809822
0.366869239
0.3533212647
0.3222539493
0.2631705042
0.2177511647
0.1855704673
0.1659580605
0.1538327408
0.1428947694
0.1305003256
0.1168663682
0.1001463405
0.08604037539
0.07310696526
0.06075552845
0.04942192296
0.04038359192
0.03650467211
0.03275255619
0.02653082283
0.004386457661
0.002936011569
0.002660217789
0.00299543908
0.004295883571
0.02987494147
0.04180365038
0.05163813386
0.05480171716
0.04555619429
0.0641927276
0.3081004594
0.36509107
0.3684176185
0.3774238593
0.4375475365
0.2727579045
0.2151522126
0.1752495011
0.149621913
0.1339344124
0.1231493025
0.1106905267
0.08973056341
0.06826156716
0.06132974522
0.06208217851
0.06070082766
0.05433091278
0.04236021527
0.04062275555
0.03933206708
0.03668102494
0.02466748157
0.003659919347
0.003337148316
0.003660816822
0.02374517819
0.03848585741
0.04938351644
0.05820917816
0.05031542038
0.04840453369
0.06979986152
0.3035287894
0.3362484266
0.3408140672
0.4024848623
0.3046301413
0.2464127785
0.1994232683
0.161869934
0.1358381282
0.1182233706
0.1037160732
0.07835641311
0.05775308675
0.0604949504
0.07325161744
0.09749043718
0.1090767765
0.09682863171
0.05713569719
0.04924086009
0.04856455724
0.04463914458
0.03360069111
0.01971076017
0.004170385571
0.003891133771
0.01927465357
0.02605343583
0.03317255064
0.03827033046
0.04432170323
0.04313275
0.05395037004
0.297899914
0.3079444551
0.3041265055
0.2961232523
0.2646374826
0.2245323952
0.1821371316
0.1469795226
0.120915387
0.09766512338
0.07630425407
0.05517958362
0.06610928651
0.09269981282
0.1378592259
0.1934949839
0.2149561936
0.1868921154
0.0933098548
0.06394239712
0.06355046919
0.06044561933
0.04624376013
0.02925289192
0.02445482085
0.02138075061
0.02134924823
0.02722849456
0.03320869882
0.03785123678
0.04119740404
0.04349249738
0.05128498438
0.2899692861
0.2813319047
0.2742520276
0.2624664241
0.237179453
0.2009669729
0.1620385024
0.1325540017
0.1105020956
0.09107250699
0.06520384414
0.07434077804
0.1146996819
0.1719836571
0.2596583375
0.3317192662
0.3399758713
0.2942442842
0.1654889322
0.09345585034
0.08173936722
0.07383963927
0.06394703968
0.04833517378
0.03829089963
0.03544256123
0.0243474442
0.02798066071
0.03374599201
0.03865146008
0.04581605533
0.05820192368
0.07293497775
0.2798247308
0.2561745078
0.245849565
0.2319120158
0.2061179708
0.1700214612
0.1368954974
0.11798896
0.1007957958
0.08038928808
0.07872634074
0.1295430031
0.2102701111
0.3039900255
0.3962926396
0.4720859592
0.4925040351
0.4249103579
0.2761625841
0.1459465907
0.103662554
0.1005027272
0.08662460977
0.07080769958
0.05859663668
0.06030002347
0.03670657307
0.03135777353
0.03580267924
0.04255375762
0.05334400974
0.07541004462
0.1313741397
0.2663010916
0.2310588255
0.2146482849
0.1938858612
0.1672375207
0.1429774201
0.1454026111
0.1298333353
0.1022843024
0.08826500164
0.1242697913
0.2049522929
0.3024215651
0.4066538448
0.5427058089
0.6924106429
0.7579198267
0.6690631331
0.4646129806
0.2440757252
0.1206519383
0.1207706138
0.1096326039
0.1032584685
0.09044117987
0.0876931867
0.06268378934
0.04239388565
0.04079406923
0.05053091303
0.07197977743
0.1310187989
0.3026568388
0.2470623381
0.2022029909
0.1808311395
0.1691890373
0.19869813
0.2737995243
0.3016796766
0.2517417435
0.1615670258
0.1253519004
0.1669683763
0.2533088897
0.3546680501
0.4754381658
0.5964926175
0.6921917473
0.7653213428
0.7876795563
0.4647562689
0.2419832999
0.1593657723
0.1505404013
0.1769961764
0.1510108671
0.1257559059
0.1093503055
0.0889763914
0.06535266872
0.068494727
0.1306517834
0.2870865193
0.5419395675
0.9643494736
0.2219013438
0.1788697353
0.1883237406
0.2690433767
0.4002760087
0.4886504912
0.5202868381
0.4551755357
0.2866025314
0.1613415339
0.154987442
0.207610072
0.2832130983
0.3921359611
0.5195642057
0.6234632804
0.6647693932
0.5776176872
0.2470725111
0.1491656089
0.1842740866
0.182061341
0.2177467591
0.1814758818
0.1466348262
0.1236215863
0.1131422496
0.09057349985
0.07410480032
0.09949597806
0.2067195788
0.4110175892
0.735803432
0.1998598334
0.1971165341
0.2966014568
0.4500606754
0.5739910379
0.6856174865
0.7510225461
0.7105357568
0.5035291461
0.2499199743
0.1498192477
0.1531852662
0.2186826444
0.3172292485
0.4029818194
0.4669159674
0.4911365152
0.4252024411
0.1514261087
0.1482521709
0.1867758501
0.2022946903
0.2010367561
0.1659282174
0.1396082204
0.1322234171
0.1362345156
0.1215749263
0.09824710942
0.08822246562
0.1328686067
0.263281747
0.4738694512
0.2123298178
0.2965947846
0.4446050553
0.5607431616
0.6814817752
0.7926951037
0.8679836834
0.8702243713
0.7474390495
0.5067549933
0.2446532807
0.1237711999
0.1509603721
0.2333326308
0.3054709372
0.3464172363
0.3519285135
0.2752280321
0.1203161814
0.1383099197
0.1726012614
0.1991768668
0.1791391391
0.1466285614
0.1386641855
0.1575496826
0.1666597802
0.1586624471
0.1363841642
0.1086869901
0.1064300869
0.1700697693
0.3156118929
0.3059228643
0.4319078495
0.5475930915
0.6379382792
0.7383199017
0.8288457408
0.8911722994
0.8965003282
0.8026897815
0.5343521226
0.2811916866
0.129484325
0.1016011176
0.1439904976
0.2025411251
0.2246738172
0.1983411274
0.1587860075
0.1097166898
0.1304121703
0.1527201041
0.1757420385
0.1697770839
0.1377978619
0.1713584681
0.19393182
0.2072088498
0.2045798692
0.1787762774
0.1382719192
0.1203247099
0.133828124
0.2037432178
0.3476064592
0.4629826254
0.5565007535
0.6252085583
0.70306932
0.7784886853
0.830774532
0.8293099044
0.730279463
0.479552399
0.2703536971
0.1254354282
0.07430400512
0.08183358603
0.1121181318
0.1180147899
0.1014294811
0.1151043991
0.1417356356
0.1444941133
0.1370077716
0.153651019
0.1421385542
0.1651725862
0.1995292834
0.2272711605
0.2478727994
0.2541164198
0.236766946
0.1858783659
0.1444763342
0.1456664704
0.1737182259
0.3315334252
0.4380750863
0.5266720313
0.5816899083
0.6361207103
0.6845826031
0.7096960535
0.6836488464
0.5772905517
0.3507687866
0.1647481951
0.08967094145
0.063698597
0.06393848953
0.08787322707
0.1271713159
0.1706921649
0.1231800684
0.1202112455
0.1251282872
0.1287695852
0.138929653
0.1367044597
0.1806042088
0.2302465321
0.2740239951
0.2829194527
0.2839043187
0.275087579
0.2281094629
0.1753878753
0.1605671716
0.1821673791
0.2814949808
0.3802336719
0.4686779193
0.5222702254
0.5602685156
0.5849668504
0.5836739502
0.5303754879
0.3816487061
0.1806399768
0.1007682339
0.08968351117
0.09423882142
0.08127630352
0.08325495784
0.1128397953
0.1419712611
0.12459035
0.1199221952
0.1233836922
0.1264420231
0.128542743
0.1419562754
0.2244071608
0.3620242836
0.4962563622
0.4202953513
0.3121423572
0.2872909179
0.2561074216
0.2098984592
0.1717774612
0.1855830862
0.2117360462
0.2973872647
0.3814974181
0.4350677851
0.4655668783
0.4725010708
0.4450460105
0.3575222888
0.2092182856
0.1032920466
0.07872551712
0.07933431129
0.08451858932
0.07663536661
0.08749392706
0.1045880824
0.1171032807
0.1116820269
0.112079616
0.1135420451
0.1146176768
0.1304474958
0.2243392947
0.472887938
0.9532904202
1.41894876
1.155656935
0.54676376
0.3283406435
0.278139403
0.2362246806
0.1924211429
0.1777423798
0.1405010512
0.2026347062
0.271323995
0.3127103109
0.3268968961
0.3140631815
0.2692975436
0.1900180053
0.1064150207
0.07201332424
0.06860041328
0.07152399868
0.0749792993
0.07599784377
0.08814902204
0.09680324755
0.1001116593
0.09777140631
0.09809632821
0.1012584626
0.1279316648
0.2534765671
0.6278589564
1.322496895
2.438895795
3.492098745
3.163993155
1.734170635
0.7639103474
0.3520935611
0.2511811389
0.2065898787
0.1788192729
0.08749656075
0.1218916714
0.1656323965
0.1888535062
0.1877246174
0.166315493
0.1312074856
0.09221065632
0.06550765194
0.06108977155
0.06520463901
0.06894530817
0.07207940952
0.07668628391
0.08489086781
0.08893202622
0.09123579452
0.09005226148
0.0974932778
0.130117744
0.2844588746
0.7600822361
1.651777699
2.828974829
4.736722173
6.570326639
6.33397629
4.356236973
2.332207907
0.993306061
0.4045892265
0.2384656644
0.1853241456
0.05880441601
0.07379677053
0.09549643025
0.1051527127
0.1001301223
0.08577474938
0.06972382988
0.05725135607
0.05266155124
0.05628982508
0.0628139958
0.06776344111
0.07241769544
0.07907846003
0.08764421839
0.09465066493
0.1046309316
0.1156675612
0.1344028155
0.2592912905
0.7457322771
1.763151938
3.045947207
4.398749173
6.952528455
9.301271253
9.062975366
7.17606473
4.614017997
2.617179425
1.196462979
0.4696519465
0.2304046174
0.04707167911
0.05347103774
0.06372112391
0.0677152311
0.06473861816
0.05795971687
0.05140145975
0.04762650471
0.04848114743
0.05378219946
0.06110559705
0.06781688902
0.07484114132
0.08308761582
0.09064044688
0.09590288708
0.1069055416
0.1280945941
0.2229818922
0.6253561989
1.654896165
3.190428801
4.838250328
5.699341822
8.743070368
11.59409344
10.87521394
8.801486559
6.073312216
3.834957857
2.163082399
0.9298994447
0.3270914419
0.04307308001
0.04710757803
0.05347713139
0.05608185992
0.05509209588
0.05190718213
0.04841810893
0.04638429333
0.04786931157
0.05305888954
0.06023896287
0.06733010056
0.07410269443
0.0802547134
0.08534282268
0.09079175033
0.104496704
0.1524804149
0.3826222637
1.182706007
2.787079184
5.077580995
6.958923133
6.946152601
9.723027268
13.9583536
11.22960343
8.569730661
5.738144176
3.56166047
2.048608029
0.9650205306
0.3738382713
0.04016105136
0.04474361667
0.05077303423
0.05363682168
0.05394276978
0.05242773095
0.05018998137
0.04841434724
0.04933462939
0.05358809107
0.05979451341
0.06610070599
0.07133763852
0.07517525708
0.07865460297
0.08510711229
0.1059832831
0.1935081418
0.5433113758
1.448945214
3.017059148
5.753179789
8.921309111
4.991957829
7.311664688
11.41377799
9.038686128
6.599479981
4.3681566
2.722146026
1.556867341
0.7445961432
0.3156409957
0.03359374268
0.03998085566
0.04778833533
0.05213585954
0.05379066087
0.05349769899
0.05210782564
0.05083185387
0.05135207529
0.0544299327
0.05927666327
0.06415967217
0.06775678316
0.06980986624
0.07218891395
0.07831591875
0.09569885609
0.1551739839
0.3718092683
0.9893701125
2.154837922
3.964038311
6.769444996
3.150793181
5.058675764
7.820316551
6.07714911
4.432495975
2.967994402
1.862408278
1.024443576
0.4882852918
0.2310309799
0.01316625548
0.02796378658
0.03855466323
0.04670784566
0.05108550358
0.05266354814
0.05258627776
0.05207396619
0.05250185639
0.05464118756
0.05802245937
0.06135369748
0.06380430998
0.06510994971
0.0667038559
0.07148871256
0.08438243292
0.1186508335
0.2182071372
0.5117302415
1.207415514
2.333911659
3.858708921
1.915489215
3.297392709
5.211429869
3.792087926
2.782034246
1.860939963
1.123678943
0.5944634764
0.2963163889
0.1664151003
0.002897662181
0.003225489159
0.0203899231
0.03165986875
0.04128263397
0.04689466396
0.04917850679
0.04985488579
0.05037498984
0.05161815096
0.05354640363
0.05548061331
0.05702638182
0.05783647491
0.05846463676
0.06108424084
0.06925457054
0.08967937492
0.1365857929
0.2515969251
0.5416186091
1.138091864
1.958161599
1.04797004
1.874577133
3.339397638
2.090821895
1.49443102
0.9879100155
0.5805295785
0.3149025728
0.1822773087
0.1241703195
0.0007969583775
0.0009032272064
0.00181437929
0.003437930722
0.01397351593
0.03344582734
0.04046174494
0.04380284022
0.04515020306
0.04586328882
0.04656776078
0.04731814004
0.04810374401
0.0485859411
0.04865503696
0.05004560804
0.05618863429
0.07239675162
0.1040663334
0.159235003
0.2612494982
0.4594757838
0.748288913
0.5308842494
0.8823766586
1.718248414
0.9420188739
0.6522757905
0.4406762925
0.2787170771
0.1801294315
0.1294925026
0.1009259195
0.1734704012
0.1217159493
0.1137903633
0.1205310009
0.1361764924
0.1548665831
0.1703391825
0.1763662057
0.1431920984
0.1191535618
0.09300182865
0.072060419
0.05755836914
0.05185481477
0.04623542048
0.03427514797
0.03538408932
0.04051231
0.03833320829
0.0607188155
0.1393403835
0.1950043399
0.1026393316
0.03846985017
0.01777095955
0.005004912889
0.002606135377
0.002634763562
0.2167670954
0.145624893
0.1343375484
0.1391716287
0.1502104309
0.1668196466
0.1870507673
0.2107765751
0.222239195
0.1767330042
0.1318562344
0.09862094211
0.07584158771
0.06202310839
0.0493850254
0.04033861991
0.03833504791
0.03964168811
0.03735955111
0.04310504919
0.05804575495
0.054015536
0.02868424483
0.01248287677
0.004068593294
0.002266076695
0.003005685253
0.004600533991
0.007720871956
0.01671751929
0.02471951972
0.02838968968
0.2656741636
0.1888726461
0.1755077755
0.1726825463
0.1689818722
0.162383361
0.1540571824
0.1510817043
0.1606915129
0.1636141781
0.14364575
0.1139708175
0.08939414304
0.07219193883
0.05898929046
0.04976694269
0.04420088874
0.0404602715
0.03649198385
0.034018061
0.0281158352
0.02227140532
0.008722030739
0.00308309593
0.001856124987
0.002929563463
0.003907340457
0.005402629909
0.01067197639
0.02201227382
0.03045480692
0.0300027129
0.3146765097
0.2583647278
0.2264738353
0.2094235714
0.1859105851
0.1546807177
0.1333656701
0.1208088153
0.1186018475
0.1224507011
0.1197639183
0.1087732203
0.0955324584
0.08335325661
0.07240941271
0.06234865109
0.05345082758
0.04528559518
0.03738001091
0.03149937829
0.02461356373
0.01469450133
0.008100167433
0.003591600219
0.003403521187
0.003361740699
0.004386595424
0.006577844233
0.01255848223
0.03103290719
0.04252188805
0.03297728822
0.04296631077
0.2903534734
0.2734882402
0.2389701164
0.2420146428
0.2468686585
0.1641317401
0.1346465196
0.1128817158
0.09782753321
0.0927114085
0.09357063935
0.0984172422
0.09813906506
0.09060763983
0.08206225179
0.06930952017
0.05692228565
0.0453996812
0.03725199187
0.03268286499
0.02954198814
0.02557479699
0.01545034837
0.007163160237
0.00407607762
0.004063620908
0.004654568899
0.01166583131
0.02333184097
0.05226348283
0.06041149626
0.04066345633
0.06023853865
0.3492188936
0.2933054435
0.2974309767
0.4872759984
1.071483791
0.240110972
0.1392266315
0.1030472754
0.08334726413
0.0746450432
0.08024535009
0.09109934592
0.07697209995
0.07035321463
0.07027706841
0.0566977949
0.04791713838
0.03950568185
0.03429787173
0.03343959642
0.03914981662
0.02948250066
0.02107977133
0.006211762268
0.004554899361
0.003782207605
0.007852842978
0.01742561155
0.04075585282
0.06643972959
0.05243141918
0.04716733005
0.07745657697
0.354364794
0.2766702649
0.3083928042
0.9778632321
0.3139047891
0.1684699792
0.1239095669
0.0983008993
0.07756553814
0.06848117833
0.08520084043
0.06808493114
0.05341619095
0.06837644628
0.07486765684
0.06651168426
0.05398109161
0.04402663235
0.03485250647
0.03330298189
0.03509550895
0.03629959295
0.02223492797
0.009687506801
0.009898111741
0.006541179403
0.007811837298
0.01386328155
0.02034762661
0.0326810875
0.04521486768
0.04005980851
0.0853706544
0.340107177
0.2314743748
0.2054415007
0.2401472445
0.1844546663
0.1477165266
0.1307800622
0.1079346728
0.08345983567
0.08289603906
0.07734660094
0.04707045345
0.0479763968
0.07880553208
0.1218635149
0.09005066862
0.06552497406
0.05383601698
0.04393131745
0.03803684044
0.04190224528
0.03027722214
0.02171661864
0.01988006393
0.01756255676
0.01961597337
0.01329577957
0.01634552882
0.02304321197
0.02465654573
0.02599033502
0.03039092285
0.05472701746
0.3218089525
0.203707352
0.1725258912
0.1688858577
0.1579403587
0.1537169282
0.1465235988
0.1303304469
0.09901159563
0.08501353059
0.06051370628
0.04850208754
0.05253278511
0.06938930419
0.08880287407
0.09874027626
0.1050838145
0.09910848453
0.07427388355
0.06777481632
0.0656920453
0.05512698791
0.03783273655
0.0364927622
0.04835180577
0.03417223683
0.01713604428
0.01695074579
0.02068766659
0.01948137991
0.02366459704
0.04310230868
0.06981771228
0.3008208944
0.1812133748
0.1559723044
0.1502824537
0.1502267795
0.1483268832
0.1415098647
0.1226650528
0.1002961386
0.08251460173
0.05947097056
0.05961467603
0.07246813221
0.09823806969
0.1403138796
0.242710221
0.2946926569
0.2836784463
0.1910503316
0.1353009812
0.1059387236
0.08712605285
0.05357758783
0.04755762925
0.07128233898
0.04517450524
0.02746400198
0.02018101059
0.02043717103
0.02113124302
0.02689984532
0.04762324946
0.09344672123
0.2781392744
0.1658638546
0.1444836763
0.1371843398
0.1341608685
0.1314674626
0.1277518897
0.1158966803
0.09758553232
0.07701573552
0.07153804451
0.0769696329
0.1072818576
0.2061738215
0.376212687
0.5734448464
0.6299798385
0.5796076373
0.4685655589
0.1407498995
0.1602446719
0.1169752913
0.09191353246
0.07597751285
0.07292375692
0.06402323835
0.0467880634
0.03072796223
0.02576372462
0.02636126233
0.03474742047
0.08800678016
0.4004468381
0.2549391067
0.1526371683
0.1327243543
0.1278755576
0.1387764234
0.1611524839
0.1691205189
0.1542480233
0.1228414098
0.09658982125
0.09135557427
0.1025776698
0.1719430921
0.2944364843
0.415477658
0.5145454279
0.6059500172
0.6479796423
0.3025639182
0.1526231818
0.2164426017
0.1487422278
0.2105589112
0.1147804695
0.09805007858
0.08267169037
0.06667438445
0.04872639179
0.04163556162
0.05222173443
0.08839747593
0.2529554027
1.155877144
0.2317036734
0.1409321007
0.1352737159
0.1620192265
0.2074080825
0.2405862821
0.2604892786
0.266113264
0.2311522227
0.1629665224
0.1266382684
0.1163612054
0.1406755652
0.2124226745
0.3387488381
0.458755051
0.4868857172
0.3273546103
0.132577292
0.1545495171
0.186852624
0.1588977934
0.2281864184
0.1348737762
0.1135130117
0.09729724811
0.08350202638
0.06676074674
0.05528344872
0.05570299294
0.07288194776
0.1380817421
0.5650200283
0.2108079251
0.1435217043
0.177654965
0.2526565412
0.3801307609
0.5356295137
0.6343814066
0.6659474169
0.5867244632
0.398463879
0.2292578499
0.1427270934
0.1276901211
0.1189926635
0.1607121061
0.2224378915
0.2188787111
0.1267322749
0.1283769935
0.1549771762
0.1773054107
0.1811216308
0.2048814215
0.1367708054
0.1198223173
0.110515254
0.09796213694
0.08519105717
0.07557062714
0.07001939563
0.07607113219
0.1008699738
0.194817191
0.2029828775
0.1737123073
0.2293720646
0.3329341981
0.4482608109
0.5446387322
0.6133109787
0.6360927187
0.5769228466
0.4303034004
0.2848067357
0.1777377881
0.1051688739
0.08012964008
0.07870002981
0.08850916259
0.1040753833
0.1155378183
0.08929197762
0.1069985634
0.1490945927
0.169036935
0.1735048468
0.1371235557
0.1303304003
0.1305787478
0.1194489636
0.1086388303
0.09948613939
0.08979814347
0.08914304907
0.1173410196
0.2254149007
0.2307747629
0.2103783312
0.2626641125
0.3477445698
0.4369120263
0.5174904299
0.5796521149
0.6022393956
0.5552228777
0.4045728856
0.1930794622
0.1024608675
0.0797769046
0.0680474395
0.07737216577
0.08368371723
0.09787028285
0.1136569981
0.1116962892
0.1461730749
0.138817593
0.1463882297
0.1678919698
0.1437347182
0.1473933266
0.1507088456
0.1488252839
0.1442767793
0.13231932
0.1188180399
0.1227335622
0.1743847524
0.2893165525
0.247880176
0.2239631754
0.2650185358
0.3271750148
0.3982044899
0.4748508283
0.5356592616
0.546618553
0.4672587063
0.2775626709
0.1394592606
0.08185055489
0.07006200313
0.06982933049
0.07018317055
0.1002135862
0.1334377778
0.1596580661
0.1417346062
0.1939599539
0.1680808332
0.1603495936
0.144425159
0.1461749432
0.1583029747
0.1679305942
0.1772624781
0.1764794524
0.1619867786
0.1471489918
0.1356709026
0.1598080843
0.2090563406
0.2347839498
0.2137510902
0.2437128654
0.2945730795
0.3359674725
0.3814691566
0.4094784574
0.3781401783
0.2668542533
0.1511804637
0.1177590524
0.1175633833
0.1245383734
0.1388540526
0.08170942621
0.1284784629
0.153840472
0.1848028131
0.1319209574
0.1296588894
0.1434193075
0.1558600746
0.1324797711
0.1484246953
0.1655759131
0.186686823
0.2001093584
0.1998363729
0.1858944171
0.1736353039
0.1651174398
0.1631656532
0.1805884319
0.1975557893
0.1870488892
0.2125889571
0.2416145274
0.2648745807
0.2726123008
0.2618555364
0.2171268519
0.1520932783
0.1014413451
0.08795182075
0.09428022851
0.1018333845
0.1091584206
0.08475303966
0.1045746461
0.1206703322
0.1284847247
0.110243336
0.103799688
0.1121962045
0.123372775
0.121368577
0.1508963958
0.1900262691
0.2349914854
0.2425342763
0.22506451
0.2007140456
0.1792749123
0.1732348674
0.1679999404
0.1747992694
0.1489937511
0.1484794127
0.1753993253
0.1909205554
0.1890276195
0.1720633362
0.1499245501
0.1267928199
0.1009387783
0.07953118078
0.07493197103
0.07667309649
0.08272666443
0.08401259673
0.07684633549
0.08638159389
0.09254670112
0.0966352638
0.09222925942
0.09349883566
0.1007484626
0.1082601487
0.1288063595
0.1880080196
0.3091697402
0.4539335041
0.4866571369
0.3258178978
0.2423239796
0.1919325381
0.1698258944
0.1638744721
0.1607485333
0.1040660354
0.1049421711
0.1295166172
0.1411725482
0.1337958958
0.1125358189
0.0910364154
0.07545715293
0.06652435201
0.06515234218
0.06890883956
0.07087260393
0.07266466199
0.07143089596
0.07206435091
0.07410397089
0.07476967933
0.07809930452
0.08123971091
0.08708530489
0.09914509192
0.1266030732
0.2063925221
0.3715288283
0.8764174127
1.739770977
1.793827562
0.9365102946
0.4108128762
0.2368381741
0.1723597241
0.1530497816
0.1470475711
0.07285123023
0.06892400556
0.08575570333
0.0938395667
0.08686250902
0.06926524353
0.05328189421
0.04595545725
0.04733272453
0.05350177106
0.06164765808
0.06588417505
0.06626679121
0.06750583491
0.07042310031
0.07131845154
0.07757914829
0.09131382212
0.1032512773
0.1170563744
0.1497802649
0.2482875266
0.4919275862
1.110077228
2.555550042
3.596754376
3.503183022
2.619111295
1.096346145
0.4546050623
0.2350710023
0.1599683268
0.1386329807
0.05565529607
0.04789453763
0.05746443852
0.06323560086
0.0599975786
0.04914931371
0.03877820914
0.03552280767
0.03881311076
0.04616792304
0.05479274246
0.05954385725
0.06118960635
0.06479842615
0.06969859719
0.07305567622
0.07813571715
0.0927057041
0.1171640309
0.1674719128
0.2842523174
0.5696444876
1.238927
1.979563393
3.630896204
4.797255176
4.568943987
3.859137359
2.15240111
0.9292704781
0.4368319092
0.2187020177
0.1451339968
0.04752748425
0.03921120488
0.04544979788
0.05076132547
0.05131462702
0.04527154045
0.03680767513
0.03280307246
0.03525542063
0.04172702357
0.04933021958
0.05484603728
0.05795268794
0.06095145392
0.06244588787
0.06545401367
0.07212679377
0.08814577414
0.1264183608
0.2336863403
0.5958519429
1.843093316
3.375649601
2.812208222
4.375832066
5.432391359
5.276852111
4.525640101
2.765791418
1.318462391
0.5890599177
0.3024651612
0.1667549685
0.04339479876
0.03677395776
0.04293574102
0.04920572746
0.0527091289
0.04942925976
0.04099671144
0.03481200895
0.03485849667
0.03964454171
0.04610923837
0.05156376285
0.05396032624
0.05350870928
0.05264016936
0.05577527342
0.06449191971
0.08729047365
0.160969981
0.4200294895
1.279984531
3.167242608
4.699444327
4.165802807
4.562338213
6.190554657
5.475743179
4.392395645
2.593001859
1.245370313
0.5413503141
0.2905511208
0.1648011692
0.03874346978
0.03507758609
0.04228945028
0.0498549015
0.05584147163
0.05544911203
0.04802383588
0.04031328649
0.03744010265
0.03983199004
0.04468734777
0.04816097215
0.04803511047
0.045471022
0.04444449216
0.04813642486
0.05776064614
0.08077665269
0.1403028655
0.2831513865
0.9684070281
3.329475765
5.339639547
3.592382177
3.377336934
5.335824395
4.54671213
3.237690197
1.847063816
0.8998132983
0.4245741528
0.245851811
0.1406886795
0.00756892922
0.02916235612
0.03744950503
0.04536866503
0.05274873171
0.05612003944
0.05292238651
0.04629085879
0.04130691346
0.04040676406
0.04232161816
0.04414398864
0.04320318376
0.03977250296
0.03924526465
0.04417923255
0.05459815311
0.07399707914
0.1179362355
0.2098628363
0.4564126909
1.827641459
3.926006328
1.89526397
1.945242964
3.274592509
2.788368105
1.878262568
1.066996978
0.5350168788
0.3115869335
0.1890008327
0.1155824892
0.005381456756
0.01800097211
0.02598964454
0.03424321909
0.04212299981
0.04811252247
0.05003841664
0.04812171773
0.04529019729
0.04403262665
0.04420435988
0.04432002265
0.04331920669
0.04031193561
0.03987168357
0.04476928828
0.05416174444
0.07016074816
0.09914459295
0.1553938846
0.2435561426
0.5460069501
1.360967562
0.87177896
1.171638218
1.664363273
1.341972663
0.9765285594
0.5998119331
0.3624188175
0.226181655
0.1456008493
0.099759708
0.002661625584
0.005239305926
0.008871926356
0.01783274383
0.02685942953
0.03460660423
0.04024863392
0.04271929261
0.04342547247
0.04404907459
0.04478743761
0.04472308343
0.04396236178
0.04251387845
0.04154540287
0.04254035163
0.04598868521
0.05363801323
0.07007135986
0.106170049
0.1722618119
0.2875242553
0.4519037212
0.4526274776
0.674532544
0.860961956
0.6729796804
0.5521209545
0.3727541399
0.24240332
0.1634586511
0.1182425324
0.09052513893
0.0006450104942
0.0005641017585
0.000955186685
0.001971597855
0.00369922359
0.005512450853
0.03216815597
0.03900896878
0.04267769295
0.04437579392
0.04515453858
0.04538024459
0.04528541792
0.04505362606
0.04480524479
0.04552034934
0.04917858927
0.05946268201
0.08057585602
0.1147226493
0.1638840572
0.2357734801
0.3327812592
0.3448249502
0.472015004
0.6916190928
0.4259565137
0.3376778448
0.2522922877
0.1868621015
0.1459630123
0.118681086
0.09550680754
0.17045501
0.1232469207
0.1136509592
0.1225849743
0.1424843062
0.164115738
0.1809611974
0.1895935898
0.1670129828
0.1368290052
0.1052509877
0.08045096824
0.06169624311
0.04968710035
0.02699231221
0.02716815179
0.02988340512
0.03264956919
0.04130799441
0.1195421511
0.2599865852
0.2425224012
0.1443002988
0.03652271659
0.01064846783
0.003821285224
0.001967163836
0.002227526906
0.003957827901
0.2152064286
0.1582811353
0.1422383067
0.1433852098
0.1540533582
0.1683723239
0.1816413469
0.1950773907
0.2031226905
0.1810633449
0.1428520633
0.1080118943
0.07929225226
0.06059117488
0.04485775947
0.03500691143
0.03035020907
0.0313282745
0.03180286563
0.05087078618
0.07867792327
0.05216277822
0.02275003227
0.006357809425
0.002362897005
0.001680414002
0.002626386079
0.004372178837
0.006911867106
0.01162324301
0.01721601335
0.021419755
0.267126463
0.2167094004
0.1850193265
0.1694707371
0.157407623
0.1409752919
0.1267961891
0.1214973634
0.1277045142
0.1326029475
0.1283590161
0.1104042903
0.08617037059
0.06692586339
0.05297250734
0.04386680491
0.03892462319
0.03449215699
0.03051708826
0.02952311028
0.02592338902
0.01563026816
0.006192115988
0.002305264985
0.00144109264
0.002985079884
0.003996384906
0.005724236237
0.008838749288
0.01545487613
0.02145519424
0.02249492382
0.312185133
0.2817416882
0.2179359107
0.1872354611
0.1733380764
0.1249727872
0.1067775288
0.09784313269
0.09607133129
0.1001341787
0.106176664
0.1022626703
0.08866429029
0.07585291634
0.06563659151
0.05662937763
0.04791309196
0.03970451812
0.03182762173
0.02579224039
0.02091319244
0.01397883458
0.008067746494
0.003239474618
0.003637663069
0.003284299864
0.00397362075
0.005468343655
0.01046284739
0.0272165342
0.03859123978
0.02790808875
0.03995633327
0.2473533967
0.2292714504
0.2146088542
0.3010414543
0.4316627442
0.1675665681
0.114568494
0.09112410523
0.07549450909
0.06957907347
0.07077973435
0.07388974874
0.07585568441
0.07573371994
0.07517319275
0.06538622191
0.05299109322
0.04006915043
0.03051611829
0.02467929078
0.02415506195
0.03459017267
0.02049660136
0.009108681818
0.003722140522
0.003892946123
0.003645315936
0.007356451258
0.02000120342
0.05998015566
0.07813412057
0.0398522762
0.06534446751
0.2901948545
0.2906106135
0.4313458329
1.451707677
2.409394637
0.5094412304
0.1462347636
0.08441465896
0.06072894619
0.04712262016
0.05543628664
0.06418950002
0.06378646582
0.07179353691
0.08016889791
0.05743603732
0.04352909413
0.03121686494
0.02671253162
0.02584957605
0.04036583032
0.02912052421
0.02392309854
0.005559335118
0.004950023772
0.003258699482
0.00410755816
0.01203265642
0.04247181765
0.07897024666
0.05451955607
0.03742939533
0.07947061452
0.3087667353
0.2894765156
0.6336430272
1.166176259
0.8798029202
0.1761136045
0.1042708213
0.07996141034
0.05723621211
0.04756934868
0.05740389188
0.05265104304
0.0568038911
0.09175560146
0.09623386831
0.06479732764
0.03934450801
0.02839949348
0.02555236731
0.02482177559
0.02460497222
0.03094477836
0.01536997827
0.008415929696
0.01133408183
0.006338482003
0.005663837511
0.009225199411
0.01902624842
0.0317639824
0.03375189597
0.04012397801
0.07497183624
0.2996316262
0.215458959
0.2047932298
0.3851893115
0.1897809442
0.1208381877