/*--------------------------------*- C++ -*----------------------------------*\
  =========                 |
  \\      /  F ield         | OpenFOAM: The Open Source CFD Toolbox
   \\    /   O peration     | Website:  https://openfoam.org
    \\  /    A nd           | Version:  8
     \\/     M anipulation  |
\*---------------------------------------------------------------------------*/
FoamFile
{
    version     2.0;
    format      ascii;
    class       volScalarField;
    location    "0.7";
    object      k;
}
// * * * * * * * * * * * * * * * * * * * * * * * * * * * * * * * * * * * * * //

dimensions      [0 2 -2 0 0 0 0];

internalField   nonuniform List<scalar> 
67286
(
0.01599455502
0.01612764006
0.01648045393
0.01682155004
0.01708484474
0.01700191461
0.01642224995
0.01627682576
0.01801313037
0.01898918484
0.0166257731
0.01393976131
0.01198420242
0.01065200375
0.009597273179
0.008517284479
0.00828040588
0.007975128974
0.007611030611
0.01103075042
0.01864984616
0.02878852186
0.02064935135
0.01353913405
0.007324972093
0.003866897093
0.002100545018
0.001746463022
0.01831906504
0.01870522697
0.01908745623
0.019426308
0.0197600716
0.01995985132
0.01993106817
0.01892154175
0.01618492728
0.01559719418
0.01416156196
0.0126113557
0.01133578176
0.01036768241
0.009510579986
0.008727941516
0.008220432457
0.007776994849
0.00733192927
0.008125819109
0.01060462306
0.0174758474
0.0111127555
0.006730670886
0.003643143257
0.002116717804
0.001814849962
0.002470608716
0.003516259253
0.004801134758
0.005756863703
0.006126592587
0.02027467411
0.02168811263
0.02231596427
0.02233516009
0.02199323435
0.02139991106
0.02099400171
0.02067876604
0.01985888058
0.01778767782
0.01563240807
0.01376372336
0.01218770179
0.01092103822
0.009852706305
0.008923131957
0.008153381577
0.007494895701
0.006891268035
0.006509472157
0.00605489091
0.00735594759
0.004128702084
0.002505119209
0.001534912431
0.001788544144
0.002344821854
0.003231770729
0.004534427668
0.005997740768
0.006775235995
0.006538387175
0.02189671741
0.02541545584
0.02606330248
0.02549125963
0.0240840822
0.02179730428
0.02008240597
0.01888073187
0.01835166012
0.01772345511
0.01651473964
0.01498214102
0.01347227877
0.01205794464
0.01078075436
0.009620026014
0.008591633627
0.007628496381
0.006683581495
0.005874302
0.004987027327
0.004067877132
0.002887421177
0.001851826295
0.001880827539
0.002191330086
0.002937371149
0.004187626037
0.005691289548
0.006976261047
0.007563564824
0.00685795978
0.008108542708
0.02271899007
0.02869584522
0.02877403123
0.02806279536
0.0263939891
0.02305881022
0.02032258773
0.01826751844
0.0169565278
0.01612011574
0.01534658631
0.0144458462
0.01342135513
0.01210844474
0.01094304536
0.009817203509
0.008678105522
0.007562510244
0.006609726761
0.006179579285
0.005748624265
0.004995962139
0.003898848436
0.002609628455
0.002364036037
0.002662009944
0.003817988702
0.005407635881
0.006764318188
0.007786917974
0.008101092288
0.007163457481
0.009003162971
0.02430401836
0.0286816255
0.0288586876
0.02933880717
0.03241257305
0.02362090113
0.02016186907
0.01758439549
0.0158250747
0.01469847396
0.0138981973
0.01294399921
0.01125313017
0.009378304703
0.008733184174
0.008805778718
0.008675687257
0.008057857119
0.006824738563
0.006636487274
0.006495186483
0.006200259046
0.004759795459
0.003252976641
0.00296567929
0.003253283138
0.004639928485
0.006401459112
0.00755826103
0.008433353474
0.007652860339
0.00745877904
0.009519152958
0.02406323459
0.02715100837
0.02740433841
0.03071345673
0.02543133417
0.02207118594
0.01916681048
0.01667785175
0.01483780112
0.01352527786
0.0123944667
0.01028068756
0.008390128899
0.008655586887
0.009835125555
0.01190119939
0.01282631833
0.01184701043
0.008333346195
0.007545519002
0.007475922088
0.00706649038
0.005847782697
0.004098914559
0.003706085666
0.003457770737
0.004037282216
0.004935573296
0.005797625977
0.006377054527
0.007032173962
0.006907496658
0.008022406919
0.02376461685
0.02560430861
0.02539331509
0.024953838
0.02314550388
0.02074315231
0.01804255494
0.01563878871
0.01373017496
0.01190743936
0.01010022274
0.008140152545
0.009184841141
0.01150742833
0.01499343834
0.0187934561
0.02015595316
0.01836021784
0.01155693138
0.008981439972
0.00894451463
0.008649041093
0.007234808267
0.005332393951
0.00473136315
0.004326563077
0.004321979406
0.00508270203
0.00580194669
0.006330663028
0.006698409875
0.006945787923
0.007754435278
0.02334095163
0.0241069966
0.02370110873
0.0230180494
0.02151436291
0.0192651468
0.01668968638
0.01459798752
0.01293005703
0.01136542048
0.009097124169
0.009933444604
0.01326432692
0.01737575915
0.0228620508
0.02691094858
0.02735224414
0.02484008524
0.01693099453
0.0115675435
0.0105775532
0.009883333012
0.008978762349
0.00745208351
0.006379955266
0.006060109896
0.004717769869
0.005175783984
0.005864345297
0.006419927375
0.007190954964
0.008434824997
0.009804920742
0.02279341576
0.02264761998
0.022035142
0.02119470832
0.01959253165
0.01723311663
0.0149151178
0.01350766233
0.01216108116
0.01045883788
0.01031941505
0.01438510228
0.01986478455
0.02539323261
0.03029681516
0.03404153861
0.03501280363
0.03173089597
0.02381197395
0.01556686481
0.01239188943
0.01213856275
0.0109931795
0.009610568976
0.008471884014
0.008635495054
0.00620273309
0.005584260398
0.006100393899
0.006845429072
0.007959673224
0.01002900874
0.0145256258
0.02205313128
0.02114218429
0.02012915473
0.01880967604
0.01704429546
0.01535361153
0.01552763533
0.01439844399
0.01228148695
0.01113477444
0.01399087911
0.01952758866
0.02530387517
0.0308226815
0.0373579388
0.04393969053
0.04666297112
0.04294102982
0.03367828587
0.02193101695
0.01370967806
0.01371894746
0.01286241233
0.01235903504
0.01131436769
0.0110837748
0.008860893558
0.006827399381
0.006655179262
0.007677252391
0.00972317026
0.01449970912
0.02533630419
0.02097801553
0.01934336048
0.01795561211
0.01717746717
0.01912273929
0.02367974155
0.02526008491
0.02238917206
0.01665890421
0.01406838757
0.01703259816
0.022484622
0.02813599848
0.03420271146
0.03978294268
0.04392944518
0.04696909665
0.04787525904
0.03368492166
0.02180325328
0.01650458923
0.0158901436
0.01770045168
0.01592360973
0.01409509264
0.01284053505
0.01119045438
0.009111165494
0.009408057869
0.01447660723
0.02445868697
0.03733590395
0.05480989473
0.01952883533
0.01782591101
0.01845025539
0.02340463435
0.03049932224
0.03483577605
0.03632198866
0.03322336592
0.02440771521
0.01664317446
0.01620519245
0.01969115965
0.02421779162
0.03008197846
0.0362856493
0.04097252025
0.04276114918
0.03893629014
0.02210903171
0.01579429033
0.01818291545
0.01803723684
0.02032251414
0.01799864478
0.01561448949
0.01393441397
0.0131342218
0.01132369391
0.009909710244
0.01207156653
0.01965738198
0.03106501325
0.04577971595
0.01821415985
0.01902024074
0.02497589562
0.03297716026
0.03878031665
0.04365643814
0.04638847686
0.04470432323
0.03553484149
0.02227851097
0.01584068056
0.01607960895
0.02038589609
0.02611945233
0.03063309104
0.03379138596
0.03494995395
0.03174660809
0.01595512311
0.01573003023
0.0183481939
0.01935057226
0.01927021659
0.01695548506
0.01511110586
0.01457304363
0.01486560024
0.0137786915
0.01195503803
0.01113325807
0.0146387765
0.02309189852
0.03415060291
0.01896520763
0.02497389519
0.03270875135
0.03818031734
0.04347965496
0.0480877178
0.05108363807
0.05116926571
0.04623503738
0.0356847389
0.02196300449
0.01394684116
0.01592554163
0.02128688336
0.02547043155
0.02769723229
0.02799214853
0.02376064844
0.01368686863
0.01501841104
0.01740832994
0.01915232001
0.01784425229
0.01561345114
0.01504252853
0.01637891302
0.01700396969
0.01645511969
0.01487570024
0.01278780477
0.01261812927
0.01725744578
0.02605739601
0.02419282669
0.03208136251
0.03757818403
0.04160432294
0.04585994579
0.0495337927
0.05198481888
0.05219021815
0.04848219632
0.03696643194
0.02409657746
0.01436986793
0.01222974817
0.01543277814
0.01937090902
0.02075624611
0.01910442563
0.01647003488
0.0128696832
0.01444048284
0.01604395326
0.01761857219
0.01721598882
0.01497986912
0.01732253813
0.01881207209
0.0196607093
0.01949351448
0.01781692227
0.01501270846
0.01368584474
0.01469907827
0.01946212609
0.02634491644
0.03360334961
0.03798509658
0.04104919259
0.04438872779
0.04750703984
0.0496090152
0.04954913721
0.0455220746
0.03439508817
0.02347561641
0.01406919753
0.009925650881
0.01058898483
0.01306114699
0.01351375117
0.01221739714
0.01329002541
0.01526571838
0.0154620857
0.0149230457
0.01610827407
0.01529296062
0.0169033179
0.01917296673
0.02091126823
0.02215561092
0.02252552042
0.02148752181
0.01828544599
0.01545890101
0.0155456186
0.01748765334
0.02552882556
0.03238959842
0.03661731811
0.03912301812
0.04152558138
0.04360726886
0.0446658037
0.04356515735
0.0389219981
0.02792754626
0.01687588901
0.0112491519
0.008956401455
0.00898145114
0.01110274991
0.01420395588
0.01727902569
0.013901457
0.01367706344
0.01404706009
0.01431811597
0.01506181057
0.01490065234
0.01794212335
0.02109811174
0.02369480515
0.02420042673
0.0242534598
0.02374808532
0.02096036404
0.0175912737
0.01658688482
0.01804308071
0.02289371142
0.0294751992
0.03388057142
0.03641345533
0.03815727107
0.03926927018
0.03921030854
0.03678527995
0.02954211958
0.01794628823
0.01216119888
0.0112516756
0.01162828819
0.01053609536
0.01070847789
0.01311499084
0.01528303198
0.01400654683
0.01365415326
0.01391534635
0.01414433344
0.01430111605
0.0152833019
0.02074800995
0.02854751316
0.03522452948
0.03152369159
0.02584131448
0.02444600346
0.0226428388
0.01982983625
0.01734992374
0.01826742388
0.01893811804
0.02502507841
0.02954092324
0.03224249416
0.03373043952
0.0340632448
0.03273011869
0.02828484783
0.01979147877
0.01236428075
0.0103159587
0.01036901305
0.01081524875
0.01013173368
0.01106717816
0.01246545903
0.01344062032
0.01302158435
0.01305226451
0.01316535662
0.01324907047
0.01444755309
0.02075380314
0.03412733836
0.05444588365
0.07095074626
0.06187714328
0.03757415294
0.02673184225
0.02392478705
0.02145536742
0.01871372264
0.01774971143
0.01440970215
0.01938154891
0.0235415983
0.02587602988
0.0266518163
0.02594932086
0.02342087581
0.01856316027
0.01261296756
0.009721264054
0.009410952782
0.009676417071
0.009985360266
0.01007526265
0.01112192076
0.01183832426
0.01210633155
0.0119166687
0.01194309756
0.01219982951
0.01426643781
0.02252363911
0.04123356536
0.06772390449
0.1017891878
0.129264473
0.1210355902
0.08109826456
0.04696604663
0.02801296154
0.02235549494
0.01962239181
0.01782155117
0.01050822045
0.01381293073
0.01694398357
0.01849112963
0.01841690985
0.01698880275
0.0145048057
0.01146482613
0.009127047838
0.008710988786
0.009097337897
0.009441809006
0.009725772965
0.01013573399
0.01084612064
0.01118760294
0.01137972538
0.01128151858
0.01189673718
0.01443145735
0.02432931698
0.04684062506
0.07853607206
0.1123681967
0.1583836503
0.1969343467
0.1921726066
0.1497771815
0.09879590608
0.05595409801
0.03074250436
0.0215995569
0.01825262532
0.008061103707
0.009884650957
0.01173770855
0.01251537338
0.01211312892
0.010925567
0.009515602412
0.008343115169
0.007890325142
0.008248331053
0.008873586954
0.00933355556
0.009756131873
0.01034551991
0.01107957888
0.0116626195
0.01246858539
0.01333129921
0.01474260257
0.02287216729
0.04625490014
0.08203166563
0.1180314933
0.1507677143
0.2045127875
0.2482474208
0.2439847296
0.2088453203
0.15561807
0.1066783194
0.06334249102
0.03396302948
0.02111440307
0.006948109264
0.007972245982
0.008961205799
0.009331498789
0.009055511826
0.00841140065
0.007763958786
0.007378783285
0.007466697626
0.008001474243
0.00871208331
0.009338658791
0.009972770369
0.01069239814
0.01133078263
0.0117656708
0.01264994882
0.01427643032
0.02067999798
0.04113496172
0.07864381792
0.1217346079
0.1606165077
0.1791641205
0.238241087
0.287491554
0.2755009063
0.2392887857
0.1868847902
0.1375820473
0.09396450954
0.05355115525
0.02668194193
0.006548102154
0.007325194816
0.007971487563
0.008228064343
0.008130645294
0.007813932075
0.007459661911
0.007249398135
0.007403518006
0.007929493915
0.008629549671
0.009294044867
0.009907224477
0.01044817334
0.01088524613
0.01134442541
0.01246194537
0.0160455374
0.0296532841
0.06289183206
0.1112672892
0.1658689887
0.2045937765
0.2044106981
0.2557010577
0.3252292459
0.2814619347
0.2351044921
0.1799818019
0.1309959647
0.09063280641
0.05489260211
0.02916914225
0.006249487516
0.007077660621
0.007699834508
0.007986512463
0.008016640267
0.007865664185
0.007640201878
0.007459099027
0.00755361907
0.007981984639
0.008586994465
0.009180550581
0.009659223495
0.0100026263
0.01030918564
0.01086695937
0.01258497948
0.01882147667
0.03746722873
0.07198653088
0.117284455
0.1802333121
0.2412320247
0.1640731949
0.2115450558
0.284519151
0.2436309705
0.1975935879
0.1501023167
0.1095373956
0.07549809421
0.04618696735
0.02606018793
0.005548479034
0.00656633591
0.007395119259
0.007836783914
0.008001526416
0.007972299647
0.007833575514
0.007705285317
0.007758012026
0.008065218837
0.008537259766
0.008999886029
0.009333171018
0.009520867771
0.00973633748
0.01028090515
0.01175568332
0.01624221381
0.02910765911
0.05586731325
0.09376890044
0.1406827192
0.2008108884
0.1207673207
0.1655397965
0.2212141354
0.1870541044
0.1515925091
0.1160465099
0.08507648072
0.05713322428
0.03486747747
0.02116393131
0.004141610642
0.005174658081
0.006409595621
0.007283375172
0.007731221337
0.007889394725
0.007881582543
0.007830360341
0.00787337289
0.008086025906
0.008416373964
0.008735541229
0.008966600453
0.009088573397
0.009236648548
0.009674171843
0.01080762416
0.01357299361
0.02039466924
0.03601725709
0.06379503969
0.09889191998
0.138157263
0.08669650897
0.124493516
0.1688125724
0.1366433404
0.1111689359
0.08504172895
0.06076701736
0.03975684599
0.02499045935
0.01700154654
0.002188333441
0.002867230836
0.004192660852
0.005621140092
0.006708251477
0.007302636059
0.007537586943
0.007606489477
0.007659401692
0.007785066073
0.007977880727
0.008168920256
0.008319937608
0.008398541113
0.008459491835
0.008711067452
0.009473118226
0.01125787375
0.01491143448
0.02242629309
0.03740377272
0.0613294653
0.08797795952
0.05801072963
0.08546887294
0.1255223562
0.09192865832
0.07349268847
0.05577451702
0.03913445049
0.02602698043
0.01806886064
0.01398213356
0.0005733044376
0.0007514434313
0.001509361756
0.002859451481
0.004444874965
0.005704387075
0.006475896395
0.006827316625
0.006966528871
0.007039744456
0.007111737931
0.007187998123
0.007267346848
0.007315795885
0.007322876073
0.007462356347
0.008062547276
0.009548667155
0.0121645976
0.01615890718
0.02249139181
0.03278230164
0.04535854765
0.0360633694
0.05061310161
0.07890166111
0.05288402791
0.04138602623
0.03186175821
0.02347267855
0.01753924544
0.01406913269
0.0119124732
0.01578806558
0.01766791994
0.0189577454
0.02081720863
0.02288625872
0.02446884718
0.02507805121
0.02439497811
0.0201405224
0.0183064007
0.016073542
0.01372568387
0.01160893534
0.01024996534
0.008936970069
0.007089269804
0.007100817826
0.007515613046
0.007144016458
0.01016720771
0.0224384037
0.03055251359
0.01868865898
0.007529240262
0.004353110791
0.00295085983
0.001899549161
0.001879086293
0.01831619058
0.02166398621
0.02330245745
0.02509254689
0.02694843062
0.02902664188
0.03100294674
0.03271876249
0.03124749696
0.02533096463
0.02020510665
0.01618838599
0.0132027334
0.01114038868
0.009181830078
0.007790035169
0.007350304133
0.007350189847
0.006959680565
0.007736144628
0.01036348186
0.009993716885
0.00610201511
0.003352339858
0.002273818379
0.001759476118
0.002164376643
0.00289799693
0.003732928461
0.004661972596
0.005387060335
0.00575917838
0.02097637767
0.02758018726
0.02886769703
0.02943347482
0.02951362673
0.0289294811
0.02775322159
0.02688442327
0.02703275436
0.02629862315
0.02301969614
0.01846535268
0.01477593453
0.01215857962
0.01017419402
0.00878904525
0.007949170688
0.007367115367
0.006769534374
0.006407894782
0.005732977338
0.004962511816
0.002993741914
0.001760167527
0.00139636272
0.002127067933
0.002651991462
0.003193837684
0.003966805673
0.005127704816
0.00596360528
0.005962207232
0.02348089155
0.03514593014
0.03441499609
0.03319637874
0.03078640602
0.02726474018
0.02437401264
0.02233722194
0.02145631948
0.02129866471
0.02044415977
0.01823427311
0.01555098034
0.01331889782
0.0115847574
0.01015739629
0.008969975689
0.007894692684
0.006846642551
0.006041217716
0.005148345098
0.004154181456
0.003263716383
0.002149921706
0.002383186818
0.002359152059
0.002809332221
0.003253558205
0.003913456575
0.005899494723
0.007193779021
0.006414207435
0.007775195007
0.02225391261
0.03609610639
0.03522526184
0.03550419725
0.03515241974
0.02733783905
0.02353342928
0.02049026923
0.01805913763
0.01686565288
0.01661262996
0.0163786671
0.01517671809
0.01370308862
0.01270114197
0.01125895542
0.009806439921
0.008274133368
0.007070060654
0.006296617971
0.005819257621
0.005652842822
0.005686206154
0.003840536646
0.002803374289
0.002701732442
0.002787640597
0.003789457523
0.005058934132
0.007485956265
0.008728604906
0.007235119444
0.009820813162
0.0251682866
0.03750243949
0.03956772849
0.05078490161
0.07630532038
0.0319852657
0.02317846554
0.01868368907
0.01558801106
0.01388140632
0.01367841557
0.0134067417
0.01168656336
0.01170915579
0.01285226747
0.01118136671
0.009661793279
0.007862523011
0.006761466736
0.006388052132
0.00709337651
0.006724693688
0.005888761194
0.003600620965
0.002884277407
0.002440582169
0.002975195293
0.004229951469
0.006323603274
0.008428971447
0.007609970879
0.007653215604
0.01149694853
0.0254169438
0.03538932176
0.03942118382
0.08369078091
0.03715039766
0.02574901372
0.02091580221
0.01751272162
0.01420885274
0.01201008579
0.01258856753
0.01025666348
0.009183474677
0.01285025589
0.0146280067
0.01203881405
0.009996882149
0.008059764407
0.006692759768
0.006338936839
0.006500778717
0.006857772366
0.005714916414
0.004080612525
0.004020911958
0.003059942828
0.003237729835
0.00359267951
0.004340765358
0.005123552194
0.006692587395
0.006990883044
0.01169772517
0.02472860446
0.03050445188
0.02946622713
0.03181923506
0.02682134767
0.0229359659
0.02069951617
0.01741620056
0.01365502165
0.01238857602
0.01138231528
0.008128821066
0.008818572437
0.01428257544
0.01979748202
0.01335118958
0.01009061352
0.008255711709
0.007363186502
0.00686588718
0.007170909583
0.005924908972
0.005128784239
0.005288852131
0.004685671595
0.005204810616
0.00362101754
0.00396562171
0.005026335129
0.005238470905
0.005223802481
0.005807035478
0.008625117965
0.02383349082
0.02720666628
0.02530359919
0.02475484499
0.02332523588
0.02215810829
0.02108266114
0.01912962706
0.01505958058
0.01255290816
0.009355086598
0.008090521298
0.00861607561
0.01105007424
0.01310661978
0.01197507365
0.0113224677
0.01048755933
0.009451294319
0.009809605821
0.009629542588
0.008539551829
0.007117351884
0.007554362982
0.008947734062
0.006600071211
0.004078350063
0.004073655842
0.004695210496
0.004625431023
0.005164726125
0.007794322197
0.01092810375
0.02278585073
0.02440689835
0.02275150086
0.02177601207
0.02115121906
0.02084018394
0.02054012924
0.01863837454
0.01502660061
0.01196556941
0.009273757703
0.009189741183
0.01025646077
0.01243297057
0.01552889001
0.02223908437
0.02464693809
0.02240007575
0.01676507558
0.01541118092
0.01226566325
0.01148209124
0.008635631168
0.008064579716
0.01072771692
0.007461007753
0.005315898171
0.004452283464
0.004613271494
0.004858663142
0.005709924257
0.008187728062
0.01220166646
0.0216258393
0.02174316681
0.0201058336
0.01903619494
0.01861799373
0.01863606876
0.01853092048
0.01685654811
0.01371634198
0.01118578758
0.0106884559
0.01116077945
0.01367763379
0.02124255854
0.03304717697
0.0449242291
0.04702162867
0.04198346787
0.03347928395
0.01564043815
0.01707627289
0.01308849693
0.01187939081
0.01128100941
0.0108659756
0.009550461305
0.007539111243
0.00574115747
0.005209819298
0.005351970551
0.006237809708
0.009505756108
0.0236452034
0.02040610029
0.01932524354
0.01769330902
0.0170692633
0.01793481083
0.01969353214
0.02005310096
0.01819162242
0.0152943558
0.01334266113
0.01326161333
0.01446395241
0.02004527619
0.02957953714
0.03824532503
0.04399377238
0.04778715535
0.04749462116
0.02662196026
0.01726051181
0.02145297396
0.01696240261
0.0223604051
0.01572687662
0.01363413319
0.0116813022
0.009780743367
0.007880537581
0.00711176236
0.008074522852
0.01054729024
0.01742709782
0.05515612955
0.01914684872
0.01743372801
0.01698439763
0.01898933596
0.02265797983
0.02560399792
0.02706719602
0.02707463787
0.02462224191
0.02015740927
0.01795971802
0.01745964465
0.01925720259
0.02432757349
0.03342225559
0.04157045149
0.04215284798
0.03008173554
0.01636514826
0.01841140552
0.02086288994
0.01961064059
0.02547298168
0.01831442096
0.01557637776
0.013629095
0.01193602939
0.0100842354
0.00883380128
0.008890078317
0.01059473187
0.014875391
0.03417790763
0.01797826376
0.01706468606
0.02003709507
0.02704673871
0.03854759414
0.05011139611
0.05655004492
0.05803047501
0.05249184995
0.04016824463
0.02804093765
0.0206904829
0.01903370635
0.0176311124
0.02008909661
0.02436294662
0.02320427596
0.0163710799
0.01655270848
0.01972052433
0.02200345498
0.02257128853
0.02475893254
0.01887051376
0.01662254272
0.01584294908
0.01463560182
0.01295718762
0.0115082197
0.01057977444
0.01098037104
0.01321720601
0.01994784121
0.01753152613
0.01909752133
0.02489628733
0.03463494863
0.04430057479
0.05143156827
0.05607124978
0.05725763922
0.05276789048
0.04228933427
0.03146362461
0.02273689964
0.01497056956
0.0123417123
0.01303155401
0.01327825088
0.01377326362
0.01475435799
0.01343585604
0.01662873492
0.02070972611
0.02243677821
0.02324997308
0.01904802011
0.01848785021
0.01958749344
0.01935564258
0.01791463555
0.01586686366
0.01339986715
0.01246441977
0.01482720941
0.02241759064
0.01909848978
0.02168947218
0.0279182935
0.0357090829
0.04289848279
0.04868049615
0.05274295061
0.05367012432
0.04945031989
0.03818820452
0.02306158544
0.0150420633
0.01185751159
0.01041834745
0.01188187652
0.0122645124
0.01340516723
0.01543587766
0.01639528152
0.02187620889
0.02202312353
0.02172490322
0.02307698616
0.02005821033
0.02182383025
0.02439493151
0.02516695777
0.02427183514
0.02190063765
0.01817302022
0.01654320505
0.0205603061
0.02930728522
0.02003266229
0.02257659254
0.02793665301
0.0334722977
0.03899740338
0.04429414563
0.04797785427
0.04784753528
0.04146546537
0.02793031111
0.01724208079
0.011975807
0.01082881448
0.01122501252
0.01137740105
0.0148373119
0.01883661691
0.02254604973
0.02266501388
0.02902234377
0.02548182979
0.02369802391
0.02008498429
0.02041083664
0.02460824599
0.02838801495
0.03038494346
0.03015556914
0.02769179765
0.02410075215
0.01952020734
0.01993876664
0.02424447838
0.01932265672
0.02158271045
0.02582384623
0.03023335714
0.03329574466
0.03626505966
0.03758400993
0.03456139652
0.026298548
0.01812246777
0.01570736536
0.0159305651
0.0168147649
0.01817097658
0.01341070495
0.02017891806
0.02402669546
0.02774995609
0.02214823668
0.02259209572
0.02346581428
0.02305356491
0.01852393049
0.02111163647
0.02631052764
0.03147329966
0.03440233046
0.034613901
0.03244735265
0.02948159913
0.02509726623
0.02127900815
0.02234044858
0.01722387629
0.01937600143
0.02258820647
0.02552761667
0.02706971187
0.02713977035
0.02576152554
0.02205588015
0.01716233392
0.01375561865
0.01315540215
0.01402516152
0.01505150655
0.01607177339
0.01418033458
0.0180333736
0.02083930066
0.02223068327
0.02023177352
0.01983757864
0.0203174661
0.01967935632
0.01754903996
0.02194429691
0.0288982333
0.03594378916
0.03911887139
0.03858436102
0.03556146964
0.03180626688
0.0286346347
0.02374800385
0.02257564612
0.01427233946
0.01639531748
0.01902235137
0.02065897488
0.02044747907
0.01875964985
0.01671760421
0.01480922723
0.01306856356
0.01181402503
0.01179915185
0.0122295693
0.01312096587
0.01350208846
0.01323846065
0.01581274793
0.01741095576
0.01836433314
0.01796524691
0.01810179521
0.01787510639
0.01692085384
0.01805311851
0.02498808593
0.03767883257
0.05244948529
0.05716129584
0.04717596349
0.04050063101
0.03430175331
0.0300852568
0.02533831974
0.02236384936
0.01123572067
0.01299472979
0.01520723003
0.01629721204
0.01559612873
0.01360741857
0.01168664144
0.01047087572
0.009999813666
0.01028195893
0.01105133976
0.0115754213
0.01197574103
0.0119067196
0.01259598104
0.013983711
0.0147607502
0.01549377465
0.01587250859
0.01600872881
0.0160538379
0.01738206885
0.0235265869
0.03805344137
0.08027935789
0.1351852695
0.138161649
0.0877208413
0.0511241015
0.03810154113
0.03064774606
0.02535829603
0.02191464394
0.008857464638
0.009947199666
0.01160975684
0.01246509747
0.01183685211
0.01004884884
0.008332426298
0.007544265338
0.007815275071
0.00879135881
0.01012113111
0.01100886595
0.01132997702
0.0117534371
0.01291826635
0.01407997881
0.0155148659
0.01744938163
0.01859579686
0.01895730295
0.02015708826
0.02605247275
0.04330873595
0.09311046205
0.182865496
0.2385951511
0.2346258521
0.1819368447
0.09304466997
0.04934476582
0.03351925785
0.02567026672
0.02149603554
0.007400881778
0.007967990356
0.009124287989
0.009924313243
0.009718702791
0.008434324749
0.006951175085
0.006307390605
0.006688224506
0.007821667666
0.009269290825
0.01025819806
0.01084027017
0.01195681306
0.01356974087
0.01474895493
0.01592527755
0.01807773182
0.0206283385
0.02394399752
0.03049816207
0.0487481469
0.09391054143
0.1499968028
0.2444264696
0.3040267202
0.2957273166
0.2484513396
0.1523474583
0.07646689638
0.04359530934
0.02858819576
0.02170814982
0.006660707076
0.007064882916
0.008012619905
0.00891612859
0.009199004821
0.008356728297
0.006874474029
0.006018501044
0.006259307733
0.007291672084
0.008600603976
0.00961626631
0.01051296535
0.0117894024
0.01282995102
0.01382240719
0.01510151544
0.01722360928
0.0206914843
0.02746639249
0.04830958093
0.1160633604
0.1931973968
0.1942414588
0.2794827996
0.3354014297
0.3307643944
0.2822764846
0.186063704
0.09942696613
0.05277438012
0.03251087305
0.02252436775
0.006268457831
0.006765223842
0.007774995458
0.008881337438
0.009580479616
0.009075379808
0.007588365789
0.006454715965
0.006374437238
0.007158230832
0.00826246743
0.009229921578
0.0100791113
0.01086937856
0.01141049437
0.01230040621
0.01365408527
0.01584711002
0.02032267642
0.03397947565
0.07797364977
0.1717513775
0.2459118498
0.2406255913
0.278844379
0.3530227905
0.3321038186
0.2724781541
0.1759895832
0.09519858071
0.05058651426
0.03201418773
0.02222137987
0.005812231014
0.006503280758
0.007601808582
0.008861552092
0.009905931267
0.009881807907
0.008676497532
0.007436185815
0.006970169295
0.007360019244
0.008140679919
0.008833825581
0.009339733766
0.00970571562
0.01004517786
0.01090182941
0.0122494657
0.01437540083
0.01873329847
0.02717815649
0.06134439617
0.1682926724
0.2479300248
0.2058943229
0.2121259246
0.3008996327
0.2768076558
0.2092925751
0.1317706477
0.07329369546
0.04206778841
0.0287382761
0.02003311842
0.004967287896
0.005729544017
0.006804859503
0.008003741579
0.009196238755
0.009793969693
0.009390378917
0.008447380156
0.007711941428
0.007581034821
0.00790494722
0.008337891411
0.008635358947
0.008726861095
0.008957844176
0.009727410929
0.01079079772
0.0125089303
0.01613488912
0.0225759272
0.03578788188
0.09884102206
0.1800109277
0.1200982188
0.1294655766
0.1938784341
0.1790439747
0.130413159
0.08284297845
0.04848215462
0.03256638749
0.0237557212
0.0172483581
0.003532172898
0.004252701015
0.005192395896
0.0062865321
0.007431535323
0.008390832269
0.008789895334
0.008595247347
0.008204174099
0.008014912142
0.008059328361
0.0081639816
0.008287200493
0.008294288579
0.008434002669
0.009031753181
0.009996923553
0.01168727433
0.0145847032
0.01907943319
0.02447805742
0.04053273176
0.07658098566
0.06285232234
0.08046136516
0.108139795
0.09504358352
0.07358399969
0.05006715849
0.03409982238
0.02529314117
0.01943126991
0.01504022596
0.001747360972
0.002227968475
0.00302339089
0.004027510084
0.005214070005
0.006338253286
0.007180139524
0.007583259769
0.007699689854
0.00776769497
0.007851368127
0.007859310218
0.007856747785
0.007850813218
0.007845451549
0.00798537319
0.008363537688
0.009233111371
0.01098138695
0.01427808544
0.0191791558
0.0265577967
0.03561849639
0.03744949706
0.04995129992
0.05898409688
0.04989761068
0.04275132969
0.03258674176
0.02468841704
0.01961939854
0.01608844438
0.01329529798
0.0004235757867
0.0004408870503
0.0007466171949
0.00154097308
0.002890511514
0.004306363943
0.005441992864
0.006187917263
0.006569713701
0.006742732246
0.006821371698
0.006844088207
0.006834568145
0.006811238606
0.006786284347
0.006858667091
0.007222242349
0.008198278877
0.01004040569
0.01270838026
0.01612238991
0.02055191644
0.02586104688
0.02647084855
0.0326426564
0.0421221726
0.0304963279
0.02611493841
0.02149799386
0.0175936792
0.01491803629
0.01299360058
0.01124107854
0.01560486979
0.01991506764
0.02139498895
0.02349698459
0.02625898477
0.02859367674
0.02975355286
0.02955154709
0.02625546872
0.02324747967
0.01957908426
0.01609478336
0.01302143075
0.0105801952
0.006255389089
0.006015257624
0.00636802536
0.006780143071
0.008255908406
0.01882879836
0.03863462942
0.03921218229
0.02611050668
0.008185045595
0.003257438469
0.002089472943
0.001394025251
0.001548134344
0.002309215524
0.01822870816
0.02519167591
0.02619354151
0.02725042277
0.02896141606
0.03074938848
0.03202573818
0.03293668564
0.03278537297
0.02936993336
0.02427871155
0.01936521075
0.01506930664
0.0119680673
0.009200853456
0.007465259878
0.006491520144
0.006471475277
0.006593120535
0.00972963061
0.01427574024
0.01097831939
0.005746140329
0.0022365139
0.001329531162
0.001284979777
0.001850120152
0.002620685145
0.003347423708
0.00398170244
0.004520157637
0.005039298885
0.02105322459
0.03208828297
0.03149575871
0.0305324392
0.02944272748
0.02748158866
0.02532924668
0.0240143119
0.02401676751
0.02384453516
0.02259175237
0.01970834853
0.01586274483
0.01265897553
0.01025664936
0.008649168441
0.007714327435
0.006904545253
0.006230297276
0.006132328432
0.005788041936
0.004307546196
0.002318179683
0.001251081986
0.001065430975
0.002014070592
0.002500246939
0.003014704322
0.003578246312
0.004221280009
0.004801154782
0.005048197509
0.02335662134
0.03835452367
0.03471258079
0.03176032925
0.02966182253
0.02437665334
0.02144246515
0.0195805607
0.01870110769
0.01868035045
0.01897066621
0.0181520973
0.01576638668
0.01346831946