/*--------------------------------*- C++ -*----------------------------------*\
  =========                 |
  \\      /  F ield         | OpenFOAM: The Open Source CFD Toolbox
   \\    /   O peration     | Website:  https://openfoam.org
    \\  /    A nd           | Version:  8
     \\/     M anipulation  |
\*---------------------------------------------------------------------------*/
FoamFile
{
    version     2.0;
    format      ascii;
    class       volVectorField;
    location    "0.7";
    object      U;
}
// * * * * * * * * * * * * * * * * * * * * * * * * * * * * * * * * * * * * * //

dimensions      [0 1 -1 0 0 0 0];

internalField   nonuniform List<vector> 
67286
(
(-0.04994671236 -0.3264246086 0.1667397992)
(-0.1289408328 -0.3178060299 0.08091680006)
(-0.1893963007 -0.3043837441 0.04595443497)
(-0.1880562693 -0.2793112691 0.03843576058)
(-0.1813450784 -0.2425710349 0.05118025162)
(-0.1565787252 -0.1827261532 0.08872435336)
(-0.1211340754 -0.07733731693 0.1429998873)
(-0.09216551047 0.1220442236 0.158895322)
(-0.06204312869 0.3016236242 0.07563005937)
(-0.009575899844 0.3622891563 -0.01468488906)
(0.07658991106 0.3402861103 -0.03890719426)
(0.1231149021 0.3199847077 -0.02014624178)
(0.1367628041 0.3078227875 -0.006555668522)
(0.1404668053 0.3181666197 0.01719661521)
(0.1020346521 0.3179715437 0.02038074392)
(0.1175078686 0.3454844813 -0.0967702169)
(0.1841927764 0.3140756002 -0.03769378066)
(0.1707034523 0.3124970936 0.04867812629)
(0.1115217987 0.3063709937 0.114637914)
(0.005814385311 0.351553714 0.1025497151)
(-0.06627720596 0.2262559297 -0.07565614866)
(0.0437947433 0.2018904175 -0.2286037031)
(0.1311436564 0.1704279129 -0.1503915205)
(0.1715258747 0.1622086362 -0.03444282595)
(0.1130199525 0.1685124763 0.06859149739)
(0.05161827578 0.1260585114 0.08694644026)
(-0.0112005108 0.03284247164 0.1218038638)
(-0.09456205107 -0.03627680564 0.126665812)
(-0.1031015474 -0.3757012031 0.1166750167)
(-0.1640472946 -0.3512643706 0.0385651395)
(-0.2018918863 -0.335243883 -0.002412836327)
(-0.1772516986 -0.3072546713 -0.02257586443)
(-0.1436468424 -0.2687085401 -0.03281375344)
(-0.1004226929 -0.2110770043 -0.02796954666)
(-0.06362315882 -0.1500330862 -0.01333017871)
(0.002772749971 -0.08663207314 0.03874731509)
(0.07088523814 0.06594331245 0.1146496594)
(0.1137911613 0.1853228982 0.09036758208)
(0.1633259941 0.2255789706 0.05848256929)
(0.1806905895 0.2517916968 0.04559163117)
(0.1800349688 0.2667415046 0.03669927161)
(0.1730474796 0.2841894111 0.03861505143)
(0.1516277861 0.2877980558 0.03902231957)
(0.1559910117 0.2992587909 0.007645200707)
(0.172330837 0.2609217753 0.03330810598)
(0.1558636901 0.2463342366 0.05970417719)
(0.1161402659 0.2451993509 0.09733929288)
(0.07633035918 0.2552154251 0.1270010538)
(-0.004408129521 0.1570976885 0.05025158464)
(0.05089470251 0.179117793 -0.09959296535)
(0.1143952737 0.08577464026 -0.02393281649)
(0.120039699 0.08615187064 0.06934794303)
(0.06983513484 0.07485384249 0.1234600853)
(0.03102112991 0.04091717163 0.143757302)
(-0.0216744207 -0.05627125629 0.1060446948)
(-0.08015999277 -0.1020006153 0.09406774409)
(-0.1271468259 -0.1592468958 0.09618900092)
(-0.1726430608 -0.2349411532 0.07628391757)
(-0.1678275691 -0.2852373665 0.06418275267)
(-0.2017999625 -0.2929271336 0.09061655283)
(-0.1174516304 -0.3668370469 0.07032745773)
(-0.1773425235 -0.3478752996 -0.005133134092)
(-0.200427744 -0.3266262341 -0.04788639517)
(-0.162786308 -0.2938001228 -0.06899450522)
(-0.1131337222 -0.2544101321 -0.08390711205)
(-0.06142075307 -0.172383926 -0.09026245822)
(-0.01269573359 -0.1187818336 -0.1014247793)
(0.04098593834 -0.04657290783 -0.1037783706)
(0.1033934643 0.01072121695 -0.05249560278)
(0.1785692961 0.06977201911 0.01454336935)
(0.2265524075 0.1141675491 0.04852365744)
(0.2378066105 0.1559549233 0.06503167365)
(0.228895041 0.18722717 0.06972965153)
(0.2140298509 0.2111662061 0.07256540855)
(0.1924779094 0.2205766279 0.07278444177)
(0.1790344904 0.2226877661 0.07157863028)
(0.162968891 0.1904788781 0.07602701152)
(0.1365300829 0.1708872155 0.08739584624)
(0.1077796143 0.1648369888 0.110102505)
(0.0760334956 0.1595093803 0.1515457429)
(0.06419756073 0.08827553644 0.1369715094)
(0.05460098179 0.02243785666 0.0912385342)
(0.1235118097 -0.001799768718 0.05516652498)
(0.1522694024 -0.01490342787 0.09737398213)
(0.05632780551 -0.03244126186 0.1319937561)
(0.01418560034 -0.1091059537 0.07838754296)
(-0.0398479098 -0.1120232192 0.07875178676)
(-0.1023221202 -0.1606283475 0.07891933756)
(-0.1456938439 -0.2305945858 0.0413599444)
(-0.1691313931 -0.3273735536 -0.04163287948)
(-0.1282928846 -0.3829340394 -0.05532151494)
(-0.1490977142 -0.3706846942 0.03285898079)
(-0.1145909946 -0.295222799 0.002283736502)
(-0.1778934965 -0.2803631206 -0.07301520192)
(-0.1899058339 -0.2515079323 -0.1220105541)
(-0.1467044051 -0.2319847547 -0.1391535138)
(-0.05570325303 -0.1408565893 -0.1578070156)
(0.006523677747 -0.07355876751 -0.1402487789)
(0.03164950513 0.009556274085 -0.1375492388)
(0.08513218264 0.05909938842 -0.1253568149)
(0.1244416204 0.08276775098 -0.1084154872)
(0.1791259607 0.09635497269 -0.06923457733)
(0.2208725223 0.1047823842 -0.02195324848)
(0.240518863 0.1140442799 0.01989870004)
(0.237968509 0.1205913167 0.05449647336)
(0.2316308658 0.1253784863 0.08193820682)
(0.2196596466 0.1292749923 0.09732713554)
(0.2047666925 0.1212114573 0.1110619734)
(0.1816546779 0.09207097074 0.1234150394)
(0.1552821115 0.05419728225 0.1370727103)
(0.1126300449 0.01800994847 0.1466300066)
(0.1100996314 -0.04028546631 0.168257492)
(0.08180353174 -0.1158709265 0.1645540102)
(0.07032089879 -0.1426301178 0.1233236223)
(0.1459469626 -0.2417369425 0.02642753244)
(0.09278612122 -0.08790793564 0.1284790177)
(-0.03710415668 -0.1094614479 0.1008405885)
(-0.03764805838 -0.07642812893 -0.01769631655)
(-0.06831379942 -0.1409904945 0.07835053543)
(-0.1528867893 -0.1799000354 0.05043583201)
(-0.19580944 -0.2541616039 -0.06950358343)
(-0.1795854975 -0.3441264393 -0.1781026299)
(-0.1116620683 -0.4026875814 -0.1697312012)
(-0.1095657764 -0.3960063034 -0.03286910475)
(-0.1382844497 -0.4770089405 -0.04579354321)
(-0.08907348409 -0.1406896429 -0.08927565598)
(-0.1326381114 -0.1091782034 -0.1620740273)
(-0.1405071589 -0.1007758845 -0.2006235306)
(-0.03799810622 -0.07230102583 -0.2074133251)
(0.07354973214 -0.07668332374 -0.2096331238)
(0.1126974328 0.07288494443 -0.1925498415)
(0.1359072816 0.1123793313 -0.1109883066)
(0.144161217 0.1481923823 -0.08184937298)
(0.1576903662 0.1438238999 -0.07230050684)
(0.1827138961 0.1245051616 -0.05487790582)
(0.2038160919 0.0975303153 -0.02646337176)
(0.2105307598 0.06961641795 0.008850821338)
(0.2021042779 0.04106711724 0.04969700546)
(0.1910451967 0.009008046576 0.09933219668)
(0.1895394691 0.001204402656 0.1211921365)
(0.1704223041 -0.02944080885 0.1421879498)
(0.1409454317 -0.06632984744 0.1433507559)
(0.1199552135 -0.1097224194 0.1376777767)
(0.08644297414 -0.1346301625 0.1239288284)
(0.05040918968 -0.2292802558 0.1438116671)
(0.03729037804 -0.2308703162 0.1428383583)
(-0.1409743915 -0.3902308091 -0.05822382447)
(0.06643327955 -0.1068494022 -0.3016267371)
(0.2120903944 -0.1357756658 0.06462043305)
(0.005459847193 -0.1421898601 0.1342667974)
(-0.02748403751 -0.08814770041 0.09043675652)
(-0.1464220183 -0.161188895 0.07281570579)
(-0.2253958505 -0.1792164458 -0.04704009883)
(-0.2645241366 -0.2241850241 -0.2021324435)
(-0.2025705625 -0.2883454427 -0.2790407134)
(-0.09943680553 -0.3420409823 -0.2461566252)
(-0.103323447 -0.3403801861 -0.08119151013)
(-0.1300686295 -0.4388650992 -0.1093923106)
(-0.1569135544 0.1363997595 -0.03237644199)
(-0.1857781845 0.1170137494 -0.1467753618)
(-0.1736350944 0.1049970669 -0.1967038302)
(-0.133047431 -0.04433399994 -0.2275635242)
(0.1004253492 0.1860284959 -0.3232128789)
(0.2434258075 0.2006278757 -0.1535360181)
(0.1833439805 0.2419166408 -0.09679156988)
(0.1856033604 0.2370279188 -0.05267787594)
(0.1612662292 0.2069588376 -0.0404206029)
(0.163437639 0.1636972526 -0.02252791007)
(0.1612516516 0.108040844 0.01751062716)
(0.1459959285 0.03585090544 0.05841618918)
(0.08983124432 -0.03914835339 0.1268652401)
(0.02207322325 -0.1402308978 0.09707627327)
(0.049389035 -0.150204065 0.1379554302)
(0.04778548793 -0.1719319194 0.1548469379)
(0.05157484927 -0.1963592053 0.1235120081)
(0.0801874782 -0.228113744 0.1222130083)
(0.01919144525 -0.2384649663 0.1170306853)
(0.01807149541 -0.3168752498 0.1693438259)
(-0.1932480519 -0.3051037725 0.07332647964)
(-0.01714367715 -0.1383526691 -0.5237243004)
(0.262383377 -0.2620135567 0.0610383717)
(0.02106044804 -0.1779982246 0.1605673484)
(-0.005522706976 -0.2019263788 0.1127591507)
(-0.08031556405 -0.1101381962 0.1163834937)
(-0.2025582216 -0.1266583192 0.05083788972)
(-0.3058242136 -0.1165582262 -0.1432354899)
(-0.3330756364 -0.1218073372 -0.3005168103)
(-0.2408522618 -0.1166664797 -0.3915860703)
(-0.08560899747 -0.1732929113 -0.3229660047)
(-0.1441472416 -0.2027220013 -0.1208073382)
(-0.1638321789 -0.42472143 -0.1432095355)
(-0.1601583232 0.2902391269 0.007537000217)
(-0.1744580235 0.2967229901 -0.1098229486)
(-0.3054604204 0.3204046502 -0.1912894636)
(0.04184848797 0.3131068953 -0.4634701353)
(0.3097433345 0.4230677284 -0.1179642339)
(0.1698431459 0.345107437 -0.1079275425)
(0.1958670444 0.3436573027 -0.03282888258)
(0.1598067079 0.2907294091 -0.01289554758)
(0.1418020365 0.2254647014 -0.003376060203)
(0.1235505944 0.1388904974 0.0156917781)
(0.08656492673 0.000235514157 0.04882938391)
(0.01811830558 -0.0915678319 0.1786840655)
(-0.1301814572 -0.1842755147 0.1255320932)
(-0.1675994138 -0.2588185665 -0.1180783292)
(-0.01299833707 -0.3184622241 0.07471293314)
(-0.01772747042 -0.3512284294 0.146428373)
(-0.01604646057 -0.374014006 0.06411989036)
(0.05041045579 -0.3800659984 0.06585534243)
(0.02327640326 -0.3437338366 0.1045313822)
(-0.02678929047 -0.4453943818 0.1251728872)
(-0.04702873334 -0.3896129499 0.1447447775)
(-0.2558756865 -0.1097727377 0.05205573232)
(0.06186241563 -0.2435435892 -0.3000351898)
(0.1507892039 -0.2326269728 0.09698049877)
(-0.007465726278 -0.2974752793 -0.04840326066)
(0.02594523705 -0.1109388354 0.09733507812)
(-0.1307570367 -0.1121903525 0.1252770788)
(-0.2228719036 0.0015085347 0.02863803649)
(-0.3144372236 0.08133737003 -0.109756256)
(-0.298313879 0.1478442779 -0.1985125082)
(-0.2133461043 0.1352612931 -0.1604888788)
(-0.4436095067 0.04394533309 -0.09756552192)
(-0.1794570876 -0.08134773443 -0.2462547448)
(-0.1246917734 0.4193726206 0.0248261344)
(-0.1198337147 0.4343902282 -0.06417394576)
(-0.1206881716 0.4453229468 -0.1024018712)
(0.02572072094 0.5917498624 -0.1397171934)
(0.1351756862 0.4126242276 -0.07424218173)
(0.1402256545 0.4089914844 -0.03797538214)
(0.1427894943 0.3542143576 0.006764111922)
(0.1148536883 0.2947800627 0.02310454428)
(0.0726541196 0.2251761012 0.04689103473)
(-0.04217454885 0.1208224476 0.03520342851)
(-0.1414388382 -0.0009008564137 -0.08931898365)
(-0.146644582 -0.1479716989 0.1904549641)
(-0.3243869087 -0.1933113352 0.03934106561)
(-0.2636420135 -0.2064538701 -0.1214991764)
(-0.09120112194 -0.3457548642 7.634403613e-05)
(-0.08659475376 -0.4731933309 0.03044782142)
(-0.09278570316 -0.502926615 -0.07552550946)
(4.896682847e-05 -0.4820197146 -0.07089717393)
(-0.05114509771 -0.4118836658 0.07832101917)
(-0.06789424067 -0.4519525526 -0.0551148737)
(0.004139099948 -0.4736702422 0.1149083903)
(-0.0908556042 -0.3572403015 -0.01546445982)
(0.03761182086 -0.2025192992 -0.02240041108)
(-0.1103776108 -0.2522362454 0.06560208442)
(-0.04189667171 -0.1448485464 -0.3484951416)
(0.1689583444 -0.1618575001 0.06920567043)
(-0.1437754491 -0.1280230183 0.1772521096)
(-0.2124121657 -0.03812185995 0.08281928792)
(-0.3143861032 0.05999497026 0.01500042783)
(-0.3369307662 0.1453753221 -0.02093392184)
(-0.332296831 0.116232449 0.03302397088)
(-0.473285235 -0.02710427748 0.03075208737)
(-0.3559816001 0.03265139287 -0.1421195409)
(-0.1034325129 0.4680698177 0.03182828267)
(-0.09346781361 0.4591056923 -0.0442775145)
(-0.09241704609 0.4488903466 -0.07110023759)
(0.02312067105 0.4653270975 -0.0845699759)
(0.09370988116 0.4206802872 -0.01878452384)
(0.09132030956 0.3812108513 0.01828876998)
(0.09952530333 0.3173032474 0.05525999884)
(0.09877932204 0.2525470887 0.06083226941)
(0.07723862699 0.2008456666 0.07630387269)
(0.0104676759 0.1315334673 0.1161284576)
(-0.0988839994 -0.02029400344 0.2100654796)
(-0.2649220671 -0.2137811278 0.177117091)
(-0.3773147831 -0.2480856692 0.06958158652)
(-0.3542240583 -0.2952782795 -0.03503503894)
(-0.2791284131 -0.4348230699 -0.0966219206)
(-0.2488070436 -0.5349191369 -0.1695394261)
(-0.1668081375 -0.5425748389 -0.2542852074)
(-0.06368613243 -0.4928578052 -0.2563659461)
(-0.005691031015 -0.4573554018 -0.01239668264)
(-0.07927478296 -0.4360676629 0.02836469517)
(-0.08767876603 -0.6963185658 -0.1913565987)
(-0.1614184861 -0.2265573001 -0.1538584737)
(0.09535565505 -0.1921434517 -0.328389212)
(0.08671045403 -0.2381888189 0.01700298009)
(0.05782832189 0.02670310949 -0.04014739319)
(0.1818906814 -0.1624936409 0.111584739)
(-0.09316527107 -0.07258101477 0.1650013702)
(-0.1831164753 -0.0115859325 0.09105204059)
(-0.3036100538 0.04595418959 0.04546419071)
(-0.3458959981 0.0760435455 0.02536100175)
(-0.3603087543 0.06679118697 0.01953068595)
(-0.4534036471 0.002901275867 -0.01726446169)
(-0.3862669942 0.04153208712 -0.04677212371)
(-0.08775016991 0.4890843071 0.03883864203)
(-0.08136797667 0.4686588087 -0.024944917)
(-0.08158178127 0.4412495511 -0.03845669353)
(-0.01371155975 0.4287904366 -0.02218974985)
(0.01709048849 0.3563353677 0.0384457372)
(0.02331221159 0.2886045761 0.08673157775)
(0.04277173909 0.2052896181 0.1079623005)
(0.07147083314 0.1485930394 0.1117085496)
(0.04411946186 0.09908254938 0.1429664438)
(-0.02570847178 -0.01466836079 0.2260766778)
(-0.1947884218 -0.2074359081 0.2307425193)
(-0.3618821888 -0.2852869749 0.1118310809)
(-0.4614024915 -0.3342366456 -0.004844647793)
(-0.4712360393 -0.3930435626 -0.1246324818)
(-0.4272805281 -0.4666226023 -0.238679698)
(-0.3534816957 -0.5073783634 -0.3271621508)
(-0.2085408331 -0.5000032586 -0.4028138897)
(-0.1096057246 -0.4340556281 -0.4290451354)
(0.05059419282 -0.3906653461 -0.1052928132)
(-0.3495715614 -0.3544995485 -0.009178040267)
(-0.206271831 -0.08966295657 -1.123197196)
(0.4000214546 -0.271078515 -0.2265155477)
(0.04881398372 -0.09927508271 -0.01422478379)
(0.1137178943 -0.1010237128 -0.2093767123)
(0.1473088598 -0.03892058542 -0.08978456591)
(0.1335186558 -0.2099666485 0.1305158132)
(-0.1025045029 -0.09580569043 0.2094948865)
(-0.182803399 -0.01111403456 0.1233569167)
(-0.2958826817 0.06291708103 0.09023495395)
(-0.3643723152 0.1137213084 0.08019341516)
(-0.427831415 0.1326008657 0.08335004902)
(-0.5046761856 0.06995561098 0.08883631549)
(-0.4804694 -0.02627924652 0.04068396774)
(-0.0801758245 0.4857926151 0.0539146769)
(-0.08694317389 0.4471888681 0.007526104905)
(-0.1057106558 0.3926278248 0.01828170732)
(-0.08162872654 0.3280374661 0.06553287873)
(-0.08098819335 0.2347444111 0.1338654152)
(-0.05645288295 0.134326408 0.1746771356)
(-0.03188758286 0.02055243341 0.1735616371)
(0.00728379814 -0.001777381113 0.186246542)
(-0.04707969476 -0.05811527583 0.2388773601)
(-0.1872898487 -0.1489561317 0.2268025347)
(-0.3722702327 -0.2241129617 0.1157379424)
(-0.5164592771 -0.2698588659 -0.02978457646)
(-0.5833333421 -0.2999783577 -0.1658200735)
(-0.5820840159 -0.3249077209 -0.2696841839)
(-0.5380176779 -0.3354762195 -0.3738555362)
(-0.4364150572 -0.296164384 -0.4891376413)
(-0.2423679008 -0.212930158 -0.5999728113)
(-0.03598962129 -0.1511810759 -0.6257119881)
(0.2300158637 -0.1824319118 -0.32590361)
(0.08770059764 -0.2567473365 0.01392357014)
(-0.1411095888 0.05949141688 -0.03191654416)
(0.09882568007 -0.2543982017 -0.3183774369)
(0.1782647972 -0.08420178809 -0.2044251828)
(0.2337733715 -0.08749160182 -0.1283979641)
(0.1894085223 -0.11530105 -0.01493897717)
(0.1475870317 -0.2403192603 0.1283346146)
(-0.0810701152 -0.1698015081 0.2154310078)
(-0.1812914108 -0.06932633553 0.1550527155)
(-0.2930492937 0.01319743551 0.1161030878)
(-0.3740588314 0.05504065807 0.09526811434)
(-0.4631828324 0.05070003155 0.06264422144)
(-0.5017350978 -0.05708895417 -0.05264948786)
(-0.5312976835 -0.2594354966 -0.2921350659)
(-0.08235223413 0.4644793832 0.0846798377)
(-0.1161457513 0.4004665595 0.06493753583)
(-0.1695447709 0.3070254983 0.1077535739)
(-0.1872166737 0.1853983727 0.1720684209)
(-0.2092317369 0.02049864256 0.1986282978)
(-0.1994400192 -0.1480179141 0.1540567683)
(-0.1722745655 -0.2295811304 0.1178196243)
(-0.1568450657 -0.2396251621 0.1463788929)
(-0.2075510221 -0.2258165214 0.1828289311)
(-0.3454790308 -0.2098078363 0.1362712398)
(-0.4937507465 -0.1958789564 0.009710317426)
(-0.5944056669 -0.1693483311 -0.1453527838)
(-0.6214366726 -0.1307997941 -0.26843478)
(-0.603193358 -0.06516850713 -0.3728330256)
(-0.5230957749 0.01994865251 -0.465852594)
(-0.3808697632 0.110905408 -0.5350009176)
(-0.1760393563 0.2022285387 -0.5781588931)
(0.04011067669 0.1823165706 -0.569300501)
(0.2297808012 -0.002554452835 -0.3478407172)
(0.01649216386 -0.1303331871 -0.02868154229)
(-0.1813530125 -0.09109022229 -0.05348815944)
(0.1172802475 -0.09032947778 -0.3942071586)
(0.2642223669 -0.05854809998 -0.2712775706)
(0.3271774637 -0.09330370094 -0.1944633289)
(0.2767662942 -0.1288739219 -0.02673349391)
(0.151246478 -0.2299542328 0.1308751142)
(-0.1093666611 -0.1972285946 0.2127313218)
(-0.2683256613 -0.1015003431 0.1986832357)
(-0.4534395921 4.540632837e-05 0.1956963114)
(-0.6461783121 0.07133448755 0.101664674)
(-0.8126618327 0.1345819373 -0.1857251344)
(-0.8369800324 0.2120973624 -0.6023073589)
(-0.7027637633 0.210401307 -1.008755058)
(-0.08832033534 0.4225342892 0.1368703125)
(-0.1529117354 0.322562424 0.1431486411)
(-0.2395019028 0.1692493441 0.1833531962)
(-0.2914245266 -0.02959916906 0.1605277521)
(-0.3184781472 -0.2079167233 0.05017998355)
(-0.3019727609 -0.3254741698 -0.03576722126)
(-0.275217535 -0.3951025688 -0.06546173386)
(-0.2455104611 -0.3918153065 -0.02516766856)
(-0.2574157482 -0.3197731841 0.06408655997)
(-0.3543893128 -0.2159235442 0.07895237336)
(-0.4576339553 -0.1271108158 -0.01855587592)
(-0.5003443314 -0.03559299483 -0.1508072142)
(-0.4849637323 0.08671709415 -0.2342118896)
(-0.4674007672 0.2131495865 -0.2841900952)
(-0.4108793903 0.3000925306 -0.3368179168)
(-0.2896602799 0.3635548995 -0.3912882517)
(-0.09321075217 0.4173353998 -0.419490882)
(0.03807126319 0.3682816706 -0.4099874177)
(0.04583071255 0.1907329366 -0.03258406366)
(-0.2966707515 0.06960400617 -0.01204545452)
(-0.2303187819 0.0801132586 -0.2811267615)
(0.0388812521 0.0521924003 -0.4218859169)
(0.2986234277 -0.0003452055822 -0.3054409375)
(0.3483864056 -0.04786031168 -0.2055830603)
(0.2871077772 -0.1050622765 -0.02765359761)
(0.134434554 -0.1837019349 0.1274530497)
(-0.09169661838 -0.1870482735 0.1628188727)
(-0.228290972 -0.1194247968 0.1638100591)
(-0.3747341525 -0.003608314489 0.2101293867)
(-0.5621706329 0.1286323029 0.1731482013)
(-0.7510217725 0.2498497613 -0.08786552308)
(-0.824434351 0.3385667289 -0.5441297699)
(-0.653047442 0.395804271 -0.9264126371)
(-0.09331584202 0.3574087478 0.2091466048)
(-0.1971116966 0.2168609568 0.1961730254)
(-0.3349204269 0.03087315821 0.1269275436)
(-0.422993619 -0.1336389726 -0.02537653196)
(-0.4421998484 -0.2434861118 -0.1366826735)
(-0.396198701 -0.3138540202 -0.199823425)
(-0.3222520038 -0.3534617962 -0.2291474458)
(-0.2487176343 -0.3577023102 -0.2060685995)
(-0.2039285216 -0.3120441344 -0.1134519899)
(-0.2469849519 -0.200274297 -0.01267844547)
(-0.3073894652 -0.06726722122 0.02722803503)
(-0.3304154386 0.07375404644 -0.0147202057)
(-0.3426904703 0.2199807093 -0.09558531866)
(-0.3722815823 0.3521243646 -0.2024727319)
(-0.3395401138 0.4277668204 -0.2635328074)
(-0.2383604169 0.48283519 -0.2896658834)
(-0.09541585896 0.536899366 -0.304915167)
(-0.007162811829 0.4866431733 -0.261971267)
(-0.1425690711 0.2259133329 0.1235830538)
(-0.3078263787 0.1594276839 -0.03182886797)
(-0.216675854 0.1284406527 -0.2677452054)
(0.03204774174 0.1300711923 -0.3722084398)
(0.2763546864 0.07467678377 -0.22920126)
(0.3117124041 0.009190731811 -0.09494627129)
(0.2153171976 -0.06746345232 0.07968471302)
(0.02782314019 -0.1489145281 0.1527441605)
(-0.1202467373 -0.1737001135 0.09498138218)
(-0.2077673245 -0.1527864398 0.09158791376)
(-0.2967661088 -0.08388521466 0.1718745987)
(-0.4238811046 0.04501518195 0.2603093864)
(-0.5753485182 0.228875086 0.1805528609)
(-0.6757771361 0.4151394465 -0.1617139892)
(-0.6075280594 0.5441283868 -0.6315821607)
(-0.1216764121 0.228468252 0.2565287986)
(-0.2843213602 0.1383398275 0.1136528848)
(-0.454096655 0.04685713098 -0.07506440404)
(-0.5137413421 -0.02619040316 -0.200467098)
(-0.5178817877 -0.09373412466 -0.2841377066)
(-0.4649659717 -0.1298822294 -0.3480731161)
(-0.3746181703 -0.1391288143 -0.3879259334)
(-0.2693943179 -0.1138885156 -0.3938256316)
(-0.166103987 -0.04817562049 -0.3540697921)
(-0.1010888578 0.02629670834 -0.2766019718)
(-0.02623542425 0.02577620766 -0.04951025436)
(-0.1185502753 0.1099055953 0.1365460494)
(-0.2389739206 0.28677897 0.06763212384)
(-0.3082195896 0.3794085254 -0.08797060147)
(-0.2868967664 0.4444229682 -0.1934505242)
(-0.2214331829 0.4844219411 -0.1954027098)
(-0.1341212945 0.5284522987 -0.1311284836)
(-0.07700362977 0.4822417753 -0.01513584296)
(-0.2001424356 0.2582751197 0.1390195705)
(-0.2693188233 0.2548704566 -0.04861219981)
(-0.2478954623 0.2663414853 -0.3002137915)
(-0.04248155791 0.2572585747 -0.4781926109)
(0.2447194791 0.06449634923 -0.1756290881)
(0.193402634 -0.009884208445 0.02663263167)
(0.08218789811 -0.08135259819 0.1653834426)
(-0.09614181772 -0.1438041969 0.1190985379)
(-0.1440203226 -0.169989134 0.03232511323)
(-0.1773341601 -0.1633655803 0.01085318706)
(-0.2013342062 -0.1385684039 0.0550727656)
(-0.2790471053 -0.09082909214 0.1781589302)
(-0.4421854132 0.04572123925 0.2749389146)
(-0.6236532781 0.2974066285 0.1701229588)
(-0.65438274 0.5520388248 -0.2060934959)
(-0.2400305167 0.207744867 0.2381726118)
(-0.4497039372 0.2262656327 -0.02072243901)
(-0.6031863807 0.2235486587 -0.1986003044)
(-0.6242356858 0.2142801036 -0.2928109259)
(-0.5934272799 0.2146937128 -0.3647714421)
(-0.5096343173 0.2253601918 -0.4214170311)
(-0.3862949047 0.2355294049 -0.4572632838)
(-0.2390597664 0.2464072381 -0.45754343)
(-0.09019267234 0.2649516051 -0.3988045852)
(0.02051666707 0.2584167947 -0.2666904642)
(0.05015743779 0.2038491421 -0.06592096653)
(-0.06425653068 0.1883624276 0.006689117685)
(-0.08132852784 0.2436517199 0.165063801)
(-0.2514332613 0.3395808341 0.085398168)
(-0.25416827 0.4131593069 -0.03793681093)
(-0.2104836964 0.4174075393 -0.02252195125)
(-0.127148168 0.3883350476 0.1154461357)
(-0.09958892495 0.3333957488 0.1661746072)
(-0.196383375 0.1228725363 0.1223261633)
(-0.2037700806 0.2144549758 0.01482992531)
(-0.1712497215 0.2834634818 -0.1343909004)
(-0.07927928103 0.3641977176 -0.2697029991)
(0.0380764629 0.07341858449 -0.1526960503)
(0.01416439987 -0.007637455752 0.1120439093)
(-0.1388943241 -0.1157590869 0.1361187338)
(-0.1784221151 -0.1521424222 0.05025661262)
(-0.1836636716 -0.1623825642 -0.005379634378)
(-0.1735535853 -0.1412423773 -0.02943782072)
(-0.1647540144 -0.1121531151 -0.009541919116)
(-0.2155195271 -0.06740818982 0.06617698603)
(-0.3502479458 0.0235775269 0.1077192874)
(-0.432558636 0.2090978308 0.1615940878)
(-0.4827667923 0.4888945031 0.1404843245)
(-0.3013733969 0.3212628225 0.2265554869)
(-0.5025347089 0.341409238 -0.04344301042)
(-0.6402451781 0.3599247437 -0.1968974288)
(-0.6446643189 0.3824839306 -0.2659900183)
(-0.6007750217 0.4091462198 -0.3156457843)
(-0.5044879968 0.4361348017 -0.3566067012)
(-0.3666115366 0.4516242522 -0.3863397307)
(-0.2007170607 0.4502380242 -0.3896201459)
(-0.03755812002 0.4331806747 -0.3344441787)
(0.08555548915 0.3747584582 -0.1761005589)
(0.06413087525 0.2818786801 0.03202694654)
(-0.03069235697 0.2427094138 0.08795603918)
(-0.07733604416 0.1550332854 0.2195881146)
(-0.203813561 0.2505159267 0.1600767999)
(-0.2175603762 0.2753990797 0.1033601011)
(-0.2145689351 0.1658917664 0.1213492168)
(-0.2555484096 0.05599405741 0.1739476265)
(-0.2802263717 0.1789220802 0.06635727646)
(-0.2259757187 0.1217182579 -0.2077929507)
(-0.04986973814 0.1469003606 0.05575463834)
(-0.07156110994 0.2033744524 0.05829934056)
(-0.06645505756 0.334919675 -0.07839502362)
(-0.02907285369 0.1763881913 -0.1514480109)
(-0.1296358817 -0.09446014373 0.1676546467)
(-0.1979759639 -0.1609613182 0.09009969879)
(-0.2098905997 -0.1828252238 0.03157506842)
(-0.177761801 -0.1620274874 -0.01497460397)
(-0.1399458667 -0.1218386836 -0.04798926677)
(-0.08910247442 -0.07927757477 -0.05810550472)
(-0.05900787745 -0.03635285775 0.003814896111)
(-0.1252038125 0.0362652874 0.09861241073)
(-0.2872243221 0.229463504 0.1450673385)
(-0.3658807325 0.3866890677 0.1798080161)
(-0.2970553506 0.4224271301 0.240269345)
(-0.481905641 0.4352388012 -0.017916176)
(-0.6136739464 0.4689560072 -0.1713580657)
(-0.6155093421 0.5098075915 -0.2392939143)
(-0.5771875061 0.5542655135 -0.2811007375)
(-0.4910980246 0.5899969977 -0.311372546)
(-0.3711516743 0.6026766738 -0.3287913556)
(-0.231736325 0.5779406941 -0.3174182187)
(-0.1018390552 0.5029982139 -0.2399747082)
(0.00732469596 0.3732313329 -0.02349371065)
(-0.06642844179 0.2008260856 0.1272983189)
(-0.1132919261 0.1032557421 0.09952458822)
(-0.2008967331 0.02832234294 0.02872027484)
(-0.234229189 0.1766952937 0.1349531076)
(-0.3571702353 0.2246082898 0.04392412527)
(-0.3481959976 0.1961504948 -0.2137703598)
(-0.2459735799 0.1894817908 -0.3893149601)
(-0.01301016449 0.1605456041 0.0707846336)
(-0.1466258123 0.2009585074 0.01707997516)
(-0.05571977505 0.1445363043 0.07287915433)
(-0.1003982411 0.1357627588 0.1012039826)
(-0.05525424732 0.2347961286 0.0594096503)
(-0.04145633819 0.04963605209 0.1641159549)
(-0.1747227199 -0.1630492854 0.1551275217)
(-0.217685764 -0.2261174964 0.09048484287)
(-0.2039264718 -0.2268658477 0.04982765118)
(-0.1528571211 -0.1794667069 0.008351653076)
(-0.1051300704 -0.1174794977 -0.02911583248)
(-0.03920903328 -0.06465863928 -0.05681818215)
(0.01337430156 -0.02811710284 -0.006485993491)
(-0.01428367028 0.03017775376 0.086975165)
(-0.1678279484 0.187432641 0.1311273308)
(-0.2496893826 0.3151895685 0.09844236869)
(-0.2675878301 0.487051433 0.2591282654)
(-0.4398255959 0.4905881217 0.03402823283)
(-0.5657260085 0.5302180724 -0.1142733632)
(-0.5770729568 0.5757025645 -0.196936723)
(-0.5498339525 0.6199563792 -0.2413145997)
(-0.4836982929 0.6512196658 -0.2641939084)
(-0.3918497919 0.6519158661 -0.2614772317)
(-0.2918834738 0.6030332346 -0.2083800901)
(-0.2141964538 0.4790443546 -0.06684147395)
(-0.2450433231 0.3325862704 0.04317856319)
(-0.3306127123 0.2630048087 -0.0572605715)
(-0.3283839022 0.2633882981 -0.1998500117)
(-0.2924092528 0.2816640318 -0.3104065205)
(-0.180542761 0.2825226132 -0.06211356746)
(-0.2797342212 0.292045909 0.07579315122)
(-0.3348857592 0.3249174344 -0.09925523527)
(-0.2279003454 0.2796307216 -0.1865054084)
(-0.1090734945 0.1439470354 0.02633934578)
(-0.1460028185 0.1307410747 0.0695498443)
(-0.09721371917 0.06323870178 0.03934489159)
(-0.1051259348 0.06137678175 0.05945767114)
(-0.06461368175 0.1008156914 0.1146639508)
(-0.09167859969 -0.07395088267 0.1877949218)
(-0.21536563 -0.2237436132 0.1519072178)
(-0.2358842899 -0.3060973163 0.1054597152)
(-0.1871088866 -0.3162975432 0.06885783535)
(-0.0975566521 -0.234460559 0.04246879239)
(-0.04242099068 -0.1456742384 0.02390416686)
(0.03370512309 -0.06371337327 -0.02284176934)
(0.08878328086 -0.01742217022 -0.01092394911)
(0.09491336573 0.04807495364 0.0536131603)
(-0.006379724454 0.1610382585 0.1317757306)
(-0.1403008431 0.277454272 0.06257323228)
(-0.2233163085 0.5080433848 0.2689989917)
(-0.3879250543 0.5043195206 0.0974500076)
(-0.5131096032 0.5454343373 -0.02475191951)
(-0.5392619769 0.5887436068 -0.1047237676)
(-0.5271004097 0.6266304566 -0.1505330691)
(-0.4785980671 0.6424752348 -0.164549948)
(-0.4078360953 0.6195826811 -0.1387964965)
(-0.3336132987 0.5364087271 -0.05269581385)
(-0.297817746 0.4067123519 0.07063244895)
(-0.3419434758 0.3367257585 0.07256645158)
(-0.3699298108 0.3419827737 -0.03743911128)
(-0.3424892598 0.3625109694 -0.1445134135)
(-0.2800376027 0.3768021738 -0.2111325624)
(-0.1736812983 0.3416216155 0.01302669012)
(-0.2951227461 0.2751595032 0.08328424933)
(-0.3087317002 0.2927194284 -0.01551889929)
(-0.2214411915 0.2520429672 -0.03820722946)
(-0.1586515073 0.1305038051 0.02806274044)
(-0.1739047801 0.0968181629 0.04887481626)
(-0.1405269866 0.0547524388 0.03519575176)
(-0.1542138436 0.01715010866 0.08406367762)
(-0.1575031656 -0.02269485635 0.1737374985)
(-0.2242025014 -0.1867649906 0.2019162369)
(-0.2898791289 -0.3147584022 0.1504083726)
(-0.2844813588 -0.4425879926 0.06785934913)
(-0.1874804877 -0.4804229433 -0.01704823968)
(-0.0362860496 -0.3656737089 -0.02398575088)
(0.05461174261 -0.2214926669 0.07166645092)
(0.1057596559 -0.09814367452 0.05365506287)
(0.1485378425 -0.01511627318 -0.005386887958)
(0.1780246726 0.05585186956 0.02727239613)
(0.1348152019 0.1447257174 0.1075981849)
(-0.002984059666 0.2510071749 0.1036705821)
(-0.170104124 0.4874512553 0.2587956836)
(-0.3243856698 0.4788815164 0.1489787143)
(-0.4520353581 0.515387088 0.06556492174)
(-0.4940884225 0.5449452648 0.009034334281)
(-0.4982531448 0.5604550511 -0.01900731943)
(-0.4674115762 0.5504476263 -0.01960582556)
(-0.4156963544 0.5020277321 0.007574432563)
(-0.3635988114 0.4087985449 0.05875894417)
(-0.3434947182 0.3093694096 0.09361850019)
(-0.3497215291 0.2906475817 0.06043209344)
(-0.3356991013 0.3315115964 0.003799008284)
(-0.3062852305 0.3777222286 -0.04980366488)
(-0.2593577796 0.3864164605 -0.06219547618)
(-0.2207138304 0.2942538712 0.08594165072)
(-0.3191934534 0.2293560211 0.07997125891)
(-0.312534926 0.2131069417 0.0215201878)
(-0.2623926421 0.1585108657 0.02229968076)
(-0.2269177824 0.09291262301 0.04976401738)
(-0.2199644364 0.05096604797 0.06665606894)
(-0.2138229412 0.0004805455553 0.09834293076)
(-0.2587356647 -0.07176188828 0.178140648)
(-0.3275077556 -0.1808061378 0.2283347325)