/*--------------------------------*- C++ -*----------------------------------*\
  =========                 |
  \\      /  F ield         | OpenFOAM: The Open Source CFD Toolbox
   \\    /   O peration     | Website:  https://openfoam.org
    \\  /    A nd           | Version:  8
     \\/     M anipulation  |
\*---------------------------------------------------------------------------*/
FoamFile
{
    version     2.0;
    format      ascii;
    class       labelField;
    location    "2/lagrangian/reactingCloud1";
    object      origProcId;
}
// * * * * * * * * * * * * * * * * * * * * * * * * * * * * * * * * * * * * * //


67
(
3
3
3
3
3
3
3
3
1
3
3
3
3
1
1
1
1
1
3
3
1
1
3
1
3
3
3
1
3
3
3
2
2
2
2
2
2
2
2
2
2
3
3
2
3
2
2
2
2
2
3
2
3
3
2
3
3
3
3
3
3
1
3
3
3
3
3
)


// ************************************************************************* //
