/*--------------------------------*- C++ -*----------------------------------*\
  =========                 |
  \\      /  F ield         | OpenFOAM: The Open Source CFD Toolbox
   \\    /   O peration     | Website:  https://openfoam.org
    \\  /    A nd           | Version:  8
     \\/     M anipulation  |
\*---------------------------------------------------------------------------*/
FoamFile
{
    version     2.0;
    format      ascii;
    class       Cloud<basicReactingMultiphaseParcel>;
    location    "2/lagrangian/reactingCloud1";
    object      positions;
}
// * * * * * * * * * * * * * * * * * * * * * * * * * * * * * * * * * * * * * //

67
(
(0.1417399641 0.04709935427 0.6477224099 0.1634382717) 4415 12940 2
(0.1932489078 0.2227630267 0.4254499708 0.1585380947) 5543 16156 1
(0.001408396635 0.8192189088 0.02729931259 0.1520733819) 11466 33576 1
(0.09878001905 0.3093658047 0.5015235842 0.0903305921) 14456 42226 1
(0.1455376935 0.1006661597 0.58751364 0.1662825068) 20861 60971 2
(0.0344997494 0.01313678393 0.2492436327 0.703119834) 22485 63226 2
(0.09331256899 0.5233444935 0.2464085782 0.1369343593) 24064 71104 2
(0.07415494488 0.09388878654 0.3920494008 0.4399068678) 61821 183547 2
(0.132338628 0.02700854029 0.60166742 0.2389854117) 3896 8487 2
(0.1746159799 0.7812116435 0.02703355314 0.01713882349) 23571 69652 1
(0.04970338325 0.3725042784 0.048060381 0.5297319573) 22695 66814 1
(0.3294498125 0.3926028424 0.2676195346 0.01032781054) 23571 66817 2
(0.4287264201 0.05125945876 0.03571742641 0.4842966947) 23570 66814 1
(0.2484618858 0.2239200026 0.04608520524 0.4815329064) 22751 66968 2
(0.3162295038 0.1725122005 0.1128255604 0.3984327354) 22717 66864 2
(0.1324855214 0.2299759144 0.1017747631 0.5357638011) 22752 66968 2
(0.06927895118 0.1917195622 0.2861619807 0.452839506) 22752 66968 2
(0.1114690876 0.2282323147 0.426186224 0.2341123738) 22820 67170 2
(0.4651644801 0.1748362623 0.1925727098 0.1674265477) 60105 178107 1
(0.6195919526 0.111914442 0.1362574806 0.1322361248) 65466 192544 2
(0.183743993 0.05593052698 0.4695200973 0.2908053827) 23021 67670 1
(0.1390004915 0.4961666586 0.2214631565 0.1433696934) 23351 68746 3
(0.03622566995 0.152700004 0.4326828126 0.3783915135) 14967 43696 2
(0.5988901076 0.05367811944 0.1411348096 0.2062969634) 24251 71687 1
(0.3569649477 0.3895820827 0.1562878861 0.09716508345) 10822 31703 2
(0.08041478349 0.3270921899 0.4552158626 0.1372771641) 36979 206680 1
(0.1996266401 0.3925551655 0.05376956404 0.3540486303) 39109 116560 1
(0.4624837625 0.01489208821 0.420236292 0.1023878573) 59956 178979 1
(0.1489071935 0.188282164 0.144010774 0.5187998685) 40101 119468 1
(0.133417287 0.154571502 0.3827522937 0.3292589173) 39266 120043 1
(0.2282089011 0.3906239911 0.1530067353 0.2281603724) 42221 128705 2
(0.06434629721 0.4638069402 0.1903064083 0.2815403543) 12535 36702 2
(0.8334515549 0.04318069211 0.02401068559 0.0993570674) 13499 39512 1
(0.06980339483 0.4960796695 0.4266190034 0.007497932236) 12567 36797 1
(0.3035976892 0.0761162214 0.2968517409 0.3234343485) 11595 33954 2
(0.3598079258 0.1166276122 0.2751582301 0.248406232) 12535 33954 2
(0.3825163149 0.07144581783 0.2729487511 0.2730891161) 13499 39512 1
(0.2494220432 0.2112601378 0.1839258506 0.3553919683) 3734 10872 1
(0.2592245749 0.4379897573 0.03198491752 0.2708007503) 13499 39420 2
(0.5609610952 0.3303874076 0.04544338284 0.06320811444) 11627 31274 2
(0.4458466573 0.01583212899 0.14159084 0.3967303737) 12535 36703 2
(0.4935304888 0.119857881 0.2527576582 0.133853972) 44424 135176 1
(0.4271494413 0.1333103226 0.3169413615 0.1225988746) 26717 79694 2
(0.2303958973 0.4388984922 0.2570055962 0.07370001433) 60103 179346 2
(0.002379485383 0.06217251953 0.6346070419 0.3008409532) 44489 135273 1
(0.4791009722 0.03498252445 0.06420831114 0.4217081922) 680 201558 1
(0.1677172295 0.0799204368 0.2998852008 0.4524771329) 61731 80784 2
(0.1353634749 0.04572448221 0.3719292147 0.4469828282) 61732 183348 1
(0.3316872172 0.3528664597 0.2810264396 0.03441988346) 61732 183339 2
(0.07281898768 0.05370671362 0.464635114 0.4088391847) 61732 183339 1
(0.2464883602 0.4196653268 0.1330045674 0.2008417456) 45525 138401 2
(0.5200678994 0.03456546304 0.2149354257 0.2304312119) 61732 183339 1
(0.2366834613 0.0906721033 0.3253991816 0.3472452538) 15302 44696 2
(0.7614463517 0.1071948108 0.04122232985 0.09013650763) 45555 138493 2
(0.003651248272 0.2518459582 0.5188391936 0.2256635999) 9719 25612 2
(0.2680615921 0.2112533063 0.3078881787 0.2127969229) 46592 207119 1
(0.4898633309 0.3677058915 0.08987560227 0.0525551753) 47689 144748 1
(0.642598512 0.08446175269 0.09549890058 0.1774408347) 47690 144753 2
(0.2376683718 0.2156254883 0.209130615 0.3375755249) 48756 144753 2
(0.1348471762 0.1033933312 0.2891770396 0.4725824529) 48786 144842 2
(0.09162058832 0.4887173956 0.09594629792 0.3237157182) 65673 101539 1
(0.3565802194 0.3163819334 0.001895787972 0.3251420592) 61206 182078 2
(0.3029732879 0.2790956916 0.2452020656 0.1727289549) 48787 147966 2
(0.4393756888 0.003190981086 0.01264238535 0.5447909448) 45553 135354 1
(0.01885976412 0.07058247302 0.4244254385 0.4861323243) 48787 147966 2
(0.05682824981 0.710567887 0.2024983419 0.03010552136) 49886 151185 1
(0.01087972628 0.0004398502265 0.5060329885 0.482647435) 49854 151094 2
)


// ************************************************************************* //
