/*--------------------------------*- C++ -*----------------------------------*\
  =========                 |
  \\      /  F ield         | OpenFOAM: The Open Source CFD Toolbox
   \\    /   O peration     | Website:  https://openfoam.org
    \\  /    A nd           | Version:  8
     \\/     M anipulation  |
\*---------------------------------------------------------------------------*/
FoamFile
{
    version     2.0;
    format      ascii;
    class       scalarField;
    location    "2/lagrangian/reactingCloud1";
    object      rho;
}
// * * * * * * * * * * * * * * * * * * * * * * * * * * * * * * * * * * * * * //


67
(
1000
1000
1000
1000
1000
1000
1000
1000
994.5114688
994.5114685
994.5114685
994.5114686
994.5114686
994.5114772
994.5114773
994.511477
994.5114768
994.5114765
994.5114686
1000
994.5114745
994.5114769
1000
994.5114732
1000
1000
1000
994.5114719
1000
1000
1000
994.5114722
994.5114719
994.511472
994.5114723
994.5114722
994.5114718
994.5114694
994.5114719
994.5114724
994.5114721
1000
1000
994.5114686
1000
994.5114693
994.5114685
994.5114685
994.5114685
994.5114685
1000
994.5114685
1000
1000
994.5114699
1000
1000
1000
1000
1000
1000
994.511471
1000
1000
1000
1000
1000
)


// ************************************************************************* //
