/*--------------------------------*- C++ -*----------------------------------*\
  =========                 |
  \\      /  F ield         | OpenFOAM: The Open Source CFD Toolbox
   \\    /   O peration     | Website:  https://openfoam.org
    \\  /    A nd           | Version:  8
     \\/     M anipulation  |
\*---------------------------------------------------------------------------*/
FoamFile
{
    version     2.0;
    format      ascii;
    class       scalarField;
    location    "2/lagrangian/reactingCloud1";
    object      T;
}
// * * * * * * * * * * * * * * * * * * * * * * * * * * * * * * * * * * * * * //


67
(
300
300
300
300
300
300
300
300
299.9999984
299.9999995
299.9999995
299.9999995
299.9999995
299.9999667
299.9999661
299.9999673
299.9999682
299.999969
299.9999994
300
299.9999766
299.9999677
300
299.9999818
300
300
300
299.9999865
300
300
300
299.9999857
299.9999868
299.9999862
299.9999852
299.9999855
299.999987
299.9999962
299.9999866
299.9999847
299.9999861
300
300
299.9999992
300
299.9999968
299.9999996
299.9999996
299.9999996
299.9999996
300
299.9999996
300
300
299.9999943
300
300
300
300
300
300
299.9999901
300
300
300
300
300
)


// ************************************************************************* //
