/*--------------------------------*- C++ -*----------------------------------*\
  =========                 |
  \\      /  F ield         | OpenFOAM: The Open Source CFD Toolbox
   \\    /   O peration     | Website:  https://openfoam.org
    \\  /    A nd           | Version:  8
     \\/     M anipulation  |
\*---------------------------------------------------------------------------*/
FoamFile
{
    version     2.0;
    format      ascii;
    class       vectorField;
    location    "2/lagrangian/reactingCloud1";
    object      U;
}
// * * * * * * * * * * * * * * * * * * * * * * * * * * * * * * * * * * * * * //


67
(
(0.4187235242 -0.8952495089 -3.260042636)
(0.4520742322 -0.7549757926 -3.223398761)
(0.2720228283 -0.7812922864 -3.217276661)
(0.5295085323 -0.486095755 -3.174257295)
(1.156034629 -0.356997785 -2.725556826)
(0.9332774542 -0.6441880537 -2.691294377)
(0.2540279504 -1.082774441 -2.607975721)
(0.3204539436 -0.8375219954 -2.67192753)
(0.515834504 -0.2559644216 -1.935591042)
(1.851470616 0.2100839462 -0.9956093256)
(1.676886695 0.1633068714 -1.003037229)
(1.77322241 0.157060211 -0.9823222395)
(1.728874902 0.1388228494 -0.9753113957)
(-0.1869818006 -2.32554843 -0.8438847691)
(-0.2741385372 2.722966649 -0.8910592842)
(-0.1705816725 -2.28306806 -0.8388233607)
(-0.1839566456 -2.403780449 -0.8521535902)
(-0.172969084 -2.155049243 -0.8484237281)
(0.1516319071 -0.1070035143 -0.9117844905)
(0.8747546137 -0.6355267831 -2.291323186)
(-0.433657627 -1.911731409 -0.9132046529)
(-0.1138463839 -0.8945645793 -0.9862918581)
(-0.1482053202 -1.01265748 -2.846101494)
(-0.3164459315 -0.8329884265 -0.8980602335)
(0.9761240475 -0.2226412291 -3.006439622)
(0.02005624956 -1.045073967 -2.261442863)
(0.888595045 -0.8644048479 -2.001264566)
(-0.2633137988 -0.5261346538 -0.884812406)
(0.1165487627 -1.171308648 -2.050363463)
(0.6701508819 -0.04472985047 -2.309840774)
(-0.1784878692 -1.256429215 -1.905988894)
(0.3173865037 -0.1974471482 -1.814945594)
(0.3426878989 -0.1781791532 -1.761829428)
(0.3379688668 -0.2041039718 -1.790140627)
(0.3408135353 -0.2200179877 -1.863810302)
(0.3349342214 -0.2207946762 -1.837104823)
(0.3430690672 -0.1685128378 -1.754014997)
(0.08473681084 -0.2330164352 -2.168973533)
(0.355072162 -0.2094157348 -1.780390509)
(0.3358501252 -0.1892779471 -1.900228808)
(0.3423119737 -0.2230568498 -1.808995696)
(0.7403315665 -1.110154109 -1.743880233)
(0.05795129963 -1.120991566 -2.509331304)
(0.121548271 -0.05624762763 -0.8448649876)
(1.084321739 -0.6519871582 -1.77307196)
(0.02001062348 -0.1813295512 -2.171250169)
(1.739002716 0.001220656634 -0.3292464177)
(1.929631293 0.008844690043 -0.3325708305)
(1.949299745 0.009858617215 -0.3253050133)
(1.860273389 0.006548253637 -0.3361767838)
(0.7343082467 -1.004687195 -1.787277201)
(2.010255743 0.01201540423 -0.2939921002)
(0.1083854755 -0.6369169176 -3.232605553)
(0.2118794973 -0.6211728783 -2.097620813)
(0.09425734155 -0.187344068 -1.941924565)
(-0.38622136 -1.293758615 -1.624827732)
(-0.157627066 -1.132486412 -1.770211225)
(0.3102395806 -1.148393602 -1.709492621)
(0.4076221708 -1.302200062 -1.556030754)
(-0.5143716267 -0.2103330409 -1.995276738)
(0.2682123931 -0.2586851789 -2.661775431)
(-0.2751020417 -0.3507515615 -0.5147368556)
(0.2217088285 -1.080392687 -1.725894649)
(-0.4568180549 -0.7218853127 -2.022450368)
(0.02047097874 -1.1907878 -1.642345079)
(0.1181322575 1.182827371 -1.619827045)
(-0.1976017111 -0.198028511 -1.982818569)
)


// ************************************************************************* //
