/*--------------------------------*- C++ -*----------------------------------*\
  =========                 |
  \\      /  F ield         | OpenFOAM: The Open Source CFD Toolbox
   \\    /   O peration     | Website:  https://openfoam.org
    \\  /    A nd           | Version:  8
     \\/     M anipulation  |
\*---------------------------------------------------------------------------*/
FoamFile
{
    version     2.0;
    format      ascii;
    class       volScalarField;
    location    "1";
    object      htcConv;
}
// * * * * * * * * * * * * * * * * * * * * * * * * * * * * * * * * * * * * * //

dimensions      [1 0 -1 1 0 0 0];

internalField   uniform 0;

boundaryField
{
    walls
    {
        type            calculated;
        value           uniform 0;
    }
    region0_to_wallFilmRegion_wallFilmFace
    {
        type            convectiveHeatTransfer;
        L               1;
        value           nonuniform List<scalar> 
983
(
2.597640191
2.194520063
1.921518602
2.133550738
2.454780685
2.692178723
2.834892932
2.888946168
2.809548543
2.611279003
2.334009022
2.132537989
2.125381511
2.236667075
2.378608797
2.509818213
2.608378321
2.659332496
2.648020103
2.562355036
2.404992258
2.206270033
2.007569419
1.836398897
1.704022533
1.623314792
1.500715143
1.288239994
1.831152868
1.311641181
2.568994605
2.19569331
1.88990623
1.887058092
2.144652423
2.374782823
2.474155007
2.395223084
2.218855297
2.039888813
1.952160882
2.021633761
2.173530573
2.321969296
2.445102179
2.536269368
2.585888542
2.586385198
2.532134853
2.424999057
2.283110594
2.136717041
1.994847968
1.868863981
1.768765446
1.677489584
1.684035895
1.882083686
1.225106782
1.589458598
2.517930222
2.147036011
1.769395762
1.500700788
1.832780848
2.147910766
2.187074615
2.103923112
1.996670931
1.945949268
1.972498307
2.116539949
2.289277319
2.430656312
2.537301255
2.608650916
2.635163853
2.614945523
2.547770542
2.439352025
2.307824399
2.180786399
2.052056323
1.95623467
1.924224965
1.795348976
1.899188083
1.916697967
1.760376077
2.064001712
2.450483209
2.106894706
1.646101815
0.917249383
1.912203335
2.00199308
1.98512498
1.968374545
1.946614653
1.932769304
1.948995339
2.090800611
2.260048853
2.394327677
2.492098792
2.553015579
2.574425765
2.553167406
2.492078834
2.398399283
2.288159498
2.184510563
2.064255106
2.033121957
2.100637933
1.959329601
1.996461983
1.926245063
1.991812835
2.329676581
2.393151667
2.107486815
1.77150747
2.00967751
2.639018021
2.155715482
2.041696047
2.049270209
1.99764119
1.918800241
1.853870037
1.990251555
2.170603499
2.307419662
2.403819863
2.459897697
2.473861989
2.45861347
2.420417829
2.352866079
2.273477802
2.19435321
2.081113334
2.135831819
2.215802877
1.944270681
2.063005708
2.001225485
2.271573136
2.618217306
2.41069456
2.284405971
2.234591487
2.656944082
3.658473686
2.518337029
2.157514445
2.070517953
1.968544055
1.82633772
1.653989899
1.803135052
2.018067112
2.16605488
2.265598341
2.319720408
2.329627638
2.330508031
2.336979885
2.309763223
2.278181901
2.221800302
2.133514458
2.207699698
2.200270429
2.030845546
2.195784868
2.272738714
2.47603295
2.819012044
2.496802989
2.535814988
2.706904112
3.507696907
5.008197055
3.342173576
2.411403143
2.131701601
1.946734411
1.724055476
1.37967071
1.56316272
1.83609506
1.996845982
2.098843954
2.152172114
2.156909121
2.206483097
2.315175698
2.345237508
2.382559893
2.339904903
2.306865113
2.301582735
2.275373107
2.193930339
2.395877958
2.431488779
2.604514464
2.937484287
2.562653704
2.732752769
3.155371939
4.216200464
7.125787055
4.499353155
2.862591008
2.213828523
1.959127173
1.655468137
1.080089968
1.31964943
1.64758685
1.814861733
1.915858737
1.973462489
1.98037027
2.191409255
2.463443347
2.541528362
2.638881868
2.602324995
2.605487155
2.584298514
2.515929976
2.442177428
2.463356358
2.493543771
2.732079858
3.022055861
2.508712218
2.526198885
2.955453443
3.446778992
4.015314929
2.892550928
2.145636593
1.641377475
1.663684734
1.441935708
0.9765188514
1.185209924
1.459695552
1.624312531
1.735154864
1.877370453
1.960237477
2.407213379
2.757347655
2.842386756
2.946356983
2.919050696
2.935921795
2.943650651
2.847646343
2.707324965
2.565309656
2.573113315
2.802299802
3.040268577
2.226510778
2.091461344
2.137982554
2.780899453
2.381002118
2.328348215
1.659769118
1.488209292
1.459368093
1.375000749
1.150752604
1.008586428
1.251706341
1.565045271
1.827522616
2.135729786
2.212713559
2.696765927
3.024243719
3.097458429
3.150222626
3.137272042
3.188264354
3.219292842
3.115957179
2.932500564
2.754721282
2.689354134
2.84348638
3.001141789
2.13613938
1.897067996
1.800086225
2.040794359
2.276620931
2.015937658
1.507682865
1.129226321
1.249752026
1.330598251
1.299329914
1.39498977
1.728043041
2.04010043
2.272947788
2.462615865
2.467424179
2.898469832
3.129139511
3.199846889
3.191704294
3.202274006
3.310625299
3.387949183
3.308290508
3.107557081
2.912336131
2.776072632
2.84097129
2.947847577
1.975506734
1.669958693
1.404996684
1.769207186
1.809703427
1.679225255
1.047885116
1.107726344
1.6700229
1.590891377
1.711095841
1.910575181
2.174625431
2.376242901
2.513840926
2.572454557
2.642220579
2.943306
3.076243428
3.149623614
3.114757816
3.117420996
3.264335529
3.385454061
3.372058942
3.197265113
2.995328208
2.807238136
2.749455499
2.805143258
1.924189035
1.639690312
1.264892218
1.267376665
1.553502542
1.526971223
1.627657686
1.774625394
2.114192752
2.000294115
2.119589945
2.193095133
2.359999167
2.500789209
2.563295469
2.556517108
2.637907909
2.844048201
2.917520061
2.988295392
2.901023072
2.888366635
3.100840845
3.256928638
3.287394045
3.165468571
2.987309181
2.77463805
2.584768231
2.53695709
1.869459093
1.646134723
1.364689774
1.225757936
1.810497284
1.989308067
2.13593107
2.250787769
2.356488409
2.219763667
2.274630212
2.298478733
2.393215091
2.505255559
2.512306372
2.460023471
2.480042762
2.616312471
2.667133321
2.697680446
2.489568984
2.54187664
2.845954658
3.009792972
3.060255956
2.97497617
2.852516856
2.67192067
2.425469151
2.324477393
1.829412811
1.674906327
1.480047677
1.583949802
2.052352422
2.271886567
2.378821257
2.36936656
2.38920317
2.266285651
2.275866434
2.282330364
2.335584728
2.44363888
2.437015355
2.387078581
2.272132681
2.317662143
2.442113963
2.405440525
1.85938814
2.118645246
2.545937433
2.6841474
2.680539695
2.617533688
2.526118752
2.433877991
2.31899416
2.287125503
1.814759073
1.744090795
1.728212193
2.001960847
2.266838696
2.383999528
2.388069916
2.312694398
2.278079986
2.226370333
2.230288399
2.22670438
2.234765079
2.357109878
2.375832197
2.395576291
2.264180952
1.882305783
1.857379926
1.737451011
1.695288048
1.742233089
1.75586102
1.940510491
2.1785818
2.29756144
2.317273162
2.304556636
2.245185127
2.23176061
1.793622641
1.854276383
1.973888451
2.200580205
2.35430684
2.388767229
2.324688802
2.181578405
2.097085269
2.254296097
2.286905366
2.22957923
2.134728484
2.280856037
2.321211269
2.292982012
2.299064771
1.953292618
1.785724623
2.209061137
2.26831347
2.564476527
2.394011122
2.505114811
2.537499318
2.464340404
2.374990819
2.301122251
2.209122927
2.163418
1.805395085
1.979139316
2.171796592
2.341490484
2.425778797
2.448250218
2.393429295
2.224251204
2.125469625
2.507920195
2.494749691
2.357559802
2.108361941
2.291259276
2.335344224
2.213949
2.316244445
2.313212966
2.320412461
2.34375491
2.289370295
3.083013413
3.093352538
2.932827793
2.752038627
2.531823596
2.35315692
2.250986893
2.14123454
2.072720513
1.813345749
2.10470281
2.293225642
2.434002418
2.497740616
2.579579151
2.59786579
2.564958457
2.543878844
2.798340637
2.695170443
2.518585383
2.195869781
2.373657129
2.390796003
2.304470091
2.386946327
2.450426193
2.439855209
2.325681101
2.506815243
3.316505723
3.350807759
3.273897954
3.026649926
2.717713182
2.430962921
2.243334681
2.078503716
1.967995448
1.710817787
2.099784337
2.318840926
2.471208796
2.539498177
2.682971738
2.684534472
2.716801577
2.743914508
2.977262581
2.799475022
2.580600552
2.279364581
2.392903623
2.382708085
2.307137038
2.351923414
2.430423349
2.358339176
2.121071409
2.554478898
3.325126396
3.371771243
3.39745495
3.223540789
2.879873815
2.505514616
2.237869059
2.011119441
1.848389793
1.610865602
2.07092647
2.326788264
2.645649733
2.579559772
2.854014581
2.674275915
2.745948597
2.851562154
3.339404229
2.865914816
2.553921206
2.241327733
2.273463081
2.251689101
2.157938989
2.184172247
2.247457275
2.046680181
1.667068099
2.323031221
3.269462077
3.349024112
3.395931158
3.22855431
2.869206605
2.441672272
2.13266172
1.896741383
1.696195277
1.395716385
1.907957677
2.413960567
2.741670389
2.34447333
2.609217495
2.300035196
2.458184113
2.753341406
3.140748569
2.923202066
2.406795043
2.192992957
2.107500059
2.051693966
1.88703531
1.972371154
2.151151858
1.960759461
1.742868649
1.385599438
2.602759354
2.742158501
2.490121592
1.972923499
1.676110654
1.597541732
1.684560208
1.662329085
1.526250719
1.654058254
2.067684744
2.110905868
1.614530431
2.256991936
2.188954035
2.146688952
1.930300601
1.710484703
1.950169704
2.025128994
2.050277868
2.078765208
1.978395242
1.918601301
1.613297016
1.663730357
1.679513685
1.58456914
1.976107273
1.843818508
1.870221053
2.068387952
1.885376479
1.856849283
1.74740713
1.619353215
1.608437736
1.544990649
1.401841119
1.715317842
2.108078374
2.169916494
2.239910522
2.411253155
2.415894799
2.124448802
1.900514142
1.38847191
1.632874346
2.082092322
1.967524304
1.918197999
1.829709198
1.874165557
1.916734645
1.807167451
1.834080217
1.980807651
2.123722115
2.158649382
1.5493781
1.691721921
1.685579231
1.5243234
1.396450171
1.24416638
1.448552669
1.396041921
1.272554465
1.970899183
2.189915052
2.244956574
2.422173678
2.61956197
2.636253949
2.332158704
2.013891578
1.334095977
1.541799929
1.804777303
1.77188307
1.747445862
1.909005438
2.110896888
2.1346793
2.143878641
2.097858342
2.165654284
2.302029004
2.272423952
2.008194718
1.984651319
1.891187736
1.758022761
1.624217217
1.479417123
1.351200724
1.24580595
1.312000296
1.917127395
2.02188359
2.24479363
2.544078442
2.825625569
3.039715436
2.711855731
1.864253034
1.640196887
1.905474929
1.859158581
1.931291918
2.116085216
2.300064216
2.39406697
2.34705319
2.285827525
2.245187037
2.29287179
2.359444206
2.388239958
2.261144187
2.197037276
2.111300728
1.983468244
1.837073075
1.654599912
1.615761078
1.531681182
1.623863477
1.863939663
1.796311281
2.012342897
2.528397774
2.951561536
3.533699144
3.60878686
2.535145319
1.544511492
2.127670512
2.171978124
2.1170448
2.296073912
2.437200665
2.508650271
2.456616671
2.395773156
2.329614992
2.289484592
2.325359376
2.391329301
2.396766786
2.39384278
2.360002231
2.288488254
2.178168822
1.973187144
1.888826765
1.852173549
2.138581923
1.695440994
1.48759848
1.494746877
1.978187501
2.337023263
2.699309851
2.532655496
1.857538529
1.592546716
1.533598608
2.115591231
2.267791029
2.440269062
2.534097757
2.559655013
2.489728177
2.399668125
2.295755835
2.213843296
2.237880178
2.341192469
2.415035605
2.483380496
2.545870487
2.562896575
2.522458422
2.364900617
2.304217555
2.310938753
2.694570686
1.760445947
1.355055289
1.815923679
1.983848687
1.939213452
1.701927966
1.792305027
1.963088965
2.155525413
2.354557101
2.447094907
2.542022035
2.577955821
2.557087081
2.465777345
2.338212534
2.208017113
2.107202893
2.148894784
2.276747026
2.400160257
2.545254504
2.717720024
2.828940479
2.854555055
2.755463266
2.692711763
2.681157174
3.020787924
2.025390231
1.746948305
1.77054679
1.719844216
2.028142841
2.133889682
2.589814634
2.258255116
2.369924978
2.494712822
2.54565407
2.589782119
2.580703454
2.51861861
2.401488495
2.244213993
2.08677831
2.009650351
2.055633559
2.200043615
2.364876373
2.602097285
2.866230306
3.054066891
3.125047099
3.064099156
2.987996153
2.90806031
3.143887691
2.241479126
2.059736998
1.856693427
2.117243366
2.346567912
2.833858862
2.291051775
2.365563398
2.420856763
2.581747904
2.596434839
2.595675021
2.548234534
2.450922801
2.311199361
2.139068712
1.950612187
1.936565453
1.96179387
2.108322536
2.302028857
2.625658979
2.948234
3.176548826
3.290427445
3.247909353
3.146204377
2.989358508
3.118442992
2.397002518
2.275951772
2.22348161
2.421041871
2.511559102
2.570542824
2.043613895
2.424906453
2.416768018
2.609830465
2.613422147
2.58252853
2.498921569
2.367055251
2.199758826
2.04622297
1.818262103
1.932299726
1.857057605
1.969330476
2.169656868
2.567308107
2.916015894
3.156925381
3.285571384
3.276137284
3.160020134
2.932881831
2.962150533
2.649557423
2.714713494
2.747036082
2.720474316
2.496322159
2.444436686
2.467107427
2.589134252
2.595464657
2.552435979
2.447110478
2.283944352
2.085482406
2.03461439
1.785113682
2.378836546
2.073218642
1.888581071
2.00309237
2.46575928
2.793871967
3.017751967
3.137603819
3.120305572
2.998358075
2.725571442
2.667275687
)
;
    }
    region0_to_wallFilmRegion_mirrorFace
    {
        type            convectiveHeatTransfer;
        L               1;
        value           nonuniform List<scalar> 
428
(
3.781683383
4.211906038
4.264593109
4.211164471
4.202789008
4.202802377
4.172210645
4.182178071
4.287526655
4.121525008
4.485370985
4.600212779
4.617586051
4.627707729
4.638983257
4.655921639
4.719687897
4.811086029
4.258372916
4.577692279
4.709994
4.756948009
4.780483257
4.80204056
4.843182277
4.950383649
5.044543814
3.819033741
3.399445033
3.359726831
3.36824297
3.402117927
3.449016437
3.496483006
3.540466125
3.600706641
2.779936489
2.574738241
2.529563923
2.692049791
2.476261159
2.444835687
2.729977164
2.435610552
2.498127269
3.107392203
2.737869496
3.052694427
3.22479958
2.923771074
3.403629257
3.846990339
3.40250566
3.131968637
3.0508592
3.581047625
3.129728758
3.392696615
3.742291037
3.826115693
1.773329861
2.232758952
1.73548556
1.359539908
1.578682196
1.533420352
1.067255519
1.374793806
1.449669652
1.705271286
1.707167368
1.9333121
2.129085029
2.064237712
2.09022134
1.946082196
2.007019856
1.952438735
1.837200483
1.901803046
1.861091574
1.733024801
2.045961401
1.714727052
1.554390005
1.512990434
1.689285643
1.722500506
1.817194129
1.94427373
2.019034385
2.017563748
2.062211639
2.059979702
2.064878237
2.024163867
1.943463772
1.964768355
1.909928331
1.863187862
1.864389924
1.831272519
1.615114435
1.598913627
1.640781968
1.923989146
1.611483469
2.066837178
2.085282385
2.302682216
2.286411278
2.11018714
2.204112839
2.134311297
2.048826872
2.065502629
1.995958253
1.9406466
1.924312531
1.853419246
1.861162496
1.787294203
1.731207933
2.373739161
2.283379584
2.252025202
2.286821261
2.200183172
2.181642705
2.417621857
2.213923094
2.460133352
2.164357
2.111767508
2.111312746
2.129706409
2.093965739
2.154616128
2.583609878
2.345633128
2.77436469
2.094706733
2.108945709
2.13316314
2.313217578
2.270632302
2.611035663
2.31815259
3.043085058
2.839538445
2.292864755
1.657605313
0.9926727075
1.296673966
1.997308624
1.999733175
1.885900301
2.718791621
2.152280692
1.480563614
1.560528487
1.887490525
2.078309381
1.997039784
1.897911227
2.668897805
1.708541445
1.578186269
2.053249558
2.101330723
2.091939361
1.994177284
1.89476713
2.805284542
1.655231432
2.232855254
2.497775078
2.438725885
2.336623095
2.215647026
2.083587298
2.4139595
2.318166584
2.288384519
2.765788602
2.182749652
2.123352349
2.212674246
3.143075574
2.078528322
2.122598903
2.631265792
3.694297634
4.220438082
4.121359009
4.471858761
4.606219352
4.411146005
4.682541604
4.730192277
4.544062861
4.775877957
4.840687756
4.657974985
4.931468367
4.965260391
4.701840798
2.575007202
3.62057909
3.922852904
4.109003323
3.940006181
4.397481576
4.107846346
4.198425998
4.222194956
3.110193296
2.91728167
2.806594559
2.76138912
2.764493947
2.774714168
2.76379555
2.754545378
2.124841875
1.884670076
2.53574162
4.080648476
3.967822667
4.199754977
2.407598496
2.615902667
2.693740229
4.265716672
4.335556995
4.401189292
2.491558192
2.70472123
2.636727545
4.237260426
4.419407974
4.413670497
2.388275184
2.52464105
2.434267113
4.199448095
4.405117359
4.402321358
2.279901432
2.392950464
2.368075817
4.20969788
4.405983333
4.411651797
2.14738503
2.319844734
2.240738811
4.186220895
4.411804583
4.409484812
2.031907874
2.154438289
2.081903538
4.169404062
4.41176805
4.42407708
4.22478859
4.455304931
4.506647114
4.556977007
4.343825838
4.221168336
4.434365372
4.564489678
4.574050851
4.657539058
4.612250289
4.702960912
4.726344162
4.622145491
4.739949278
4.749309473
4.633901984
4.757274398
4.765010846
4.644780689
4.773139504
4.783419368
4.676606178
4.799970098
4.827104097
4.764730385
4.878355234
4.916348142
4.842575328
4.964792319
4.941916492
4.216986816
4.351524832
4.447996083
4.55073291
4.660158041
4.469793996
4.604406568
4.739050578
4.637865792
4.662865272
4.682673904
4.770005162
4.790531052
4.698947902
4.715772328
4.736102367
4.762859928
4.818182856
4.797838458
4.844441617
4.883694284
5.009391806
4.895686124
4.955209314
4.958475911
4.885296354
4.965397087
4.031433466
4.191981078
4.03175859
4.287729933
4.35571177
4.214475443
4.254726911
4.490033433
4.288517607
4.344159441
4.5690654
4.370306656
4.59622607
4.625994444
4.452388509
4.476561197
4.715754606
4.492449697
4.480851707
4.686728073
4.484733181
4.355744937
4.550139513
4.648856242
4.455606644
4.70806763
4.518357455
4.751856456
4.804918491
4.885833485
4.69059349
4.989914994
4.740003335
4.90034676
3.43691968
3.828508087
3.66571111
3.368737544
3.870436348
3.662268375
3.90526953
3.66247379
3.673605063
3.688365354
4.000876376
3.704477703
3.722301516
4.054215219
3.742872484
4.080839097
3.765796515
3.790421158
3.816341971
3.518269369
4.159543576
3.842139802
3.867095069
3.892189875
4.212059566
3.918267935
3.645393452
3.948916396
3.984605708
3.823849889
4.165749503
3.971696498
4.317765826
4.027947856
4.424994714
4.134324979
4.181025634
4.500393153
4.23877697
3.631061248
3.349000341
2.998273441
3.254775391
3.187844414
2.853652275
3.146300735
3.117532826
3.360387482
2.776291036
3.09843126
3.088559988
3.382394686
2.759326915
3.087350637
3.094198035
3.424675866
2.770887299
3.106903721
3.12221816
3.473425951
2.772063319
3.138590864
3.155208088
2.754406099
3.173826474
3.198591195
3.566136922
2.780048338
3.235877525
3.288956659
)
;
    }
    procBoundary0to1
    {
        type            processor;
        value           uniform 0;
    }
    procBoundary0to2
    {
        type            processor;
        value           uniform 0;
    }
    procBoundary0to3
    {
        type            processor;
        value           uniform 0;
    }
}


// ************************************************************************* //
