/*--------------------------------*- C++ -*----------------------------------*\
  =========                 |
  \\      /  F ield         | OpenFOAM: The Open Source CFD Toolbox
   \\    /   O peration     | Website:  https://openfoam.org
    \\  /    A nd           | Version:  8
     \\/     M anipulation  |
\*---------------------------------------------------------------------------*/
FoamFile
{
    version     2.0;
    format      ascii;
    class       volScalarField;
    location    "1";
    object      k;
}
// * * * * * * * * * * * * * * * * * * * * * * * * * * * * * * * * * * * * * //

dimensions      [0 2 -2 0 0 0 0];

internalField   nonuniform List<scalar> 
67286
(
0.04282737673
0.04801360705
0.043771689
0.03644250929
0.02777568722
0.0195232415
0.01792185141
0.01803569468
0.0184631434
0.01691274595
0.0158425233
0.01487421051
0.01454858105
0.0145810907
0.01412723322
0.01246696906
0.01028637111
0.009033132611
0.01084602033
0.01520674917
0.02017511327
0.02236817837
0.0223666354
0.01708531061
0.01276657361
0.007355743849
0.005701897796
0.005955565447
0.04311438314
0.04939508828
0.04504297483
0.03733775702
0.02809919421
0.01972086851
0.01838603253
0.02044288857
0.02520445567
0.01852172791
0.01691795973
0.01578865178
0.01529476858
0.01530215559
0.01465954609
0.01264250308
0.01022044989
0.008935175382
0.009725072187
0.0121717739
0.01556557767
0.01974646386
0.02537751907
0.01730248714
0.01237974291
0.006663427748
0.006180168129
0.006649797429
0.0102882313
0.01014024621
0.009551807113
0.01177005504
0.04246777768
0.04883819448
0.0444521634
0.03605830311
0.02539381204
0.0190166332
0.02033299585
0.03378802396
0.0551709934
0.02354933077
0.01749363302
0.01561097809
0.01444492121
0.01415645401
0.01307869892
0.01119088235
0.009734481946
0.009471251202
0.01110149482
0.01397193884
0.01787332974
0.02309567066
0.02749145881
0.01709526523
0.01202624804
0.008034866558
0.007387493032
0.006784796635
0.009032419286
0.0102779349
0.01150288807
0.01566628233
0.03911616164
0.04490288374
0.03932081297
0.02756065803
0.01850826372
0.01906336148
0.03268235274
0.08862553608
0.1482210259
0.04831368129
0.02087400509
0.01471412075
0.01207383743
0.01077434722
0.01050853105
0.01069672797
0.01044766905
0.01044415525
0.0117839339
0.01371996503
0.01618186909
0.02015023348
0.01888348981
0.01385112761
0.01130181723
0.01149412338
0.01187606659
0.007742487258
0.008185884023
0.01045394811
0.01466872897
0.02154856857
0.02942687667
0.03650655534
0.03978783918
0.0337518594
0.02218503933
0.0174875866
0.02468279529
0.05524249844
0.1239194488
0.06739690194
0.02669805733
0.016562762
0.01396249094
0.01179117314
0.01053771521
0.01238213584
0.01360521699
0.01281661398
0.01187617261
0.01268026353
0.0140902439
0.01564104576
0.01691412057
0.01602837142
0.01380653168
0.01406163281
0.01926324277
0.02097151557
0.01203879741
0.00985425914
0.01278460496
0.0204234191
0.02879700922
0.03656132405
0.03432174737
0.03510070303
0.02868967364
0.01932955163
0.01698613508
0.01777439475
0.02251883457
0.04260399122
0.02418563661
0.01800191849
0.01602933793
0.01416845398
0.01174297196
0.01362998783
0.01709357954
0.0180763892
0.01622632737
0.01383247329
0.01410899682
0.01566497519
0.018011118
0.02087037822
0.01790796946
0.01564523539
0.01930454144
0.03149376604
0.03594047915
0.02014476418
0.01363163066
0.01921310613
0.02796732216
0.03632851426
0.04491013993
0.03244012806
0.03062623102
0.02340098215
0.01692439835
0.01637519227
0.01741238749
0.01872243803
0.02222668656
0.01912836371
0.01776041103
0.01626869511
0.01424057317
0.01377861321
0.01845721622
0.02223896564
0.02327009484
0.02074365829
0.01661424699
0.01643380159
0.01846838261
0.02117895373
0.02304810951
0.02194554371
0.01741511872
0.01700875143
0.02375849333
0.03028936975
0.02351436338
0.01675769889
0.02555048419
0.03567871199
0.04440628098
0.05488819566
0.03056298535
0.02567314082
0.01883395479
0.01614794621
0.01692215708
0.01849875955
0.01943142492
0.01954025231
0.01853625999
0.01705241072
0.01544931978
0.01421781444
0.01734084231
0.02302798784
0.02741645828
0.02934478881
0.02622306321
0.01977585806
0.01919339409
0.02212720904
0.02585127686
0.0286294274
0.027323629
0.02200828189
0.01932328026
0.01867650871
0.02324522746
0.01538952564
0.02169307165
0.03274766948
0.05072473167
0.05258879098
0.06480406255
0.02759283334
0.02081245428
0.01692282665
0.01670861725
0.01763385977
0.01888334451
0.01937515521
0.01884213939
0.01773744381
0.01623734775
0.01466304181
0.01595769176
0.02071290183
0.02591225678
0.03084997099
0.0332280538
0.02975862185
0.02259318222
0.02274736491
0.02743822903
0.03283148767
0.03861549503
0.03466277888
0.02970368395
0.02154399312
0.01601064256
0.01696458719
0.01879409379
0.02868628159
0.03794777281
0.04826855861
0.06028965272
0.07369715147
0.0234763495
0.01809460363
0.01739939296
0.01796229307
0.01848157386
0.01891305425
0.01887172798
0.01822801109
0.01750624728
0.01627830806
0.01439764496
0.01308403692
0.01509771296
0.0191711007
0.02273350124
0.02425492708
0.02296712583
0.02280701428
0.02690086019
0.03253781445
0.04051976073
0.06832400617
0.03998040434
0.03628331592
0.02428979183
0.016673849
0.01818576155
0.02522300832
0.0336542876
0.04265567309
0.05348372036
0.06634369391
0.08097752065
0.01972966073
0.01845344529
0.01988485571
0.02133839019
0.02266651276
0.0233948047
0.02338022956
0.02276405159
0.02196954896
0.01901421582
0.01547090369
0.01242100402
0.0135211574
0.01593785758
0.01796417162
0.01928003077
0.02009775784
0.0220675387
0.02541738067
0.02946707196
0.03412257153
0.03923473164
0.03747475138
0.03558673098
0.02506702263
0.01850673475
0.02206083313
0.02964146692
0.03733015836
0.04624622577
0.05705239895
0.06971881198
0.08376517075
0.01871548935
0.02093095378
0.02382873807
0.026769391
0.02898409497
0.03026324177
0.0305356184
0.02972584668
0.02725091942
0.02161561675
0.01562692648
0.01263177411
0.01401185791
0.01614784559
0.01809652763
0.01926006115
0.0198506481
0.02073897976
0.02246215156
0.02493257853
0.02783327154
0.031040764
0.0314395191
0.02927499228
0.02173814599
0.01880420554
0.02352843395
0.0301569785
0.03680115531
0.04433719083
0.05342488586
0.0644084786
0.07709850247
0.01973214973
0.02312877862
0.02635544439
0.02916778991
0.03096035807
0.0317135545
0.03131703656
0.02957980651
0.02613515699
0.02018095532
0.01467178475
0.01349311599
0.01554476746
0.01821020361
0.02061496465
0.02207381171
0.02215868709
0.02126593673
0.02124853523
0.0230046864
0.02541874292
0.02713814923
0.02654207266
0.02382612961
0.01870278689
0.01896629315
0.02407167687
0.02974264987
0.03524434571
0.04119984865
0.04838428554
0.05698685386
0.06729465678
0.02072476432
0.02401125885
0.02679372136
0.02887839115
0.02999242785
0.03016429947
0.02927863554
0.02714695693
0.02351556
0.01807065573
0.01388890099
0.01377659162
0.01569391339
0.01794104879
0.02012455389
0.02173164059
0.02276811716
0.02443353075
0.0279789429
0.0320359846
0.03353416449
0.0307508127
0.02366088132
0.01950542202
0.01669485291
0.01920057329
0.02382828843
0.02848660638
0.03303803721
0.03782634437
0.04330246413
0.04964988311
0.05709384118
0.02104978108
0.02375455113
0.02578293522
0.02709370492
0.02757470307
0.02728431883
0.02611363008
0.02388540613
0.0203959438
0.01583162874
0.01331692907
0.0140840572
0.01588921057
0.01744256012
0.01885699155
0.02047767011
0.02176614727
0.02323547981
0.02573408223
0.02920495566
0.03132195326
0.02900171309
0.02105887304
0.01692144857
0.01609872789
0.01949240062
0.0235129932
0.02734788859
0.03102679826
0.03479150931
0.03885109461
0.04341983404
0.04833858777
0.02075900081
0.02275416601
0.02403053407
0.02465228417
0.02460907741
0.02396041887
0.0226053385
0.02036849117
0.01726287001
0.01475831326
0.01641892095
0.0218103083
0.02705863321
0.02657748478
0.02172605677
0.01963433254
0.02066546612
0.02053535944
0.02139820584
0.02369086501
0.02618546161
0.02553978304
0.01841242854
0.01544442808
0.01721400104
0.02211993234
0.02706299137
0.0308443808
0.03333101234
0.03499991813
0.03677111972
0.03932258686
0.04217083145
0.01993616373
0.02127111508
0.0219874224
0.02205179485
0.02163690434
0.02075702763
0.0193412771
0.01737759764
0.01576527706
0.01803358583
0.02674980208
0.03784902924
0.04571867341
0.04741026945
0.03844749848
0.02381817915
0.01806094761
0.01756844626
0.01845408445
0.02079028898
0.02378133103
0.02435025308
0.02001169531
0.01541870956
0.02067302625
0.02780923337
0.03424233359
0.03896927401
0.04203962716
0.04264968879
0.04144271651
0.04005947647
0.04002733986
0.01857965887
0.01939401167
0.01975133371
0.01951037899
0.01888789122
0.01797557213
0.0170992672
0.0179498915
0.02400752676
0.03510941258
0.04696868469
0.05860793149
0.06906898771
0.07282136612
0.06486777441
0.04337996964
0.02280786935
0.01573360484
0.01647208379
0.01891819207
0.02242647077
0.02391180673
0.01877051423
0.01709833498
0.02533399174
0.03429303423
0.04248126089
0.04879163671
0.05189058321
0.05227967528
0.0502498656
0.04639287958
0.04310008951
0.0166678177
0.01716150022
0.0173731334
0.01706006078
0.0164459041
0.01573785185
0.01576663442
0.01914769153
0.02827733659
0.04010434789
0.05066272619
0.06137738208
0.07160951989
0.07612422326
0.07074644451
0.04943464942
0.02652446745
0.014543174
0.01522077164
0.01747650885
0.01979710938
0.02026279806
0.01731543269
0.02261609003
0.03159000823
0.04143931266
0.05026278572
0.0558456237
0.05845228599
0.05902216214
0.0571217657
0.0525579879
0.04849683202
0.01430848088
0.01471706604
0.01496954666
0.01475829955
0.01429898315
0.0138117687
0.01412996277
0.01759747161
0.02609220962
0.03684992306
0.0462127119
0.05490046791
0.06291525167
0.0661423554
0.06111414132
0.03872026762
0.021058613
0.01944203071
0.03292365
0.0516281223
0.05461980833
0.020864627
0.02056001271
0.02628432944
0.0338596856
0.04268212176
0.05064897212
0.05602536567
0.05947345874
0.06112658236
0.06076518187
0.05823089852
0.05490762348
0.01187611193
0.01240836835
0.01279318828
0.01275690998
0.01249808735
0.01220454462
0.0125380956
0.01526088305
0.02184376169
0.03076017256
0.03970701001
0.04832881726
0.05534319974
0.05878373507
0.05312271974
0.03219162834
0.02904218758
0.0447515337
0.07360706718
0.107758119
0.1076974152
0.04598533934
0.02759602061
0.02612184599
0.03202749859
0.0395266389
0.04705853302
0.05297499353
0.05743859122
0.06043308119
0.06232678838
0.06421754472
0.06952159017
0.009881867484
0.01060652858
0.01109879207
0.01120913918
0.01111468449
0.0109725372
0.01132531715
0.01383835396
0.0206381085
0.03137650311
0.04394385226
0.05709049078
0.07009071329
0.08006768085
0.07989740944
0.06360074373
0.06185010258
0.09415151
0.1335359765
0.1687680844
0.1735954763
0.1120501854
0.06995267078
0.03243047174
0.02797704456
0.03463470779
0.04157382269
0.04786159566
0.05321654978
0.0581879372
0.06494176396
0.07722925822
0.09695988611
0.008562320446
0.009387717286
0.009903731028
0.01007249109
0.01005617307
0.01007343745
0.01087557402
0.01453805387
0.0235230261
0.03707197097
0.05227094181
0.06766547176
0.08311754027
0.09387521522
0.09261854681
0.06925142737
0.05204864954
0.08042685425
0.1198922984
0.1564383558
0.1668981255
0.1050295613
0.06089288755
0.02912553315
0.02468956991
0.03011224109
0.0361383912
0.04234320112
0.049319184
0.05894349332
0.07446197276
0.09725046327
0.1226615065
0.007751918143
0.008575591125
0.009091022752
0.009337757735
0.009469587025
0.009655724681
0.01051662562
0.01416317396
0.02310064846
0.03643841819
0.05103780889
0.0651462912
0.07895247826
0.08783953911
0.0845105862
0.05547483879
0.03851660151
0.05749761487
0.08941620985
0.1202749733
0.1327362988
0.07105890522
0.03962796813
0.02387086176
0.02257517282
0.02606706728
0.03167095864
0.03852713764
0.04791603761
0.06191523597
0.08195705915
0.1077249689
0.1335724816
0.007135595227
0.007886021743
0.008426885462
0.008801325175
0.009044453759
0.009295911902
0.01015514943
0.01288860823
0.01932699175
0.02974845709
0.04230087096
0.05425694473
0.06442332946
0.06982661913
0.06372833382
0.03865305431
0.03064009194
0.03964471793
0.05985763573
0.08364698738
0.09588578176
0.04238475197
0.0282226812
0.02344911827
0.02189439592
0.02291080954
0.0275171422
0.0352924218
0.04700259317
0.06331196188
0.08341321094
0.1073188046
0.1317252488
0.006463900482
0.007068856274
0.007624069594
0.008135028794
0.008486674719
0.009144908804
0.01041208814
0.01260934564
0.01629395158
0.02249106817
0.03123388136
0.04068308067
0.0482722373
0.05118978273
0.04516213886
0.02973910527
0.02773473289
0.03083564101
0.03925594112
0.05340026565
0.06414493905
0.03055998256
0.02617228424
0.02412159159
0.02211566733
0.02107065734
0.02353970228
0.03094667832
0.04368289409
0.06087846403
0.07999398775
0.09990662616
0.1207836438
0.005531762491
0.006017863097
0.006734186718
0.007640148749
0.008602999244
0.01003984163
0.01169765463
0.01335782875
0.01530767485
0.01848607476
0.02315271083
0.02896590603
0.03431104631
0.03678157423
0.03334254134
0.02669803232
0.0267850111
0.0279653806
0.03029323368
0.0353062365
0.04057982779
0.02758776799
0.02606485785
0.02456477172
0.02247317037
0.02029897674
0.02037770782
0.02576716835
0.03792402315
0.05474080058
0.07251825697
0.08935813384
0.1060839529
0.004933557641
0.00547726631
0.006335898189
0.007203228121
0.008670007905
0.01057254942
0.01231449866
0.01395153395
0.01570248203
0.01773383442
0.02013827216
0.02300597685
0.02595714782
0.02774883018
0.02684128301
0.02525952052
0.02587448486
0.02661197897
0.02731184529
0.02840253566
0.02958025157
0.02668336705
0.02722441237
0.0282443629
0.02246130857
0.01981468011
0.01938783523
0.02430700272
0.03533466779
0.04958919452
0.0643800309
0.07838115884
0.09204821607
0.004534863953
0.004520694017
0.005943041168
0.007794655678
0.009979225603
0.01184912197
0.01347234232
0.01512724869
0.0166135176
0.01796549883
0.01946483237
0.02105160806
0.0224471254
0.02296467488
0.02303532062
0.02313720726
0.02372287562
0.02419719044
0.0245114948
0.02472130422
0.0248176416
0.02430272569
0.02519670231
0.02580764073
0.02069066207
0.01851575584
0.01887936869
0.02528382856
0.03621875088
0.04769764607
0.05872746087
0.06940649471
0.08024062301
0.004070599914
0.005104420418
0.007506834278
0.01000021443
0.01235883691
0.01415178044
0.01554354488
0.01674811559
0.01760548916
0.01801571596
0.0184780693
0.01916057902
0.01941951975
0.01931419644
0.0194336376
0.01960335641
0.01979794706
0.01988016649
0.01986885749
0.01977741713
0.01960074918
0.01916954627
0.01896512371
0.01848217625
0.01650003507
0.01599596468
0.0193182717
0.02916257388
0.04033159058
0.0495852346
0.05720245183
0.06387864535
0.07002468768
0.04531362889
0.05697426985
0.05062554358
0.04081988411
0.03346514141
0.02901486882
0.02696525428
0.02700481276
0.02834214969
0.02431180525
0.02219423569
0.02059623707
0.01917374914
0.01796843392
0.01668852093
0.01450448874
0.01144048487
0.009635191902
0.01094372129
0.01575402976
0.0229691266
0.02887478086
0.02970199539
0.02037573019
0.01143716437
0.007468670455
0.007987145417
0.009331345943
0.04609098609
0.05898147721
0.0529505222
0.043057284
0.03530275112
0.03087651308
0.03033707398
0.03661868917
0.0484154024
0.02988371544
0.02511293096
0.02309308887
0.0211586313
0.01955512969
0.01794612849
0.01542523289
0.01209527122
0.009650588613
0.00990413156
0.01256182348
0.01748041603
0.02666171616
0.03200279616
0.02180703864
0.01041158097
0.007222548394
0.01004500647
0.0160571091
0.01488641418
0.01442536291
0.01265770887
0.01495340406
0.04485883101
0.05750041896
0.05193356121
0.04274325353
0.0355256436
0.03296114519
0.04138148748
0.07730542332
0.1218877107
0.04960029767
0.02847432098
0.0240974629
0.02084717581
0.01838496496
0.01611611829
0.01352670283
0.01107335169
0.0100629553
0.01144968793
0.0148137211
0.02111783731
0.03114792565
0.03360473413
0.02259483006
0.01068949199
0.008006451588
0.008627124383
0.009764303379
0.01558385964
0.01485071782
0.01577134167
0.02045687
0.03901176284
0.05339915722
0.04868766994
0.04101630145
0.03519283465
0.04106003279
0.09317246628
0.2217469893
0.2430835017
0.1197097826
0.039080758
0.02376223982
0.01814628531
0.01454349972
0.01240934534
0.01123255539
0.01080259212
0.01160447354
0.01387909503
0.01707665658
0.02232789457
0.0301218204
0.02825172911
0.01850392786
0.01152031969
0.01224269545
0.01167713958
0.008849039397
0.01117948799
0.01380495614
0.01885180953
0.02654654956
0.03539787438
0.032550885
0.04492521649
0.04255326597
0.03744015801
0.03279140909
0.0344634389
0.09274300851
0.2079823155
0.1589301312
0.04711966052
0.02471466533
0.01820164948
0.01411187709
0.01131874938
0.01125229963
0.01203685887
0.01271545618
0.01389491519
0.01597157617
0.01851735887
0.02209503106
0.02626180026
0.02496665979
0.01911811172
0.01703883709
0.02782243268
0.02815236262
0.01326261666
0.01089027706
0.01454374535
0.02203204645
0.03254402788
0.04599774315
0.02756106211
0.03718648117
0.03568583136
0.03217945176
0.02908531406
0.0287982467
0.03404765944
0.06056880114
0.04894369615
0.02697387776
0.02082662887
0.01667781858
0.01249350662
0.0119791079
0.01417645185
0.01583316244
0.01602720731
0.01618365717
0.01760687174
0.02077990907
0.02643493408
0.03179044344
0.0307215141
0.02614016183
0.02920199413
0.04778276218
0.05497667077
0.03016723291
0.01542364487
0.01981757231
0.02987989001
0.04276380809
0.05828718529
0.02362292974
0.02960951053
0.02770600473
0.02627017406
0.02604695829
0.02602104326
0.02698632637
0.02844450465
0.02672644807
0.02243376426
0.01943717378
0.01588960014
0.01331487666
0.01592272204
0.02075083105
0.02321414604
0.02161095904
0.01924822759
0.01973817418
0.02427237471
0.03064071936
0.03594824877
0.03697659876
0.03435429648
0.03078548872
0.04075589204
0.04505636184
0.03998199014
0.02184307985
0.02718699742
0.04811631515
0.05656017619
0.07102339444
0.02100526466
0.02413956231
0.02296456982
0.02426412698
0.02626931422
0.02716725406
0.0272090061
0.02672447567
0.02436696553
0.02140406357
0.01820509726
0.01526531459
0.01574153041
0.02196435852
0.03018007164
0.03389244826
0.03087539197
0.02553223432
0.02507968423
0.03135865559
0.03956274749
0.04759676891
0.04521267987
0.04388268356
0.03986471173
0.0310739256
0.03603593364
0.02700637395
0.02538545291
0.04667715194
0.1198405086
0.07850823587
0.0852637439
0.0200779373
0.02152629641
0.02269893277
0.02599116757
0.02863892561
0.0295428767
0.02914406211
0.02776620722
0.02557854491
0.0223470848
0.01705828226
0.01476828113
0.01767005564
0.02502085216
0.03421124303
0.03915672536
0.03700813261
0.03243503075
0.03359927524
0.04215242205
0.05721711325
0.08606772727
0.05713960591
0.04926358133
0.04007116452
0.02694512846
0.02178079124
0.02184462808
0.0311655841
0.04638722507
0.07073527291
0.08113732031
0.09555786876
0.01949323168
0.02204342259
0.02586272684
0.03030982368
0.03377882518
0.03565797794
0.03583283403
0.03443579577
0.03135395758
0.0259725417
0.01785225488
0.0136254706
0.01552593094
0.02159970492
0.0285745173
0.03307343764
0.03339917792
0.03341569671
0.03880944869
0.05214453349
0.09839670881
0.2946359143
0.07562947243
0.05256186325
0.04098245294
0.02333678206
0.02158217621
0.02884319122
0.04072033084
0.05452999247
0.06942076511
0.08520387611
0.1036905344
0.01930984887
0.025246623
0.03105448858
0.03638792295
0.04045506744
0.04314229101
0.04410361808
0.04276763457
0.03827706151
0.02971499793
0.01904130894
0.01399683635
0.01583195052
0.02052901539
0.0250849282
0.02811487755
0.0295436486
0.03172239376
0.03676262795
0.04471330662
0.05722422801
0.08372987943
0.05469908072
0.04724512001
0.03819028243
0.02371792447
0.02481355763
0.03556463381
0.04788735168
0.06035581453
0.07364118952
0.08896145746
0.1063510441
0.02033132615
0.02915765086
0.03546310767
0.03988764454
0.04310030799
0.04486386464
0.0446468234
0.04189955578
0.03627104723
0.02791699819
0.01844765008
0.01487211216
0.01793808831
0.02300758587
0.027523782
0.03049642928
0.03138136629
0.03150894592
0.03331277212
0.03786662535
0.04437412005
0.04880137323
0.04290187179
0.03715598559
0.02847771265
0.02305581019
0.02906616861
0.04045101687
0.05177418101
0.06284706815
0.07457661184
0.08789619
0.1028869062
0.02192746525
0.03178660986
0.03717227178
0.04034094244
0.04245234804
0.04310205381
0.04180914294
0.0381984488
0.0321670895
0.02406923331
0.01659785916
0.01498561111
0.01853032104
0.02366621431
0.02826940686
0.03148194437
0.03302576813
0.03352167021
0.03442729943
0.03782831836
0.0418006432
0.04101896706
0.03481566228
0.02831025723
0.02254627657
0.02345650791
0.03175204462
0.04233684289
0.05285453247
0.06329039441
0.07368041418
0.08477060843
0.09660785697
0.02296845115
0.03237678555
0.03634271022
0.03822888679
0.03932240883
0.0391697444
0.03728935928
0.03336181521
0.0274173023
0.02017069777
0.01492735249
0.0147319715
0.01825013231
0.02297817077
0.02740331467
0.03077483226
0.03319370248
0.03556172335
0.03892299626
0.04292691593
0.0444826395
0.04068169467
0.03084870654
0.02287710873
0.02031359191
0.02464054085
0.03317558344
0.04304217848
0.05324899483
0.06338406947
0.0730062887
0.08191181984
0.09067339865
0.02302830408
0.03104698976
0.03362565455
0.03422864318
0.03440043939
0.0336820926
0.03157079837
0.0277556472
0.02239544152
0.01675647056
0.01377700422
0.01473750918
0.0183510614
0.02306965682
0.02770787561
0.03085334223
0.03301696852
0.03456354918
0.03631292798
0.03936639992
0.0406451516
0.03624522911
0.02508946221
0.01924231819
0.02025303013
0.02654659673
0.03558350472
0.04567681334
0.05587604078
0.06552244689
0.07409278442
0.08088568858
0.08678937817
0.02216526994
0.02828346184
0.02974607276
0.0294283682
0.02886900361
0.02779181649
0.02570142577
0.02234032829
0.01812160502
0.01482194434
0.01482868972
0.01891027806
0.02575626941
0.03254451879
0.03647925367
0.03715629585
0.03949591136
0.03331815903
0.03217484174
0.03418933614
0.03713154701
0.03549037771
0.02632462066
0.01840696013
0.0219500451
0.03094495332
0.04239773393
0.05388662117
0.06391647545
0.07220365654
0.07828808789
0.08249583641
0.08594204296
0.02059814725
0.02464810216
0.02526658252
0.02462443733
0.02383630836
0.02273321954
0.02098142585
0.01845754427
0.01592019217
0.01563079101
0.02085438546
0.03380907882
0.05210387197
0.0623055563
0.05937285406
0.04761936942
0.03529203176
0.02888380257
0.02839598537
0.03199199761
0.03641402937
0.03608278665
0.02858301703
0.01932652281
0.025330759
0.03821978356
0.05326355949
0.06657134264
0.07591401103
0.08179880204
0.08510896013
0.0870936387
0.09017026256
0.01856583713
0.02081448603
0.02095465992
0.02037223447
0.01980569659
0.01899457417
0.01783868263
0.01668554623
0.01701103555
0.02070137717
0.031783432
0.05344363767
0.07458444078
0.08329011381
0.07640432117
0.05641079865
0.03185474764
0.02220593677
0.02315220147
0.02842577366
0.03459758037
0.03504099142
0.02804867418
0.02117747659
0.03075273257
0.04751796847
0.06456182547
0.07709788
0.08508057418
0.08954962714
0.09167978001
0.0932536469
0.10036936
0.01622790754
0.01733723356
0.01738584188
0.0170567036
0.01679605563
0.01632592801
0.01568095704
0.01549818263
0.01730935394
0.02287814362
0.03698767998
0.06024865831
0.08106255682
0.08881927464
0.07948902847
0.05418999847
0.02706985829
0.01756665103
0.01974181126
0.02592895202
0.03187893544
0.03013771814
0.02416418755
0.02575504549
0.0380081851
0.05576738454
0.07197211866
0.08352838507
0.09094465595
0.09536945204
0.09808592294
0.1006477265
0.1088520241
0.01373557308
0.01447870883
0.0147016619
0.0146087417
0.0145137131
0.01421142721
0.01378080812
0.01384853446
0.0156649581
0.02018029385
0.03080390388
0.04977295877
0.06854349483
0.07553114184
0.06419469707
0.03863853251
0.02236331263
0.0216425103
0.03537102188
0.05676693968
0.06223335406
0.04216872941
0.02816044796
0.03099552802
0.04260176179
0.05842357612
0.07327218811
0.08465860852
0.09277983836
0.09879947707
0.1041659114
0.1095976222
0.1161054234
0.01139659779
0.01232831007
0.01277836383
0.0128064326
0.01273935065
0.01249981444
0.01219692823
0.01231160138
0.01384109689
0.01807754092
0.02827010555
0.0463793268
0.06738093902
0.0795799298
0.07201885609
0.04790178352
0.03486429194
0.05055875889
0.09881962794
0.1462336976
0.1468593996
0.1092092995
0.0501488406
0.0354533183
0.04139440272
0.05452297142
0.06862483485
0.08058742489
0.0904090876
0.09966278021
0.1104017578
0.1229858867
0.1344530389
0.009587050721
0.01085540892
0.01144468695
0.01152399088
0.01145187022
0.01124953292
0.01109593379
0.01166524295
0.01459980924
0.0220143128
0.03656641922
0.06004473751
0.08688991784
0.1033928928
0.1016171661
0.08363743164
0.06193104608
0.07882912153
0.1392411358
0.1884401317
0.18672092
0.1365224913
0.06427832329
0.03875644989
0.03798732164
0.04713560573
0.05960180089
0.07182856835
0.08346712234
0.09668666507
0.1143906296
0.1364139847
0.1557856351
0.008421936839
0.009866164663
0.0104624005
0.01054389058
0.0104835819
0.01038392845
0.01047044628
0.01155732535
0.01552225088
0.02432637631
0.0410365774
0.06772315046
0.09642269918
0.1136299594
0.1121396886
0.09212645713
0.06413533993
0.07342501812
0.1271742204
0.1790013938
0.1777914674
0.120753526
0.05755729919
0.03913462981
0.03613335376
0.04012979809
0.04848404819
0.05936209546
0.07163034056
0.08783229066
0.1120370381
0.1438709125
0.1721484146
0.007705816599
0.009104433713
0.009640691121
0.009924334664
0.01033706433
0.01056793101
0.01054140303
0.01161591181
0.01555161149
0.02353822714
0.038466276
0.06267578317
0.08836487794
0.1034181899
0.1001420164
0.07912127186
0.05575670735
0.05781046683
0.08384315749
0.123354604
0.1249730837
0.07799998912
0.04847173429
0.03956305308
0.03597313145
0.03579746147
0.03897390574
0.04577394241
0.05619782828
0.07270432969
0.1010213261
0.1417160252
0.1784814853
0.007179820252
0.00842091215
0.008967044107
0.00945870141
0.009719393272
0.009824165683
0.01050114366
0.01171463412
0.01518919653
0.02119248027
0.03100702944
0.046401324
0.06441158759
0.07569477228
0.07342193846
0.06112923324
0.05064823797
0.05130516678
0.05990721837
0.0754159298
0.0779365554
0.05673370464
0.04566645561
0.04105593977
0.03696785893
0.03401260691
0.03327146829
0.03586059559
0.04274703869
0.05639381785
0.08359298777
0.1278350675
0.1709062206
0.006617589508
0.007780397374
0.008552117885
0.00882000353
0.008477170816
0.00940908382
0.01096276049
0.01296245218
0.01608516626
0.02053740978
0.0267766635
0.03513996682
0.04520005848
0.05318539747
0.05446591265
0.05057491195
0.0481189329
0.04894516001
0.0518997741
0.05694543491
0.05842647438
0.05066127413
0.04569648151
0.042513788
0.03825340006
0.03367118615
0.03037821009
0.03021170464
0.03460843911
0.04514122249
0.06698958903
0.1066517608
0.1514115095
0.005903282896
0.007187906002
0.007839616135
0.008370632703
0.008747247312
0.01060266188
0.01396180855
0.01637754312
0.01858965823
0.02184126736
0.02600417599
0.03161856641
0.03831548676
0.04413067316
0.04651882756
0.04647076913
0.04685885063
0.04797663692
0.04920666709
0.05087323566
0.05151438855
0.04886349709
0.04637845256
0.04377757066
0.0392991919
0.03383450808
0.02904812675
0.0269410095
0.02987115386
0.03869684406
0.0555338199
0.08705849549
0.1291735681
0.005405303377
0.00765982966
0.008709136477
0.008078436166
0.009218339898
0.01188487959
0.01502496585
0.0177553715
0.02037353954
0.02352486827
0.02726032349
0.03185531038
0.03671209486
0.04055209734
0.04263046453
0.04381056725
0.04511313334
0.04648201756
0.04736648228
0.04794432953
0.04807908074
0.04789271364
0.04756317194
0.04612411842
0.03967244586
0.03318934479
0.02821471149
0.02611313619
0.02903822151
0.03666557403
0.04989610911
0.07477555339
0.1119995294
0.005298181027
0.006282213324
0.007035264802
0.008755297602
0.01147870835
0.01426153147
0.01610251519
0.01917916951
0.02253432436
0.02565197135
0.02889639099
0.03250626859
0.035368598
0.03645985141
0.03741635084
0.03878864939
0.04026342655
0.0415646645
0.04232569593
0.0426203669
0.04265438976
0.04303857408
0.04301511115
0.04126123539
0.03617250765
0.02983175085
0.02549668918
0.02473266895
0.02901392879
0.03654570125
0.04770216852
0.06705591527
0.09673561622
0.004534406386
0.005810030879
0.008129055554
0.01058963972
0.01292820892
0.01503503762
0.01693786635
0.01883607264
0.02050215265
0.02178997626
0.02299576049
0.02446853486
0.02541658454
0.02509476983
0.02497191067
0.0254573913
0.02594761428
0.0262777686
0.02635673313
0.02619696471
0.02580269799
0.02512133267
0.02381471784
0.02176635052
0.02064794708
0.01875312269
0.01820491946
0.02305122593
0.03151645082
0.03964752962
0.04735869625
0.05640666204
0.06780457941
0.04579145484
0.0579353883
0.05232039722
0.04303715076
0.0350742382
0.03022173101
0.02859912124
0.02950328037
0.03066039695
0.02606103829
0.02343242832
0.02175400165
0.02040644495
0.01943825364
0.01840943257
0.01629513951
0.01297999939
0.01129579255
0.0139281652
0.02137063033
0.02995514816
0.03563510895
0.03529623605
0.02571809616
0.01234972509
0.008504796278
0.01281846443
0.01636338901
0.01629091514
0.04651310177
0.05954121688
0.05452437268
0.04557511965
0.03754371618
0.03307214404
0.03472346786
0.04603963869
0.05682918431
0.03591888209
0.02696592528
0.02426686671
0.02249056126
0.02118131876
0.02003208105
0.01814668318
0.01473302944
0.01116030141
0.01118543105
0.01512165855
0.02358867385
0.03731914883
0.03810989346
0.02882013636
0.01177286402
0.009992215749
0.01914504548
0.0416019304
0.02480114236
0.01885920654
0.01558543145
0.01651582363
0.04446306725
0.05752807965
0.05327094099
0.04527186945
0.03843324758
0.03808852824
0.05652325968
0.1100609308
0.1461325806
0.0780668876
0.03336996289
0.02525175887
0.0225656331
0.02046229161
0.01843232142
0.01604899169
0.01344572047
0.01161294733
0.01294936462
0.01718601262
0.02624369782
0.03832597549
0.03967905731
0.03050959624
0.01358562963
0.01059586141
0.01238409091
0.01699697569
0.01888496885
0.01743504581
0.01817320416
0.02242753003
0.03860071878
0.05301326137
0.04965304948
0.04282960308
0.0387706711
0.05187340235
0.1237256074
0.2404822719
0.2200498793
0.180067891
0.05102848345
0.02503747802
0.02046825739
0.01713177757
0.01462389204
0.01293275181
0.01240922595
0.01387453273
0.01716886463
0.02181238483
0.02975313391
0.03663095991
0.03545075876
0.02543455263
0.01726845122
0.01942425884
0.01611440143
0.01182541856
0.01413693271
0.01492752018
0.0201751807
0.02777487047
0.03438465464
0.02928449617
0.04556057896
0.04412038834
0.03887098675
0.03426609842
0.03697928657
0.07147198299
0.1527518027
0.1573692486
0.07967906413
0.02783139808
0.01985840297
0.01558051145
0.01253813948
0.01204322736
0.01292460181
0.01459574099