/*--------------------------------*- C++ -*----------------------------------*\
  =========                 |
  \\      /  F ield         | OpenFOAM: The Open Source CFD Toolbox
   \\    /   O peration     | Website:  https://openfoam.org
    \\  /    A nd           | Version:  8
     \\/     M anipulation  |
\*---------------------------------------------------------------------------*/
FoamFile
{
    version     2.0;
    format      ascii;
    class       volScalarField;
    location    "1";
    object      nut;
}
// * * * * * * * * * * * * * * * * * * * * * * * * * * * * * * * * * * * * * //

dimensions      [0 2 -1 0 0 0 0];

internalField   nonuniform List<scalar> 
67286
(
0.000228791877
0.0002620894444
0.0002502715049
0.0002283900247
0.0001994284675
0.000167225713
0.0001602399114
0.0001608425232
0.0001629175514
0.0001556978447
0.0001506664788
0.0001459900616
0.0001443838264
0.0001445351415
0.0001422527259
0.0001336216571
0.0001213773418
0.0001138003183
0.000124734827
0.0001476368738
0.0001699510039
0.0001789014944
0.0001789930158
0.0001564294456
0.0001352453785
0.0001026577912
9.043653406e-05
9.244137997e-05
0.0002295337021
0.0002658022777
0.0002538417287
0.0002311259119
0.0002004802526
0.0001680332567
0.0001624021282
0.0001718768812
0.0001912810653
0.0001630902725
0.0001556873029
0.0001503853887
0.0001480091165
0.0001480314289
0.000144867079
0.0001345197094
0.0001209756973
0.0001131864001
0.000118163003
0.0001321964092
0.0001494567819
0.0001682951813
0.0001906389544
0.0001574292303
0.0001331766705
9.779304035e-05
9.417749167e-05
9.791390293e-05
0.0001214668418
0.0001205965448
0.0001170980678
0.0001300158286
0.0002277902692
0.0002642906065
0.0002521547661
0.0002270574613
0.0001904780731
0.0001650873855
0.0001715852571
0.0002231927596
0.0002838162758
0.00018474997
0.0001584314365
0.0001495284406
0.0001438093861
0.0001423413475
0.0001367986505
0.0001265800583
0.0001181185134
0.000116582438
0.0001262399628
0.000141588655
0.000160078627
0.0001819083264
0.0001982150572
0.0001563636387
0.000131212917
0.0001074922386
0.0001031274514
9.866799366e-05
0.0001137494721
0.0001213865122
0.0001285031587
0.0001500140524
0.0002186415584
0.0002534395574
0.0002371523002
0.0001985146274
0.0001628707364
0.0001660020768
0.0002200487149
0.0003618198133
0.0004624718563
0.0002656690947
0.0001738752124
0.0001453523433
0.0001315531087
0.0001242301456
0.0001227417389
0.0001238823792
0.0001224337422
0.0001224342798
0.0001300459883
0.0001403142231
0.0001523934327
0.0001700977047
0.0001643839209
0.0001408506589
0.0001273972751
0.0001287414832
0.0001309254401
0.0001055407694
0.0001083928893
0.0001224872513
0.000145139503
0.0001759346854
0.000205530033
0.0002112470692
0.0002385990488
0.0002196919517
0.0001781356607
0.0001588355969
0.0001910187456
0.0002871276007
0.0004271755965
0.0003145366759
0.0001978635993
0.0001544768386
0.0001414912934
0.0001299881611
0.0001229671444
0.0001333399648
0.0001397150932
0.0001355812921
0.0001305438443
0.000134891956
0.0001421901951
0.0001498067362
0.0001557845064
0.0001515544457
0.0001407243198
0.0001422819472
0.0001666694476
0.0001740156527
0.0001317661169
0.0001189898265
0.0001355392216
0.0001712935722
0.0002033265032
0.0002290642912
0.0002048515699
0.0002241531289
0.0002026579662
0.0001664097372
0.0001560215572
0.0001598991314
0.000181638218
0.0002512636222
0.0001876784207
0.0001609191928
0.0001515801447
0.0001424859031
0.0001297567933
0.0001399003571
0.000156596405
0.0001609626289
0.0001524897501
0.0001408650824
0.0001423115373
0.0001499925802
0.0001608882045
0.0001731912919
0.0001602661497
0.0001498937453
0.0001667237883
0.0002128363918
0.0002276903149
0.0001704410457
0.0001399780786
0.0001660738934
0.0002003924843
0.000228315109
0.0002538336617
0.0001991799779
0.0002094203774
0.0001831010508
0.0001557452873
0.0001531884589
0.0001579584087
0.0001639682937
0.0001797388326
0.0001656582412
0.0001594760525
0.0001526286438
0.0001428050744
0.0001406017598
0.000162725838
0.0001785291321
0.0001825539633
0.0001723300699
0.0001543291145
0.0001535808289
0.0001628409146
0.0001743758565
0.0001818599786
0.000177374217
0.0001580755474
0.0001564858076
0.0001850699045
0.0002090891249
0.0001839210803
0.000155143169
0.0001915096179
0.0002265304814
0.00025236804
0.0002805375226
0.000193363627
0.0001917982967
0.0001643095267
0.0001521145397
0.0001557021688
0.0001627551463
0.0001667979095
0.0001673801628
0.0001629281183
0.0001562643363
0.0001487358823
0.0001427267014
0.0001577270536
0.0001816814598
0.000198164654
0.0002049162853
0.0001936418895
0.000168305536
0.0001659807721
0.0001782680551
0.0001926998079
0.0002028599451
0.00019790946
0.0001777046745
0.0001668264145
0.0001637680478
0.000182756256
0.0001486636607
0.0001765063025
0.0002171020343
0.0002722027824
0.0002745608229
0.0003047003527
0.0001837843701
0.0001727352778
0.0001557193166
0.0001547004422
0.0001589267349
0.0001644500151
0.0001665743252
0.0001642723062
0.0001593766252
0.0001524896464
0.0001449198928
0.0001512661166
0.000172313597
0.000192658503
0.0002101315293
0.0002179564781
0.0002061809816
0.0001798599768
0.0001807101237
0.0001985217899
0.0002173109725
0.0002366784525
0.0002229495372
0.0002063033202
0.0001756517715
0.0001514990549
0.0001560342919
0.0001641514542
0.000202803643
0.0002332704569
0.000263100955
0.0002939502621
0.0003248947189
0.000169587575
0.0001610345308
0.0001578533796
0.0001603818651
0.0001626974303
0.000164593064
0.0001644188463
0.0001615997824
0.0001583486667
0.0001526825327
0.0001435809204
0.0001369498492
0.0001471846353
0.0001657981425
0.0001804678493
0.0001863257788
0.000181336218
0.0001808972305
0.0001965418581
0.0002163869571
0.0002433052325
0.0003270292651
0.0002397779495
0.000228001379
0.0001864723883
0.0001545577606
0.000161479827
0.0001901119125
0.0002196454071
0.0002472919053
0.0002768319088
0.0003082849312
0.0003405012847
0.0001554772003
0.0001625705874
0.0001687318815
0.0001747873661
0.0001801426368
0.0001830202499
0.0001829638943
0.0001805239448
0.0001773153123
0.0001649805406
0.000148809287
0.0001334166119
0.0001392609871
0.0001511663071
0.0001604534115
0.00016619933
0.0001697221549
0.0001778996613
0.0001909426294
0.0002056301091
0.0002214408315
0.0002385646836
0.0002317456418
0.0002257371925
0.000189417164
0.0001628208523
0.0001778025216
0.0002061204509
0.0002313297323
0.0002574790827
0.0002859491364
0.0003160249774
0.0003462909447
0.0001513682358
0.0001731190032
0.0001847059792
0.0001957655377
0.0002037001644
0.0002081402342
0.0002090637068
0.0002062556847
0.0001974671059
0.0001758478959
0.0001495317824
0.0001345620854
0.0001417575357
0.0001521602465
0.0001610494417
0.0001661121627
0.0001686422229
0.00017239998
0.0001794573306
0.0001890952306
0.0001998399395
0.0002111462134
0.0002122550068
0.0002047949464
0.0001764449257
0.0001641892377
0.0001836697827
0.0002079311835
0.0002296963719
0.0002521257484
0.0002767564502
0.0003038296988
0.0003323190642
0.0001553919789
0.0001819867129
0.0001942632495
0.0002043662277
0.00021054858
0.0002130868162
0.0002117395878
0.0002057668994
0.0001933878154
0.0001699063014
0.0001449279627
0.0001391016671
0.0001493177714
0.000161599321
0.0001719019658
0.0001778298733
0.0001781283826
0.0001745079778
0.0001745104705
0.0001816033329
0.0001908980057
0.0001972520087
0.000195012586
0.0001847388146
0.0001637017272
0.0001649317573
0.0001857980652
0.0002065039555
0.0002247863074
0.0002430444789
0.0002633984356
0.0002858506999
0.000310574948
0.0001592528281
0.0001854379802
0.0001958872769
0.0002033653338
0.0002072462092
0.0002078310591
0.0002047449837
0.0001971318226
0.0001834402139
0.0001607879945
0.0001410468206
0.0001405640265
0.0001500305449
0.0001604055391
0.0001698654232
0.0001764954279
0.0001806653745
0.0001871962893
0.0002002860869
0.0002141841848
0.0002190189253
0.0002097135335
0.0001840767014
0.0001671517668
0.0001547195979
0.0001659641133
0.00018486747
0.0002021097657
0.0002176469043
0.0002328854434
0.0002491824886
0.0002668335921
0.0002861314846
0.0001605054734
0.0001844553393
0.0001921688205
0.0001969930076
0.0001987298986
0.0001976730548
0.0001933730882
0.0001849186583
0.0001708465922
0.0001505315788
0.0001381628019
0.0001421382188
0.0001509505379
0.0001581375523
0.0001644413078
0.0001713527003
0.0001766593723
0.0001825503637
0.0001921292556
0.0002046138337
0.0002117984375
0.0002037650839
0.0001736683047
0.0001556945189
0.0001519640601
0.0001672235607
0.0001836425117
0.0001980341332
0.0002109273103
0.0002233564032
0.0002360268613
0.0002495191198
0.0002632795997
0.0001594049469
0.0001805406907
0.0001855318942
0.000187916742
0.0001877485053
0.0001852505213
0.0001799233577
0.000170771386
0.000157213868
0.0001454686177
0.0001535600489
0.0001769076179
0.000196811978
0.0001948915665
0.0001763399864
0.0001678573288
0.0001722534949
0.0001716019091
0.0001752244249
0.0001843897898
0.0001937855099
0.0001913137805
0.0001624237013
0.000148787724
0.0001571610098
0.0001781248234
0.0001969750311
0.0002102577705
0.0002185610697
0.0002239818121
0.000229605415
0.0002374346051
0.0002458755402
0.0001562308
0.0001745723604
0.0001774800908
0.0001777364928
0.0001760527874
0.0001724290971
0.0001664352877
0.0001577647932
0.0001503592907
0.0001610061212
0.0001960347966
0.0002329191245
0.0002557541047
0.0002602455663
0.000234242386
0.0001845780898
0.0001609206429
0.0001587258464
0.0001627322122
0.000172752547
0.0001846991514
0.0001868007914
0.0001692146019
0.0001487177337
0.00017223103
0.000199691765
0.0002215312057
0.000236287545
0.000245389825
0.0002471520779
0.0002436397799
0.0002395734712
0.0002395355718
0.0001508472502
0.0001667126482
0.0001682283257
0.0001671909503
0.0001644972084
0.0001604754226
0.0001565487597
0.0001605163853
0.000185692377
0.0002243787752
0.0002593304351
0.0002895710006
0.0003141837054
0.0003224052799
0.000304112256
0.0002486452553
0.000180487764
0.0001501998071
0.0001537411017
0.0001647797673
0.0001793430355
0.0001850689369
0.0001639520055
0.0001566427147
0.0001906385688
0.0002217285323
0.0002467181639
0.0002643555281
0.0002725938437
0.0002736010513
0.0002682364775
0.0002577663745
0.0002485821349
0.0001429101032
0.0001568526061
0.0001577965288
0.0001563552436
0.000153509161
0.0001501842009
0.0001504204586
0.000165949932
0.0002016135604
0.0002398362096
0.000269360935
0.0002963776225
0.0003199744872
0.0003297376608
0.0003177364963
0.0002656429339
0.0001945812465
0.000144416886
0.0001478125357
0.0001583912707
0.0001685123573
0.0001703891744
0.0001575884218
0.0001801036754
0.0002128176327
0.0002436868886
0.0002683155266
0.0002827878495
0.0002893022059
0.0002906865
0.0002859359137
0.0002742520963
0.0002640764783
0.0001324470115
0.0001452826425
0.0001464969541
0.0001454421597
0.0001431527848
0.0001407130538
0.0001424451583
0.0001591803809
0.0001937926436
0.0002300285068
0.0002573656177
0.0002804113578
0.000300054223
0.0003075218659
0.0002954952607
0.0002353909391
0.0001737258824
0.0001672925989
0.0002176759146
0.0002720458952
0.0002792017057
0.0001729952386
0.0001716968417
0.0001941266112
0.0002203067195
0.000247313132
0.0002693573603
0.0002832736152
0.000291842946
0.0002958571883
0.0002949714256
0.0002887388065
0.0002803828973
0.0001206875702
0.0001334173194
0.0001354426188
0.0001352317491
0.0001338431712
0.0001322793285
0.0001341867331
0.0001482593385
0.0001774223625
0.0002103601756
0.0002387766136
0.000263226809
0.0002815493189
0.0002900159938
0.0002755390158
0.000214766106
0.0002044758873
0.0002538370026
0.0003250788961
0.0003924879773
0.0003918975954
0.0002565689462
0.0001988474166
0.0001935475234
0.0002142814759
0.0002380294342
0.0002596824074
0.0002754971642
0.000286849587
0.0002942325566
0.0002988281103
0.0003033470497
0.0003155473533
0.0001100825764
0.0001233450945
0.0001261529759
0.0001267630816
0.000126219771
0.0001254249771
0.0001275297433
0.0001412095409
0.0001725342356
0.0002125080782
0.0002511549388
0.0002859578473
0.0003166002583
0.0003381235149
0.0003375443472
0.0003014041257
0.0002981901109
0.0003673742678
0.0004369088382
0.0004905102248
0.0004970704137
0.000399776706
0.0003162917834
0.0002156081125
0.0002002922667
0.0002228235752
0.0002441115732
0.0002619030476
0.0002761610462
0.0002887991025
0.0003051302512
0.0003326554233
0.0003724139818
0.0001024452386
0.000116025641
0.0001191574652
0.0001201580659
0.0001200586926
0.0001201899381
0.0001250157487
0.0001447842352
0.0001841696591
0.0002308885799
0.0002737959441
0.0003112443481
0.0003447156784
0.0003661019886
0.0003634444554
0.0003143355413
0.0002737154969
0.0003400783883
0.0004144103091
0.0004726295807
0.0004876711436
0.0003874706469
0.0002955313606
0.0002045271815
0.0001881536897
0.0002077826249
0.0002276082334
0.0002463758638
0.0002659042557
0.0002906817638
0.0003266098078
0.0003730205822
0.0004186298857
9.745698572e-05
0.0001108809211
0.0001141556402
0.0001156886659
0.0001165032837
0.0001176700823
0.0001229427721
0.0001429477405
0.0001825940716
0.0002290248852
0.0002706739875
0.0003055470475
0.0003361374487
0.0003543087867
0.0003473341244
0.0002816166255
0.0002355501378
0.0002879765687
0.0003584012548
0.0004149522459
0.0004353375211
0.0003192590727
0.0002386840229
0.0001850100796
0.000179880833
0.0001933469623
0.0002131158513
0.0002350503318
0.0002621076423
0.0002978645713
0.0003425587925
0.0003925331804
0.0004368501512
9.349452833e-05
0.0001063277543
0.0001099094634
0.0001123208232
0.0001138616498
0.0001154574809
0.0001207667275
0.0001362672175
0.0001670282691
0.0002071128133
0.0002466560261
0.0002790293681
0.0003038247755
0.0003161020816
0.0003018518388
0.0002353837019
0.0002098898774
0.0002391667593
0.0002937232051
0.0003465687184
0.0003703871241
0.0002468605352
0.000201235187
0.0001832385667
0.0001770913731
0.0001812587369
0.0001987131963
0.0002250606393
0.0002596743693
0.0003012188774
0.0003455821798
0.0003918512629
0.0004339290949
8.898395714e-05
0.0001006724524
0.0001045509265
0.0001079925957
0.0001103090487
0.0001145244231
0.0001222410731
0.0001346072347
0.0001531745944
0.0001800765664
0.0002121236395
0.0002418514347
0.0002631903346
0.0002708305731
0.000254279931
0.0002065168844
0.0001994451541
0.0002105545977
0.0002378988397
0.0002773389302
0.0003033839128
0.0002094183888
0.0001936074602
0.0001858219487
0.0001779415628
0.0001737753498
0.0001838278099
0.0002108765335
0.0002504932828
0.0002955002787
0.0003384975104
0.0003781628637
0.0004156699362
8.231871981e-05
9.290439745e-05
9.828678309e-05
0.0001046839954
0.0001110882717
0.0001200024167
0.0001295229475
0.0001384211698
0.0001482607566
0.0001630377348
0.0001825500821
0.0002041529043
0.0002220425447
0.0002297106282
0.0002185872208
0.0001956087488
0.0001959020588
0.0002002320251
0.0002085998612
0.0002254056528
0.0002415219095
0.00019880321
0.0001931792414
0.0001875298272
0.0001793590561
0.0001705039071
0.0001709967377
0.0001925060602
0.0002335584135
0.0002803762334
0.000322431488
0.0003577323083
0.0003896795568
0.0001305415175
8.864741131e-05
9.534270892e-05
0.0001016664959
0.0001115406885
0.000123155188
0.0001328997731
0.0001414537028
0.0001500745588
0.0001595086161
0.0001700230613
0.0001817686567
0.0001930632833
0.0001995274299
0.0001961463859
0.0001902368545
0.0001925245724
0.0001952510307
0.0001978418383
0.0002018429203
0.0002060241655
0.0001954881731
0.0001974376313
0.0002010384654
0.0001793169181
0.0001684437284
0.0001667531085
0.0001868971489
0.0002253461111
0.0002668284588
0.0003038476496
0.0003351031916
0.0003630399956
0.0001239649614
8.054078387e-05
9.237130833e-05
0.0001057845166
0.0001196702881
0.0001303799088
0.0001390171892
0.000147296634
0.0001543472379
0.0001605024132
0.0001670626374
0.0001737278526
0.0001793749863
0.0001814456351
0.0001816914721
0.0001820676577
0.0001843502513
0.0001861804108
0.0001873887372
0.0001882031094
0.0001885819865
0.000186575712
0.0001899650841
0.0001921957442
0.0001721167979
0.0001628435939
0.0001645939376
0.0001905953923
0.0002280027304
0.0002615303826
0.0002901064175
0.0003152931089
0.0003389221149
0.0001401478372
8.283781887e-05
0.0001004762895
0.0001159552722
0.0001288809527
0.0001378913892
0.0001444970011
0.0001499674632
0.0001537330965
0.0001555124536
0.0001575008682
0.0001603574796
0.0001614187849
0.0001609993089
0.0001614867743
0.0001621810393
0.0001629810119
0.0001633170242
0.0001632705173
0.000162895937
0.0001621670956
0.0001603606878
0.0001595010472
0.0001574335666
0.000148759709
0.0001465468827
0.0001613004721
0.0001981465825
0.0002327900924
0.000257957795
0.0002769707439
0.0002926228529
0.00030631781
0.0002188217951
0.0005674367396
0.000598214549
0.0005479180915
0.0005085341724
0.0004849745281
0.0004715376983
0.0004537430255
0.0004207359527
0.0004359594131
0.0004115258032
0.0003869739861
0.0003621916991
0.0003348406852
0.0003003692095
0.0002512714128
0.0001879634694
0.0001540784041
0.0001720338492
0.0002420776036
0.0003538795044
0.0004436559867
0.0004344529718
0.0002892462852
0.0001549557939
0.0001232418815
0.0001622974288
0.0002097054219
0.0002206589798
0.0005904293213
0.0006290231708
0.00057912776
0.0005360075422
0.000508061785
0.0004846860938
0.0004563854351
0.0004546201524
0.0004718728534
0.0004526596094
0.0004254825025
0.0003932681185
0.0003593712567
0.0003190985558
0.0002665756525
0.0002034011364
0.0001568268263
0.0001604545469
0.0001957504896
0.0002654750777
0.0004066268452
0.0004559853738
0.0003184994814
0.0001497308455
0.0001342915085
0.0002157197135
0.0002625017332
0.0002952584241
0.0002939661267
0.0002643535357
0.0002477563522
0.0002176803192
0.0005883824625
0.0006316851009
0.0005879598124
0.0005451542788
0.000506569969
0.0004748431414
0.000605098007
0.0007843575317
0.0005226727286
0.000464140991
0.0004310175167
0.000380347952
0.0003337876832
0.000285088226
0.0002332242259
0.000187548607
0.0001703762349
0.0001918416723
0.0002373746911
0.0003291375178
0.0004601075017
0.0004770298217
0.0003325923734
0.0001587797749
0.0001384406858
0.000172675164
0.0001993254139
0.0002937429255
0.0003020225212
0.0003055610755
0.0003135734897
0.000203041209
0.0005678379113
0.0006156379556
0.0005861821123
0.0005375984732
0.0004783373617
0.0006424706724
0.001170452472
0.001260045339
0.0007565475012
0.0004303137306
0.0003854808143
0.0003054389052
0.0002459087176
0.0002043308069
0.0001812467191
0.0001807231741
0.0002071397294
0.0002496912891
0.0002930763281
0.0003691153044
0.0004815145488
0.0004330320723
0.0002966608201
0.0001729397429
0.000179389515
0.0001826305611
0.0001622479521
0.0002093813152
0.0002738779101
0.0003105749726
0.0003564151143
0.0004471096497
0.0001855223552
0.0005202296231
0.0005746395965
0.0005496048574
0.0005143158647
0.0004891866858
0.0007954084329
0.001155172052
0.0009840085929
0.0004948301636
0.0003823651182
0.0002764147267
0.0002082136422
0.0001688678313
0.0001628775829
0.0001775660322
0.0002059096903
0.0002488954266
0.0002920353344
0.000324508492
0.0003726750966
0.0004340810672
0.0003970884796
0.0002995662237
0.0002418342867
0.000341838586
0.0003345094518
0.0001926827243
0.0001738719622
0.0002339838
0.000279555593
0.0003911046568
0.0005935305347
0.0001707585115
0.0004542838912
0.0004887407324
0.0004869050739
0.0004887921501
0.0004757166792
0.0004940824889
0.0006504804712
0.0005089916122
0.0003987730503
0.0003332908397
0.0002449004673
0.0001725104452
0.0001602173407
0.0001884630314
0.0002223274943
0.0002438659448
0.0002640078531
0.0002981816014
0.0003516780734
0.0004311601977
0.0005071595155
0.0004629957563
0.0003867602012
0.0003872651372
0.0005649650025
0.0005696516421
0.0003574081483
0.0002079640324
0.0002470748901
0.0003547153318
0.0005307379625
0.0007770350597
0.000158117315
0.0003608124633
0.0003614467602
0.0003945752033
0.0004301191004
0.0004260743183
0.0004250815573
0.0004238057085
0.0004009408904
0.0003494750148
0.000294983044
0.0002209270545
0.0001706463373
0.0001960876382
0.0002616361053
0.0002965688694
0.0002910685277
0.000274371166
0.0002967424897
0.000381000203
0.0004738210008
0.0005422791471
0.0005424954195
0.000487559382
0.0004308758454
0.0005128210929
0.0005693130606
0.0004764845883
0.0002711849575
0.0003110751098
0.0005639370135
0.0007385888001
0.0009307797638
0.0001491008721
0.0002797189751
0.0003002749814
0.0003587815423
0.0004161634268
0.0004303692769
0.0004286924298
0.0004171897053
0.0003816068308
0.0003307157487
0.0002616697926
0.000198095156
0.0001899309288
0.0002670936745
0.0003601101829
0.0004051145371
0.0003843697342
0.0003420541868
0.0003523775158
0.0004571948929
0.0005688487271
0.0006519648999
0.0006417403312
0.0006004864993
0.0005423274317
0.0004310034258
0.0004430092475
0.0003543561077
0.0003047713949
0.0005408301193
0.00115361766
0.0009728310476
0.001056670186
0.000145769341
0.0002512026714
0.0003028085458
0.0003769040417
0.0004346585801
0.0004518284826
0.0004486499274
0.000430146935
0.0003964999066
0.0003385820713
0.0002353980824
0.0001842897098
0.0002161201449
0.000312102773
0.000411334957
0.000462498211
0.000449882987
0.0004231164324
0.0004564396793
0.0005720049286
0.0007134413219
0.0008288132249
0.0007560832491
0.0006610099508
0.0005355716206
0.0003638263146
0.0002840145526
0.0002680728984
0.0003730299149
0.0005918797235
0.000885683927
0.001002355764
0.001122800853
0.0001436433604
0.0002641705843
0.0003459364818
0.0004264771241
0.0004838031108
0.0005106751895
0.0005129553336
0.0004932842788
0.0004505583789
0.0003752755546
0.0002470159744
0.0001825677578
0.0002136604745
0.0003053938878
0.0003890772234
0.0004337818574
0.000437519781
0.0004421414043
0.0005124874222
0.0006294125606
0.0008159195994
0.001520635295
0.0008148348404
0.0006790732702
0.000513036941
0.0002919573976
0.0002727182316
0.0003423333805
0.0005255682729
0.0007390809303
0.000900619411
0.001039217044
0.001170646198
0.0001429595119
0.0003043606031
0.0004112399292
0.0004994560465
0.0005558164717
0.0005879736071
0.0005981182649
0.000582250948
0.00052991144
0.0004128204983
0.0002572879197
0.0001929043095
0.0002312130503
0.0003092043875
0.0003709597548
0.0003951100218
0.0003912736696
0.0004029651131
0.0004647267752
0.0005728207616
0.0006928655787
0.000778948493
0.0007118848725
0.0006185098864
0.0004778562273
0.0002856533963
0.0003004809743
0.000456666214
0.0006587607149
0.0008333522693
0.0009727766495
0.001098895069
0.001216311504
0.0001466695659
0.0003508442373
0.000471380987
0.0005449655014
0.0005926016662
0.0006196180282
0.0006216194056
0.0005918277521
0.0005215717416
0.0004018527027
0.0002539134315
0.00022065897
0.0002925362023
0.0003828238053
0.0004342257912
0.0004525195025
0.0004366532908
0.0004099254334
0.0004154269118
0.0004725219768
0.0005673205347
0.0006215965414
0.000577431718
0.0004979768896
0.0003704442999
0.0002923694022
0.0003805878852
0.000561044889
0.0007478443639
0.0009106634108
0.001043837183
0.001159624112
0.001261003833
0.0001523130296
0.0003821240095
0.0004962549403
0.0005549098387
0.0005932501762
0.0006113726168
0.0006031274777
0.0005612172566
0.0004783914248
0.0003526950719
0.0002342634787
0.0002343230118
0.0003252227446
0.0004217204423
0.0004788054613
0.0005030242743
0.0004988322745
0.0004779965237
0.00046104105
0.0004895126133
0.0005409672556
0.0005421942789
0.0004739400408
0.0003812750421
0.000292445519
0.0003009893854
0.0004218077541
0.0005966154898
0.0007871471816
0.0009669697636
0.001103850964
0.001214560926
0.001301997522
0.0001558949989
0.0003892288282
0.0004884625844
0.0005337253662
0.0005620408592
0.0005716958679
0.0005555728514
0.0005058930128
0.0004163116745
0.0002924339084
0.0002125406719
0.0002345367355
0.0003284679227
0.0004292003549
0.0004959383851
0.0005312504853
0.0005418899927
0.0005424549499
0.0005516325733
0.0005755876739
0.0005828476222
0.0005296602469
0.0004053163807
0.0002958429848
0.0002620273691
0.0003205352287
0.0004486608811
0.0006173085143
0.0008075213154
0.0009969618527
0.001156826777
0.001264607007
0.001340831333
0.0001561115562
0.0003725026285
0.0004565512787
0.0004874828786
0.0005059639933
0.0005087040803
0.0004877301441
0.0004347289409
0.0003453626163
0.0002390233206
0.000195743052
0.0002244229929
0.0003001608101
0.0003991504037
0.0004919288846
0.0005509800882
0.0005830195684
0.0005827236118
0.0005736540049
0.0005819489103
0.0005760717065
0.0004961795262
0.0003213031417
0.0002397562451
0.0002639309145
0.0003550050075
0.0004967627046
0.0006690776117
0.0008539402936
0.001039094165
0.001206693164
0.001314954272
0.001381015074
0.0001531754573
0.0003371115039
0.0004064914417
0.0004280963311
0.0004393089274
0.0004379203633
0.0004151589448
0.0003618375775
0.0002754336508
0.0002037139085
0.000188661411
0.0002263569867
0.0003039727265
0.000398250998
0.0004801166849
0.0005514080234
0.0006404107685
0.0005925765158
0.0005564812722
0.000558883417
0.0005768759448
0.0005208544178
0.0003504330776
0.0002338321612
0.0002838496043
0.0004127466043
0.0005922246078
0.0007870084906
0.000968682226
0.001135335984
0.001270298048
0.00136508117
0.001424477329
0.0001476814025
0.0002912837985
0.0003444674233
0.0003696633252
0.000378930021
0.0003777644901
0.0003567037461
0.0003054163428
0.000234047668
0.0001928838225
0.0002177429471
0.0003255818706
0.0004772902997
0.0005706764523
0.0005728705763
0.0005221024379
0.0005055979201
0.0005042830329
0.000505077068
0.0005481772597
0.0005940505574
0.000552716762
0.0003997013045
0.0002494393761
0.0003157560045
0.0004968558399
0.0007332271957
0.0009567818201
0.001113937701
0.001234794706
0.001331422154
0.001408521772
0.001468289379
0.0001402298296
0.0002464065026
0.0002866841598
0.0003162690307
0.0003334521364
0.0003330635884
0.0003080917806
0.0002542422987
0.0002070802401
0.0002073162476
0.0002886597399
0.0004587078292
0.0006293016321
0.0007046410348
0.000661835096
0.0005227334942
0.0003616626314
0.0003396812957
0.0003816647229
0.0004695288789
0.0005488865427
0.0005302467255
0.0003947352517
0.000266597237
0.0003746366511
0.0006184175635
0.0008776357553
0.001060053067
0.001188042015
0.001283878493
0.001362325378
0.001433069877
0.001500264098
0.0001311304533
0.0002109681558
0.0002438364666
0.0002745719909
0.0002984366548
0.0002987298313
0.0002712591717
0.0002256370371
0.0001964014599
0.0002176316691
0.0003202745702
0.0005011257639
0.0006655274939
0.0007289391874
0.0006614428539
0.0004761114937
0.0002770868758
0.000240552602
0.0002774966899
0.000355571227
0.0004346993511
0.0004310363026
0.0003218119007
0.0003129412639
0.0004797823374
0.000744534055
0.000968090727
0.001124451467
0.001233895524
0.001317568917
0.001388679432
0.001453167605
0.00150914596
0.0001206666688
0.0001873119019
0.0002175557255
0.0002462026832
0.0002678092614
0.0002670055696
0.0002413059659
0.0002036479006
0.0001820876812
0.0001995207017
0.0002787821983
0.0004260334684
0.0005721108183
0.0006346641101
0.0005540840311
0.0003583863173
0.0002408844284
0.0002466161525
0.0003346818602
0.0004737126519
0.0005185590266
0.0004472282818
0.0003505711982
0.0003881039605
0.0005642626681
0.0007879946627
0.0009877929211
0.001134815081
0.001242785798
0.001331316567
0.001408676895
0.001468586631
0.001509158799
0.000109923195
0.000173624765
0.0002029147462
0.0002266089002
0.0002411354464
0.0002371361619
0.0002152080204
0.0001871539851
0.0001729386405
0.0001921864397
0.0002667052538
0.000407612215
0.0005756053205
0.000679261856
0.0006288874238
0.0004438366142
0.000351329944
0.0004463327287
0.0007360839518
0.0009819148949
0.0009854753921
0.0008045089238
0.0005253441049
0.0004620884788
0.0005613792344
0.0007517245566
0.0009352687652
0.001083035099
0.00120155234
0.001307764921
0.001405669901
0.00148021636
0.001512540271
0.0001008054436
0.0001658439483
0.0001926965468
0.0002093285627
0.0002154678351
0.0002080420838
0.0001892688009
0.0001681207262
0.0001659899559
0.000207266465
0.0003152752569
0.0004992606475
0.0007083312379
0.0008369494843
0.0008249532196
0.0006916497313
0.0005324162615
0.0006504579911
0.0009676375487
0.001198884032
0.001182400877
0.0009631537967
0.0006346220647
0.0004775761656
0.0005082344002
0.0006512117624
0.0008250805271
0.0009720728105
0.001100534331
0.00122643886
0.001353891231
0.001467065917
0.001533790448
9.445791116e-05
0.0001589582799
0.0001809230866
0.0001918622052
0.0001954756625
0.000190461581
0.0001758328573
0.0001604324401
0.0001680650603
0.0002212578785
0.0003503139844
0.0005563930507
0.0007775849891
0.0009093832492
0.0009048452729
0.0007792396927
0.0005942576233
0.000667893442
0.0009418564008
0.001170880317
0.001147835115
0.0009296368836
0.0006563591542
0.0005494296455
0.0005169941554
0.000557577472
0.0006701557228
0.0008038050143
0.0009280717799
0.001065318679
0.001229521033
0.001407911404
0.001542781515
9.033628362e-05
0.0001494168891
0.0001647915636
0.0001753302164
0.0001879285629
0.0001918699545
0.0001770413688
0.0001630272483
0.0001760754934
0.000227592436
0.0003468425716
0.0005333857118
0.0007333709075
0.0008536445765
0.0008486189428
0.0007455711883
0.0006093884634
0.0006406991477
0.0007739987334
0.0009395333431
0.000928155782
0.0008067863094
0.0006683304749
0.0006351970585
0.0005632541043
0.0005160744772
0.0005222777117
0.0005868883962
0.0006875357609
0.0008284021057
0.001034500135
0.001294588041
0.00150741918
8.71916189e-05
0.0001383986354
0.0001498468589
0.0001625415428
0.0001733356741
0.0001723919454
0.0001695191505
0.0001701714258
0.0001928083888
0.0002370696689
0.0003219868046
0.0004548978837
0.0006011233381
0.0007045564603
0.0007272944529
0.0007102271264
0.0006957453578
0.000715963362
0.0007400893899
0.0007957958942
0.0008014267856
0.0008239900765
0.0007487145636
0.0007265849966
0.0006291301092
0.0005231313863
0.0004450664963
0.0004214888585
0.000454835196
0.0005666724078
0.0007905612958
0.001112370419
0.00140125717
8.370687931e-05
0.0001292612281
0.0001426592252
0.000152616128
0.0001489425242
0.0001564973195
0.0001775052897
0.0002038594548
0.0002370230063
0.0002771788139
0.0003361121414
0.0004284739472
0.0005426274586
0.0006408623055
0.0007070505931
0.0007526951195
0.0008038650664
0.0008183182039
0.0007957470555
0.0008238392009
0.0008450603524
0.0008723440559
0.0008235339746
0.0007895917386
0.0006862843897
0.0005496452796
0.0004231522806
0.000343526773
0.0003265699285
0.0003838874573
0.0005722650849
0.0008930016431
0.001237607635
7.906140185e-05
0.0001274090169
0.0001412435874
0.0001455486955
0.0001475722876
0.0001722014266
0.0002272293369
0.0002725348794
0.0003008977698
0.000334807794
0.0003831285527
0.0004636029279
0.0005822304483
0.000691377935