/*--------------------------------*- C++ -*----------------------------------*\
  =========                 |
  \\      /  F ield         | OpenFOAM: The Open Source CFD Toolbox
   \\    /   O peration     | Website:  https://openfoam.org
    \\  /    A nd           | Version:  8
     \\/     M anipulation  |
\*---------------------------------------------------------------------------*/
FoamFile
{
    version     2.0;
    format      ascii;
    class       volScalarField;
    location    "1";
    object      O2;
}
// * * * * * * * * * * * * * * * * * * * * * * * * * * * * * * * * * * * * * //

dimensions      [0 0 0 0 0 0 0];

internalField   nonuniform List<scalar> 
67286
(
0.2100020078
0.2100024341
0.2100026031
0.2100027724
0.2100030407
0.2100035849
0.2100039614
0.2100041811
0.2100042676
0.2100043476
0.2100044555
0.2100045273
0.2100045766
0.2100046244
0.2100046984
0.2100048076
0.2100048669
0.2100050881
0.2100053998
0.2100056049
0.2100056719
0.2100057338
0.2100056751
0.2100057899
0.210005803
0.2100059762
0.21000598
0.2100060059
0.2100019023
0.2100023544
0.210002537
0.2100027382
0.2100030466
0.2100036413
0.2100040931
0.2100043613
0.2100043269
0.2100043494
0.2100044303
0.2100045349
0.2100046019
0.210004658
0.2100047466
0.2100048729
0.2100049787
0.2100052064
0.2100054072
0.2100055571
0.2100056147
0.2100057003
0.2100055262
0.2100056511
0.2100056764
0.210005941
0.2100060093
0.2100064532
0.2100061199
0.2100058637
0.2100054397
0.2100048787
0.2100018357
0.2100023413
0.2100025423
0.2100028023
0.2100032537
0.2100038851
0.2100044033
0.2100047283
0.2100043139
0.210004409
0.2100044489
0.2100045729
0.2100046532
0.2100047125
0.2100048136
0.2100049607
0.2100051411
0.2100053893
0.2100055082
0.2100055432
0.2100055257
0.2100056039
0.2100054721
0.2100055671
0.2100056118
0.2100057878
0.2100058678
0.2100059618
0.2100058354
0.2100055114
0.210005052
0.210004324
0.2100018377
0.2100024248
0.2100026506
0.2100030616
0.2100037058
0.2100042711
0.2100051337
0.210005211
0.2100028948
0.2100044262
0.2100045008
0.2100046585
0.2100047847
0.2100048485
0.2100049167
0.2100050728
0.2100052906
0.2100055106
0.2100056168
0.2100056819
0.2100057417
0.2100057149
0.2100056213
0.2100056467
0.2100056305
0.2100056866
0.2100057484
0.2100057247
0.2100054965
0.2100051348
0.2100044873
0.2100035912
0.2100029436
0.2100018279
0.2100025281
0.2100027951
0.2100034174
0.2100042801
0.2100053567
0.2100050878
0.2099995806
0.2100052893
0.2100046039
0.2100046145
0.2100045795
0.21000468
0.2100048853
0.210004966
0.2100051233
0.2100053389
0.2100055208
0.2100055827
0.210005592
0.2100055954
0.2100056489
0.2100055434
0.2100056117
0.2100056282
0.2100055454
0.2100058702
0.2100053959
0.2100050858
0.2100045494
0.210003703
0.2100029443
0.210002528
0.2100018084
0.2100025502
0.2100027861
0.2100033498
0.2100038059
0.2100042892
0.2100052639
0.2100055337
0.2100044962
0.2100049824
0.2100048484
0.210004679
0.2100047581
0.2100048709
0.2100049489
0.210005086
0.2100052717
0.2100054383
0.2100055114
0.2100055548
0.2100056207
0.2100056657
0.2100054784
0.2100056353
0.2100055459
0.2100051015
0.2100058721
0.2100052267
0.210004821
0.2100037544
0.2100031945
0.2100025342
0.2100022179
0.2100018008
0.2100025438
0.2100029347
0.2100034766
0.2100038222
0.2100041413
0.2100045176
0.2100049927
0.2100044551
0.2100047418
0.2100046505
0.2100046327
0.210004706
0.2100047517
0.2100048499
0.2100049831
0.210005136
0.2100052787
0.2100053708
0.210005422
0.2100054301
0.2100054372
0.2100052824
0.2100054736
0.2100055275
0.2100054291
0.2100058054
0.2100049653
0.2100046055
0.2100031888
0.2100029258
0.210002247
0.210001994
0.2100018405
0.2100026556
0.2100031738
0.2100035769
0.2100038406
0.2100041081
0.210004338
0.2100045849
0.2100044621
0.2100045801
0.2100045356
0.2100045606
0.2100045809
0.2100046234
0.2100047218
0.2100048179
0.2100049593
0.2100051058
0.210005269
0.2100053991
0.2100054764
0.2100057411
0.2100051592
0.2100054121
0.2100055937
0.2100052374
0.2100053774
0.2100048762
0.2100039783
0.2100031957
0.2100050023
0.2100021711
0.2100019409
0.2100020538
0.21000294
0.2100034085
0.210003638
0.2100037988
0.2100039786
0.2100041299
0.2100042871
0.2100042113
0.2100043137
0.2100043399
0.210004402
0.2100044155
0.2100044702
0.2100045235
0.2100045843
0.210004736
0.2100049002
0.2100050584
0.2100051434
0.2100051256
0.2100055797
0.2100046596
0.2100050049
0.2100051088
0.2100050457
0.2100048105
0.210003947
0.2100029614
0.2100024178
0.2100021184
0.2100016861
0.2100013327
0.210002449
0.2100032452
0.2100035159
0.2100036042
0.2100036578
0.2100037269
0.210003805
0.2100038971
0.2100039113
0.2100040064
0.2100040923
0.2100042765
0.210004435
0.2100044964
0.210004488
0.2100045174
0.2100046547
0.2100048865
0.2100052124
0.2100057277
0.2100064075
0.2100104682
0.2100049359
0.2100056662
0.210005283
0.2100050377
0.2100046589
0.2100033531
0.2100028665
0.2100023741
0.2100021882
0.2100014976
0.2100010544
0.2100029185
0.2100034438
0.2100035751
0.2100036054
0.210003605
0.2100035873
0.2100035731
0.2100035879
0.2100036544
0.210003762
0.2100038965
0.2100041177
0.2100042982
0.2100043616
0.2100043636
0.2100043672
0.2100044266
0.2100045999
0.2100048504
0.2100051155
0.2100053651
0.2100062355
0.2100049036
0.2100050738
0.2100051594
0.2100046576
0.2100037929
0.2100029687
0.2100024639
0.2100020004
0.2100015485
0.2100011253
0.2100007165
0.210003278
0.2100035815
0.2100036697
0.2100036952
0.2100036627
0.2100036021
0.2100035454
0.2100035258
0.2100035772
0.2100037024
0.2100038436
0.2100039869
0.2100040643
0.2100040707
0.2100040503
0.2100040758
0.210004198
0.2100044357
0.2100047276
0.2100050325
0.2100053313
0.2100058035
0.2100051721
0.2100052131
0.210005179
0.2100044716
0.210003576
0.2100028892
0.2100024137
0.2100019908
0.2100015832
0.2100011571
0.2100007468
0.2100034553
0.2100036532
0.2100037123
0.2100037024
0.2100036326
0.2100035417
0.2100034662
0.2100034431
0.2100035096
0.2100036841
0.2100038449
0.2100039348
0.2100039305
0.2100038577
0.2100037894
0.2100037958
0.2100039237
0.2100041632
0.21000446
0.2100047581
0.2100050317
0.2100053109
0.2100051844
0.2100051602
0.2100050695
0.2100042568
0.2100034544
0.2100028779
0.210002433
0.2100020379
0.2100016647
0.2100012938
0.2100009291
0.2100035227
0.2100036742
0.2100037094
0.2100036743
0.2100035874
0.2100034885
0.2100034145
0.2100034033
0.2100034955
0.2100036999
0.2100038713
0.2100039483
0.2100039299
0.210003855
0.2100037887
0.2100038
0.2100039307
0.2100041407
0.2100043325
0.2100044708
0.2100046201
0.210004841
0.2100050503
0.2100050482
0.2100047931
0.2100040989
0.2100034794
0.2100030066
0.2100026009
0.2100022271
0.2100018757
0.2100015415
0.2100012245
0.2100035476
0.2100036669
0.2100036858
0.2100036434
0.2100035569
0.2100034654
0.2100034047
0.210003412
0.2100035306
0.2100037668
0.2100039575
0.2100040408
0.210004012
0.2100039255
0.2100038543
0.210003841
0.2100039124
0.2100040759
0.2100042601
0.2100043712
0.210004447
0.2100045954
0.2100048402
0.2100049056
0.210004582
0.2100040992
0.2100036758
0.2100033068
0.2100029241
0.2100025516
0.2100022034
0.2100018854
0.2100016053
0.210003561
0.2100036441
0.2100036495
0.2100036096
0.2100035346
0.21000346
0.2100034218
0.2100034615
0.2100036321
0.210003892
0.2100040447
0.210004036
0.2100039138
0.2100038515
0.2100039057
0.2100039741
0.2100040314
0.2100040978
0.2100042792
0.2100044026
0.2100044274
0.2100044814
0.2100046708
0.210004742
0.2100044049
0.2100040391
0.2100036977
0.2100033947
0.2100031102
0.2100028371
0.2100025539
0.2100022731
0.2100020181
0.2100035839
0.2100036202
0.2100036114
0.2100035739
0.2100035187
0.2100034694
0.2100034637
0.2100035477
0.2100037569
0.2100039491
0.2100039229
0.2100037271
0.2100035346
0.2100034618
0.2100036474
0.2100039783
0.2100041224
0.2100041974
0.2100042985
0.2100043125
0.2100042306
0.210004212
0.210004266
0.2100045066
0.2100041451
0.2100038006
0.2100034477
0.2100031452
0.2100028957
0.2100027323
0.2100026485
0.2100025801
0.2100025063
0.2100036397
0.2100036222
0.2100035954
0.2100035606
0.210003529
0.2100035213
0.21000358
0.2100037263
0.2100038135
0.2100036649
0.2100034226
0.2100032095
0.2100029694
0.210002823
0.2100030246
0.2100035462
0.2100039936
0.2100041923
0.2100041855
0.210004068
0.2100038926
0.2100038523
0.2100039048
0.2100040676
0.2100038458
0.2100035207
0.2100031663
0.2100028306
0.2100025679
0.2100024126
0.2100023749
0.2100024304
0.2100024998
0.2100037446
0.2100036796
0.2100036336
0.2100036001
0.2100035885
0.2100036235
0.2100037468
0.2100039271
0.2100039341
0.2100036744
0.2100033786
0.2100031118
0.2100028147
0.2100026165
0.2100027671
0.2100033299
0.2100038315
0.2100040382
0.2100039015
0.2100037041
0.2100034729
0.2100034556
0.2100035226
0.2100035865
0.2100035017
0.2100032224
0.2100028738
0.2100025566
0.2100023361
0.2100022193
0.2100022714
0.2100025126
0.2100029795
0.2100038837
0.2100037914
0.2100037307
0.2100036954
0.2100036925
0.2100037453
0.2100038934
0.2100040979
0.2100041215
0.2100038461
0.2100034787
0.2100031527
0.2100028423
0.2100026193
0.2100027201
0.2100034249
0.2100036652
0.2100034341
0.2100030445
0.2100027195
0.2100025128
0.210002984
0.2100030199
0.2100032526
0.2100032663
0.2100030718
0.2100027845
0.2100025198
0.2100023115
0.2100022035
0.2100022377
0.2100024243
0.2100027352
0.2100040072
0.2100039113
0.2100038485
0.2100038151
0.2100038168
0.2100038743
0.210004026
0.2100042317
0.2100042689
0.2100040169
0.2100036594
0.2100033266
0.2100029983
0.2100027615
0.2100027631
0.2100031414
0.2100028662
0.210002655
0.2100025047
0.2100022385
0.2100021586
0.2100024892
0.2100026768
0.2100029449
0.2100031062
0.2100030402
0.210002835
0.2100026138
0.2100024294
0.2100023466
0.2100023913
0.2100025342
0.2100026743
0.2100040775
0.2100039926
0.2100039402
0.2100039168
0.2100039216
0.2100039677
0.2100040874
0.2100042553
0.2100042906
0.2100040602
0.2100036667
0.2100032541
0.2100028616
0.2100025403
0.2100024028
0.2100024225
0.2100023229
0.2100018861
0.2100014162
0.2100009426
0.2100009758
0.2100016942
0.2100019587
0.2100024488
0.2100028723
0.2100029996
0.2100029244
0.2100027781
0.2100026478
0.2100026032
0.2100026383
0.2100026434
0.2100024899
0.2100041127
0.2100040386
0.210003998
0.2100039895
0.210004006
0.2100040476
0.2100041152
0.210004163
0.2100040711
0.2100037727
0.2100033627
0.210002968
0.2100025785
0.2100022412
0.2100021584
0.2100023238
0.2100023723
0.2100019829
0.2100013572
0.2100007124
0.2100004979
0.210001441
0.2100018724
0.2100022237
0.2100026186
0.2100028789
0.2100029635
0.2100029357
0.21000288
0.2100028432
0.210002778
0.2100025841
0.210002259
0.2100041593
0.2100040893
0.2100040483
0.2100040357
0.2100040224
0.2100040086
0.210004034
0.2100040307
0.2100038775
0.2100035946
0.2100032092
0.2100028263
0.2100024465
0.2100021153
0.2100020472
0.2100023429
0.2100023411
0.210002184
0.2100016878
0.2100010231
0.210000545
0.2100017103
0.2100019231
0.2100020697
0.2100023611
0.2100026841
0.2100029192
0.2100030376
0.2100030662
0.2100030178
0.2100028788
0.2100025985
0.2100022049
0.2100042498
0.2100041885
0.2100041298
0.2100040907
0.2100040452
0.2100040009
0.2100039284
0.2100038295
0.2100036914
0.2100035194
0.2100032368
0.2100028752
0.210002509
0.2100021874
0.2100020773
0.2100023214
0.2100022133
0.2100021879
0.2100020131
0.2100015436
0.210000944
0.2100018202
0.2100018345
0.2100019261
0.2100021654
0.2100024807
0.210002813
0.2100030793
0.2100032097
0.2100031625
0.2100029941
0.2100027374
0.2100023646
0.2100044168
0.2100043658
0.2100042565
0.2100041552
0.2100040872
0.2100039717
0.2100037728
0.210003583
0.2100034465
0.2100033603
0.2100032234
0.2100029742
0.2100026488
0.2100023325
0.2100021459
0.2100022015
0.2100020414
0.2100020181
0.2100020309
0.2100019136
0.2100015058
0.2100017433
0.2100017657
0.2100018535
0.2100020572
0.2100023307
0.2100026862
0.2100030575
0.210003312
0.2100033115
0.2100031211
0.2100029012
0.2100026195
0.2100047363
0.2100047094
0.2100044735
0.2100042484
0.2100040382
0.2100037629
0.2100034869
0.2100033032
0.2100032114
0.2100031281
0.2100030646
0.2100029255
0.2100026887
0.2100024133
0.2100022096
0.2100021046
0.2100019596
0.2100018942
0.2100018962
0.2100019166
0.2100017973
0.2100017294
0.210001777
0.2100018409
0.2100020175
0.210002238
0.2100025574
0.2100029541
0.2100033252
0.2100034485
0.2100033034
0.2100030789
0.2100028801
0.2100052256
0.2100050074
0.2100047538
0.2100043876
0.2100040678
0.2100037103
0.2100034242
0.2100032009
0.2100030472
0.2100029192
0.2100028315
0.2100027346
0.2100025928
0.2100023978
0.2100022126
0.2100020655
0.2100019491
0.2100018721
0.2100018393
0.2100018399
0.2100018298
0.2100017813
0.2100018345
0.2100018881
0.2100020269
0.2100022138
0.2100024932
0.2100028488
0.2100032372
0.2100034748
0.2100034544
0.2100032837
0.210003117
0.2100054104
0.2100054327
0.2100049213
0.2100043654
0.2100038771
0.210003501
0.2100032663
0.2100030124
0.2100028297
0.2100027277
0.2100026411
0.2100024992
0.2100023656
0.210002296
0.2100021597
0.2100020384
0.2100019503
0.2100018848
0.2100018457
0.2100018296
0.2100018305
0.2100018271
0.2100018858
0.2100019565
0.2100020311
0.2100021952
0.2100024352
0.2100027307
0.2100030582
0.2100033171
0.21000341
0.2100033563
0.2100032464
0.2100056259
0.2100053024
0.2100046457
0.2100040492
0.2100035737
0.2100032294
0.2100029613
0.2100027549
0.2100025949
0.2100025153
0.2100024174
0.2100022578
0.2100021572
0.2100021383
0.2100020521
0.2100019589
0.2100018938
0.2100018436
0.2100018107
0.2100017933
0.2100017902
0.2100017896
0.2100018265
0.2100018797
0.2100019634
0.2100021347
0.2100023917
0.2100026629
0.2100028694
0.2100029983
0.2100030322
0.21000298
0.2100028699
0.2100026884
0.2100028105
0.2100029709
0.2100032052
0.2100034609
0.2100036872
0.2100038573
0.2100039838
0.2100040937
0.2100041997
0.2100043449
0.2100044774
0.2100046053
0.2100047317
0.210004849
0.2100049218
0.2100049758
0.2100051008
0.2100053519
0.2100055944
0.2100057571
0.2100059415
0.2100059619
0.2100059446
0.210005885
0.2100059929
0.2100060414
0.2100060961
0.2100025687
0.2100027187
0.2100029022
0.2100031676
0.2100034585
0.210003709
0.2100039121
0.21000406
0.2100040397
0.210004177
0.210004317
0.2100044872
0.2100046428
0.2100047822
0.2100049043
0.2100049867
0.2100050586
0.2100051767
0.2100053466
0.21000554
0.2100056582
0.2100059593
0.2100058585
0.2100058648
0.2100057925
0.210006031
0.2100062291
0.2100069605
0.2100065916
0.2100061096
0.2100055344
0.2100050045
0.210002542
0.2100027087
0.2100029101
0.2100031953
0.210003498
0.2100037052
0.2100038908
0.2100041145
0.210003784
0.2100041824
0.2100043239
0.2100045315
0.2100047029
0.2100048434
0.2100049632
0.210005069
0.2100051911
0.2100053522
0.2100054871
0.2100056026
0.2100056942
0.210005903
0.2100058436
0.2100057802
0.210005727
0.2100058184
0.2100059354
0.210006058
0.210005989
0.2100057788
0.2100053299
0.2100047364
0.2100026474
0.210002774
0.2100029861
0.2100032909
0.2100036469
0.2100039435
0.2100039221
0.2100028548
0.2100017466
0.2100039469
0.2100042929
0.2100046268
0.2100048063
0.2100049233
0.2100050107
0.2100051447
0.2100053298
0.2100055233
0.2100056505
0.2100057105
0.210005722
0.2100056292
0.210005749
0.2100057145
0.2100056384
0.2100056461
0.2100057245
0.2100058583
0.2100057542
0.2100055618
0.2100050236
0.2100042811
0.2100035277
0.2100028489
0.2100029315
0.210003077
0.2100032735
0.2100035423
0.2100034572
0.2100030784
0.2100056495
0.2100040391
0.2100045015
0.2100045181
0.210004639
0.2100047965
0.2100049352
0.210005047
0.2100052435
0.2100054625
0.2100056359
0.2100057233
0.2100057311
0.2100056936
0.2100056494
0.2100056244
0.2100056109
0.2100055094
0.2100053956
0.2100055496
0.210005394
0.2100052484
0.2100050674
0.2100043537
0.2100036122
0.2100031167
0.2100029976
0.2100030671
0.2100031849
0.2100034398
0.2100037461
0.2100038649
0.210004255
0.2100037998
0.210004177
0.2100044512
0.2100046284
0.2100047309
0.2100048211
0.210004934
0.2100051255
0.2100053619
0.2100055381
0.2100056347
0.2100056742
0.2100056297
0.2100054916
0.2100052915
0.2100053606
0.2100054346
0.2100052621
0.2100048769
0.2100047256
0.2100051035
0.2100047933
0.2100043579
0.2100037577
0.2100031655
0.2100027663
0.2100030923
0.2100031437
0.2100032566
0.2100035506
0.2100038293
0.2100039121
0.2100041277
0.2100041434
0.2100045331
0.2100046441
0.2100047109
0.2100047146
0.2100047535
0.2100048645
0.2100051147
0.2100053141
0.2100054446
0.2100054988
0.2100055154
0.2100054369
0.2100052257
0.2100050617
0.2100048759
0.2100050522
0.2100050299
0.2100049137
0.2100042358
0.210004879
0.2100044886
0.2100037148
0.2100032649
0.21000281
0.2100024455
0.2100030983
0.21000318
0.2100034235
0.210003735
0.2100040033
0.2100041963
0.2100043709
0.2100043671
0.2100045009
0.2100045737
0.2100046041
0.2100046235
0.2100046346
0.2100047738
0.2100049514
0.2100050889
0.2100052108
0.2100052943
0.2100053178
0.2100052156
0.2100049854
0.2100049676
0.2100044553
0.2100046936
0.2100045136
0.2100049958
0.2100049442
0.2100048544
0.2100041553
0.2100036388
0.210002791
0.2100027318
0.2100022128
0.2100030449
0.210003342
0.2100036615
0.2100039162
0.2100040841
0.210004164
0.2100042316
0.2100042064
0.2100042793
0.210004319
0.2100043661
0.2100044233
0.2100045001
0.2100046234
0.2100046966
0.2100047793
0.2100049049
0.210004996
0.2100049743
0.210004772
0.2100044389
0.2100042948
0.2100040196
0.2100043758
0.2100046348
0.2100048663
0.2100046039
0.2100041156
0.210003557
0.2100031289
0.2100029777
0.2100022792
0.2100018118
0.2100031037
0.2100035556
0.2100038381
0.2100039962
0.2100040551
0.2100040498
0.2100040343
0.2100040247
0.2100040583
0.2100041429
0.2100041954
0.2100042707
0.2100043653
0.21000444
0.2100044895
0.2100045798
0.2100047421
0.2100049332
0.2100051619
0.2100055552
0.2100063191
0.2100095407
0.2100048015
0.2100052849
0.2100047982
0.2100048873
0.2100040075
0.2100037626
0.2100033749
0.2100029187
0.2100025171
0.2100019672
0.210001491
0.2100032915
0.2100037283
0.2100039354
0.2100040049
0.2100039737
0.2100038968
0.210003826
0.2100037968
0.2100038465
0.2100039586
0.2100040451
0.2100041257
0.2100042233
0.2100042619
0.210004294
0.2100043898
0.210004536
0.2100046969
0.210004866
0.210005022
0.2100051638
0.2100065
0.2100046617
0.2100049833
0.2100049716
0.2100047607
0.2100040689
0.2100035776
0.2100031174
0.2100026294
0.2100021679
0.2100016751
0.2100012005
0.2100034956
0.2100038497
0.2100039808
0.2100039662
0.2100038714
0.2100037481
0.2100036485
0.2100036176
0.2100036884
0.2100038423
0.2100039465
0.2100039903
0.2100040123
0.2100039903
0.2100039855
0.210004088
0.2100043047
0.2100045618
0.2100048142
0.210005059
0.2100052574
0.2100057385
0.2100050429
0.2100052107
0.2100051077
0.2100046881
0.2100040245
0.2100034729
0.2100029611
0.2100024687
0.2100020011
0.2100015319
0.2100010791
0.2100036312
0.2100039106
0.21000397
0.2100038968
0.2100037604
0.2100036105
0.2100035034
0.2100034915
0.2100036062
0.2100038031
0.210003914
0.2100039478
0.2100039259
0.2100038284
0.2100037509
0.2100038104
0.2100040276
0.2100043303
0.2100046249
0.210004884
0.2100051118
0.2100053682
0.210005255
0.2100052595
0.2100050046
0.2100044507
0.2100038309
0.2100033174
0.2100028365
0.210002374
0.2100019245
0.210001496
0.2100010967
0.210003701
0.2100039264
0.2100039382
0.210003834
0.2100036825
0.2100035322
0.210003441
0.2100034628
0.2100036177
0.2100038203
0.2100039283
0.2100039748
0.2100039613
0.2100038616
0.2100037549
0.2100037595
0.2100039097
0.2100041515
0.2100044248
0.2100046712
0.2100048955
0.210005115
0.2100051741
0.2100050932
0.2100047669
0.2100042471
0.210003731
0.2100032762
0.210002829
0.2100023917
0.2100019682
0.2100015767
0.2100012301
0.2100037291
0.2100039132
0.2100039043
0.2100037921
0.2100036472
0.2100035174
0.2100034573
0.2100035158
0.2100036942
0.210003878
0.2100039937
0.2100040578
0.2100040475
0.2100039512
0.2100038214
0.2100037667
0.2100038461
0.2100040409
0.2100043061
0.2100045291
0.2100047184
0.2100049087
0.2100050095
0.2100049212
0.2100046126
0.2100042048
0.2100037971
0.2100034085
0.2100029241
0.2100024735
0.210002059
0.2100017069
0.2100014172
0.2100037359
0.2100038789
0.2100038667
0.2100037652
0.2100036399
0.2100035418
0.2100035205
0.2100036132
0.210003792
0.210003964
0.2100040752
0.2100041207
0.2100040798
0.2100039637
0.2100038639
0.2100038827
0.2100039738
0.2100040448
0.2100042816
0.2100044391
0.2100045252
0.210004614
0.2100047411
0.2100047446
0.2100044553
0.2100040978
0.2100036894
0.2100032649
0.2100028226
0.2100024221
0.2100020758
0.2100017957
0.2100015772
0.2100037443
0.2100038376
0.2100038255
0.2100037482
0.2100036524
0.2100035887
0.2100036023
0.2100037122
0.2100038757
0.2100040183
0.2100040684
0.2100039963
0.2100037407
0.2100035102
0.210003534
0.2100037741
0.2100040624
0.2100041748
0.2100042842
0.210004306
0.2100042958
0.2100043445
0.2100044953
0.2100045064
0.210004232
0.2100038872
0.2100034473
0.2100029919
0.2100025628
0.2100022255
0.2100019826
0.2100018227
0.2100017164
0.2100037817
0.2100038207
0.2100038062
0.2100037547
0.2100036956
0.2100036684
0.2100037117
0.2100038232
0.2100039557
0.2100040467
0.2100040483
0.2100038178
0.2100034376
0.2100032059
0.2100033306
0.2100037154
0.2100041009
0.2100042007
0.2100041822
0.2100040901
0.2100039955
0.210003984
0.2100040373
0.2100040842
0.2100039249
0.210003595
0.2100031285
0.2100026602
0.2100022692
0.2100019916
0.2100018243
0.2100017522
0.2100017562
0.2100038648
0.2100038582
0.2100038364
0.210003804
0.2100037795
0.210003783
0.2100038417
0.2100039546
0.2100040776
0.2100041608
0.2100041118
0.2100037969
0.2100033884
0.2100031635
0.2100033218
0.2100037461
0.2100040529
0.210004025
0.2100038597
0.2100036813
0.2100035522
0.2100035327
0.2100035208
0.210003598
0.2100035493
0.2100032589
0.2100028161
0.2100023917
0.2100020611
0.2100018449
0.2100017362
0.2100017093
0.2100018062
0.2100039786
0.210003944
0.2100039153
0.2100038966
0.2100038973
0.210003923
0.2100039883
0.2100040915
0.2100041925
0.2100042527
0.2100042221
0.2100039934
0.2100036935
0.2100034426
0.2100035176
0.2100037344
0.2100037583
0.2100035113
0.2100032365
0.210003048
0.210002971
0.2100030159
0.2100030602
0.2100032003
0.2100032209
0.210003021
0.210002655
0.2100022928
0.2100020185
0.210001847
0.210001769
0.2100017605
0.2100018205
0.2100040808
0.2100040377
0.210004013
0.2100040101
0.2100040287
0.210004063
0.2100041179
0.2100041938
0.2100042674
0.2100043133
0.2100043092
0.2100041115
0.2100038116
0.2100034524
0.2100033187
0.2100032758
0.2100031022
0.2100029101
0.2100027396
0.2100025684
0.2100025522
0.2100024963
0.2100026849
0.2100028404
0.2100029401
0.2100028884
0.2100026571
0.2100023791
0.2100021574
0.2100020142
0.2100019275
0.2100018572
0.2100017977
0.2100041454
0.2100041118
0.2100041041
0.2100041203
0.2100041496
0.2100041813
0.2100042155
0.210004244
0.2100042359
0.2100041637
0.2100040579
0.2100038708
0.2100035621
0.210003205
0.2100030233
0.2100029286
0.2100027429
0.2100026911
0.2100025441
0.2100023192
0.210002349
0.2100023263
0.210002522
0.2100025914
0.2100027409
0.210002812
0.2100027485
0.2100025901
0.2100024407
0.2100023279
0.2100022106
0.2100020332
0.2100018344
0.2100041896
0.2100041734
0.2100041828
0.2100042132
0.210004243
0.2100042538
0.2100042426
0.2100042041
0.2100041277
0.2100040059
0.2100038909
0.2100036745
0.2100033263
0.2100029674
0.2100027813
0.2100026945
0.2100025609
0.2100024702
0.2100023705
0.210002109
0.210002126
0.2100021449
0.2100022535
0.2100023521
0.210002531
0.2100026974
0.2100028029
0.2100028145
0.2100027813
0.2100027312
0.2100026001
0.2100023145
0.2100019688
0.2100042463
0.2100042431
0.2100042521
0.2100042801
0.2100043065
0.2100043036
0.2100042403
0.2100041062
0.2100039518
0.2100037978
0.2100036881
0.2100035091
0.2100031976
0.2100028558
0.2100026491
0.2100025177
0.210002387
0.2100022629
0.210002248
0.2100021001
0.210002067
0.2100020427
0.2100020814
0.2100022031
0.2100023692
0.2100025633
0.2100027595
0.210002921
0.2100030411
0.2100031216
0.2100030552
0.2100027199
0.2100022453
0.2100043366
0.2100043461
0.2100043363
0.2100043461
0.2100043273
0.2100042395
0.2100041284
0.2100039474
0.2100037612
0.2100035903
0.2100034656
0.210003346
0.2100031324
0.210002847
0.2100026106
0.2100024104
0.210002249
0.2100020929
0.2100020121
0.2100019742
0.2100019556
0.210001904
0.2100019688
0.2100021035
0.2100022701
0.2100024628
0.2100026787
0.2100029076
0.210003138
0.2100033623
0.21000347
0.2100032133
0.2100026757
0.2100044902
0.2100045239
0.2100044936
0.2100044344
0.2100042986
0.2100041587
0.2100039789
0.2100037925
0.2100035992
0.2100034307
0.2100032685
0.2100031299
0.2100029689
0.2100027458
0.210002519
0.2100023187
0.2100021523
0.2100020026
0.210001897
0.2100018453
0.2100018376
0.2100018541
0.2100019368
0.2100020697
0.2100022366
0.210002422
0.2100026308
0.2100028696
0.2100031423
0.2100034314
0.2100036854
0.210003637
0.210003166
0.2100047883
0.2100048388
0.2100046977
0.2100045585
0.2100043219
0.2100040813
0.2100039151
0.2100037545
0.2100035365
0.2100033389
0.2100031539
0.2100029915
0.2100028382
0.2100026676
0.2100024486
0.2100022668
0.2100021092
0.2100019824
0.2100018928
0.2100018435
0.2100018342
0.2100018801
0.2100019641
0.2100020857
0.2100022436
0.2100024133
0.2100026031
0.2100028202
0.2100030869
0.2100033795
0.2100036617
0.2100037965
0.2100035292
0.21000529
0.2100051765
0.2100049105
0.2100046073
0.2100042562
0.2100039425
0.2100037108
0.2100035315
0.2100033469
0.2100031835
0.2100030347
0.2100028948
0.21000275
0.2100025854
0.2100024047
0.2100022477
0.210002116
0.2100020144
0.2100019454
0.2100019093
0.2100019085
0.2100019497
0.2100020313
0.2100021548
0.2100022709
0.2100024128
0.210002579
0.210002762
0.210002994
0.2100032717
0.2100035459
0.210003746
0.2100036933
0.2100055727
0.2100054421
0.2100049952
0.2100045029
0.2100040505
0.2100037474
0.2100034839
0.2100032969
0.210003145
0.2100030098
0.2100028817
0.2100027679
0.2100026571
0.210002501
0.2100023533
0.2100022292
0.2100021292
0.2100020508
0.2100019971
0.2100019692
0.2100019697
0.2100020024
0.2100020749
0.2100021875
0.2100022615
0.2100023719
0.2100025123
0.2100026579
0.2100028492
0.2100031143
0.2100034102
0.2100036647
0.2100037569
0.2100056133
0.2100052408
0.2100046492
0.2100040926
0.2100036624
0.2100033694
0.2100031538
0.2100029819
0.2100028513
0.2100027438
0.2100026319
0.2100025581
0.2100024898
0.2100023378
0.2100022172
0.2100021247
0.2100020541
0.2100019985
0.2100019595
0.2100019373
0.2100019333
0.2100019481
0.2100019894
0.210002062
0.2100021351
0.2100022496
0.2100024137
0.2100025961
0.2100027925
0.210003027
0.2100032655
0.2100034786
0.2100036518
0.2100027129
0.2100027807
0.2100029095
0.2100031093
0.2100033418
0.21000355
0.2100037096
0.2100038417
0.2100039314
0.2100040666
0.2100042323
0.2100044143
0.2100046015
0.2100047819
0.2100049211
0.2100049917
0.2100050402
0.2100051455
0.2100053551
0.2100055781
0.2100057483
0.2100058777
0.2100059621
0.2100059438
0.2100058976
0.2100059826
0.2100060188
0.2100060439
0.210005875
0.2100025929
0.2100026814
0.2100028341
0.2100030714
0.210003351
0.2100035977
0.2100037783
0.2100039138
0.2100039127
0.2100040628
0.2100042213
0.2100044337
0.2100046384
0.2100048164
0.2100049416
0.2100050004
0.210005041
0.210005125
0.2100052779
0.2100054686
0.2100056163
0.2100056525
0.2100058675
0.2100058205
0.2100057971
0.2100059889
0.2100062943
0.2100065031
0.2100068429
0.2100061776
0.2100055601
0.2100050868
0.2100025708
0.2100026714
0.2100028517
0.2100031287
0.2100034565
0.2100037577
0.2100039796
0.2100040974
0.2100038968
0.2100040954
0.2100042925
0.2100045141
0.2100047154
0.2100048755
0.2100049881
0.2100050667
0.2100051522
0.2100052763
0.2100054008
0.2100055157
0.2100055997
0.2100057331
0.2100058143
0.2100057373
0.2100057077
0.2100058097
0.210005946
0.2100062102
0.2100060234
0.2100058152
0.2100053792
0.2100049044
0.2100026436
0.2100027467
0.2100029583
0.210003273
0.2100036336
0.2100038822
0.2100036073
0.2100024437
0.2100025849
0.2100034667
0.2100042549
0.2100046239
0.2100048155
0.2100049499
0.2100050492
0.210005164
0.2100053065
0.2100054647
0.2100055759
0.2100056415
0.2100056671
0.2100056783
0.2100057004
0.2100056841
0.2100056235
0.2100056776
0.2100057751
0.2100059375
0.2100059144
0.210005746
0.2100052542
0.2100046744
0.2100039646
0.2100028558
0.2100029154
0.2100031146
0.2100034242
0.2100037931
0.2100042122
0.2100040442
0.2100052445
0.2100043594
0.2100048195
0.2100047358
0.2100048042
0.2100048973
0.2100049956
0.2100051108
0.2100052798
0.2100054489
0.2100055827
0.2100056385
0.2100056269
0.2100055726
0.2100054962
0.2100054889
0.2100055065
0.2100053798
0.2100052888
0.2100052743
0.21000557
0.2100054174
0.2100053939
0.2100048159
0.2100041888
0.2100035597
0.2100030091
0.2100031142
0.2100032954
0.2100035808
0.21000389
0.2100040491
0.2100042755
0.210004394
0.2100042402
0.2100046986
0.2100049135
0.2100048366
0.2100048955
0.2100049897
0.2100051681
0.2100053718
0.2100055061
0.2100055651
0.2100055398
0.2100054048
0.2100051719
0.2100048447
0.210005029
0.210005351
0.2100049733
0.2100046154
0.2100047795
0.2100053143
0.210005085
0.2100049929
0.2100041673
0.2100037484
0.2100031434
0.2100031412
0.2100032703
0.2100034586
0.2100037705
0.2100041035
0.2100043422
0.2100045257
0.2100047747
0.2100047794
0.2100049223
0.2100048129
0.210004789
0.2100048059
0.2100049056
0.2100051162
0.2100052953
0.2100053778
0.2100053843
0.2100052814
0.2100049902
0.2100045777
0.2100041554
0.2100041613
0.2100043724
0.2100043857
0.2100044835
0.2100042513
0.2100049478
0.2100048387
0.2100044166
0.2100038531
0.2100034078
0.2100027578
0.2100032339
0.2100034062
0.2100036533
0.2100039712
0.21000423
0.210004369
0.2100044735
0.2100045463
0.2100045653
0.2100046225
0.2100046095
0.2100046273
0.2100046598
0.2100047694
0.2100049154
0.2100050042
0.2100050472
0.2100050467
0.2100048896
0.2100044738
0.2100039219
0.2100031955
0.2100034091
0.2100036939
0.2100038441
0.2100045546
0.2100048016
0.2100050131
0.2100043537
0.2100039282
0.2100009502
0.210003109
0.2100022508
0.2100032964
0.2100035823
0.2100038776
0.2100041349
0.2100042762
0.2100043127
0.2100043399
0.2100043712
0.2100043813
0.2100044016
0.2100044079
0.210004444
0.2100044979
0.210004569
0.2100046059
0.2100046263
0.2100046708
0.2100046458
0.2100044156
0.2100039077
0.2100033145
0.2100016881
0.2100029784
0.210003417
0.2100039924
0.2100046368
0.2100047539
0.2100045162
0.2100041235
0.2100037105
0.2100032632
0.2100027472
0.2100020846
0.2100033807
0.2100037614
0.2100040298
0.2100041785
0.2100041976
0.2100041456
0.2100041012
0.2100040953
0.2100041299
0.2100041869
0.2100042251
0.2100042626
0.210004302
0.210004321
0.2100043346
0.2100043983
0.2100045187