/*--------------------------------*- C++ -*----------------------------------*\
  =========                 |
  \\      /  F ield         | OpenFOAM: The Open Source CFD Toolbox
   \\    /   O peration     | Website:  https://openfoam.org
    \\  /    A nd           | Version:  8
     \\/     M anipulation  |
\*---------------------------------------------------------------------------*/
FoamFile
{
    version     2.0;
    format      ascii;
    class       volScalarField;
    location    "1";
    object      p;
}
// * * * * * * * * * * * * * * * * * * * * * * * * * * * * * * * * * * * * * //

dimensions      [1 -1 -2 0 0 0 0];

internalField   nonuniform List<scalar> 
67286
(
100003.8881
100003.8579
100003.8295
100003.8008
100003.8043
100003.8059
100003.8064
100003.8084
100003.7795
100003.7774
100003.7639
100003.7538
100003.7518
100003.7487
100003.7504
100003.756
100003.7702
100003.7813
100003.788
100003.7948
100003.8063
100003.832
100003.8334
100003.8712
100003.8769
100003.9268
100003.9124
100003.95
100003.9105
100003.8825
100003.8574
100003.8313
100003.8346
100003.8364
100003.8408
100003.836
100003.8119
100003.8011
100003.7844
100003.776
100003.7725
100003.7663
100003.7678
100003.7715
100003.7815
100003.7922
100003.8036
100003.8245
100003.8374
100003.9247
100003.8627
100003.9065
100003.9057
100003.9714
100003.9941
100004.2092
100004.0988
100004.0426
100003.9419
100003.9039
100003.9081
100003.8811
100003.8661
100003.863
100003.8928
100003.9146
100003.9276
100003.8526
100003.7654
100003.7955
100003.7875
100003.7884
100003.7829
100003.7777
100003.7849
100003.7901
100003.7959
100003.8025
100003.8096
100003.8198
100003.8247
100003.8738
100003.883
100003.9036
100003.9105
100003.9404
100003.9617
100003.9793
100003.9693
100003.9565
100003.9276
100003.9049
100003.8791
100003.8634
100003.8502
100003.8531
100003.8739
100003.8755
100003.9492
100004.198
100004.1663
100003.7813
100003.8183
100003.821
100003.822
100003.8176
100003.8137
100003.8113
100003.8122
100003.8197
100003.8363
100003.8708
100003.8572
100004.0442
100003.9213
100003.9797
100003.9415
100003.9553
100004.007
100004.0172
100004.0006
100003.9689
100003.95
100003.9118
100003.8679
100003.8531
100003.8535
100003.8924
100003.9583
100004.0223
100003.9192
100004.1995
100004.484
100003.9231
100003.9527
100003.8583
100003.8687
100003.8601
100003.8513
100003.836
100003.8288
100003.8297
100003.8389
100003.8547
100003.8751
100003.8868
100003.9452
100003.9556
100003.9865
100003.9898
100004.0032
100004.1813
100003.9957
100004.0165
100003.9727
100003.9664
100003.9123
100003.8708
100003.8228
100003.8163
100003.8317
100003.8411
100003.8717
100003.9239
100004.0231
100003.9824
100003.7772
100004.1276
100004.0243
100003.9307
100003.9099
100003.8767
100003.8525
100003.8465
100003.8543
100003.8729
100003.9041
100003.9492
100003.9789
100004.2725
100004.0554
100004.1341
100004.1186
100004.1638
100004.578
100004.0295
100004.1048
100004.0167
100004.0898
100003.9299
100003.8919
100003.8071
100003.8037
100003.8218
100003.8362
100003.8687
100003.8995
100003.9278
100003.8801
100003.7168
100003.919
100003.8463
100003.8858
100003.8858
100003.8687
100003.8618
100003.8675
100003.8837
100003.9112
100003.9503
100003.9996
100004.0628
100004.1977
100004.118
100004.1559
100004.1748
100004.2239
100004.7632
100004.0126
100004.158
100004.0003
100004.0471
100003.9307
100003.9311
100003.8105
100003.8104
100003.8222
100003.8249
100003.8396
100003.8597
100003.8761
100003.9183
100003.8514
100003.9054
100003.8846
100003.9062
100003.8947
100003.8804
100003.8847
100003.901
100003.922
100003.9629
100004.0322
100004.1334
100004.2785
100004.6432
100004.2904
100004.3029
100004.4268
100004.1575
100004.3083
100004.1018
100004.3538
100004.167
100005.7914
100004.0806
100004.1513
100003.8277
100003.8224
100003.8243
100003.8187
100003.8239
100003.8315
100003.8363
100003.8648
100003.8027
100003.8615
100003.8606
100003.8721
100003.8678
100003.8691
100003.8906
100003.9171
100003.9494
100003.9976
100004.07
100004.1623
100004.2591
100004.7685
100004.2503
100004.3128
100004.2015
100004.1372
100004.1684
100004.0728
100004.0457
100003.985
100004.0254
100003.9705
100003.9901
100003.8487
100003.8344
100003.8272
100003.8187
100003.8212
100003.8261
100003.8308
100003.8431
100003.8227
100003.8421
100003.8528
100003.864
100003.8661
100003.8701
100003.8895
100003.9273
100003.9925
100004.1017
100004.3008
100004.6646
100005.0389
100007.9101
100004.5818
100004.9129
100004.3554
100004.2532
100004.5275
100004.137
100004.1803
100004.0955
100004.2322
100004.0345
100004.0127
100003.8661
100003.8418
100003.8281
100003.8183
100003.8189
100003.8219
100003.8242
100003.8247
100003.8154
100003.8254
100003.847
100003.8588
100003.86
100003.8672
100003.8862
100003.9176
100003.961
100004.024
100004.1264
100004.2679
100004.4394
100005.0644
100004.3797
100004.4119
100004.2297
100004.1806
100004.1564
100004.0741
100004.0241
100003.9783
100003.957
100003.9534
100003.9722
100003.8767
100003.8422
100003.8271
100003.8176
100003.8184
100003.8208
100003.8206
100003.8169
100003.8073
100003.8153
100003.8364
100003.8459
100003.8471
100003.8574
100003.879
100003.9115
100003.9593
100004.0299
100004.1253
100004.2505
100004.4024
100004.7204
100004.3167
100004.3096
100004.2046
100004.1652
100004.15
100004.0801
100004.0393
100004.0038
100003.9867
100003.9676
100003.9728
100003.8821
100003.8393
100003.8256
100003.8169
100003.8179
100003.8187
100003.8155
100003.8083
100003.801
100003.8118
100003.8286
100003.8349
100003.8372
100003.8497
100003.8722
100003.9
100003.9356
100003.986
100004.0545
100004.1384
100004.2324
100004.3425
100004.2277
100004.1992
100004.1603
100004.1345
100004.1009
100004.0584
100004.0192
100003.9879
100003.968
100003.958
100003.9611
100003.8853
100003.8364
100003.8233
100003.8135
100003.8128
100003.8115
100003.8064
100003.7984
100003.7956
100003.8083
100003.8201
100003.8223
100003.8264
100003.8416
100003.8665
100003.898
100003.9323
100003.9662
100004.0146
100004.0753
100004.1385
100004.1733
100004.1334
100004.1317
100004.1193
100004.1038
100004.0774
100004.0477
100004.0158
100003.9893
100003.9705
100003.9605
100003.9599
100003.8861
100003.8335
100003.8194
100003.8067
100003.803
100003.7995
100003.794
100003.788
100003.7914
100003.804
100003.8118
100003.8128
100003.8195
100003.8339
100003.8534
100003.8791
100003.9098
100003.9429
100003.9839
100004.0302
100004.0685
100004.0729
100004.0729
100004.0902
100004.0871
100004.0783
100004.066
100004.054
100004.0242
100003.9981
100003.9783
100003.9664
100003.9639
100003.8841
100003.8307
100003.8156
100003.7998
100003.7941
100003.7896
100003.7855
100003.7843
100003.7907
100003.799
100003.8027
100003.8046
100003.8132
100003.832
100003.8567
100003.8917
100003.9484
100003.9281
100003.9507
100003.9795
100004.0077
100004.0059
100004.0207
100004.0456
100004.0454
100004.0356
100004.0249
100004.0151
100004.0004
100003.9883
100003.9756
100003.9639
100003.9517
100003.8803
100003.8285
100003.8134
100003.7964
100003.7894
100003.7852
100003.7831
100003.7841
100003.7871
100003.7869
100003.7829
100003.7822
100003.7976
100003.8232
100003.8427
100003.8604
100003.8889
100003.8954
100003.915
100003.9404
100003.9647
100003.9655
100003.9768
100003.9984
100004.0012
100003.9899
100003.9828
100003.9798
100003.9764
100003.9779
100003.9869
100004.0017
100004.0167
100003.8758
100003.8283
100003.8141
100003.7975
100003.7901
100003.787
100003.7876
100003.7896
100003.786
100003.7753
100003.7673
100003.7879
100003.8311
100003.8576
100003.8478
100003.8477
100003.8688
100003.877
100003.8877
100003.9054
100003.9265
100003.9217
100003.9423
100003.9594
100003.9585
100003.9467
100003.9444
100003.9487
100003.9513
100003.9499
100003.9428
100003.9334
100003.9088
100003.8719
100003.8305
100003.8176
100003.802
100003.7947
100003.7918
100003.7925
100003.7911
100003.7816
100003.7687
100003.7747
100003.8147
100003.8574
100003.8751
100003.837
100003.8276
100003.8497
100003.8645
100003.8781
100003.8958
100003.9104
100003.8954
100003.9157
100003.9243
100003.9163
100003.9136
100003.9223
100003.936
100003.9485
100003.9612
100003.9852
100004.0391
100004.1095
100003.8702
100003.8356
100003.8239
100003.8091
100003.8014
100003.7975
100003.7964
100003.7922
100003.7805
100003.766
100003.7689
100003.7994
100003.835
100003.8575
100003.8197
100003.8387
100003.8548
100003.8543
100003.8592
100003.8691
100003.8754
100003.8802
100003.8901
100003.8953
100003.8919
100003.8938
100003.9058
100003.9191
100003.9312
100003.9416
100003.952
100003.9795
100003.9777
100003.872
100003.8439
100003.8328
100003.8186
100003.8106
100003.8062
100003.804
100003.797
100003.7831
100003.7709
100003.773
100003.7937
100003.8229
100003.8396
100003.8221
100003.8232
100003.8263
100003.8029
100003.8072
100003.8405
100003.8469
100003.8446
100003.8539
100003.8765
100003.8713
100003.8725
100003.8816
100003.8945
100003.9077
100003.9205
100003.9349
100003.9622
100003.9565
100003.8777
100003.8544
100003.8436
100003.8298
100003.821
100003.8155
100003.8119
100003.8041
100003.7877
100003.7705
100003.768
100003.7882
100003.8251
100003.848
100003.837
100003.8311
100003.8191
100003.7896
100003.8439
100003.9499
100003.9297
100003.8126
100003.8286
100003.8766
100003.8825
100003.8658
100003.8636
100003.8696
100003.8806
100003.895
100003.9141
100003.94
100003.9498
100003.8865
100003.8662
100003.8557
100003.842
100003.8326
100003.8261
100003.8216
100003.8124
100003.7933
100003.7703
100003.7607
100003.7857
100003.8341
100003.8637
100003.8366
100003.8361
100003.8427
100003.8358
100003.8845
100003.9978
100003.9648
100003.8313
100003.8402
100003.8663
100003.8712
100003.8564
100003.8505
100003.849
100003.8548
100003.8679
100003.8914
100003.9278
100003.9678
100003.8977
100003.8788
100003.8677
100003.8529
100003.8422
100003.8344
100003.8295
100003.821
100003.8028
100003.7775
100003.7617
100003.7829
100003.831
100003.8602
100003.8297
100003.8317
100003.8434
100003.8269
100003.8267
100003.8898
100003.8594
100003.8095
100003.8414
100003.856
100003.8573
100003.8508
100003.8452
100003.8389
100003.8374
100003.8422
100003.8656
100003.9146
100003.9807
100003.9105
100003.8919
100003.8805
100003.8649
100003.8532
100003.844
100003.8385
100003.8297
100003.8144
100003.7929
100003.7734
100003.7731
100003.799
100003.8216
100003.8113
100003.8147
100003.8278
100003.8252
100003.8173
100003.8286
100003.8064
100003.8126
100003.8384
100003.8406
100003.8481
100003.8492
100003.8475
100003.8399
100003.832
100003.8281
100003.8406
100003.8908
100003.9693
100003.9239
100003.9029
100003.89
100003.8736
100003.8613
100003.8514
100003.8425
100003.8328
100003.8216
100003.8074
100003.7924
100003.7834
100003.7876
100003.8002
100003.8034
100003.809
100003.8185
100003.8239
100003.8279
100003.8248
100003.8173
100003.8177
100003.8348
100003.8358
100003.8455
100003.8528
100003.8573
100003.8524
100003.8416
100003.8319
100003.8329
100003.8695
100003.9455
100003.9282
100003.91
100003.8988
100003.8841
100003.8742
100003.8602
100003.8475
100003.8363
100003.8269
100003.8174
100003.8088
100003.8039
100003.8026
100003.802
100003.8044
100003.8094
100003.8162
100003.8226
100003.8315
100003.8328
100003.8382
100003.8258
100003.8373
100003.8366
100003.8472
100003.8581
100003.8682
100003.8691
100003.8602
100003.8502
100003.8481
100003.87
100003.9319
100003.9497
100003.9185
100003.9115
100003.8976
100003.8848
100003.8709
100003.8565
100003.843
100003.8302
100003.8202
100003.8151
100003.8146
100003.815
100003.8129
100003.8129
100003.8165
100003.8214
100003.8268
100003.8343
100003.8382
100003.8501
100003.8368
100003.8472
100003.8463
100003.8557
100003.872
100003.8851
100003.8903
100003.886
100003.8815
100003.8839
100003.9024
100003.947
100003.9372
100003.9286
100003.927
100003.9127
100003.897
100003.8789
100003.8625
100003.8489
100003.8322
100003.8222
100003.8209
100003.8243
100003.8252
100003.8236
100003.8235
100003.8247
100003.8281
100003.832
100003.8369
100003.8405
100003.8465
100003.8372
100003.8437
100003.8425
100003.8601
100003.8777
100003.8916
100003.8951
100003.8921
100003.893
100003.9027
100003.925
100003.9624
100003.9663
100003.9525
100003.9486
100003.9306
100003.9061
100003.8807
100003.8587
100003.8406
100003.8286
100003.8234
100003.826
100003.834
100003.8423
100003.8491
100003.8495
100003.8493
100003.8522
100003.8556
100003.8597
100003.8631
100003.8664
100003.8576
100003.8611
100003.8634
100003.8808
100003.9038
100003.9187
100003.9247
100003.9299
100003.9479
100003.9777
100004.0167
100004.0612
100003.6837
100003.65
100003.635
100003.6195
100003.6204
100003.622
100003.6162
100003.6008
100003.5917
100003.5927
100003.5942
100003.5945
100003.5987
100003.6002
100003.6062
100003.6143
100003.6283
100003.6472
100003.6522
100003.6544
100003.654
100003.6803
100003.6753
100003.7044
100003.7168
100003.7507
100003.7298
100003.772
100003.7005
100003.6636
100003.6468
100003.6286
100003.6253
100003.6221
100003.6244
100003.6335
100003.5725
100003.5901
100003.5977
100003.6038
100003.613
100003.6136
100003.62
100003.6284
100003.6403
100003.6564
100003.6651
100003.6848
100003.6752
100003.8345
100003.6987
100003.7413
100003.7402
100003.8424
100003.8569
100004.3384
100004.0991
100003.9432
100003.7968
100003.7485
100003.6935
100003.6607
100003.6446
100003.6242
100003.6092
100003.537
100003.4848
100003.4965
100003.4973
100003.5361
100003.566
100003.5951
100003.6137
100003.6207
100003.6332
100003.645
100003.6545
100003.6623
100003.6642
100003.6695
100003.679
100003.7864
100003.7177
100003.7269
100003.73
100003.7534
100003.7483
100003.8121
100003.7992
100003.7843
100003.7573
100003.7391
100003.6817
100003.6553
100003.6459
100003.6393
100003.6395
100003.6108
100003.5382
100003.4881
100003.4144
100003.5101
100003.5438
100003.6197
100003.6526
100003.658
100003.6644
100003.6666
100003.6693
100003.6733
100003.6764
100003.6821
100003.6789
100003.6678
100003.7367
100003.7426
100003.7298
100003.7223
100003.6906
100003.8421
100003.8194
100003.8047
100003.776
100003.7512
100003.7075
100003.6664
100003.6415
100003.6304
100003.5843
100003.541
100003.1075
100002.8235
100003.2948
100003.5096
100003.4973
100003.6013
100003.6283
100003.6813
100003.6871
100003.6826
100003.6792
100003.6823
100003.6892
100003.6963
100003.7052
100003.7102
100003.7291
100003.7587
100003.7619
100003.724
100003.7131
100003.6995
100003.7411
100003.778
100003.7684
100003.7614
100003.73
100003.6962
100003.6599
100003.6375
100003.6405
100003.6429
100003.6425
100003.5042
100003.6273
100003.0466
100003.3914
100003.5359
100003.6167
100003.6887
100003.7222
100003.7081
100003.6942
100003.693
100003.7005
100003.7143
100003.7269
100003.7389
100003.7455
100003.7914
100003.8267
100003.8518
100003.7615
100003.7612
100003.5417
100003.7165
100003.7776
100003.7889
100003.7785
100003.7167
100003.6973
100003.6566
100003.6332
100003.6485
100003.6401
100003.624
100003.4832
100003.4806
100003.321
100003.5616
100003.5982
100003.6394
100003.6772
100003.7144
100003.7032
100003.7043
100003.7103
100003.7223
100003.7453
100003.7686
100003.7946
100003.8272
100003.9279
100003.8589
100003.8941
100003.7734
100003.7959
100003.4424
100003.6972
100003.7456
100003.716
100003.5851
100003.6706
100003.6872
100003.6556
100003.6476
100003.6701
100003.6622
100003.6563
100003.643
100003.6601
100003.5914
100003.6396
100003.6818
100003.6965
100003.7276
100003.7304
100003.7186
100003.7228
100003.7309
100003.7495
100003.7843
100003.8347
100003.9056
100003.9943
100004.2747
100003.9591
100004.0094
100003.7666
100003.8478
100003.7945
100003.8265
100003.8855
100003.7765
100003.8304
100003.742
100003.7985
100003.6672
100003.6734
100003.6822
100003.6701
100003.6591
100003.6399
100003.6387
100003.5904
100003.6336
100003.6608
100003.69
100003.7114
100003.7153
100003.7217
100003.7312
100003.7449
100003.77
100003.8072
100003.845
100003.8812
100003.8721
100003.9164
100003.9108
100003.9826
100003.8819
100003.8743
100003.8087
100003.8297
100003.8259
100003.78
100003.8848
100003.7603
100003.7471
100003.6943
100003.6952
100003.6899
100003.6788
100003.6728
100003.6675
100003.6665
100003.662
100003.6691
100003.6853
100003.7042
100003.7243
100003.7244
100003.7249
100003.7407
100003.7683
100003.8185
100003.9095
100004.0804
100004.435
100004.7419
100008.8603
100004.271
100004.6123
100003.9827
100003.9972
100003.7379
100003.9107
100003.908
100003.8435
100003.8778
100003.788
100003.7778
100003.7225
100003.7058
100003.692
100003.6815
100003.6781
100003.6759
100003.6733
100003.6678
100003.6662
100003.6759
100003.7011
100003.7236
100003.7256
100003.7302
100003.7447
100003.7696
100003.8048
100003.8565
100003.9349
100004.0577
100004.1726
100005.0506
100004.0817
100004.17
100004.0152
100003.983
100003.9117
100003.8841
100003.846
100003.8092
100003.7926
100003.7635
100003.7517
100003.7368
100003.7039
100003.688
100003.677
100003.6729
100003.6699
100003.6662
100003.6612
100003.6587
100003.6677
100003.6947
100003.7095
100003.7104
100003.7203
100003.7388
100003.7661
100003.8081
100003.8645
100003.9438
100004.0481
100004.1598
100004.5351
100004.064
100004.0993
100004.0145
100003.988
100003.9516
100003.9138
100003.8771
100003.8399
100003.8165
100003.7871
100003.771
100003.7399
100003.6986
100003.6838
100003.6723
100003.6675
100003.6638
100003.6591
100003.6541
100003.6521
100003.664
100003.6868
100003.6953
100003.6977
100003.7088
100003.726
100003.7497
100003.7829
100003.8285
100003.8891
100003.9595
100004.0336
100004.1582
100004.0395
100004.0204
100004.0007
100003.9844
100003.9528
100003.9181
100003.8735
100003.8359
100003.8089
100003.7884
100003.7752
100003.7396
100003.6938
100003.6802
100003.6676
100003.6618
100003.6571
100003.6519
100003.647
100003.6463
100003.661
100003.6787
100003.6815
100003.6853
100003.6995
100003.7212
100003.7501
100003.784
100003.8066
100003.8428
100003.8872
100003.9358
100003.9818
100003.9644
100003.9659
100003.9759
100003.9692
100003.9451
100003.9165
100003.8783
100003.8461
100003.8215
100003.8031
100003.7892
100003.7379
100003.6898
100003.677
100003.663
100003.6561
100003.6505
100003.6452
100003.6412
100003.6431
100003.66
100003.6736
100003.6745
100003.6783
100003.6903
100003.7083
100003.7303
100003.7541
100003.7829
100003.8146
100003.8459
100003.874
100003.8937
100003.9125
100003.9404
100003.9613
100003.964
100003.9622
100003.9718
100003.9137
100003.8709
100003.8368
100003.8141
100003.7971
100003.7347
100003.6865
100003.6742
100003.6598
100003.6524
100003.6466
100003.6415
100003.6381
100003.6436
100003.6576
100003.6614
100003.6571
100003.6649
100003.6865
100003.7184
100003.7665
100003.9018
100003.7751
100003.7992
100003.8116
100003.8287
100003.8398
100003.867
100003.9057
100003.9205
100003.9139
100003.9041
100003.8969
100003.8704
100003.8516
100003.832
100003.812
100003.7891
100003.7311
100003.6848
100003.6731
100003.659
100003.6519
100003.6458
100003.6408
100003.6385
100003.641
100003.642
100003.6337
100003.629
100003.6416
100003.6623
100003.6885
100003.7189
100003.7619
100003.7475
100003.7617
100003.7756
100003.79
100003.8013
100003.8161
100003.8622
100003.8705
100003.8591
100003.8512
100003.8493
100003.8373
100003.8286
100003.8201
100003.8109
100003.7904
100003.7289
100003.6861
100003.6748
100003.6609
100003.6544
100003.6482
100003.6439
100003.639
100003.6272
100003.6115
100003.6091
100003.6179
100003.63
100003.6446
100003.6587
100003.684
100003.7257
100003.7252
100003.7303
100003.7406
100003.754
100003.7634
100003.7825
100003.8226
100003.8207
100003.8085
100003.8043
100003.8058
100003.8022
100003.7966
100003.787
100003.7742
100003.7613
100003.73
100003.6918
100003.6807
100003.6665
100003.6601
100003.6543
100003.6487
100003.6381
100003.6177
100003.6055
100003.6147
100003.6231
100003.6335
100003.6414
100003.6386
100003.6509
100003.6975
100003.7137
100003.7156
100003.7205
100003.7283
100003.7275
100003.766
100003.7829
100003.7715
100003.7651
100003.7663
100003.7723
100003.7755
100003.7745
100003.7659
100003.7416
100003.7236
100003.7348
100003.702
100003.6908
100003.6763
100003.6689
100003.6623
100003.6555
100003.6425
100003.619
100003.6041
100003.6108
100003.6184
100003.6277
100003.6336
100003.6223
100003.6462
100003.6979
100003.6998
100003.689
100003.6877
100003.6982
100003.718
100003.7429
100003.7464
100003.7393
100003.739
100003.743
100003.7507
100003.7557
100003.757
100003.7537
100003.7432
100003.7082
100003.7422
100003.7144
100003.7031
100003.6883
100003.6796
100003.6717
100003.6636
100003.648
100003.6214
100003.6057
100003.6082
100003.6141
100003.6242
100003.6312
100003.6241
100003.6597
100003.6677
100003.6344
100003.6231
100003.6253
100003.6422
100003.6893
100003.7109
100003.7267
100003.7201
100003.7199
100003.7242
100003.731
100003.7366
100003.7406
100003.7423
100003.7376
100003.6979
100003.7508
100003.7271
100003.7158
100003.701
100003.6912
100003.6828
100003.6748
100003.6614
100003.6348
100003.6071
100003.5999
100003.608
100003.6185
100003.6226
100003.6135
100003.6154
100003.5922
100003.5724
100003.5869
100003.5968
100003.5952
100003.6228
100003.6286
100003.7039
100003.7177
100003.7105
100003.7117
100003.7147
100003.7185
100003.7231
100003.7279
100003.7276
100003.7048
100003.7601
100003.7396
100003.7282
100003.7133
100003.7027
100003.6932
100003.6844
100003.6705
100003.6403
100003.6053
100003.5948
100003.6034
100003.6135
100003.6192
100003.6133
100003.6284
100003.6272
100003.6013
100003.6104
100003.6216
100003.6076
100003.6189
100003.6258
100003.6935
100003.7165
100003.7091
100003.7048
100003.7027
100003.7013
100003.7012
100003.7025
100003.7036
100003.6982
100003.7703
100003.7516
100003.7392
100003.7234
100003.7117
100003.701
100003.6922
100003.6793
100003.6479
100003.6092
100003.5966
100003.6054
100003.6149
100003.622
100003.6188
100003.6396
100003.646
100003.6059
100003.6033
100003.6163
100003.5989
100003.6218
100003.6561
100003.7032
100003.7163
100003.7124
100003.7042
100003.6944
100003.684
100003.6782
100003.676
100003.683
100003.6946
100003.7813
100003.7631
100003.7488
100003.7316
100003.7199
100003.7096
100003.7012
100003.6907
100003.6639
100003.6254
100003.6007
100003.6024
100003.6139
100003.6229
100003.6288
100003.6546
100003.6642
100003.6423
100003.6154
100003.6165
100003.597
100003.6452
100003.6816
100003.7019
100003.714
100003.7169
100003.7105
100003.6953
100003.6756
100003.6588
100003.6575
100003.6687
100003.6907
100003.7915
100003.7716
100003.7554
100003.7406
100003.73
100003.7202
100003.7104
100003.6987
100003.6809
100003.6537
100003.6242
100003.6115
100003.619
100003.6286
100003.6407
100003.6629
100003.672
100003.6665
100003.6483
100003.6316
100003.6145
100003.6689
100003.6919
100003.7019
100003.7139
100003.723
100003.725
100003.7113
100003.6841
100003.655
100003.6488
100003.6639
100003.6896
100003.7923
100003.7722
100003.7612
100003.7486
100003.7365
100003.7224
100003.7076
100003.6977
100003.6881
100003.6734
100003.6537
100003.6378
100003.6336
100003.6417
100003.6548
100003.6701
100003.6779
100003.6804
100003.6776
100003.6678
100003.6597
100003.6861
100003.6995
100003.7056
100003.717
100003.7292
100003.7393
100003.7349
100003.7099
100003.6736
100003.6561
100003.6669
100003.698
100003.7924
100003.7729
100003.7723
100003.7563
100003.7523
100003.7374
100003.7215
100003.7092
100003.697
100003.6838
100003.6717
100003.6624
100003.6576
100003.6601
100003.6717
100003.682
100003.6879
100003.6913
100003.6936
100003.6932
100003.6938
100003.6989
100003.7046
100003.704
100003.7255
100003.7432
100003.7598
100003.7631
100003.7463
100003.7161
100003.6941
100003.697
100003.7267
100003.7908
100003.778
100003.7838
100003.767
100003.7575
100003.7389
100003.7239
100003.7057
100003.6911
100003.6815
100003.6758
100003.673
100003.6734
100003.6785
100003.6873
100003.6937
100003.6978
100003.7005
100003.7025
100003.7036
100003.7048
100003.7048
100003.7081
100003.7083
100003.7316
100003.7498
100003.7682
100003.768
100003.7511
100003.7284
100003.7132
100003.7149
100003.7407
100003.8099
100003.8133
100003.8121
100003.7903
100003.7649
100003.7377
100003.7173
100003.7017
100003.6903
100003.6842
100003.6826
100003.686
100003.6926
100003.7046
100003.7137
100003.7183
100003.7216
100003.7242
100003.7261
100003.7272
100003.7276
100003.726
100003.7292
100003.7348
100003.7524
100003.7749
100003.7978
100003.8009
100003.7865
100003.7732
100003.7705
100003.7835
100003.8168
100003.5566
100003.5232
100003.5133
100003.5041
100003.5034
100003.5019
100003.4972
100003.4894
100003.463
100003.464
100003.4607
100003.4622
100003.4668
100003.4728
100003.4804
100003.4893
100003.4995
100003.5101
100003.5171
100003.5246
100003.5273
100003.5195
100003.5532
100003.5707
100003.5733
100003.5864
100003.5778
100003.5857
100003.5652
100003.5714
100003.5367
100003.5278
100003.5211
100003.5242
100003.5255
100003.5205
100003.5219
100003.4468
100003.4777
100003.4721
100003.4762
100003.4818
100003.4864
100003.4935
100003.501
100003.5089
100003.5165
100003.5207
100003.5356
100003.5285
100003.5447
100003.5734
100003.599
100003.6036
100003.6747
100003.7194
100003.9313
100004.0993
100003.8355
100003.6864
100003.6294
100003.571
100003.5413
100003.5359
100003.5327
100003.5379
100003.5347
100003.5322
100003.5759
100003.4652
100003.5033
100003.4814
100003.4888
100003.4951
100003.5007
100003.5077
100003.514
100003.5186
100003.5213
100003.5237
100003.5312
100003.5401
100003.5722
100003.5886
100003.5952
100003.5917
100003.612
100003.5992
100003.7437
100003.6394
100003.624
100003.6001
100003.5917
100003.5663
100003.5449
100003.5469
100003.5525
100003.5637
100003.5493
100003.4814
100003.4369
100003.3343
100003.4462
100003.4621
100003.5033
100003.5142
100003.5214
100003.527
100003.5292
100003.53
100003.5305
100003.5338
100003.5433
100003.5593
100003.5973
100003.6112
100003.6244
100003.6039
100003.63
100003.5765
100003.7087
100003.7017
100003.6766
100003.6282
100003.6118
100003.5708
100003.5554
100003.5481
100003.558
100003.5699
100003.6203
100003.65
100003.4735
100003.9294
100003.6037
100003.7059
100003.5877
100003.5552
100003.5493
100003.5489
100003.5477
100003.5452
100003.5436
100003.544
100003.5477
100003.5557
100003.5681
100003.5865
100003.6241
100003.6546
100003.6159
100003.6182
100003.4049
100003.6314
100003.5969
100003.6181
100003.5794
100003.5888
100003.557
100003.5531
100003.5457
100003.5523
100003.5596
100003.5576
100003.5209
100003.5313
100003.607
100003.3501
100003.5814
100003.6708
100003.5835
100003.5861
100003.577
100003.5683
100003.5632
100003.5618
100003.5631
100003.5657
100003.5707
100003.5712
100003.5295
100003.678
100003.9315
100003.7342
100003.6738
100003.5828
100003.6703
100003.6109
100003.631
100003.4759
100003.5792
100003.5418
100003.5538
100003.5454
100003.5489
100003.5559
100003.5827
100003.5804
100003.6146
100003.6708
100003.6199
100003.6895
100003.616
100003.6013
100003.6005
100003.594
100003.5856
100003.5818
100003.5837
100003.5872
100003.5877
100003.5834
100003.5717
100003.5502
100003.6285
100003.734
100003.6527
100003.6847
100003.5114
100003.6451
100003.5914
100003.6244
100003.5071
100003.6011
100003.5179
100003.5618
100003.5488
100003.5534
100003.5579
100003.5715
100003.5787
100003.5886
100003.5941
100003.5761
100003.6147
100003.6077
100003.6104
100003.6139
100003.6095
100003.5989
100003.5983
100003.6035
100003.6132
100003.6184
100003.6133
100003.5931
100003.4908
100003.6105
100003.738
100003.6435
100003.7204
100003.6688
100003.6988
100003.4951
100003.5553
100002.0507
100003.5651
100003.4129
100003.5692
100003.5552
100003.556
100003.5551
100003.5601
100003.5599
100003.568
100003.5737
100003.5782
100003.5941
100003.5978
100003.6076
100003.6156
100003.6189
100003.6137
100003.6117
100003.6151
100003.6118
100003.5912
100003.5255
100003.4346
100002.4667
100003.5157
100003.6293
100003.6814
100003.7348
100003.7176
100003.707
100003.6758
100003.6608
100003.6487
100003.6399
100003.5767
100003.5761
100003.5619
100003.5581
100003.5552
100003.5572
100003.5593
100003.5629
100003.5662
100003.5665
100003.573
100003.5821
100003.5918
100003.5968
100003.6015
100003.609
100003.6224
100003.6429
100003.6568
100003.6517
100003.5408
100003.3883
100001.9493
100003.2699
100003.6926
100003.7089
100003.8322
100003.9336
100003.858
100003.7622
100003.6823
100003.5048
100003.6398
100003.6045
100003.5828
100003.5654
100003.5577
100003.5523
100003.5504
100003.5496
100003.5493
100003.5487
100003.5502
100003.5578
100003.5723
100003.5881
100003.596
100003.6028
100003.6115
100003.6235
100003.6421
100003.6687
100003.7084
100003.7555
100003.7938
100004.1856
100003.8015
100003.8756
100003.8667
100003.8303
100003.8002
100003.7669
100003.7267
100003.6874
100003.6542
100003.6372
100003.6187
100003.5874
100003.5645
100003.5557
100003.5482
100003.5449
100003.5431
100003.5419
100003.5413
100003.543
100003.5503
100003.5626
100003.5734
100003.5796
100003.5892
100003.6024
100003.621
100003.6477
100003.6836
100003.7286
100003.7676
100003.7751
100003.808
100003.741
100003.8565
100003.8226
100003.8274
100003.8106
100003.7885
100003.7463
100003.7063
100003.671
100003.6513
100003.6349
100003.5885
100003.5617
100003.5532
100003.5445
100003.5403
100003.5376
100003.5355
100003.5343
100003.5362
100003.5437
100003.5557
100003.5651
100003.5726
100003.582
100003.5947
100003.6114
100003.6349
100003.6722
100003.7192
100003.7696
100003.8191
100003.9031
100003.8973
100003.8905
100003.8706
100003.8539
100003.8358
100003.8251
100003.7636
100003.7192
100003.6833
100003.6601
100003.6451
100003.5878
100003.5586
100003.5504
100003.541
100003.5361
100003.5328
100003.5303
100003.529
100003.5314
100003.5384
100003.5481
100003.5551
100003.5629
100003.5745
100003.5899
100003.6079
100003.6261
100003.6588
100003.6987
100003.7395
100003.7791
100003.822
100003.8368
100003.8444
100003.8388
100003.8291
100003.8091
100003.8
100003.7544
100003.7241
100003.6941
100003.6728
100003.6586
100003.5858
100003.5558
100003.5479
100003.538
100003.5328
100003.5292
100003.5266
100003.5255
100003.5278
100003.5345
100003.5421
100003.547
100003.5533
100003.5635
100003.5762
100003.5881
100003.577
100003.6347
100003.6771
100003.7133
100003.7449
100003.7776
100003.8089
100003.8296
100003.8443
100003.8644
100003.8882
100004.0054
100003.8404
100003.7822
100003.7256
100003.6914
100003.672
100003.5829
100003.5538
100003.5465
100003.5364
100003.5314
100003.5277
100003.5252
100003.5248
100003.5264
100003.5324