/*--------------------------------*- C++ -*----------------------------------*\
  =========                 |
  \\      /  F ield         | OpenFOAM: The Open Source CFD Toolbox
   \\    /   O peration     | Website:  https://openfoam.org
    \\  /    A nd           | Version:  8
     \\/     M anipulation  |
\*---------------------------------------------------------------------------*/
FoamFile
{
    version     2.0;
    format      ascii;
    class       volScalarField;
    location    "0.7/wallFilmRegion";
    object      delta;
}
// * * * * * * * * * * * * * * * * * * * * * * * * * * * * * * * * * * * * * //

dimensions      [0 1 0 0 0 0 0];

internalField   nonuniform List<scalar> 
1342
(
7.198716969e-06
1.204332759e-05
7.770811459e-06
1.779895013e-05
3.072284048e-05
0.001835456351
0.003043345426
1.011603241e-05
1.074438665e-05
1.294107135e-05
1.339649942e-05
1.465435537e-05
1.467748371e-05
1.32605318e-05
1.122703629e-05
7.765884666e-06
1.050165543e-05
1.716802945e-05
2.081266646e-07
2.520259218e-07
2.987306109e-07
1.821978575e-06
8.754390597e-06
7.131462556e-05
0.0001371030711
2.503750483e-06
1.768195474e-06
1.542280497e-06
2.344370101e-06
3.907875522e-06
5.327458827e-06
6.023024216e-06
6.041585207e-06
4.759819358e-06
5.380999466e-06
6.349890923e-06
6.21905686e-08
1.208194756e-07
1.678293385e-07
1.95964999e-07
4.701277803e-06
1.819049045e-05
1.117843384e-05
6.119697275e-07
6.812682309e-07
1.489193398e-06
2.408113129e-06
3.410709729e-06
4.327637387e-06
4.691931142e-06
5.134646896e-06
7.592682493e-06
4.276476786e-06
2.257864631e-06
1.1319589e-06
5.357156085e-07
2.345011731e-07
9.20608786e-08
3.127169201e-08
1.5240036e-08
2.474802708e-08
2.931339228e-05
2.626249787e-05
4.154971392e-06
3.293371661e-06
1.895125165e-06
1.01554481e-06
5.037171728e-07
2.321403192e-07
1.004814429e-07
4.156513595e-08
1.625416095e-08
5.07650926e-09
6.996842159e-09
9.044528557e-06
3.192024818e-06
3.302345422e-06
1.87233868e-06
9.739423092e-07
4.632139071e-07
2.09596302e-07
9.826787474e-08
5.224971916e-08
2.995287247e-08
8.319729064e-08
1.568134337e-08
8.900330963e-07
4.796524263e-06
2.687409802e-06
1.073972992e-07
4.162503584e-08
9.164562553e-08
1.718424308e-07
2.902078482e-07
4.536997389e-07
6.669119278e-07
9.36851091e-07
1.34497956e-06
4.396942894e-07
6.073001444e-06
3.597234139e-07
4.393870907e-07
7.395484441e-07
9.533237168e-07
1.151283285e-05
1.133355563e-05
4.008483423e-07
7.191119048e-07
2.13881089e-05
1.582431314e-06
3.331535287e-06
2.988404977e-05
6.915517303e-06
8.896993678e-06
2.723662009e-05
9.343133359e-06
8.715798053e-06
2.560182349e-05
8.278889558e-06
8.629674832e-06
1.766552227e-05
9.431247903e-06
9.896858232e-06
2.556296979e-05
1.165777713e-05
1.316577347e-05
2.915178243e-05
1.44630713e-05
1.562642211e-05
3.101402414e-05
1.665788015e-05
1.749385456e-05
3.167982829e-05
1.798113262e-05
1.721769239e-05
5.181360519e-05
1.602966024e-05
1.686307203e-05
0.0003492221945
3.579251368e-05
8.376161782e-05
2.19895921e-06
1.066409465e-06
1.567022336e-06
2.350693108e-06
1.84112975e-06
1.447959331e-06
3.282997868e-06
1.08444266e-06
2.165083707e-06
3.525460917e-06
3.377719321e-07
1.571894784e-08
5.646409396e-06
8.417930662e-08
3.331728373e-07
7.879797644e-06
6.489500369e-07
1.024136265e-06
1.067165927e-05
1.457699038e-06
1.667669693e-06
1.233585344e-05
1.947283704e-06
2.508560888e-06
1.250997144e-05
2.350671392e-06
2.906089861e-06
7.126139995e-06
2.699036723e-06
7.46682377e-07
1.632454029e-05
1.5035247e-06
1.127040767e-06
8.462930111e-05
6.66839252e-06
1.832202364e-05
0.0007537476215
0.0001016094814
0.0004255521194
1.654275759e-06
3.777049545e-06
3.003051976e-06
1.617557229e-06
2.821211316e-06
2.424216909e-06
2.102188272e-06
2.292407111e-06
2.83681169e-06
1.116700978e-06
3.756204968e-06
4.742282035e-06
1.384040774e-12
2.846224386e-06
1.8591023e-08
1.147021455e-10
3.244783706e-16
8.983949677e-25
6.961571063e-10
2.1867742e-19
7.399481882e-19
2.852142283e-09
2.673519655e-18
2.42672384e-17
4.180616542e-09
1.039151659e-17
4.908676205e-17
3.421709109e-11
2.533699173e-17
9.774369836e-27
7.58146653e-09
3.598247955e-16
2.118925473e-22
3.218114658e-06
1.067600611e-07
5.10674904e-07
0.0001984749879
4.286541419e-06
7.486673773e-05
8.615488507e-06
5.622150631e-05
2.662058034e-05
4.363423167e-06
1.818788656e-05
9.615380792e-06
4.273660601e-06
6.914916688e-06
6.830328671e-06
6.156169296e-06
7.383517274e-06
8.180868483e-06
4.228325428e-06
9.034254952e-06
9.845946133e-06
6.567342346e-15
4.562600275e-06
4.303210004e-08
7.851412214e-34
4.736806642e-15
1.361804006e-24
1.828116052e-52
4.313348343e-34
1.521560763e-43
1.809379196e-27
4.357745284e-39
1.757458958e-37
8.51972558e-37
1.25725234e-37
1.596392986e-46
2.909458049e-31
2.341785216e-37
5.523476085e-40
6.683000953e-08
2.719959224e-13
1.78576607e-10
2.0530263e-05
1.396592622e-07
3.427970484e-06
0.002560572818
0.0002468360276
0.002963116476
7.040045229e-05
0.0001962037518
0.0001297844845
3.463831061e-05
0.0001317750897
0.0001343392206
1.130962735e-05
4.609767134e-05
1.868847406e-05
1.108254315e-05
1.784710489e-05
1.582120421e-05
1.348728472e-05
1.480074503e-05
1.69242504e-05
2.16933122e-06
2.026009459e-05
9.233634699e-06
7.933342884e-18
2.846833887e-07
1.17208791e-12
5.290101316e-37
3.057851143e-22
8.462585288e-32
2.78524555e-47
3.535526449e-41
6.838433597e-40
1.422110504e-47
3.070031157e-39
7.478860637e-38
8.06681647e-36
1.611247236e-26
5.083189625e-31
3.129413108e-19
8.185755268e-17
8.139891792e-21
7.512890685e-07
2.640756185e-10
4.733764103e-07
0.003170112177
5.09195478e-05
0.00328768128
0.0001890982174
0.0005666962903
0.0003891253931
0.0002777077123
0.000323000672
0.0004140487368
3.982744056e-05
0.0004810284111
7.69789434e-05
2.11474378e-05
2.917322495e-05
2.671044301e-05
1.83333797e-05
2.458240703e-05
2.292832166e-05
1.310393647e-05
4.343384185e-05
2.175439969e-05
5.899071883e-11
1.175820948e-06
1.178275507e-10
7.014293371e-30
1.428144278e-09
1.825290657e-06
1.070855887e-07
9.167655932e-06
8.240401595e-06
5.771151881e-08
6.532536896e-06
6.145992729e-06
4.80877464e-10
6.198778735e-06
6.117661354e-06
2.669246133e-11
6.264836989e-06
9.687950583e-06
6.048689264e-08
2.90876327e-05
0.0001238844145
0.0004699551031
6.205211892e-05
0.0004534246376
0.0003186825681
0.000489822424
0.0005794699057
0.0008434263861
0.000796060647
0.0001730872383
0.0009842155611
0.0002325401209
3.970826619e-05
6.782315443e-05
4.969050569e-05
4.671073518e-05
4.447164292e-05
4.845739073e-05
1.848691541e-06
4.71509235e-06
1.222495878e-06
1.023620251e-07
4.175078605e-07
4.228202901e-07
1.716342907e-05
9.290196749e-06
3.541079268e-05
3.478172398e-05
5.6432391e-05
7.502233611e-05
5.626260138e-05
0.0001031125098
0.0001416011936
0.0001200486023
0.0001899036234
0.0002721301069
0.0002743504707
0.0004491999358
0.0008390190443
0.0005745364349
0.001199275084
0.002220138976
0.0001717854317
7.740618531e-05
0.000416334846
8.290458461e-05
0.0001132100934
0.0003821813808
0.0001391928348
9.525174007e-05
4.658201594e-05
5.482921638e-05
2.462686175e-05
2.002730594e-05
1.971128824e-05
1.67974572e-05
1.231454803e-05
1.555296221e-05
1.604369604e-05
3.705390772e-06
1.703584462e-05
1.435033617e-05
5.725464813e-07
6.795723955e-06
3.700433885e-06
4.26316132e-05
1.044194348e-05
3.846535462e-05
9.894926108e-05
7.448083717e-05
0.0001109340992
0.0001807329097
0.0001606192547
0.0002085262688
0.0002488776167
0.0002014320225
0.00017106019
2.386887886e-05
3.267888644e-05
3.533961333e-05
3.629824456e-05
3.928558107e-05
4.765523135e-05
4.042830505e-05
3.89491836e-05
4.781145673e-05
3.511902148e-05
2.979139225e-05
3.77419148e-05
2.384016912e-05
1.799866874e-05
2.324361125e-05
1.276849428e-05
8.447009999e-06
1.023265004e-05
5.1571887e-06
2.871074979e-06
2.670800542e-06
1.446108991e-06
6.808782426e-07
5.514698416e-07
3.61897383e-07
2.273370023e-07
1.083905311e-07
1.207423644e-07
1.6152178e-07
3.031231763e-07
3.634565962e-07
2.189649125e-07
3.158569111e-05
2.928458197e-05
2.222454556e-05
1.362729801e-05
6.878538254e-06
2.859358641e-06
9.626432212e-07
2.600214937e-07
2.317479537e-05
2.071506743e-05
6.547123125e-06
4.648418688e-06
3.191113137e-06
2.114561485e-06
1.483659875e-07
1.155504562e-07
7.827857896e-08
3.861381483e-08
5.952343781e-08
3.146550128e-08
8.782699653e-08
3.510727073e-08
6.869413915e-08
9.798141526e-06
5.753482428e-06
3.128097395e-06
2.955424542e-06
2.183885751e-06
1.608951796e-06
1.591105667e-06
7.854229415e-07
3.585356144e-07
3.818807246e-07
2.555147439e-07
1.493061836e-07
1.674203783e-07
1.07347347e-07
5.441975692e-08
1.973170081e-08
1.244123619e-08
6.641178043e-09
2.327137312e-08
6.573277141e-09
1.044965145e-08
1.354540421e-08
4.242292639e-06
1.289843428e-06
7.223793139e-07
9.192183072e-07
1.927392325e-07
1.259074603e-07
6.493869003e-08
8.206445531e-08
5.378025628e-08
2.6196565e-08
3.562669878e-08
9.762587564e-09
7.666996131e-09
1.881634625e-08
1.994095492e-06
1.097756328e-06
1.450707848e-07
4.558881963e-08
2.07256995e-07
0.0008975414307
2.174332978e-05
0.0001832835692
2.908728041e-05
0.0001984612621
5.222359316e-05
0.0002121194885
7.083460415e-05
0.0002691282767
8.746905081e-05
0.0003211200385
9.552465119e-05
0.0003947088664
9.066578808e-05
0.0007199887401
8.213136479e-05
1.141573316e-05
0.001493224356
6.685475579e-05
3.000717777e-05
2.87530421e-05
2.527519691e-05
2.044824871e-05
2.238617417e-05
2.768081265e-05
3.023766048e-05
3.165750426e-05
3.229890494e-05
0.0001765018579
0.001039306555
1.075027451e-05
0.001015388848
5.652020269e-06
1.485586287e-06
2.642805049e-06
1.160789228e-06
3.450616201e-06
4.719522848e-06
6.733257724e-06
9.31761439e-06
1.146074751e-05
1.288934982e-05
1.225190336e-05
7.069179653e-06
5.046121612e-05
0.0002891692101
1.469601189e-05
1.533134271e-05
0.001115939138
1.305390478e-06
1.866281802e-06
1.46487365e-06
3.219227205e-06
5.841714098e-10
1.930879058e-11
4.354198976e-10
1.163215682e-09
2.279381264e-09
3.471585537e-09
6.892819666e-08
8.300875419e-07
2.6023016e-05
0.0009023859979
1.623832387e-05
6.028761957e-06
3.901133016e-06
5.092959197e-06
6.932656751e-06
5.674735741e-08
1.994750885e-24
3.644096238e-43
7.882098717e-29
1.051862349e-27
6.552457062e-27
1.707668006e-08
5.924292372e-07
0.0004215427467
0.0001253245528
6.016266311e-05
1.297648729e-05
1.102792712e-05
1.146836587e-05
1.266641476e-05
2.231276507e-09
1.980553286e-27
1.57329815e-46
2.372741226e-47
6.053150113e-34
4.879937133e-17
3.930401483e-08
0.0001222582002
0.0002637881839
0.0001971362398
0.0001926592541
2.717305936e-05
1.856560175e-05
2.159950747e-05
8.560372414e-07
2.180773096e-20
1.619682292e-31
9.343989528e-07
5.044769622e-09
7.547498142e-11
9.724340228e-11
6.426917301e-05
0.0004975369238
0.0004520801916
0.0008315210927
4.47518871e-05
3.062329745e-05
3.201120576e-05
8.170561697e-07
2.105375087e-06
3.005564949e-05
4.178900685e-05
8.082513388e-05
0.0001817231052
0.0003959370518
0.001090883836
0.0002704201979
0.0002711683618
0.0006156019638
0.0004762185751
2.568751133e-05
1.620858891e-05
6.853074953e-06
9.216117453e-07
5.795400074e-06
7.122064645e-05
0.0001390672221
0.0002139820891
0.0003196500947
0.0003016455836
0.0001113060852
7.957374928e-05
4.145167184e-05
2.225832592e-05
1.575251817e-05
2.530114887e-05
4.838366443e-05
2.466966807e-05
6.369587242e-05
0.0001045554992
0.001479917021
9.215870211e-05
0.003983345041
2.081186863e-05
2.867145879e-05
4.261919276e-05
4.930085528e-05
4.372351611e-05
3.065422688e-05
1.623418824e-05
5.657609072e-06
1.130470938e-06
3.182410153e-07
2.43909879e-07
1.785095054e-07
3.604406745e-07
4.667489774e-07
5.806901218e-07
3.311610076e-07
9.084641525e-05
1.508198222e-05
3.105631911e-05
2.622242018e-05
1.473051574e-05
1.784651671e-05
8.907074995e-06
9.912453008e-06
4.547137702e-06
1.70590023e-06
8.314880673e-07
5.125642369e-07
2.766002243e-07
1.439333707e-07
3.768332765e-05
5.127191297e-05
6.900297185e-05
6.021432864e-06
1.738699309e-08
1.381776703e-08
3.762398501e-08
1.664088793e-07
1.956432269e-07
2.346644221e-05
3.295763816e-07
2.837445756e-07
2.174917871e-07
4.699951379e-07
3.51374006e-07
7.964173515e-07
1.227436543e-06
9.295493866e-07
1.777190556e-06
2.426803291e-06
1.891427045e-06
3.1935967e-06
3.534969477e-10
2.595004972e-09
2.37021955e-07
1.349993105e-05
8.349680647e-06
6.318381997e-06
1.027163528e-07
6.971482149e-08
2.49431973e-07
3.976614917e-07
8.462408739e-07
8.499280202e-07
2.265476847e-06
1.635220492e-06
1.173636323e-07
1.540584439e-12
1.142148766e-13
4.011346564e-07
5.863758962e-14
1.992886522e-07
8.648329732e-14
1.163408956e-13
1.845968348e-08
3.638505546e-08
9.068485937e-09
3.79148976e-12
7.05293098e-14
3.26172661e-14
5.450125607e-14
8.081807235e-14
3.489722255e-08
1.109830931e-07
3.370699107e-07
1.258411896e-08
7.435733171e-09
3.834173599e-08
1.225141121e-07
2.967124344e-07
5.926480408e-07
1.023024725e-06
1.587555457e-06
2.351429829e-06
4.772964979e-08
1.996710101e-08
5.802945609e-08
1.330604059e-07
2.601564345e-07
4.511997134e-07
7.126179837e-07
1.048378658e-06
1.472849789e-06
0.0009518180416
2.23052188e-05
0.000107824808
1.411893339e-05
0.000696517885
2.279677065e-05
0.0001044072433
9.357347154e-05
1.661406998e-05
2.180014755e-05
0.0002119289877
4.326803971e-05
6.395663097e-05
5.987559734e-05
3.112084034e-05
4.016430956e-05
0.0001964180488
6.142481055e-05
3.846027207e-05
3.227043171e-05
4.682678685e-05
5.147339827e-05
0.0002392609407
7.980382692e-05
4.340233908e-05
5.265831109e-05
5.3691626e-05
5.320219416e-05
0.0002964865824
9.298734251e-05
5.92317327e-05
6.383899253e-05
4.998001097e-05
4.428357979e-05
0.0003489731485
9.464514338e-05
6.707191592e-05
6.949891159e-05
3.664822258e-05
2.789673856e-05
0.0004882316247
8.59121482e-05
7.252435191e-05
7.760901482e-05
1.901473795e-05
1.091304512e-05
0.001185962195
7.094229805e-05
9.260607973e-05
0.0002154776828
4.585567537e-06
1.537758269e-06
0.0007864531915
0.001395197546
6.803249976e-07
0.001641139174
0.00116485234
0.0002686879355
0.0003399331121
0.0006700769226
0.0008969532881
5.674361976e-07
0.001084999
9.352994687e-07
6.074470962e-07
0.001361395617
0.000635994718
8.533273435e-06
0.001945868974
4.250178775e-07
3.448631715e-07
0.003436229638
0.0006621281742
0.0002102508144
0.0009227254036
0.006049518085
6.225743526e-06
1.236323804e-05
3.049399401e-05
0.001222546783
0.002684266764
4.873734954e-05
0.001053955802
0.001381555492
0.00326525528
0.0006424884961
0.002761376941
0.002259988068
0.001208909214
0.0001018863023
0.0001924535371
0.000253485045
0.0001341411288
0.0006600079925
1.043206266e-05
3.382909809e-06
9.623757581e-05
0.0005375372211
0.0004029104434
1.015253545e-05
2.955493708e-06
2.616449287e-06
5.841352408e-05
0.0002931406518
0.0002209386487
1.185497699e-05
2.414908287e-06
2.434374459e-06
3.000467431e-05
0.0001790325556
0.0001591322256
1.335124456e-05
2.74535408e-06
3.256799653e-06
1.75205779e-05
0.0001557688885
0.0001637150473
1.387784369e-05
3.829930314e-06
4.498863386e-06
1.728603088e-05
0.0001764289207
0.0001893111549
1.493354038e-05
5.349890856e-06
6.006595358e-06
4.34776126e-05
0.0001988680597
0.0002008319269
1.407797098e-05
6.375624163e-06
6.501366007e-06
2.977245581e-05
0.0001893441641
0.0001586476931
1.229787601e-05
6.41822513e-06
6.170537153e-06
4.121773277e-05
0.0001125578719
7.258504603e-05
9.203851702e-06
5.896381317e-06
5.018638529e-06
7.991698056e-05
0.0001002832279
0.0001863186295
8.693756144e-06
4.259104004e-06
4.551633678e-06
0.0003839040436
0.0003843825748
0.0008329054086
1.276094417e-05
5.149155799e-06
5.757761718e-06
1.793204622e-05
0.000113706846
0.0009219506444
7.178777655e-06
6.419358675e-06
0.0002694434585
2.023464617e-05
2.713679006e-07
2.256354813e-07
6.023689259e-07
3.474850631e-07
1.785019236e-07
2.200559148e-07
1.435004559e-07
8.347205608e-08
1.400278039e-07
6.783101593e-07
2.308503581e-07
7.973526956e-07
4.398237691e-06
2.749784495e-06
7.097554761e-06
1.441055011e-05
2.794825408e-05
1.348735968e-05
2.037822554e-05
5.713121906e-05
4.300501378e-05
3.294735234e-05
0.0001141169643
0.0001025981035
9.017869633e-05
7.490214772e-05
2.962616849e-06
2.098907904e-06
1.557680937e-06
1.096240735e-06
1.788166431e-06
9.020799557e-07
8.781408282e-07
3.030183253e-06
1.23881767e-06
1.778540213e-06
4.701967603e-06
2.450042714e-06
3.110243128e-06
5.777634437e-06
3.739196136e-06
4.321786944e-06
6.065343367e-06
4.817035828e-06
5.189414181e-06
5.437968608e-06
5.464786374e-06
5.381868862e-06
4.894833804e-06
5.036061937e-06
5.080213524e-06
5.897737566e-06
5.441517943e-06
5.835987235e-06
7.075314048e-06
6.533145447e-06
7.126013201e-06
5.029413332e-05
1.193488497e-05
1.783294826e-05
1.167972706e-05
1.351638817e-06
4.906662016e-07
6.850825101e-08
2.981427779e-08
4.814082063e-08
8.214234791e-08
8.613736355e-08
4.284571368e-08
5.267569078e-08
1.044749856e-07
9.382459254e-08
4.454961733e-08
6.799380317e-08
1.798352195e-07
1.145581771e-06
2.017607543e-06
4.367823569e-06
1.130848455e-05
1.672119332e-05
7.430000641e-06
1.113132114e-05
2.860567747e-05
2.278040835e-05
2.95479435e-05
3.778040787e-05
4.446367254e-05
3.150546181e-05
2.080163097e-05
6.079709076e-05
2.696355805e-05
4.576670057e-05
3.860053822e-05
7.225101264e-07
8.562863854e-07
4.700045297e-07
4.757976478e-07
3.024582446e-07
4.454158852e-07
7.064556252e-07
1.073317599e-06
9.823702029e-07
1.286514976e-06
1.931902942e-06
2.908238007e-06
1.625479145e-06
1.998571248e-06
2.399328109e-06
2.81649149e-06
3.88962683e-06
3.616981718e-06
4.612958104e-06
3.238793546e-06
3.900225287e-06
4.837519043e-06
4.162729316e-06
5.64771888e-06
4.513241998e-06
4.718264428e-06
6.730108064e-06
5.171564056e-06
5.741912518e-06
7.509951941e-06
6.715439085e-06
5.184929415e-06
3.942796276e-06
1.142035231e-06
8.064949116e-07
5.601120517e-07
6.715923704e-08
4.05937557e-08
2.370763274e-08
1.33713773e-08
2.518661e-06
1.400424673e-06
3.449994813e-07
1.537960141e-07
5.121996555e-09
1.470844441e-09
2.718404337e-09
1.107304735e-08
2.639938826e-08
4.091201715e-08
3.583407554e-08
9.135686085e-06
6.679006246e-06
1.366052487e-05
1.31926384e-05
1.732092571e-05
1.359003821e-05
1.7998293e-05
2.644990283e-05
1.700224546e-05
2.049228718e-05
5.092164002e-06
1.991906805e-05
1.475406061e-05
2.177655538e-07
1.202023851e-07
8.299091305e-08
1.638530479e-07
2.525432215e-07
2.138951225e-07
2.841209062e-07
5.988371046e-07
3.666749215e-07
5.740212494e-07
1.131099853e-06
7.013298109e-07
1.359439875e-06
1.614260868e-06
1.190693327e-06
1.389725549e-06
2.521058612e-06
1.627376355e-06
5.966607173e-06
4.92493117e-06
3.255772496e-06
3.142835346e-06
1.132983271e-05
8.50596296e-06
4.181074406e-06
5.576667087e-07
4.964619546e-07
1.521644775e-07
3.378771348e-07
6.216305494e-07
4.658708828e-07
9.975269659e-07
7.524865085e-07
1.486908018e-06
2.093637127e-06
2.783668112e-06
2.187747304e-06
3.692484129e-06
2.926997852e-06
4.018050382e-06
3.118379327e-06
2.373318267e-06
1.769134855e-06
6.40431994e-07
4.365721844e-07
2.922899855e-07
2.376290645e-08
1.602487485e-08
1.083330663e-08
6.743555385e-09
4.248839454e-06
3.350272425e-06
2.513268714e-06
2.614483944e-06
1.366235322e-06
1.485561008e-06
6.783922728e-07
7.983431875e-07
5.697182497e-07
3.122758208e-07
2.814164321e-07
1.418532525e-07
7.043138238e-08
1.106551105e-07
8.961216422e-08
3.927007746e-08
7.737929831e-08
6.567636375e-08
2.312827488e-08
5.536022002e-08
1.782073987e-10
3.739188249e-08
2.151216906e-10
2.450691911e-13
4.536376904e-10
2.840702525e-09
4.218019465e-08
4.98719065e-09
7.287358709e-08
2.332276399e-08
2.0859537e-08
3.740281117e-07
9.801512064e-07
1.02965242e-05
1.022909933e-05
1.018094582e-05
6.33831681e-06
4.108397995e-06
8.309522317e-06
1.800713131e-06
4.444942327e-06
4.428125629e-06
2.64493696e-06
2.19638615e-06
2.504971622e-07
1.691409841e-07
1.288307105e-07
5.981914749e-08
4.277828258e-08
5.00116144e-08
7.447551092e-08
1.27452962e-07
1.430538152e-07
1.055493812e-07
1.440533805e-07
1.909880043e-07
3.177583292e-07
2.472682251e-07
3.658537749e-07
3.139387743e-07
3.916855726e-07
5.54162196e-07
5.957847927e-07
4.814754324e-07
7.157752183e-07
5.838188518e-07
6.986155984e-07
8.256020432e-07
1.173480195e-06
9.732488255e-07
1.142714755e-06
1.520570009e-06
1.896109434e-06
2.373335376e-06
1.619277168e-06
3.658857514e-06
2.488078418e-06
3.978024107e-07
3.195106221e-07
1.542058901e-07
1.02827503e-07
1.915127596e-07
4.627827537e-07
4.899760575e-07
1.009550561e-06
9.979104742e-07
1.918723725e-06
1.385078944e-06
1.613740288e-07
4.030008587e-08
8.569552608e-08
2.384008877e-08
1.37106595e-08
2.342528026e-13
7.060968907e-15
2.698239765e-35
5.033338819e-14
7.22837195e-36
1.399178522e-36
7.283129766e-14
1.887848015e-36
2.474269522e-36
1.007125127e-13
3.051466513e-36
3.679378619e-36
3.66922208e-13
4.41368625e-36
8.858915442e-25
2.730837482e-08
1.105147223e-08
2.08679597e-08
4.335549602e-08
3.15711271e-08
4.200385847e-08
8.498169854e-08
1.856213694e-08
7.702013321e-09
3.82429236e-09
2.679609952e-09
2.666283824e-10
1.715025701e-13
5.556600567e-09
2.080332142e-08
2.416122175e-14
5.526412095e-08
1.216172755e-07
4.348491888e-14
2.352893166e-07
4.134258547e-07
6.662780322e-14
6.730157812e-07
1.027915134e-06
8.818847659e-14
1.488497795e-06
2.058078448e-06
7.400787905e-08
2.636765811e-06
3.27828029e-06
1.530638616e-07
4.017006006e-06
4.874827571e-06
7.574311661e-07
5.744099799e-06
6.984967456e-06
8.855760377e-06
2.896760484e-08
6.07758605e-08
2.579290542e-09
2.794069377e-08
6.837879572e-09
1.834957032e-08
1.28370222e-08
2.555051679e-08
7.153560429e-08
4.598041222e-08
7.672315073e-08
1.960853308e-07
1.205013861e-07
1.801136907e-07
4.279152945e-07
2.580364004e-07
3.562576523e-07
7.92348597e-07
4.764176358e-07
6.194699045e-07
1.282772821e-06
7.84911745e-07
9.715249092e-07
1.950075936e-06
1.19061828e-06
1.450129507e-06
2.854240384e-06
1.769361941e-06
2.043211404e-06
3.23964297e-06
2.006492305e-06
1.003181364e-07
1.35868406e-07
2.118300885e-07
1.29704402e-08
6.613246887e-08
1.918824401e-08
3.449703093e-08
3.533023044e-08
2.640642027e-08
4.355106778e-08
6.334221225e-08
8.995345422e-08
6.751560746e-08
9.967631149e-08
1.892291524e-07
1.415006049e-07
1.942809716e-07
2.257354702e-07
3.471052061e-07
2.592802518e-07
3.373455259e-07
5.731335331e-07
4.294684654e-07
5.36125282e-07
8.684728146e-07
6.56837922e-07
7.909703231e-07
7.918280529e-07
1.276531826e-06
9.43526567e-07
1.097829605e-06
1.426426169e-06
1.12147678e-06
)
;

boundaryField
{
    walls
    {
        type            zeroGradient;
    }
    wallFilmFace_top
    {
        type            zeroGradient;
    }
    region0_to_wallFilmRegion_wallFilmFace
    {
        type            zeroGradient;
    }
    mirrorFace_top
    {
        type            zeroGradient;
    }
    region0_to_wallFilmRegion_mirrorFace
    {
        type            zeroGradient;
    }
    procBoundary3to2
    {
        type            processor;
        value           nonuniform List<scalar> 
64
(
1.195973283e-05
3.468744941e-06
2.158915513e-06
1.393075741e-06
1.166153028e-06
1.233216162e-05
5.393568732e-06
5.361005393e-06
3.434461249e-07
2.850832627e-05
4.46610536e-06
5.589667823e-06
5.589667823e-06
2.943765009e-06
4.847923321e-06
1.229350266e-05
4.448420796e-05
0.0001484940486
0.0002908429943
0.0003318055952
0.0003732976745
0.0004603581338
0.0007180675118
0.0007180675118
0.0004073419225
0.0001878131927
0.0001878131927
0.0006219354243
0.0001395437492
0.0001395437492
1.902689525e-05
2.935313223e-05
2.935313223e-05
3.122898904e-05
2.51296475e-05
0.000963848531
2.365477491e-05
0.0001094487391
0.0001791060493
1.302434294e-05
8.29948423e-07
4.203518298e-06
2.150263938e-07
3.264000889e-08
5.195792523e-08
1.693983645e-07
0.0001094487391
1.302434294e-05
0.0008113267736
3.872749281e-06
2.599570386e-06
1.754091731e-06
1.393075741e-06
1.022763673e-06
8.558783228e-06
7.512386613e-07
6.159295393e-07
5.087514278e-06
5.042757678e-07
4.024166948e-07
6.281010404e-08
1.600283902e-08
1.049431503e-07
2.261279658e-07
)
;
    }
}


// ************************************************************************* //
