/*--------------------------------*- C++ -*----------------------------------*\
  =========                 |
  \\      /  F ield         | OpenFOAM: The Open Source CFD Toolbox
   \\    /   O peration     | Website:  https://openfoam.org
    \\  /    A nd           | Version:  8
     \\/     M anipulation  |
\*---------------------------------------------------------------------------*/
FoamFile
{
    version     2.0;
    format      ascii;
    class       volScalarField;
    location    "0.7/wallFilmRegion";
    object      kappa;
}
// * * * * * * * * * * * * * * * * * * * * * * * * * * * * * * * * * * * * * //

dimensions      [1 1 -3 -1 0 0 0];

internalField   nonuniform List<scalar> 
1342
(
0.6088099986
0.6088099982
0.6088099969
0.6088099927
0.6088099905
0.6088099901
0.6088099899
0.6088099982
0.6088099971
0.6088099952
0.6088099934
0.6088099916
0.6088099894
0.6088099871
0.6088099852
0.6088099838
0.6088099803
0.6088099763
0.6088099888
0.608809991
0.6088099916
0.6088099952
0.6088099952
0.6088099923
0.6088099892
0.6088099977
0.6088099965
0.6088099951
0.6088099953
0.6088099948
0.6088099933
0.6088099912
0.6088099891
0.6088099876
0.6088099851
0.6088099824
0.6088099648
0.6088099773
0.6088099812
0.6088099864
0.6088099953
0.608809995
0.6088099845
0.6088099915
0.6088099917
0.6088099943
0.6088099944
0.6088099935
0.608809992
0.6088099903
0.6088099884
0.6088099983
0.6088099979
0.6088099971
0.6088099954
0.6088099921
0.6088099852
0.6088099703
0.6088099362
0.6088098716
0.6088099339
0.6088099934
0.6088099906
0.6088099906
0.6088099976
0.6088099967
0.6088099949
0.6088099916
0.6088099851
0.6088099718
0.6088099447
0.6088098897
0.6088097324
0.6088097571
0.6088099936
0.6088099935
0.6088099972
0.608809996
0.6088099936
0.6088099889
0.60880998
0.6088099652
0.6088099479
0.6088099333
0.6088099693
0.6088099163
0.6088099895
0.6088099976
0.608809997
0.6088099794
0.6088099609
0.6088099784
0.608809987
0.6088099915
0.6088099941
0.6088099958
0.6088099965
0.6088099966
0.6088099941
0.6088099986
0.6088099932
0.6088099942
0.6088099956
0.6088099961
0.6088099986
0.6088099949
0.6088099937
0.6088099948
0.6088099916
0.6088099954
0.6088099955
0.6088099967
0.6088099931
0.608809993
0.6088099968
0.608809993
0.6088099931
0.6088099965
0.6088099932
0.6088099933
0.6088099965
0.6088099934
0.6088099931
0.6088099965
0.6088099931
0.6088099929
0.6088099963
0.6088099927
0.6088099925
0.6088099962
0.6088099923
0.6088099922
0.6088099958
0.608809992
0.608809992
0.6088099943
0.6088099921
0.6088099925
0.6088099932
0.6088099924
0.6088099923
0.6088099927
0.6088099938
0.6088099929
0.6088099921
0.6088099923
0.6088099927
0.608809997
0.6088099944
0.6088099968
0.6088099978
0.6088100129
0.6088101304
0.6088099917
0.6088100772
0.6088100399
0.6088099898
0.6088100201
0.6088100091
0.6088099884
0.608810002
0.6088099986
0.6088099875
0.6088099972
0.6088099953
0.6088099871
0.6088099948
0.6088099987
0.6088099877
0.6088099966
0.6088100067
0.6088099911
0.6088099937
0.6088099913
0.6088099894
0.6088099886
0.6088099881
0.6088099935
0.6088099905
0.6088099927
0.6088099943
0.6088099968
0.6088099959
0.608809994
0.6088099953
0.6088099954
0.6088099966
0.6088099959
0.6088099967
0.6088100012
0.6088099964
0.6088099946
0.6088102963
0.6088099914
0.6088100853
0.6088102937
0.6088102954
0.60881
0.6088102669
0.60881
0.60881
0.6088102124
0.60881
0.60881
0.6088101882
0.60881
0.60881
0.6088102454
0.60881
0.60881
0.6088100748
0.6088102209
0.60881
0.6088099873
0.6088099998
0.6088099886
0.608809992
0.6088099888
0.6088099914
0.6088099967
0.608809997
0.6088099969
0.6088099963
0.6088099968
0.6088099967
0.6088099967
0.6088099967
0.6088099968
0.6088099953
0.6088099967
0.6088099958
0.6088099874
0.6088099927
0.6088099869
0.6088103017
0.6088099855
0.608810051
0.60881
0.6088102981
0.60881
0.60881
0.60881
0.60881
0.60881
0.60881
0.60881
0.60881
0.60881
0.60881
0.60881
0.60881
0.60881
0.6088100017
0.6088102888
0.6088103053
0.6088099911
0.6088099963
0.6088099912
0.6088099933
0.6088099928
0.608809993
0.608809997
0.608809997
0.6088099971
0.6088099969
0.608809997
0.608809997
0.6088099969
0.6088099969
0.608809997
0.6088099962
0.6088099969
0.6088099964
0.6088099878
0.6088099942
0.6088099882
0.6088099866
0.608809983
0.6088099823
0.60881
0.6088099979
0.6088102942
0.60881
0.60881
0.60881
0.60881
0.60881
0.60881
0.60881
0.60881
0.60881
0.60881
0.60881
0.60881
0.6088102917
0.6088102607
0.6088103055
0.608809995
0.6088103205
0.608809998
0.6088099928
0.6088099929
0.6088099927
0.608809997
0.6088099939
0.6088099952
0.608809997
0.6088099962
0.6088099968
0.608809997
0.6088099969
0.608809997
0.6088099965
0.6088099969
0.6088099964
0.6088099887
0.6088099929
0.6088099871
0.6088099815
0.6088099804
0.6088099789
0.6088102871
0.6088099884
0.6088102842
0.60881
0.6088101028
0.6088099926
0.6088100568
0.608809992
0.6088099919
0.6088100118
0.6088099917
0.6088099914
0.6088102792
0.6088099913
0.6088099913
0.6088103206
0.6088099915
0.608809992
0.6088100093
0.6088099926
0.6088099928
0.6088099849
0.6088099858
0.6088099922
0.6088099893
0.6088099912
0.6088099962
0.6088099906
0.608809994
0.6088099955
0.6088099945
0.608809989
0.6088099902
0.6088099845
0.6088099821
0.6088099812
0.6088099805
0.60880998
0.6088099816
0.6088099821
0.6088099833
0.6088100998
0.6088099882
0.6088099976
0.6088099914
0.6088099925
0.608809991
0.6088099913
0.6088099912
0.6088099912
0.6088099912
0.6088099912
0.6088099912
0.6088099912
0.6088099912
0.6088099913
0.6088099913
0.6088099913
0.6088099914
0.6088099912
0.6088099914
0.608809991
0.6088099825
0.6088099811
0.6088099872
0.6088099827
0.6088099843
0.6088099933
0.6088099854
0.6088099869
0.6088099816
0.608809985
0.6088099825
0.6088099815
0.6088099826
0.6088099825
0.6088099814
0.6088099822
0.6088099817
0.6088099811
0.608809981
0.6088099803
0.6088099911
0.6088099797
0.6088099829
0.6088099904
0.6088099881
0.6088099896
0.6088099912
0.6088099905
0.608809991
0.6088099912
0.6088099911
0.6088099913
0.6088099915
0.6088099915
0.6088099928
0.6088099986
0.6088099986
0.6088099987
0.6088099987
0.6088099987
0.6088099988
0.6088099988
0.6088099988
0.6088099989
0.6088099988
0.6088099988
0.6088099989
0.6088099988
0.6088099988
0.6088099989
0.6088099987
0.6088099985
0.6088099987
0.6088099983
0.6088099977
0.6088099978
0.6088099966
0.6088099943
0.6088099939
0.6088099911
0.6088099877
0.6088099794
0.6088099814
0.6088099848
0.6088099894
0.6088099925
0.6088099883
0.6088099986
0.6088099987
0.6088099987
0.6088099986
0.6088099984
0.6088099976
0.6088099953
0.6088099878
0.6088099986
0.6088099986
0.6088099983
0.6088099981
0.6088099977
0.6088099971
0.6088099809
0.6088099791
0.6088099699
0.6088099468
0.6088099651
0.6088099387
0.6088099726
0.6088099403
0.6088099605
0.6088099984
0.6088099981
0.6088099975
0.6088099975
0.608809997
0.6088099964
0.6088099964
0.6088099941
0.6088099893
0.60880999
0.6088099864
0.6088099793
0.6088099812
0.6088099737
0.6088099566
0.608809911
0.6088098556
0.6088097671
0.6088099014
0.6088097232
0.6088097905
0.6088098754
0.6088099979
0.6088099954
0.6088099935
0.6088099941
0.6088099817
0.6088099748
0.6088099606
0.6088099653
0.6088099526
0.6088099222
0.6088099362
0.6088098395
0.6088098482
0.6088098932
0.6088099962
0.6088099946
0.6088099732
0.6088099542
0.6088099754
0.6088099973
0.6088099985
0.608809999
0.6088099988
0.6088099991
0.608809999
0.6088099992
0.6088099991
0.6088099991
0.6088099991
0.608809999
0.6088099991
0.6088099986
0.608809999
0.6088099967
0.608809999
0.6088099987
0.6088099959
0.6088099989
0.6088099966
0.6088099968
0.6088099965
0.6088099966
0.6088099965
0.6088099964
0.6088099963
0.6088099961
0.6088099954
0.6088099932
0.6088099923
0.6088099988
0.6088099938
0.6088099984
0.6088099931
0.6088099922
0.608809994
0.6088099982
0.6088099936
0.6088099907
0.608809989
0.6088099879
0.6088099873
0.6088099871
0.60880999
0.6088099894
0.6088099918
0.6088099988
0.6088099987
0.608809994
0.6088099956
0.6088099936
0.6088099952
0.6088099961
0.6088102604
0.6088102979
0.6088102797
0.6088102493
0.608810214
0.6088101925
0.6088101915
0.6088099882
0.6088099894
0.6088099939
0.608809997
0.6088099964
0.6088099964
0.6088099966
0.6088099914
0.6088100495
0.60881
0.60881
0.60881
0.60881
0.60881
0.6088102523
0.6088099896
0.6088099931
0.6088099971
0.6088099969
0.6088099969
0.6088099968
0.6088099936
0.6088099834
0.6088101962
0.60881
0.60881
0.60881
0.60881
0.60881
0.6088100176
0.6088099926
0.6088099965
0.6088099971
0.608809997
0.6088099969
0.6088099943
0.608809983
0.6088099886
0.60881
0.60881
0.6088100004
0.6088100942
0.608810321
0.6088103353
0.6088099927
0.6088099889
0.6088099947
0.6088099968
0.6088099932
0.608809986
0.608809979
0.6088099834
0.6088099919
0.6088099914
0.6088099913
0.6088099912
0.6088099913
0.6088099914
0.6088099907
0.608809978
0.6088099854
0.6088099883
0.6088099913
0.6088099814
0.6088099815
0.6088099813
0.6088099828
0.6088099901
0.608809991
0.6088099912
0.6088099913
0.6088099921
0.6088099907
0.6088099828
0.6088099845
0.6088099851
0.6088099853
0.6088099839
0.6088099804
0.6088099774
0.6088099806
0.6088099879
0.6088099907
0.6088099962
0.6088099788
0.6088099904
0.6088099985
0.6088099987
0.6088099988
0.6088099989
0.6088099989
0.6088099989
0.6088099988
0.6088099984
0.6088099963
0.6088099913
0.6088099899
0.608809986
0.6088099922
0.6088099931
0.6088099938
0.6088099897
0.6088099864
0.6088099814
0.6088099986
0.6088099987
0.6088099986
0.6088099987
0.6088099985
0.6088099985
0.6088099981
0.6088099968
0.6088099946
0.6088099926
0.6088099879
0.6088099815
0.6088099939
0.608809993
0.6088099913
0.6088099864
0.6088099019
0.608809819
0.608809928
0.6088099794
0.6088099794
0.6088099949
0.6088099872
0.6088099863
0.6088099816
0.6088099888
0.608809987
0.608809992
0.6088099935
0.6088099928
0.6088099937
0.6088099932
0.6088099936
0.6088099921
0.6088082369
0.608809415
0.6088099804
0.6088099951
0.6088099946
0.6088099959
0.6088099726
0.6088099678
0.608809987
0.6088099907
0.6088099932
0.6088099944
0.6088099937
0.6088099951
0.6088099724
0.6088083876
0.6088085384
0.6088099881
0.608808626
0.6088099792
0.6088086304
0.6088085883
0.6088099311
0.6088099584
0.6088098742
0.6088086671
0.6088086749
0.6088088073
0.6088088043
0.6088087764
0.6088099941
0.6088099943
0.6088099951
0.608809911
0.6088099033
0.6088099745
0.6088099911
0.608809996
0.6088099977
0.6088099984
0.6088099985
0.6088099983
0.6088099623
0.6088099411
0.6088099756
0.6088099883
0.6088099935
0.6088099961
0.6088099974
0.6088099978
0.6088099977
0.6088099959
0.6088099982
0.6088099973
0.6088099985
0.6088099986
0.6088099987
0.6088099978
0.6088099984
0.6088099986
0.6088099987
0.6088099991
0.6088099989
0.6088099983
0.6088099983
0.6088099988
0.6088099989
0.6088099992
0.6088099991
0.6088099983
0.6088099984
0.6088099989
0.608809999
0.6088099991
0.6088099991
0.6088099984
0.6088099984
0.608809999
0.608809999
0.608809999
0.6088099991
0.6088099984
0.6088099984
0.608809999
0.608809999
0.6088099989
0.608809999
0.6088099984
0.6088099984
0.6088099989
0.6088099989
0.6088099978
0.608809999
0.608809998
0.6088099973
0.6088099989
0.6088099987
0.6088099959
0.6088099989
0.6088099961
0.6088099945
0.6088099984
0.6088099971
0.6088099943
0.6088099946
0.6088099952
0.6088099942
0.6088099926
0.6088099907
0.608809991
0.6088099931
0.6088099941
0.608809995
0.6088099941
0.608809996
0.6088099952
0.608809994
0.6088099935
0.6088099978
0.6088099937
0.6088099941
0.6088099933
0.6088099923
0.6088099926
0.6088099889
0.6088099898
0.6088099923
0.6088099953
0.608809995
0.608809994
0.60880999
0.6088099905
0.6088099933
0.6088099952
0.6088099958
0.6088099888
0.6088099892
0.6088099902
0.6088099905
0.6088099901
0.608809992
0.6088099902
0.6088099892
0.6088099825
0.6088099898
0.6088099985
0.6088099982
0.6088099835
0.608809991
0.6088099921
0.6088099978
0.608809998
0.6088099976
0.6088099849
0.608809993
0.6088099933
0.6088099962
0.6088099971
0.6088099965
0.6088099852
0.6088099931
0.6088099925
0.6088099943
0.6088099959
0.6088099954
0.6088099849
0.6088099919
0.6088099913
0.6088099926
0.6088099952
0.6088099947
0.6088099822
0.6088099909
0.6088099904
0.6088099905
0.608809994
0.6088099931
0.6088099787
0.6088099901
0.6088099897
0.6088099882
0.608809992
0.608809991
0.608809977
0.6088099894
0.608809989
0.6088099861
0.6088099899
0.6088099888
0.608809985
0.6088099882
0.608809987
0.6088099845
0.6088099877
0.608809987
0.6088099898
0.6088099864
0.6088099877
0.608809982
0.6088099863
0.6088099849
0.6088099942
0.6088099895
0.6088099926
0.6088099783
0.6088099835
0.6088099819
0.6088099751
0.6088099901
0.6088099936
0.6088099793
0.6088099806
0.6088099867
0.6088099803
0.6088099907
0.6088099874
0.6088099939
0.6088099899
0.6088099816
0.6088099901
0.6088099855
0.6088099773
0.6088099851
0.6088099941
0.608809989
0.6088099939
0.6088099953
0.6088099952
0.6088099953
0.6088099949
0.6088099942
0.6088099951
0.6088099947
0.608809993
0.6088099934
0.6088099941
0.6088099904
0.608809989
0.6088099912
0.608809992
0.608809998
0.6088099972
0.6088099957
0.6088099947
0.6088099949
0.6088099934
0.6088099927
0.6088099952
0.6088099942
0.6088099949
0.6088099941
0.608809995
0.6088099947
0.6088099923
0.6088099942
0.6088099934
0.6088099902
0.6088099926
0.6088099917
0.6088099883
0.6088099907
0.6088099898
0.6088099864
0.608809989
0.608809988
0.6088099837
0.6088099868
0.6088099855
0.6088099814
0.6088099843
0.6088099832
0.6088099866
0.6088099827
0.6088099986
0.6088099985
0.6088099962
0.6088099921
0.6088099688
0.6088099368
0.6088099509
0.6088099625
0.6088099641
0.6088099331
0.6088099579
0.6088099768
0.6088099783
0.6088099581
0.6088099703
0.6088099841
0.6088099941
0.6088099947
0.6088099953
0.6088099953
0.6088099953
0.6088099954
0.6088099956
0.6088099945
0.6088099949
0.6088099944
0.6088099936
0.6088099927
0.6088099922
0.6088099875
0.6088099892
0.6088099861
0.6088099913
0.6088099893
0.6088099927
0.6088099936
0.6088099888
0.6088099899
0.6088099849
0.6088099888
0.6088099915
0.6088099935
0.6088099929
0.6088099937
0.6088099945
0.6088099941
0.608809994
0.608809994
0.6088099938
0.6088099934
0.6088099928
0.6088099921
0.6088099911
0.6088099928
0.6088099914
0.6088099895
0.6088099907
0.6088099873
0.6088099898
0.6088099894
0.6088099854
0.6088099885
0.6088099877
0.6088099868
0.6088099982
0.6088099981
0.6088099978
0.6088099955
0.6088099942
0.6088099925
0.6088099625
0.6088099455
0.6088099194
0.6088098782
0.6088099972
0.6088099959
0.6088099889
0.6088099796
0.6088097025
0.6088092631
0.6088093618
0.6088098153
0.6088099145
0.6088099481
0.6088099358
0.6088099962
0.6088099957
0.6088099958
0.6088099962
0.6088099954
0.6088099956
0.6088099953
0.6088099942
0.6088099942
0.6088099949
0.6088099933
0.6088099933
0.608809992
0.6088099848
0.6088099736
0.6088099681
0.6088099786
0.6088099836
0.6088099831
0.6088099862
0.6088099909
0.6088099885
0.6088099915
0.6088099934
0.6088099924
0.6088099936
0.6088099937
0.6088099941
0.6088099943
0.608809993
0.6088099943
0.608809989
0.6088099893
0.608809992
0.6088099921
0.6088099889
0.608809991
0.6088099916
0.6088099914
0.608809991
0.6088099764
0.608809986
0.6088099907
0.6088099893
0.6088099929
0.6088099921
0.6088099937
0.6088099936
0.6088099927
0.6088099933
0.6088099914
0.6088099924
0.6088099977
0.6088099974
0.6088099969
0.6088099963
0.6088099924
0.60880999
0.6088099866
0.6088099157
0.6088098903
0.6088098577
0.6088098031
0.6088099976
0.6088099971
0.6088099967
0.6088099967
0.608809995
0.6088099957
0.6088099917
0.6088099931
0.608809991
0.6088099852
0.6088099842
0.6088099733
0.6088099565
0.6088099668
0.6088099608
0.6088099401
0.6088099561
0.6088099544
0.608809928
0.6088099536
0.6088081841
0.6088099539
0.60880806
0.6088083537
0.6088083616
0.6088094049
0.6088099551
0.6088097142
0.6088099608
0.6088099014
0.6088098919
0.6088099846
0.6088099893
0.6088099972
0.6088099966
0.6088099967
0.6088099973
0.6088099969
0.6088099961
0.6088099969
0.6088099963
0.6088099953
0.6088099956
0.6088099967
0.6088099888
0.6088099834
0.6088099813
0.6088099632
0.6088099564
0.6088099634
0.6088099722
0.6088099834
0.6088099803
0.6088099787
0.6088099833
0.6088099866
0.6088099891
0.608809989
0.6088099929
0.6088099909
0.6088099923
0.6088099951
0.6088099929
0.6088099935
0.6088099938
0.6088099944
0.6088099951
0.6088099957
0.6088099951
0.608809996
0.6088099961
0.6088099958
0.6088099955
0.6088099941
0.6088099965
0.6088099951
0.6088099952
0.6088099904
0.6088099899
0.6088099787
0.608809975
0.6088099841
0.6088099902
0.6088099919
0.6088099937
0.6088099948
0.6088099941
0.6088099952
0.6088099778
0.6088099477
0.6088099664
0.6088099262
0.608809896
0.6088084465
0.6088084946
0.6088088344
0.6088085909
0.6088089635
0.6088090783
0.608808636
0.6088089559
0.6088088107
0.6088086133
0.6088087146
0.6088086604
0.6088085618
0.6088086378
0.6088084524
0.6088099498
0.6088099607
0.6088099718
0.6088099631
0.608809976
0.6088099784
0.6088099816
0.6088099172
0.608809856
0.6088097993
0.6088097545
0.6088093705
0.6088085595
0.6088098935
0.6088099546
0.6088087562
0.608809979
0.6088099893
0.6088088134
0.6088099939
0.6088099961
0.6088087889
0.6088099974
0.6088099981
0.6088087792
0.6088099985
0.6088099988
0.6088099944
0.6088099989
0.6088099989
0.608809994
0.6088099989
0.6088099988
0.6088099939
0.6088099987
0.6088099985
0.6088099977
0.608809946
0.6088099676
0.6088097609
0.608809946
0.6088098598
0.6088099514
0.6088099258
0.6088099567
0.6088099855
0.6088099743
0.6088099838
0.6088099942
0.6088099893
0.6088099925
0.608809997
0.6088099946
0.6088099959
0.6088099981
0.6088099969
0.6088099975
0.6088099985
0.6088099979
0.6088099981
0.6088099984
0.6088099981
0.6088099981
0.6088099981
0.608809998
0.6088099978
0.6088099971
0.6088099973
0.6088099776
0.6088099823
0.6088099876
0.6088099045
0.6088099701
0.6088099256
0.6088099512
0.6088099624
0.6088099489
0.6088099654
0.6088099711
0.6088099835
0.6088099762
0.608809983
0.6088099914
0.6088099874
0.6088099904
0.6088099896
0.608809995
0.6088099925
0.6088099941
0.6088099969
0.6088099952
0.6088099961
0.6088099977
0.6088099968
0.6088099971
0.6088099963
0.6088099978
0.6088099973
0.6088099973
0.6088099971
0.6088099966
)
;

boundaryField
{
    walls
    {
        type            zeroGradient;
    }
    wallFilmFace_top
    {
        type            zeroGradient;
    }
    region0_to_wallFilmRegion_wallFilmFace
    {
        type            zeroGradient;
    }
    mirrorFace_top
    {
        type            zeroGradient;
    }
    region0_to_wallFilmRegion_mirrorFace
    {
        type            zeroGradient;
    }
    procBoundary3to2
    {
        type            processor;
        value           nonuniform List<scalar> 
64
(
0.6088099987
0.6088099982
0.6088099973
0.6088099957
0.6088099949
0.6088099984
0.6088099981
0.6088099979
0.6088099914
0.6088099965
0.6088099934
0.6088099934
0.6088099934
0.6088099937
0.6088099951
0.6088099962
0.6088099967
0.6088099969
0.6088099971
0.6088099971
0.6088099968
0.6088099938
0.6088099911
0.6088099911
0.6088099799
0.6088099798
0.6088099798
0.6088099759
0.6088099796
0.6088099796
0.6088099984
0.6088099985
0.6088099985
0.6088099985
0.6088099985
0.6088099948
0.6088099978
0.608809997
0.6088099826
0.6088099984
0.6088099934
0.6088099974
0.6088099821
0.6088099426
0.6088099633
0.6088099848
0.608809997
0.6088099984
0.6088099888
0.6088099984
0.6088099977
0.6088099967
0.6088099957
0.6088099943
0.6088099983
0.6088099934
0.6088099931
0.608809998
0.6088099929
0.6088099922
0.608809962
0.6088099061
0.6088099781
0.608809988
)
;
    }
}


// ************************************************************************* //
