/*--------------------------------*- C++ -*----------------------------------*\
  =========                 |
  \\      /  F ield         | OpenFOAM: The Open Source CFD Toolbox
   \\    /   O peration     | Website:  https://openfoam.org
    \\  /    A nd           | Version:  8
     \\/     M anipulation  |
\*---------------------------------------------------------------------------*/
FoamFile
{
    version     2.0;
    format      ascii;
    class       volScalarField;
    location    "0.7/wallFilmRegion";
    object      sigma;
}
// * * * * * * * * * * * * * * * * * * * * * * * * * * * * * * * * * * * * * //

dimensions      [1 0 -2 0 0 0 0];

internalField   nonuniform List<scalar> 
1342
(
0.07244713503
0.07244713508
0.07244713527
0.07244713588
0.0724471362
0.07244713626
0.07244713628
0.07244713508
0.07244713525
0.07244713552
0.07244713578
0.07244713604
0.07244713636
0.07244713669
0.07244713696
0.07244713717
0.07244713769
0.07244713826
0.07244713644
0.07244713614
0.07244713604
0.07244713552
0.07244713552
0.07244713594
0.07244713639
0.07244713516
0.07244713533
0.07244713553
0.0724471355
0.07244713557
0.0724471358
0.07244713609
0.0724471364
0.07244713662
0.07244713698
0.07244713737
0.07244713993
0.07244713812
0.07244713755
0.0724471368
0.07244713551
0.07244713555
0.07244713708
0.07244713606
0.07244713603
0.07244713566
0.07244713563
0.07244713576
0.07244713599
0.07244713622
0.0724471365
0.07244713508
0.07244713513
0.07244713525
0.07244713549
0.07244713597
0.07244713696
0.07244713913
0.07244714408
0.07244715344
0.07244714441
0.07244713578
0.07244713619
0.07244713619
0.07244713517
0.07244713531
0.07244713556
0.07244713604
0.07244713699
0.07244713892
0.07244714283
0.07244715082
0.07244717361
0.07244717003
0.07244713575
0.07244713576
0.07244713523
0.07244713541
0.07244713575
0.07244713643
0.07244713772
0.07244713986
0.07244714238
0.07244714449
0.07244713927
0.07244714696
0.07244713635
0.07244713517
0.07244713526
0.07244713782
0.07244714048
0.07244713796
0.07244713671
0.07244713606
0.07244713568
0.07244713543
0.07244713533
0.07244713532
0.07244713568
0.07244713503
0.07244713581
0.07244713566
0.07244713546
0.07244713539
0.07244713502
0.07244713556
0.07244713573
0.07244713557
0.07244713605
0.07244713549
0.07244713548
0.0724471353
0.07244713582
0.07244713584
0.07244713529
0.07244713583
0.07244713582
0.07244713534
0.07244713582
0.07244713579
0.07244713534
0.07244713577
0.07244713582
0.07244713534
0.07244713583
0.07244713585
0.07244713535
0.07244713588
0.07244713591
0.07244713537
0.07244713594
0.07244713596
0.07244713543
0.07244713598
0.07244713599
0.07244713565
0.07244713597
0.07244713591
0.07244713581
0.07244713592
0.07244713594
0.07244713588
0.07244713572
0.07244713585
0.07244713597
0.07244713594
0.07244713588
0.07244713525
0.07244713564
0.07244713529
0.07244713514
0.07244713295
0.07244711592
0.07244713603
0.07244712363
0.07244712904
0.0724471363
0.07244713191
0.0724471335
0.07244713651
0.07244713453
0.07244713502
0.07244713663
0.07244713523
0.07244713551
0.07244713669
0.07244713558
0.07244713501
0.07244713661
0.07244713532
0.07244713385
0.07244713611
0.07244713573
0.07244713609
0.07244713637
0.07244713648
0.07244713656
0.07244713577
0.07244713621
0.07244713588
0.07244713565
0.07244713529
0.07244713541
0.07244713569
0.07244713551
0.07244713549
0.07244713531
0.07244713541
0.07244713531
0.07244713466
0.07244713535
0.07244713561
0.07244709188
0.07244713607
0.07244712245
0.07244709225
0.072447092
0.07244713482
0.07244709614
0.07244713482
0.07244713482
0.07244710404
0.07244713482
0.07244713482
0.07244710755
0.07244713482
0.07244713482
0.07244709924
0.07244713482
0.07244713482
0.07244712398
0.0724471028
0.07244713482
0.07244713666
0.07244713485
0.07244713648
0.07244713598
0.07244713645
0.07244713606
0.0724471353
0.07244713525
0.07244713527
0.07244713536
0.07244713529
0.0724471353
0.07244713529
0.0724471353
0.07244713528
0.0724471355
0.0724471353
0.07244713543
0.07244713664
0.07244713588
0.07244713672
0.07244709109
0.07244713693
0.07244712744
0.07244713482
0.0724470916
0.07244713482
0.07244713482
0.07244713482
0.07244713482
0.07244713482
0.07244713482
0.07244713482
0.07244713482
0.07244713482
0.07244713482
0.07244713482
0.07244713482
0.07244713482
0.07244713458
0.07244709296
0.07244709056
0.07244713612
0.07244713535
0.0724471361
0.0724471358
0.07244713587
0.07244713584
0.07244713525
0.07244713525
0.07244713525
0.07244713527
0.07244713526
0.07244713526
0.07244713527
0.07244713527
0.07244713526
0.07244713538
0.07244713528
0.07244713535
0.0724471366
0.07244713566
0.07244713653
0.07244713677
0.07244713729
0.07244713739
0.07244713482
0.07244713513
0.07244709218
0.07244713482
0.07244713482
0.07244713482
0.07244713482
0.07244713482
0.07244713482
0.07244713482
0.07244713482
0.07244713482
0.07244713482
0.07244713482
0.07244713482
0.07244709254
0.07244709703
0.07244709054
0.07244713555
0.07244708836
0.07244713511
0.07244713587
0.07244713585
0.07244713588
0.07244713525
0.07244713571
0.07244713552
0.07244713526
0.07244713538
0.07244713529
0.07244713526
0.07244713527
0.07244713526
0.07244713534
0.07244713527
0.07244713535
0.07244713646
0.07244713586
0.07244713669
0.07244713751
0.07244713766
0.07244713788
0.07244709321
0.07244713651
0.07244709363
0.07244713482
0.07244711992
0.07244713589
0.07244712659
0.07244713599
0.07244713599
0.07244713312
0.07244713602
0.07244713608
0.07244709435
0.07244713608
0.07244713608
0.07244708835
0.07244713605
0.07244713598
0.07244713348
0.0724471359
0.07244713587
0.07244713701
0.07244713688
0.07244713595
0.07244713637
0.07244713611
0.07244713537
0.07244713619
0.07244713569
0.07244713548
0.07244713563
0.07244713642
0.07244713625
0.07244713707
0.07244713742
0.07244713755
0.07244713765
0.07244713773
0.07244713749
0.07244713742
0.07244713724
0.07244712035
0.07244713654
0.07244713517
0.07244713607
0.07244713591
0.07244713613
0.07244713608
0.0724471361
0.0724471361
0.07244713609
0.0724471361
0.0724471361
0.07244713609
0.07244713609
0.07244713609
0.07244713608
0.07244713608
0.07244713607
0.07244713609
0.07244713608
0.07244713613
0.07244713735
0.07244713757
0.07244713667
0.07244713734
0.0724471371
0.0724471358
0.07244713693
0.07244713672
0.07244713749
0.07244713699
0.07244713736
0.07244713751
0.07244713735
0.07244713736
0.07244713752
0.07244713741
0.07244713748
0.07244713756
0.07244713758
0.07244713768
0.07244713612
0.07244713777
0.07244713731
0.07244713621
0.07244713655
0.07244713633
0.0724471361
0.0724471362
0.07244713613
0.0724471361
0.07244713611
0.07244713609
0.07244713605
0.07244713605
0.07244713586
0.07244713503
0.07244713503
0.07244713501
0.07244713502
0.07244713501
0.07244713499
0.072447135
0.072447135
0.07244713498
0.072447135
0.072447135
0.07244713498
0.072447135
0.072447135
0.07244713499
0.07244713502
0.07244713504
0.07244713502
0.07244713508
0.07244713515
0.07244713514
0.07244713532
0.07244713564
0.07244713571
0.07244713612
0.0724471366
0.07244713782
0.07244713752
0.07244713703
0.07244713636
0.07244713591
0.07244713653
0.07244713503
0.07244713502
0.07244713501
0.07244713502
0.07244713506
0.07244713517
0.07244713551
0.07244713659
0.07244713503
0.07244713503
0.07244713507
0.0724471351
0.07244713516
0.07244713524
0.0724471376
0.07244713785
0.07244713919
0.07244714253
0.07244713988
0.07244714371
0.07244713879
0.07244714347
0.07244714054
0.07244713506
0.0724471351
0.07244713518
0.07244713519
0.07244713526
0.07244713535
0.07244713535
0.07244713569
0.07244713637
0.07244713628
0.07244713679
0.07244713783
0.07244713754
0.07244713864
0.07244714111
0.07244714772
0.07244715575
0.07244716858
0.07244714911
0.07244717494
0.0724471652
0.07244715289
0.07244713513
0.0724471355
0.07244713576
0.07244713567
0.07244713748
0.07244713848
0.07244714053
0.07244713985
0.0724471417
0.07244714611
0.07244714407
0.07244715809
0.07244715683
0.07244715031
0.07244713537
0.07244713561
0.07244713871
0.07244714147
0.07244713838
0.07244713522
0.07244713505
0.07244713496
0.072447135
0.07244713495
0.07244713497
0.07244713494
0.07244713495
0.07244713496
0.07244713495
0.07244713497
0.07244713496
0.07244713503
0.07244713497
0.0724471353
0.07244713497
0.07244713501
0.07244713542
0.07244713498
0.07244713531
0.07244713529
0.07244713533
0.07244713532
0.07244713533
0.07244713534
0.07244713536
0.07244713539
0.07244713549
0.07244713581
0.07244713593
0.072447135
0.07244713573
0.07244713505
0.07244713582
0.07244713596
0.07244713569
0.07244713508
0.07244713576
0.07244713618
0.07244713641
0.07244713658
0.07244713667
0.0724471367
0.07244713628
0.07244713636
0.07244713602
0.072447135
0.07244713501
0.07244713569
0.07244713546
0.07244713575
0.07244713552
0.07244713539
0.07244709707
0.07244709164
0.07244709428
0.07244709869
0.0724471038
0.07244710692
0.07244710706
0.07244713654
0.07244713636
0.07244713571
0.07244713526
0.07244713535
0.07244713534
0.07244713532
0.07244713608
0.07244712765
0.07244713482
0.07244713482
0.07244713482
0.07244713482
0.07244713482
0.07244709825
0.07244713633
0.07244713582
0.07244713524
0.07244713527
0.07244713528
0.07244713528
0.07244713575
0.07244713723
0.07244710639
0.07244713482
0.07244713482
0.07244713482
0.07244713482
0.07244713482
0.07244713227
0.07244713589
0.07244713534
0.07244713525
0.07244713526
0.07244713527
0.07244713566
0.07244713729
0.07244713648
0.07244713482
0.07244713482
0.07244713477
0.07244712118
0.07244708829
0.07244708622
0.07244713588
0.07244713644
0.07244713559
0.07244713529
0.07244713581
0.07244713685
0.07244713786
0.07244713723
0.072447136
0.07244713608
0.07244713609
0.07244713609
0.07244713609
0.07244713608
0.07244713617
0.07244713801
0.07244713694
0.07244713652
0.07244713609
0.07244713752
0.07244713751
0.07244713753
0.07244713732
0.07244713625
0.07244713613
0.0724471361
0.07244713609
0.07244713596
0.07244713618
0.07244713732
0.07244713707
0.07244713698
0.07244713696
0.07244713716
0.07244713767
0.0724471381
0.07244713763
0.07244713657
0.07244713617
0.07244713537
0.0724471379
0.07244713622
0.07244713504
0.07244713502
0.072447135
0.07244713499
0.07244713498
0.07244713498
0.072447135
0.07244713505
0.07244713536
0.07244713609
0.07244713628
0.07244713686
0.07244713596
0.07244713582
0.07244713573
0.07244713631
0.07244713679
0.07244713753
0.07244713502
0.07244713501
0.07244713503
0.07244713501
0.07244713505
0.07244713503
0.0724471351
0.07244713529
0.0724471356
0.0724471359
0.07244713658
0.07244713751
0.07244713571
0.07244713584
0.07244713609
0.07244713679
0.07244714904
0.07244716106
0.07244714527
0.07244713781
0.07244713781
0.07244713557
0.07244713668
0.07244713681
0.07244713748
0.07244713644
0.07244713671
0.07244713598
0.07244713577
0.07244713586
0.07244713573
0.07244713581
0.07244713575
0.07244713597
0.0724473904
0.07244721962
0.07244713766
0.07244713554
0.07244713561
0.07244713542
0.0724471388
0.07244713949
0.07244713671
0.07244713617
0.07244713582
0.07244713563
0.07244713573
0.07244713554
0.07244713883
0.07244736856
0.07244734669
0.07244713655
0.072447334
0.07244713784
0.07244733335
0.07244733947
0.07244714481
0.07244714085
0.07244715305
0.07244732804
0.07244732691
0.07244730771
0.07244730814
0.0724473122
0.07244713567
0.07244713565
0.07244713553
0.07244714772
0.07244714884
0.07244713853
0.07244713611
0.07244713541
0.07244713516
0.07244713506
0.07244713505
0.07244713507
0.0724471403
0.07244714337
0.07244713836
0.07244713652
0.07244713576
0.07244713539
0.07244713521
0.07244713515
0.07244713516
0.07244713541
0.07244713509
0.07244713521
0.07244713504
0.07244713503
0.07244713502
0.07244713514
0.07244713506
0.07244713502
0.07244713501
0.07244713496
0.07244713498
0.07244713507
0.07244713508
0.072447135
0.07244713499
0.07244713494
0.07244713496
0.07244713506
0.07244713505
0.07244713498
0.07244713497
0.07244713495
0.07244713495
0.07244713505
0.07244713505
0.07244713497
0.07244713497
0.07244713496
0.07244713496
0.07244713505
0.07244713505
0.07244713497
0.07244713497
0.07244713499
0.07244713496
0.07244713505
0.07244713506
0.07244713498
0.07244713498
0.07244713514
0.07244713497
0.07244713511
0.07244713522
0.07244713499
0.07244713501
0.07244713541
0.07244713498
0.07244713539
0.07244713562
0.07244713506
0.07244713524
0.07244713565
0.07244713561
0.07244713552
0.07244713566
0.0724471359
0.07244713617
0.07244713612
0.07244713582
0.07244713568
0.07244713555
0.07244713567
0.07244713541
0.07244713552
0.07244713569
0.07244713576
0.07244713514
0.07244713574
0.07244713568
0.0724471358
0.07244713595
0.0724471359
0.07244713643
0.0724471363
0.07244713593
0.07244713551
0.07244713555
0.07244713569
0.07244713627
0.07244713621
0.07244713579
0.07244713552
0.07244713543
0.07244713645
0.07244713639
0.07244713625
0.07244713621
0.07244713626
0.07244713599
0.07244713624
0.07244713639
0.07244713736
0.0724471363
0.07244713504
0.07244713508
0.07244713721
0.07244713613
0.07244713597
0.07244713515
0.07244713512
0.07244713517
0.07244713702
0.07244713584
0.07244713579
0.07244713538
0.07244713525
0.07244713534
0.07244713696
0.07244713583
0.07244713591
0.07244713566
0.07244713542
0.07244713548
0.07244713701
0.072447136
0.07244713608
0.0724471359
0.07244713552
0.07244713559
0.0724471374
0.07244713615
0.07244713621
0.0724471362
0.0724471357
0.07244713583
0.0724471379
0.07244713626
0.07244713631
0.07244713653
0.07244713598
0.07244713613
0.07244713815
0.07244713636
0.07244713642
0.07244713684
0.07244713629
0.07244713645
0.072447137
0.07244713653
0.07244713671
0.07244713707
0.0724471366
0.07244713671
0.07244713631
0.0724471368
0.0724471366
0.07244713743
0.07244713681
0.07244713701
0.07244713566
0.07244713634
0.0724471359
0.07244713797
0.07244713722
0.07244713744
0.07244713843
0.07244713626
0.07244713575
0.07244713782
0.07244713764
0.07244713675
0.07244713768
0.07244713617
0.07244713665
0.0724471357
0.07244713628
0.0724471375
0.07244713627
0.07244713693
0.07244713812
0.07244713699
0.07244713568
0.07244713642
0.07244713571
0.0724471355
0.07244713553
0.07244713551
0.07244713557
0.07244713567
0.07244713554
0.07244713559
0.07244713584
0.07244713579
0.07244713567
0.07244713621
0.07244713641
0.0724471361
0.07244713599
0.07244713511
0.07244713523
0.07244713544
0.0724471356
0.07244713556
0.07244713578
0.07244713589
0.07244713551
0.07244713566
0.07244713556
0.07244713568
0.07244713554
0.07244713559
0.07244713594
0.07244713567
0.07244713577
0.07244713625
0.0724471359
0.07244713603
0.07244713652
0.07244713618
0.07244713631
0.07244713679
0.07244713642
0.07244713656
0.07244713719
0.07244713673
0.07244713693
0.07244713752
0.0724471371
0.07244713725
0.07244713677
0.07244713733
0.07244713503
0.07244713504
0.07244713538
0.07244713597
0.07244713934
0.07244714399
0.07244714194
0.07244714026
0.07244714003
0.07244714452
0.07244714092
0.07244713818
0.07244713796
0.07244714089
0.07244713913
0.07244713713
0.07244713567
0.07244713559
0.0724471355
0.07244713551
0.07244713551
0.07244713549
0.07244713546
0.07244713562
0.07244713556
0.07244713564
0.07244713576
0.07244713588
0.07244713595
0.07244713663
0.07244713639
0.07244713684
0.07244713608
0.07244713637
0.07244713588
0.07244713575
0.07244713644
0.07244713629
0.07244713701
0.07244713645
0.07244713606
0.07244713577
0.07244713585
0.07244713574
0.07244713562
0.07244713568
0.07244713569
0.07244713569
0.07244713572
0.07244713578
0.07244713587
0.07244713596
0.07244713611
0.07244713587
0.07244713607
0.07244713635
0.07244713618
0.07244713666
0.0724471363
0.07244713636
0.07244713694
0.07244713649
0.07244713661
0.07244713673
0.07244713508
0.0724471351
0.07244713514
0.07244713548
0.07244713566
0.07244713591
0.07244714027
0.07244714273
0.0724471465
0.07244715247
0.07244713523
0.07244713542
0.07244713643
0.07244713778
0.07244717795
0.07244724164
0.07244722733
0.0724471616
0.07244714721
0.07244714234
0.07244714413
0.07244713538
0.07244713545
0.07244713543
0.07244713538
0.07244713549
0.07244713545
0.0724471355
0.07244713567
0.07244713567
0.07244713556
0.07244713579
0.07244713579
0.07244713599
0.07244713703
0.07244713866
0.07244713944
0.07244713793
0.0724471372
0.07244713727
0.07244713682
0.07244713614
0.07244713649
0.07244713606
0.07244713579
0.07244713592
0.07244713575
0.07244713574
0.07244713568
0.07244713566
0.07244713585
0.07244713565
0.07244713642
0.07244713638
0.07244713598
0.07244713596
0.07244713643
0.07244713613
0.07244713604
0.07244713607
0.07244713613
0.07244713824
0.07244713685
0.07244713617
0.07244713638
0.07244713585
0.07244713597
0.07244713573
0.07244713576
0.07244713588
0.07244713579
0.07244713608
0.07244713592
0.07244713515
0.0724471352
0.07244713527
0.07244713537
0.07244713592
0.07244713627
0.07244713677
0.07244714704
0.07244715072
0.07244715545
0.07244716337
0.07244713517
0.07244713524
0.0724471353
0.0724471353
0.07244713555
0.07244713545
0.07244713603
0.07244713583
0.07244713613
0.07244713697
0.07244713711
0.07244713869
0.07244714113
0.07244713964
0.0724471405
0.07244714351
0.07244714118
0.07244714143
0.07244714527
0.07244714154
0.07244739805
0.0724471415
0.07244741604
0.07244737347
0.07244737233
0.07244722108
0.07244714133
0.07244717626
0.07244714051
0.07244714912
0.07244715049
0.07244713706
0.07244713637
0.07244713523
0.07244713531
0.0724471353
0.07244713521
0.07244713527
0.07244713539
0.07244713527
0.07244713537
0.07244713551
0.07244713546
0.0724471353
0.07244713645
0.07244713722
0.07244713754
0.07244714017
0.07244714115
0.07244714013
0.07244713885
0.07244713723
0.07244713768
0.07244713791
0.07244713724
0.07244713676
0.07244713641
0.07244713641
0.07244713585
0.07244713615
0.07244713594
0.07244713554
0.07244713585
0.07244713577
0.07244713573
0.07244713563
0.07244713553
0.07244713545
0.07244713553
0.07244713541
0.07244713539
0.07244713544
0.07244713547
0.07244713568
0.07244713534
0.07244713553
0.07244713552
0.07244713621
0.07244713629
0.07244713791
0.07244713845
0.07244713712
0.07244713624
0.07244713599
0.07244713574
0.07244713557
0.07244713568
0.07244713553
0.07244713805
0.07244714241
0.07244713969
0.07244714552
0.0724471499
0.07244736001
0.07244735305
0.07244730378
0.07244733909
0.07244728507
0.07244726844
0.07244733254
0.07244728618
0.07244730722
0.07244733583
0.07244732116
0.072447329
0.0724473433
0.07244733229
0.07244735916
0.0724471421
0.07244714052
0.07244713892
0.07244714017
0.0724471383
0.07244713796
0.07244713749
0.07244714683
0.0724471557
0.07244716391
0.07244717041
0.07244722607
0.07244734364
0.07244715026
0.07244714141
0.07244731512
0.07244713787
0.07244713637
0.07244730683
0.07244713571
0.07244713538
0.07244731039
0.0724471352
0.0724471351
0.07244731179
0.07244713504
0.072447135
0.07244713563
0.07244713498
0.07244713498
0.07244713569
0.07244713498
0.07244713499
0.07244713571
0.07244713501
0.07244713504
0.07244713516
0.07244714265
0.07244713952
0.07244716948
0.07244714265
0.07244715515
0.07244714188
0.07244714558
0.0724471411
0.07244713693
0.07244713855
0.07244713717
0.07244713567
0.07244713638
0.07244713591
0.07244713525
0.07244713561
0.07244713541
0.0724471351
0.07244713528
0.07244713519
0.07244713505
0.07244713513
0.0724471351
0.07244713506
0.07244713509
0.0724471351
0.07244713509
0.07244713512
0.07244713514
0.07244713524
0.07244713521
0.07244713808
0.07244713739
0.07244713661
0.07244714866
0.07244713915
0.07244714561
0.0724471419
0.07244714027
0.07244714223
0.07244713983
0.07244713901
0.07244713722
0.07244713828
0.07244713729
0.07244713606
0.07244713665
0.07244713621
0.07244713634
0.07244713555
0.07244713591
0.07244713568
0.07244713528
0.07244713551
0.07244713539
0.07244713516
0.07244713529
0.07244713524
0.07244713537
0.07244713515
0.07244713521
0.07244713521
0.07244713525
0.07244713532
)
;

boundaryField
{
    walls
    {
        type            zeroGradient;
    }
    wallFilmFace_top
    {
        type            zeroGradient;
    }
    region0_to_wallFilmRegion_wallFilmFace
    {
        type            zeroGradient;
    }
    mirrorFace_top
    {
        type            zeroGradient;
    }
    region0_to_wallFilmRegion_mirrorFace
    {
        type            zeroGradient;
    }
    procBoundary3to2
    {
        type            processor;
        value           nonuniform List<scalar> 
64
(
0.07244713501
0.07244713508
0.07244713521
0.07244713544
0.07244713557
0.07244713505
0.0724471351
0.07244713513
0.07244713607
0.07244713533
0.07244713577
0.07244713579
0.07244713579
0.07244713574
0.07244713554
0.07244713537
0.0724471353
0.07244713527
0.07244713525
0.07244713524
0.07244713529
0.07244713572
0.07244713611
0.07244713611
0.07244713774
0.07244713775
0.07244713775
0.07244713831
0.07244713778
0.07244713778
0.07244713506
0.07244713503
0.07244713503
0.07244713503
0.07244713504
0.07244713558
0.07244713515
0.07244713526
0.07244713734
0.07244713505
0.07244713578
0.07244713519
0.07244713742
0.07244714314
0.07244714014
0.07244713702
0.07244713526
0.07244713505
0.07244713645
0.07244713505
0.07244713515
0.0724471353
0.07244713544
0.07244713565
0.07244713507
0.07244713578
0.07244713582
0.07244713511
0.07244713586
0.07244713596
0.07244714033
0.07244714843
0.072447138
0.07244713656
)
;
    }
}


// ************************************************************************* //
