/*--------------------------------*- C++ -*----------------------------------*\
  =========                 |
  \\      /  F ield         | OpenFOAM: The Open Source CFD Toolbox
   \\    /   O peration     | Website:  https://openfoam.org
    \\  /    A nd           | Version:  8
     \\/     M anipulation  |
\*---------------------------------------------------------------------------*/
FoamFile
{
    version     2.0;
    format      ascii;
    class       volScalarField;
    location    "0.4/wallFilmRegion";
    object      alpha;
}
// * * * * * * * * * * * * * * * * * * * * * * * * * * * * * * * * * * * * * //

dimensions      [0 0 0 0 0 0 0];

internalField   nonuniform List<scalar> 
1342
(
2.954906263e-07
1.276283505e-06
0.001748997389
0.01285716378
0.04694980602
1.513333098e-05
3.240326078e-06
4.039493431e-06
1.543418191e-05
6.554288925e-05
0.0002232221076
0.0009561294103
0.002745876037
0.007728273242
0.01847346491
0.03616757882
0.046173091
0.2242610628
0.2173028636
0.1633856663
0.1056401367
0.05049097999
0.01612007675
0.006489513659
0.004420494478
0.5182536604
0.005624605759
0.006651550164
0.008309605769
0.01118080185
0.02210508171
0.04828932761
2.792010999e-05
2.249376996e-06
6.064497613e-06
2.689677217e-05
0.000114173788
0.0003653877901
0.001069502969
0.002616984625
0.004987632541
0.009808260369
0.01793740661
0.0245453876
0.1856610102
0.1783474306
0.1199874712
0.06099833698
0.02416371452
0.01179787591
0.0130936233
0.01084395801
2.334903795
0.02156215172
0.01565798499
0.01179842225
0.008713597634
0.007535298766
0.02413288431
0.04907018751
0.005740202328
0.0003465449412
0.0002266021682
0.0002275177086
0.0004765416959
0.001130494927
0.002391949854
0.003441745735
0.004715427934
0.007517896333
0.01223006732
0.01571353185
0.1482434557
0.1355319478
0.07428290624
0.02887548093
0.01409078096
0.01255451387
0.01578874095
0.01679892707
1.258894435
0.01752362895
0.0141641087
0.009649208529
0.005756907856
0.009059201986
0.04701175529
0.08828312054
0.04977397088
0.01625926717
0.0102950767
0.007069814731
0.004642377795
0.002745329383
0.002294058544
0.00301824417
0.003766756975
0.004508938167
0.005364826
0.007050032759
0.1010473903
0.08339910833
0.04330145843
0.02823609635
0.02986022086
0.03563810292
0.04131925472
0.04328137316
0.6740987438
0.0009283091859
0.001093334163
0.000943686771
0.0006300372735
0.0001439178306
0.009584773144
0.09818912981
0.07912611386
0.02728450107
0.01450897105
0.009147284982
0.005079107837
0.001956111863
0.001193991169
0.002588296565
0.004350668493
0.00622802535
0.008138152016
0.01054006347
0.05184349082
0.04087442267
0.02949292553
0.0315285099
0.04056944409
0.0516617486
0.06141791216
0.06633831533
0.7435837392
4.049605571e-09
2.929748569e-08
7.745680422e-08
6.469794936e-08
2.292900825e-08
2.529025176e-08
0.0001143962043
0.0128968292
0.12440703
0.0474282147
0.0167138781
0.008765903565
0.004213985861
0.001261662809
0.0009676029175
0.002516748085
0.004709616761
0.00715439289
0.009646829029
0.01241433877
0.02408433065
0.02491634219
0.02870121661
0.03737069437
0.04894879393
0.06085585282
0.0706912722
0.07385818705
0.8052492635
5.869672077e-10
1.61081696e-19
4.463249826e-19
1.987768329e-16
3.24204432e-06
1.897913058e-08
0.0002367482778
0.0002919054423
0.01615153419
0.1118271987
0.0249257605
0.0105995492
0.0049778578
0.001356051958
0.001288943761
0.002901650788
0.005286917082
0.008061928674
0.01122912982
0.01537323127
0.02236449527
0.03077996912
0.04185171565
0.05375018137
0.0637936162
0.0705634726
0.07469389971
0.07070113637
0.8156143324
1.792808923e-09
1.59092849e-35
8.461886928e-24
2.216933959e-12
0.003774374302
7.455020299e-07
0.0005527584336
0.0004066416284
0.0006064169348
0.04461948408
0.0426213133
0.01572124247
0.00803053353
0.002303357131
0.002262059381
0.00384190835
0.006287572929
0.009413203023
0.01390650469
0.02155803381
0.03432429084
0.05245867266
0.06983903497
0.07859197107
0.07862234986
0.07479218864
0.07163745579
0.0611290182
0.8152103171
1.098498536e-35
1.673045971e-30
2.066149121e-19
8.14254466e-09
0.03312665342
0.0008616572893
0.001283567978
0.0007553024928
0.0004187733597
0.003541232502
0.04383181725
0.02200370657
0.0125084096
0.005299701059
0.004378738631
0.005561580581
0.007917720249
0.0115838721
0.01841100941
0.0324589189
0.05678066703
0.08677940851
0.1022087652
0.09482009671
0.08072899772
0.06897189154
0.06330953125
0.05080654646
0.9546897085
3.930326271e-36
9.508048574e-28
4.196154773e-17
7.43763524e-08
0.05226414865
0.00816604651
0.002827124424
0.001324758607
0.0004888331504
0.0009060482766
0.02305435519
0.02331965793
0.01657269755
0.009778251257
0.007819366787
0.008346857952
0.01050734478
0.01503110051
0.0252975513
0.04788473308
0.08587834431
0.1179996912
0.1146641981
0.09144192978
0.07163498593
0.05970981409
0.05629650454
0.04457022811
1.189398621
5.631049512e-26
3.536416144e-25
4.36534765e-16
1.128355665e-07
0.0404200241
0.01846374595
0.004675737842
0.001843476717
0.0005816480963
0.0005477866717
0.008986447241
0.0168413291
0.03027788682
0.03979994457
0.03456893705
0.02767598831
0.02386417297
0.02613072312
0.03841553786
0.06734159995
0.1082177282
0.1228782683
0.1027105552
0.0783913266
0.06157104669
0.05279942067
0.05137586596
0.04046141696
1.132259212
1.458012639e-16
4.439611022e-16
1.458997834e-12
6.122945663e-06
0.02867810622
0.01667878669
0.004564945174
0.001705391002
0.0005183793288
0.0004038411719
0.003915977021
0.009547625442
0.03507768403
0.09273999138
0.2124238513
0.2891231108
0.1657204026
0.09831564796
0.08670650319
0.1069163233
0.1255382838
0.1084165385
0.08608653102
0.05844922825
0.0465763054
0.04218711055
0.04226522875
0.0335681766
0.7906053158
2.829396509e-09
2.207968418e-09
6.669926508e-06
0.001935152647
0.02101154065
0.007575903047
0.002196394016
0.0008272116544
0.0002472481175
0.0003191083266
0.002199313095
0.005706721686
0.006203104886
0.008158257296
0.02363506196
0.2251860547
0.3594816449
0.2811450147
0.2121480372
0.1840639725
0.1529632688
0.09784660303
0.08800596357
0.04020371808
0.02709671745
0.02643113272
0.02829690586
0.02344432155
0.464213397
0.0009715345613
0.00105437355
0.001371045152
0.002313907798
0.01462814885
0.0004726724419
9.365119742e-06
3.020611291e-06
1.380392846e-05
0.0002729103482
0.001565120862
0.003946175178
0.003559903267
0.003150466915
0.003390516316
0.1533101429
0.1172393826
0.1716411166
0.1826021892
0.1541776135
0.1073718466
0.04783007472
0.1009897831
0.05720293085
0.0209084289
0.01565753802
0.01690676538
0.01474398516
0.2836814501
0.001364811298
0.001244069119
0.0009563575312
0.0004456920976
0.00481508473
0.0006350707829
4.220667743e-06
2.394181771e-06
7.304173904e-06
0.0003022818001
0.001550091871
0.003551080996
0.00221971611
0.001376554211
0.001009353831
0.1527135247
0.1063992973
0.06212047089
0.06206937727
0.05423974904
0.03360760663
0.01553614185
0.1114309908
0.09828267787
0.04264290132
0.01631615866
0.01205961595
0.009907006861
0.21625537
0.003364692434
0.003305425099
0.002909160186
0.002014229679
0.003891387635
0.005274733523
0.004595720737
0.003979696738
0.00382739847
0.004690388929
0.007387266715
0.01035823958
0.011823668
0.01961057822
0.02345558386
0.4926554969
0.3786235546
0.2652750916
0.1900944178
0.1324556852
0.0821695683
0.04171747451
0.1443285584
0.1220139235
0.07233172854
0.03215636253
0.01581123812
0.009447535803
0.2095981347
0.008043081356
0.007859281381
0.00722184129
0.005374641237
0.01092631597
0.01523831019
0.0143809264
0.01282899766
0.01338549386
0.01773692913
0.02594686056
0.02809258514
0.01853876211
0.01265480209
0.01595284789
0.390215094
0.2954955246
0.1984351906
0.1329198793
0.08931831401
0.05254685248
0.01971682078
0.5253594232
0.4493410537
0.3202642994
0.2202627675
0.1428011355
0.07802427063
0.2655544351
0.01449128802
0.0132784286
0.01197188996
0.00881929308
0.01889767808
0.02695131442
0.02564512978
0.02380343554
0.02941390781
0.0457342104
0.06173104085
0.04728955235
0.02093858
0.009696199717
0.009187749507
0.2795728945
0.2092153884
0.1342406523
0.08279406174
0.04890999412
0.02923782214
0.02213443691
0.4095710882
0.3534988413
0.2506954273
0.1719536182
0.1114246293
0.05757984022
0.2934599198
0.02427131276
0.0193299115
0.01605940835
0.01128608066
0.02502609271
0.03634447303
0.03427548063
0.03407620789
0.05475821096
0.09535615375
0.1040459744
0.04375793258
0.01385851267
0.007382947739
0.007676768095
0.2016316711
0.1495977682
0.09091816877
0.05145185439
0.03208623384
0.02945645638
0.03712128342
0.3124897867
0.2741976115
0.1945566478
0.1297380031
0.08183719004
0.04066086066
0.324712751
0.04038595844
0.02826985236
0.02054003004
0.01313466775
0.02818747037
0.04155698539
0.03884396654
0.0423073268
0.09251192095
0.1483923224
0.1107755932
0.02295267749
0.006864192183
0.006116566142
0.008239149128
0.1465135848
0.1072757196
0.06116169123
0.03678237377
0.03332490943
0.04216346514
0.0577337962
0.2546060921
0.2257794804
0.1554243616
0.09945653002
0.06421256819
0.03334328903
0.3528676739
0.0595323822
0.04221473289
0.02789370746
0.01579567775
0.02893550597
0.04310572457
0.04016389449
0.04883884423
0.1355878855
0.1663930551
0.07216796939
0.01257297872
0.005748102837
0.007058938135
0.01011478202
0.1029919549
0.0727906151
0.04266643096
0.03574747845
0.04484828416
0.06426519537
0.08829243853
0.214648565
0.1846022371
0.1226238262
0.07907046299
0.05409140522
0.02944171598
0.3761501445
0.05888839931
0.05870214052
0.0406834448
0.02125135907
0.02851688503
0.04260870669
0.03976124992
0.05307218885
0.1613569616
0.1366794511
0.03925150048
0.0144024539
0.01008912584
0.01089485283
0.01374674196
0.06501251636
0.04681420869
0.03706600469
0.0445661178
0.06685997637
0.1067539582
0.1519647519
0.215482372
0.1778917461
0.1172585432
0.07548812458
0.05173286303
0.02844738051
0.4014116189
0.01430806907
0.04394718386
0.04900254439
0.02546101483
0.02811566556
0.0416286894
0.03883638479
0.05361005854
0.1486006046
0.09315635254
0.02818342688
0.02090120778
0.01767174513
0.01744094174
0.0197677615
0.04068074165
0.03777144477
0.04328113787
0.06093463382
0.09352171599
0.1367624776
0.1708352354
0.1855307541
0.1506489692
0.1050966708
0.07183992102
0.05155536032
0.0295781112
0.4330083352
0.0001970232814
0.008184076841
0.02874213952
0.02159105853
0.02843056762
0.04107641429
0.03786561123
0.05086914521
0.1115326928
0.06242732991
0.02580665571
0.02461073913
0.02404288632
0.02505631791
0.02841119706
0.03797276412
0.04488801979
0.05895368426
0.08148421292
0.106898214
0.1201417712
0.1124703168
0.09286879519
0.07252424664
0.05947634943
0.05025905179
0.04382275618
0.02882380876
0.4688818321
0.0007197782579
0.004963695776
0.01013395854
0.01431343589
0.02963908271
0.04111833781
0.03661603572
0.04536423783
0.07607782269
0.04384058608
0.02538516605
0.02348481734
0.02648840637
0.03166146511
0.03894667826
0.04951563398
0.06316155858
0.07979499575
0.09470175842
0.09797861963
0.08498140854
0.0613684166
0.04064325967
0.03164787569
0.03134718559
0.03322914584
0.03538125301
0.02685203166
0.5086742309
0.004073574412
0.008476510208
0.01204216516
0.01928289476
0.03490172652
0.0420117442
0.03456431901
0.03805432313
0.05021339789
0.0323999035
0.02358371338
0.01963990318
0.02551327976
0.03603171117
0.04918419082
0.06603788799
0.08358951111
0.09296079388
0.09186111244
0.07815194672
0.05513166693
0.03292003792
0.0198802498
0.01688940705
0.01978274284
0.02458174459
0.03003987234
0.02537945004
0.5537318604
0.009558878474
0.0193352058
0.03651756529
0.2085189993
0.05309507133
0.04366312168
0.03124800953
0.03013125276
0.03359348819
0.02567490058
0.02039111604
0.01545114048
0.02288291182
0.03772066627
0.05634034677
0.0771673572
0.09161882308
0.09141462591
0.07791222975
0.05581339082
0.03365307472
0.01856112286
0.01178362907
0.01136780361
0.01490678948
0.02039223366
0.02719305386
0.02483846611
0.6019498151
0.03807130517
0.05128595776
0.01526985195
0.02972021495
0.05831476845
0.04382386226
0.02687637365
0.02484480667
0.02762913282
0.0233929386
0.01643212584
0.01215841527
0.02077607764
0.03753284436
0.05819481598
0.07754927452
0.08543997601
0.07741275125
0.05838377476
0.03713267904
0.02123745896
0.01234291483
0.008988414555
0.009809529422
0.0137217092
0.01973487938
0.02768746959
0.02688487175
0.7169066777
0.02369258129
0.03900126558
0.002874008693
0.005643603309
0.08422935458
0.04843713534
0.02434027293
0.01977941506
0.03492991613
0.02232406911
0.01303746495
0.009469331068
0.01553970944
0.02820959341
0.04361241928
0.05499864583
0.0554551021
0.04491709128
0.02991667335
0.01743814595
0.009831928667
0.005971275788
0.00468830699
0.005459578392
0.008061958475
0.01241661662
0.01872797624
0.02008309052
0.7210494509
0.5766660819
2.82290133
0.1579031936
0.2076308445
0.4970609673
0.407245484
0.5013324905
0.9681582822
1.559819997
1.144234273
0.4698920816
0.190899628
0.5959360011
0.6857264481
0.6005362224
0.5368712788
0.4984245273
0.4745282694
0.4681496532
0.4801579467
0.5048612552
0.5357861636
0.5700843445
0.6092224056
0.6585433234
0.7245831533
0.8651863771
0.9753424941
9.207433714
2.524689263
0.05612387789
0.1087338949
0.02743394772
0.0560757625
0.02708405775
0.01953552026
0.01282196343
0.02933550362
0.002705342001
0.002343705074
0.002481331272
0.01432971611
0.001950761467
0.002054423891
0.003239578862
0.006808147891
0.002101249788
0.004570565256
0.01267548693
0.02914061156
0.003141087953
0.002930609844
0.006874217805
0.1315118749
1.561185747
0.1487076638
0.002462140895
0.00924141197
0.002036387752
0.003191204169
0.00106175037
0.001225341188
0.004574107576
0.001380182857
0.00155841994
0.005648046422
0.001697781312
0.001722614999
0.007357398684
0.001676695022
0.001615502278
0.01362321629
0.001569703529
0.00153001228
0.02464803745
0.001487834936
0.001383278875
4.929801107
0.001450792454
0.003314121379
20.47661297
0.03253023534
0.5216703146
0.2727379795
1.055667425
0.4431078701
0.2044469077
0.08656731657
0.1667489103
0.596216751
0.6342248655
0.1788222738
0.1390896675
0.7437323639
0.1759056594
0.5081041241
0.3091161169
0.08577487085
0.09299499431
0.1707016081
0.4150186561
0.1714557224
0.3011928123
0.2511928689
0.1094218759
0.164686334
0.217044952
0.1401322755
0.08965730024
0.1469673109
0.2250537592
0.05389686092
2.937212533
0.09221300516
0.1583989602
0.1651774451
0.08341200781
0.01117635367
0.06799855187
0.01568101699
0.1173638015
2.433741674
0.1248686158
0.02575662476
0.1440352859
0.03279138751
0.1049487272
1.887406464
0.09873878318
0.04350240163
0.08863160623
0.04423772349
0.1000534448
1.693111282
0.1253224691
0.04071914864
0.07688171824
0.04026992228
0.1856816644
1.664300097
0.3084081138
0.04542194858
0.098281618
0.04990188515
0.3909073435
0.5374984536
0.4325702579
0.05713638414
0.1726193646
0.04998426215
0.5139881884
1.348700401
0.6008731188
0.1912015182
0.8202889349
7.806567388
0.7606908392
0.5026687575
0.008051260045
0.04976025363
0.005924381793
0.004775465569
0.004719082991
0.004059211838
0.003953746634
0.003677331769
0.003464516326
0.0033890523
0.004453068252
0.04997957705
0.01344790286
0.001291268494
0.003892104102
0.002069693311
0.001580417829
0.001917974231
0.00209088066
0.001664236944
0.002205364781
0.002050959858
0.00146901464
0.001875570124
0.001765968611
0.001355968826
0.001708721858
0.001692600965
0.001211983621
0.00165812811
0.001830178793
0.004055406924
0.003235635745
0.01033316118
0.004628357082
0.003499192102
0.003057059175
0.02635227711
0.002739995233
0.002757419487
0.0355859033
0.2040348125
0.0844863888
0.005210454202
0.03564412917
0.01779820774
0.002864775709
0.008917165617
0.00560912638
0.002256968994
0.004545641986
0.002612554199
0.001855025778
0.00199856201
0.002030502996
0.001912499779
0.002152061847
0.00250887798
0.003020139014
0.003530916305
0.006516122053
0.01983997755
0.01575697984
0.03855776225
0.003024615668
0.02594000086
0.002656572011
0.002467832785
0.002399533827
0.002220781554
0.00233980076
0.04784067879
0.1653122582
0.09996820765
0.01754184728
0.06892040202
0.04557455904
0.004139090804
0.03251433291
0.01341719033
0.002750743666
0.004503250151
0.005792015122
0.004839483707
0.007021187115
0.01209463006
0.0158704265
0.01981892412
0.04147041528
0.009836217738
0.001749823268
0.001914105301
0.001768051816
0.001994844798
0.002448291226
0.002560634557
0.07421364972
0.1607904524
0.1052931809
0.02835646204
0.07729174209
0.04273124283
0.01554713332
0.03532604145
0.0429126938
0.03646367627
0.05608835111
0.117730753
0.00202627088
5.247356278
34.9243542
6.51736824
0.855073475
0.03404687535
1.223468613
0.02022426932
0.8417752802
0.01593386492
0.007637498938
2.980417566
0.1603388137
0.1283318923
0.002158428459
2.748276258
0.1882275909
0.003917698652
2.129525495
0.104372794
0.005161505942
1.752615974
0.07793224069
0.00622924425
1.675823503
0.08233210376
0.009805985392
0.6027627901
0.1375953361
0.01862950769
0.836649586
0.1944046927
0.113150654
0.06039851656
6.002474583
5.97520663
0.157925154
1.197511326
0.09799198666
0.005752772282
0.004245910899
0.02092377526
0.001531039012
0.001404523746
0.001701845886
0.001563554462
0.001399926611
0.00130850702
0.001577240051
0.04235883463
0.05027083839
0.01701657073
0.003974201936
0.00343495254
0.003211237889
0.002843799754
0.003026686604
0.107600188
0.01281442445
0.003125015857
0.002792621351
0.001944411266
0.001847055507
0.002066126718
0.006963978166
0.1469035768
0.3571850564
0.08409161232
0.03101825836
0.01195267309
0.002381803171
0.003256908867
0.007774849682
0.03760428078
0.184363842
0.09880091905
0.09323338891
0.01904973957
0.01119689743
0.009047696458
0.007319148189
0.260674077
0.1170915507
0.05466221175
0.01258961117
0.01864946021
0.05539076736
0.1858734609
0.05010824638
0.01014726313
0.004081106896
0.152406865
0.007744611646
0.006028654571
0.005934188263
0.01758228915
0.02088029407
0.04058843889
0.1129399695
0.0108507011
0.02203583324
0.04624657527
0.06452617942
0.1083681395
0.003723482807
0.006871396424
0.02690749269
0.04997333182
0.1834191908
0.009288494726
0.00223218941
0.007214608993
0.02721249488
1.829711594
0.06547070441
3.016394585
0.1130474042
0.3106592827
0.01126178513
1.398924926
0.02565578304
0.08349800201
0.08674101799
0.006965245744
0.005538963331
1.003285306
0.01728974938
0.06479921853
0.03811312591
0.004801275197
0.004417749885
0.01575457979
0.004250043491
0.2545277714
21.09350196
1.580802151
0.05878386732
0.2279148039
0.02314755725
0.6962475581
0.02488161853
0.02517137836
0.08472421408
0.02662236829
0.02823204247
0.02666945297
0.02310716568
0.01919037009
0.01595064392
0.003924920951
0.003067187563
0.0797455295
0.02606042398
0.0269208132
0.0203916509
0.02382858553
0.0244714947
0.0161542421
0.01568084918
0.01278479529
0.01044524342
0.002166956878
0.002262467945
0.002559549087
0.002082280201
0.06909062617
0.01943953587
0.01323659173
0.0156431892
0.0118255566
0.005990115348
0.004994927074
0.006117620318
0.004451896049
0.02269028392
0.01467708278
0.008828477793
0.007241366718
0.003659677572
0.005677087906
0.001735099001
0.002955159064
0.002851304639
0.004496675105
0.00747573144
0.007424010201
0.01254094754
0.003797664687
0.03075656795
0.004950932987
0.002801583947
0.006299888934
0.00394274819
0.004912514393
0.003299286876
0.003036003865
0.003265837532
0.003701672371
0.004466126061
0.008259420346
0.007627132696
0.003666536275
0.003473494095
0.007209643248
0.006201142273
0.01033557507
0.01111165614
0.01901862072
0.02814482026
0.02985071872
0.04200410665
0.05306395479
0.01267961949
0.02336312258
0.028185861
0.0339590237
0.04397539017
0.05936041272
0.05680870863
0.07097820954
0.07808868917
0.08123362371
0.003118512673
0.005132394956
0.001853535443
0.01472229717
0.00321902755
0.006775980665
0.03990757935
0.0143390037
0.02625829926
0.03923878001
0.001873360815
0.01398504612
0.002240701735
0.003612819569
0.0021344968
0.002535770637
0.01492281463
0.004015753001
0.007866472336
0.003927738847
0.01619208121
)
;

boundaryField
{
    walls
    {
        type            zeroGradient;
    }
    wallFilmFace_top
    {
        type            zeroGradient;
    }
    region0_to_wallFilmRegion_wallFilmFace
    {
        type            zeroGradient;
    }
    mirrorFace_top
    {
        type            zeroGradient;
    }
    region0_to_wallFilmRegion_mirrorFace
    {
        type            zeroGradient;
    }
    procBoundary2to0
    {
        type            processor;
        value           nonuniform List<scalar> 
26
(
3.22260751e-13
4.692225274e-13
2.888550316e-07
0.0004891926
0.01492446499
1.623877088e-07
3.123893043e-07
1.800548325e-06
8.104701562e-06
3.378231022e-05
0.0001199626081
0.0008817549625
0.003578527994
0.03364208131
0.1974091948
0.2696025289
0.2034862502
0.3017783317
0.3168769472
0.2620503468
0.2086404343
0.1626149627
0.1140517986
0.06137375438
0.02260099554
0.2509483585
)
;
    }
    procBoundary2to1
    {
        type            processor;
        value           nonuniform List<scalar> 
33
(
3.02998139e-07
3.02998139e-07
0.005156882904
0.005156882904
0.03054165312
0.01811938462
0.0005916681672
0.0005916681672
1.136446554e-10
0.0003520913954
0.0004917994919
7.69691263e-09
2.814034097e-23
1.00293859e-26
4.68472637e-17
4.641825154e-09
0.0009516736789
0.001317321902
0.003397914216
0.008623570806
0.01765703725
0.03476734879
0.05883694739
0.07091676468
0.03014082908
0.001331203577
5.503251039e-08
4.193351828e-08
3.244186362e-05
0.0005866366225
0.004978901585
0.003952804834
0.09119454805
)
;
    }
    procBoundary2to3
    {
        type            processor;
        value           nonuniform List<scalar> 
64
(
0.06497979579
0.02786157855
0.02582142682
0.01951318373
0.01086643217
0.002819111937
0.00471251293
0.02124661753
0.01378496188
0.002006945486
0.01269469536
0.002911325111
0.01305036526
0.01269469536
0.02012848968
0.02054513713
0.02067541035
0.02139556131
0.0252408544
0.0352405016
0.04689462377
0.0336652668
0.005802422339
0.02364972113
0.02364972113
0.01028663807
0.3926001469
0.3926001469
0.08239151354
0.3926001469
0.003827144608
0.003446250609
0.003827144608
0.003125043459
0.002913136603
0.7590454473
0.01557164737
0.002006945486
0.1024858262
0.003827144608
0.006380523605
0.03203762621
0.05209731544
0.06913177958
0.05601413442
0.04062784983
3.151071494e-05
0.004251329609
0.7396506181
0.02669207765
0.02786157855
0.02261460947
0.01360518848
0.00889833025
0.003161524494
0.005467718496
0.004343175714
0.009378286017
0.004537840696
0.007870511051
0.06142326082
0.08101257116
0.04947815035
0.02947335247
)
;
    }
}


// ************************************************************************* //
