/*--------------------------------*- C++ -*----------------------------------*\
  =========                 |
  \\      /  F ield         | OpenFOAM: The Open Source CFD Toolbox
   \\    /   O peration     | Website:  https://openfoam.org
    \\  /    A nd           | Version:  8
     \\/     M anipulation  |
\*---------------------------------------------------------------------------*/
FoamFile
{
    version     2.0;
    format      ascii;
    class       volScalarField;
    location    "0.4/wallFilmRegion";
    object      delta;
}
// * * * * * * * * * * * * * * * * * * * * * * * * * * * * * * * * * * * * * //

dimensions      [0 1 0 0 0 0 0];

internalField   nonuniform List<scalar> 
1342
(
2.954906263e-10
1.276283505e-09
1.748997389e-06
1.285716378e-05
4.694980602e-05
1.513333098e-08
3.240326078e-09
4.039493431e-09
1.543418191e-08
6.554288925e-08
2.232221076e-07
9.561294103e-07
2.745876037e-06
7.728273242e-06
1.847346491e-05
3.616757882e-05
4.6173091e-05
0.0002242610628
0.0002173028636
0.0001633856663
0.0001056401367
5.049097999e-05
1.612007675e-05
6.489513659e-06
4.420494478e-06
0.0005182536604
5.624605759e-06
6.651550164e-06
8.309605769e-06
1.118080185e-05
2.210508171e-05
4.828932761e-05
2.792010999e-08
2.249376996e-09
6.064497613e-09
2.689677217e-08
1.14173788e-07
3.653877901e-07
1.069502969e-06
2.616984625e-06
4.987632541e-06
9.808260369e-06
1.793740661e-05
2.45453876e-05
0.0001856610102
0.0001783474306
0.0001199874712
6.099833698e-05
2.416371452e-05
1.179787591e-05
1.30936233e-05
1.084395801e-05
0.002334903795
2.156215172e-05
1.565798499e-05
1.179842225e-05
8.713597634e-06
7.535298766e-06
2.413288431e-05
4.907018751e-05
5.740202328e-06
3.465449412e-07
2.266021682e-07
2.275177086e-07
4.765416959e-07
1.130494927e-06
2.391949854e-06
3.441745735e-06
4.715427934e-06
7.517896333e-06
1.223006732e-05
1.571353185e-05
0.0001482434557
0.0001355319478
7.428290624e-05
2.887548093e-05
1.409078096e-05
1.255451387e-05
1.578874095e-05
1.679892707e-05
0.001258894435
1.752362895e-05
1.41641087e-05
9.649208529e-06
5.756907856e-06
9.059201986e-06
4.701175529e-05
8.828312054e-05
4.977397088e-05
1.625926717e-05
1.02950767e-05
7.069814731e-06
4.642377795e-06
2.745329383e-06
2.294058544e-06
3.01824417e-06
3.766756975e-06
4.508938167e-06
5.364826e-06
7.050032759e-06
0.0001010473903
8.339910833e-05
4.330145843e-05
2.823609635e-05
2.986022086e-05
3.563810292e-05
4.131925472e-05
4.328137316e-05
0.0006740987438
9.283091859e-07
1.093334163e-06
9.43686771e-07
6.300372735e-07
1.439178306e-07
9.584773144e-06
9.818912981e-05
7.912611386e-05
2.728450107e-05
1.450897105e-05
9.147284982e-06
5.079107837e-06
1.956111863e-06
1.193991169e-06
2.588296565e-06
4.350668493e-06
6.22802535e-06
8.138152016e-06
1.054006347e-05
5.184349082e-05
4.087442267e-05
2.949292553e-05
3.15285099e-05
4.056944409e-05
5.16617486e-05
6.141791216e-05
6.633831533e-05
0.0007435837392
4.049605571e-12
2.929748569e-11
7.745680422e-11
6.469794936e-11
2.292900825e-11
2.529025176e-11
1.143962043e-07
1.28968292e-05
0.00012440703
4.74282147e-05
1.67138781e-05
8.765903565e-06
4.213985861e-06
1.261662809e-06
9.676029175e-07
2.516748085e-06
4.709616761e-06
7.15439289e-06
9.646829029e-06
1.241433877e-05
2.408433065e-05
2.491634219e-05
2.870121661e-05
3.737069437e-05
4.894879393e-05
6.085585282e-05
7.06912722e-05
7.385818705e-05
0.0008052492635
5.869672077e-13
1.61081696e-22
4.463249826e-22
1.987768329e-19
3.24204432e-09
1.897913058e-11
2.367482778e-07
2.919054423e-07
1.615153419e-05
0.0001118271987
2.49257605e-05
1.05995492e-05
4.9778578e-06
1.356051958e-06
1.288943761e-06
2.901650788e-06
5.286917082e-06
8.061928674e-06
1.122912982e-05
1.537323127e-05
2.236449527e-05
3.077996912e-05
4.185171565e-05
5.375018137e-05
6.37936162e-05
7.05634726e-05
7.469389971e-05
7.070113637e-05
0.0008156143324
1.792808923e-12
1.59092849e-38
8.461886928e-27
2.216933959e-15
3.774374302e-06
7.455020299e-10
5.527584336e-07
4.066416284e-07
6.064169348e-07
4.461948408e-05
4.26213133e-05
1.572124247e-05
8.03053353e-06
2.303357131e-06
2.262059381e-06
3.84190835e-06
6.287572929e-06
9.413203023e-06
1.390650469e-05
2.155803381e-05
3.432429084e-05
5.245867266e-05
6.983903497e-05
7.859197107e-05
7.862234986e-05
7.479218864e-05
7.163745579e-05
6.11290182e-05
0.0008152103171
1.098498536e-38
1.673045971e-33
2.066149121e-22
8.14254466e-12
3.312665342e-05
8.616572893e-07
1.283567978e-06
7.553024928e-07
4.187733597e-07
3.541232502e-06
4.383181725e-05
2.200370657e-05
1.25084096e-05
5.299701059e-06
4.378738631e-06
5.561580581e-06
7.917720249e-06
1.15838721e-05
1.841100941e-05
3.24589189e-05
5.678066703e-05
8.677940851e-05
0.0001022087652
9.482009671e-05
8.072899772e-05
6.897189154e-05
6.330953125e-05
5.080654646e-05
0.0009546897085
3.930326271e-39
9.508048574e-31
4.196154773e-20
7.43763524e-11
5.226414865e-05
8.16604651e-06
2.827124424e-06
1.324758607e-06
4.888331504e-07
9.060482766e-07
2.305435519e-05
2.331965793e-05
1.657269755e-05
9.778251257e-06
7.819366787e-06
8.346857952e-06
1.050734478e-05
1.503110051e-05
2.52975513e-05
4.788473308e-05
8.587834431e-05
0.0001179996912
0.0001146641981
9.144192978e-05
7.163498593e-05
5.970981409e-05
5.629650454e-05
4.457022811e-05
0.001189398621
5.631049512e-29
3.536416144e-28
4.36534765e-19
1.128355665e-10
4.04200241e-05
1.846374595e-05
4.675737842e-06
1.843476717e-06
5.816480963e-07
5.477866717e-07
8.986447241e-06
1.68413291e-05
3.027788682e-05
3.979994457e-05
3.456893705e-05
2.767598831e-05
2.386417297e-05
2.613072312e-05
3.841553786e-05
6.734159995e-05
0.0001082177282
0.0001228782683
0.0001027105552
7.83913266e-05
6.157104669e-05
5.279942067e-05
5.137586596e-05
4.046141696e-05
0.001132259212
1.458012639e-19
4.439611022e-19
1.458997834e-15
6.122945663e-09
2.867810622e-05
1.667878669e-05
4.564945174e-06
1.705391002e-06
5.183793288e-07
4.038411719e-07
3.915977021e-06
9.547625442e-06
3.507768403e-05
9.273999138e-05
0.0002124238513
0.0002891231108
0.0001657204026
9.831564796e-05
8.670650319e-05
0.0001069163233
0.0001255382838
0.0001084165385
8.608653102e-05
5.844922825e-05
4.65763054e-05
4.218711055e-05
4.226522875e-05
3.35681766e-05
0.0007906053158
2.829396509e-12
2.207968418e-12
6.669926508e-09
1.935152647e-06
2.101154065e-05
7.575903047e-06
2.196394016e-06
8.272116544e-07
2.472481175e-07
3.191083266e-07
2.199313095e-06
5.706721686e-06
6.203104886e-06
8.158257296e-06
2.363506196e-05
0.0002251860547
0.0003594816449
0.0002811450147
0.0002121480372
0.0001840639725
0.0001529632688
9.784660303e-05
8.800596357e-05
4.020371808e-05
2.709671745e-05
2.643113272e-05
2.829690586e-05
2.344432155e-05
0.000464213397
9.715345613e-07
1.05437355e-06
1.371045152e-06
2.313907798e-06
1.462814885e-05
4.726724419e-07
9.365119742e-09
3.020611291e-09
1.380392846e-08
2.729103482e-07
1.565120862e-06
3.946175178e-06
3.559903267e-06
3.150466915e-06
3.390516316e-06
0.0001533101429
0.0001172393826
0.0001716411166
0.0001826021892
0.0001541776135
0.0001073718466
4.783007472e-05
0.0001009897831
5.720293085e-05
2.09084289e-05
1.565753802e-05
1.690676538e-05
1.474398516e-05
0.0002836814501
1.364811298e-06
1.244069119e-06
9.563575312e-07
4.456920976e-07
4.81508473e-06
6.350707829e-07
4.220667743e-09
2.394181771e-09
7.304173904e-09
3.022818001e-07
1.550091871e-06
3.551080996e-06
2.21971611e-06
1.376554211e-06
1.009353831e-06
0.0001527135247
0.0001063992973
6.212047089e-05
6.206937727e-05
5.423974904e-05
3.360760663e-05
1.553614185e-05
0.0001114309908
9.828267787e-05
4.264290132e-05
1.631615866e-05
1.205961595e-05
9.907006861e-06
0.00021625537
3.364692434e-06
3.305425099e-06
2.909160186e-06
2.014229679e-06
3.891387635e-06
5.274733523e-06
4.595720737e-06
3.979696738e-06
3.82739847e-06
4.690388929e-06
7.387266715e-06
1.035823958e-05
1.1823668e-05
1.961057822e-05
2.345558386e-05
0.0004926554969
0.0003786235546
0.0002652750916
0.0001900944178
0.0001324556852
8.21695683e-05
4.171747451e-05
0.0001443285584
0.0001220139235
7.233172854e-05
3.215636253e-05
1.581123812e-05
9.447535803e-06
0.0002095981347
8.043081356e-06
7.859281381e-06
7.22184129e-06
5.374641237e-06
1.092631597e-05
1.523831019e-05
1.43809264e-05
1.282899766e-05
1.338549386e-05
1.773692913e-05
2.594686056e-05
2.809258514e-05
1.853876211e-05
1.265480209e-05
1.595284789e-05
0.000390215094
0.0002954955246
0.0001984351906
0.0001329198793
8.931831401e-05
5.254685248e-05
1.971682078e-05
0.0005253594232
0.0004493410537
0.0003202642994
0.0002202627675
0.0001428011355
7.802427063e-05
0.0002655544351
1.449128802e-05
1.32784286e-05
1.197188996e-05
8.81929308e-06
1.889767808e-05
2.695131442e-05
2.564512978e-05
2.380343554e-05
2.941390781e-05
4.57342104e-05
6.173104085e-05
4.728955235e-05
2.093858e-05
9.696199717e-06
9.187749507e-06
0.0002795728945
0.0002092153884
0.0001342406523
8.279406174e-05
4.890999412e-05
2.923782214e-05
2.213443691e-05
0.0004095710882
0.0003534988413
0.0002506954273
0.0001719536182
0.0001114246293
5.757984022e-05
0.0002934599198
2.427131276e-05
1.93299115e-05
1.605940835e-05
1.128608066e-05
2.502609271e-05
3.634447303e-05
3.427548063e-05
3.407620789e-05
5.475821096e-05
9.535615375e-05
0.0001040459744
4.375793258e-05
1.385851267e-05
7.382947739e-06
7.676768095e-06
0.0002016316711
0.0001495977682
9.091816877e-05
5.145185439e-05
3.208623384e-05
2.945645638e-05
3.712128342e-05
0.0003124897867
0.0002741976115
0.0001945566478
0.0001297380031
8.183719004e-05
4.066086066e-05
0.000324712751
4.038595844e-05
2.826985236e-05
2.054003004e-05
1.313466775e-05
2.818747037e-05
4.155698539e-05
3.884396654e-05
4.23073268e-05
9.251192095e-05
0.0001483923224
0.0001107755932
2.295267749e-05
6.864192183e-06
6.116566142e-06
8.239149128e-06
0.0001465135848
0.0001072757196
6.116169123e-05
3.678237377e-05
3.332490943e-05
4.216346514e-05
5.77337962e-05
0.0002546060921
0.0002257794804
0.0001554243616
9.945653002e-05
6.421256819e-05
3.334328903e-05
0.0003528676739
5.95323822e-05
4.221473289e-05
2.789370746e-05
1.579567775e-05
2.893550597e-05
4.310572457e-05
4.016389449e-05
4.883884423e-05
0.0001355878855
0.0001663930551
7.216796939e-05
1.257297872e-05
5.748102837e-06
7.058938135e-06
1.011478202e-05
0.0001029919549
7.27906151e-05
4.266643096e-05
3.574747845e-05
4.484828416e-05
6.426519537e-05
8.829243853e-05
0.000214648565
0.0001846022371
0.0001226238262
7.907046299e-05
5.409140522e-05
2.944171598e-05
0.0003761501445
5.888839931e-05
5.870214052e-05
4.06834448e-05
2.125135907e-05
2.851688503e-05
4.260870669e-05
3.976124992e-05
5.307218885e-05
0.0001613569616
0.0001366794511
3.925150048e-05
1.44024539e-05
1.008912584e-05
1.089485283e-05
1.374674196e-05
6.501251636e-05
4.681420869e-05
3.706600469e-05
4.45661178e-05
6.685997637e-05
0.0001067539582
0.0001519647519
0.000215482372
0.0001778917461
0.0001172585432
7.548812458e-05
5.173286303e-05
2.844738051e-05
0.0004014116189
1.430806907e-05
4.394718386e-05
4.900254439e-05
2.546101483e-05
2.811566556e-05
4.16286894e-05
3.883638479e-05
5.361005854e-05
0.0001486006046
9.315635254e-05
2.818342688e-05
2.090120778e-05
1.767174513e-05
1.744094174e-05
1.97677615e-05
4.068074165e-05
3.777144477e-05
4.328113787e-05
6.093463382e-05
9.352171599e-05
0.0001367624776
0.0001708352354
0.0001855307541
0.0001506489692
0.0001050966708
7.183992102e-05
5.155536032e-05
2.95781112e-05
0.0004330083352
1.970232814e-07
8.184076841e-06
2.874213952e-05
2.159105853e-05
2.843056762e-05
4.107641429e-05
3.786561123e-05
5.086914521e-05
0.0001115326928
6.242732991e-05
2.580665571e-05
2.461073913e-05
2.404288632e-05
2.505631791e-05
2.841119706e-05
3.797276412e-05
4.488801979e-05
5.895368426e-05
8.148421292e-05
0.000106898214
0.0001201417712
0.0001124703168
9.286879519e-05
7.252424664e-05
5.947634943e-05
5.025905179e-05
4.382275618e-05
2.882380876e-05
0.0004688818321
7.197782579e-07
4.963695776e-06
1.013395854e-05
1.431343589e-05
2.963908271e-05
4.111833781e-05
3.661603572e-05
4.536423783e-05
7.607782269e-05
4.384058608e-05
2.538516605e-05
2.348481734e-05
2.648840637e-05
3.166146511e-05
3.894667826e-05
4.951563398e-05
6.316155858e-05
7.979499575e-05
9.470175842e-05
9.797861963e-05
8.498140854e-05
6.13684166e-05
4.064325967e-05
3.164787569e-05
3.134718559e-05
3.322914584e-05
3.538125301e-05
2.685203166e-05
0.0005086742309
4.073574412e-06
8.476510208e-06
1.204216516e-05
1.928289476e-05
3.490172652e-05
4.20117442e-05
3.456431901e-05
3.805432313e-05
5.021339789e-05
3.23999035e-05
2.358371338e-05
1.963990318e-05
2.551327976e-05
3.603171117e-05
4.918419082e-05
6.603788799e-05
8.358951111e-05
9.296079388e-05
9.186111244e-05
7.815194672e-05
5.513166693e-05
3.292003792e-05
1.98802498e-05
1.688940705e-05
1.978274284e-05
2.458174459e-05
3.003987234e-05
2.537945004e-05
0.0005537318604
9.558878474e-06
1.93352058e-05
3.651756529e-05
0.0002085189993
5.309507133e-05
4.366312168e-05
3.124800953e-05
3.013125276e-05
3.359348819e-05
2.567490058e-05
2.039111604e-05
1.545114048e-05
2.288291182e-05
3.772066627e-05
5.634034677e-05
7.71673572e-05
9.161882308e-05
9.141462591e-05
7.791222975e-05
5.581339082e-05
3.365307472e-05
1.856112286e-05
1.178362907e-05
1.136780361e-05
1.490678948e-05
2.039223366e-05
2.719305386e-05
2.483846611e-05
0.0006019498151
3.807130517e-05
5.128595776e-05
1.526985195e-05
2.972021495e-05
5.831476845e-05
4.382386226e-05
2.687637365e-05
2.484480667e-05
2.762913282e-05
2.33929386e-05
1.643212584e-05
1.215841527e-05
2.077607764e-05
3.753284436e-05
5.819481598e-05
7.754927452e-05
8.543997601e-05
7.741275125e-05
5.838377476e-05
3.713267904e-05
2.123745896e-05
1.234291483e-05
8.988414555e-06
9.809529422e-06
1.37217092e-05
1.973487938e-05
2.768746959e-05
2.688487175e-05
0.0007169066777
2.369258129e-05
3.900126558e-05
2.874008693e-06
5.643603309e-06
8.422935458e-05
4.843713534e-05
2.434027293e-05
1.977941506e-05
3.492991613e-05
2.232406911e-05
1.303746495e-05
9.469331068e-06
1.553970944e-05
2.820959341e-05
4.361241928e-05
5.499864583e-05
5.54551021e-05
4.491709128e-05
2.991667335e-05
1.743814595e-05
9.831928667e-06
5.971275788e-06
4.68830699e-06
5.459578392e-06
8.061958475e-06
1.241661662e-05
1.872797624e-05
2.008309052e-05
0.0007210494509
0.0005766660819
0.00282290133
0.0001579031936
0.0002076308445
0.0004970609673
0.000407245484
0.0005013324905
0.0009681582822
0.001559819997
0.001144234273
0.0004698920816
0.000190899628
0.0005959360011
0.0006857264481
0.0006005362224
0.0005368712788
0.0004984245273
0.0004745282694
0.0004681496532
0.0004801579467
0.0005048612552
0.0005357861636
0.0005700843445
0.0006092224056
0.0006585433234
0.0007245831533
0.0008651863771
0.0009753424941
0.009207433714
0.001641202649
4.392565377e-05
8.499182057e-05
2.721085454e-05
5.326543661e-05
2.67315344e-05
1.928150189e-05
1.26558139e-05
2.451017662e-05
2.663514625e-06
2.30725718e-06
2.44289303e-06
1.126680237e-05
1.926167791e-06
2.028718398e-06
3.198147732e-06
5.682280909e-06
2.069160685e-06
4.501049658e-06
1.248268559e-05
2.159248796e-05
3.111143587e-06
2.903258257e-06
6.809428937e-06
0.0001031564956
0.001219904629
0.0001487065224
1.929689936e-06
9.241462393e-06
2.036390013e-06
2.500091469e-06
1.061750491e-06
1.225341188e-06
3.583440863e-06
1.380182857e-06
1.55841994e-06
4.425289977e-06
1.697781312e-06
1.722614999e-06
5.76534229e-06
1.676695022e-06
1.615502278e-06
1.067727499e-05
1.569703529e-06
1.53001228e-06
1.932690893e-05
1.487834936e-06
1.383279024e-06
0.003869129572
1.450794048e-06
3.314139077e-06
0.01321844517
3.252998606e-05
0.0004076873423
0.0002727191578
0.0006555655729
0.0004311731232
0.000157758802
8.423726319e-05
0.0001035054541
0.0005240643419
0.0005011160238
9.278597969e-05
0.0001098818585
0.0005119427193
0.0001759072703
0.0003945825181
0.0002994923905
8.300980842e-05
9.010238336e-05
0.0001325961063
0.0003229194026
0.0001714557224
0.000210099696
0.0002176387075
0.000105940929
0.0001426490515
0.0001512327397
0.0001097130611
7.123773625e-05
0.0001162851682
0.0001534415873
5.38968641e-05
0.002311915957
9.221299915e-05
0.0001583989516
0.0001651774214
8.341200466e-05
1.117635503e-05
6.79985541e-05
1.56810183e-05
0.000117363804
0.001914065135
0.0001248686101
2.575662279e-05
0.0001440352487
3.279138766e-05
0.0001049487301
0.001484274056
9.873878062e-05
4.350240158e-05
8.863161282e-05
4.423771999e-05
0.0001000534396
0.001331507159
0.0001253224695
4.071914454e-05
7.68817147e-05
4.026991175e-05
0.0001856816341
0.001308881767
0.0003084080767
4.542194218e-05
9.828162277e-05
4.990188069e-05
0.0003909073121
0.0004227348431
0.0004325702302
5.713638137e-05
0.0001726193791
4.998426459e-05
0.0005139880969
0.001061086989
0.0006008731289
0.0001912015128
0.0008202889047
0.006154211557
0.0007606907027
0.0005026686948
7.984474378e-06
4.232717499e-05
5.861109488e-06
4.737015206e-06
4.66851375e-06
4.016045935e-06
3.922134923e-06
3.638108522e-06
3.427682374e-06
3.352491417e-06
4.453065755e-06
4.997879285e-05
1.344797844e-05
1.291268513e-06
3.892106528e-06
2.069693372e-06
1.580417829e-06
1.917974231e-06
2.09088066e-06
1.664236944e-06
2.205364781e-06
2.050959858e-06
1.46901464e-06
1.875570124e-06
1.765968611e-06
1.355968826e-06
1.708721858e-06
1.692600965e-06
1.211983891e-06
1.658128159e-06
1.830179924e-06
4.055355172e-06
3.235653523e-06
1.033300137e-05
4.568072171e-06
3.453333899e-06
3.016951511e-06
2.140678376e-05
2.713565368e-06
2.730929814e-06
3.558613903e-05
0.000204020886
8.448690976e-05
5.210454359e-06
3.56441537e-05
1.779820827e-05
2.864775709e-06
8.917165617e-06
5.60912638e-06
2.256968994e-06
4.545641986e-06
2.612554199e-06
1.855025778e-06
1.99856201e-06
2.030502996e-06
1.912499779e-06
2.152061847e-06
2.50887798e-06
3.02014116e-06
3.530916409e-06
6.516126507e-06
1.983912238e-05
1.575707472e-05
3.855516214e-05
2.978842034e-06
2.037784668e-05
2.62950881e-06
2.429217279e-06
2.373325847e-06
2.196213486e-06
2.303629046e-06
4.784067949e-05
0.0001653122811
9.996820765e-05
1.754184728e-05
6.892040202e-05
4.557455904e-05
4.139090804e-06
3.251433291e-05
1.341719033e-05
2.750743666e-06
4.503250151e-06
5.792015122e-06
4.839483707e-06
7.021187115e-06
1.209463006e-05
1.587043572e-05
1.981892412e-05
4.147042102e-05
7.734501622e-06
1.731418834e-06
1.889728463e-06
1.748328576e-06
1.97217311e-06
2.417514667e-06
2.531918068e-06
7.421364972e-05
0.0001559907995
0.0001052931809
2.835646204e-05
7.729174209e-05
4.273124283e-05
1.554713332e-05
3.532604145e-05
4.29126938e-05
3.646367627e-05
5.608835111e-05
0.0001142120999
2.007912572e-06
0.003381819449
0.0227182314
0.004229924848
0.0006689372443
2.660752175e-05
0.0009550971446
1.577740467e-05
0.0006568256162
1.24260056e-05
5.987704405e-06
0.002349245327
0.0001603387825
0.0001283319026
1.69122785e-06
0.00216191769
0.0001882275602
3.069125673e-06
0.00167469656
0.0001043727953
4.043831211e-06
0.00137828558
7.793224142e-05
4.8809783e-06
0.001317926867
8.233210117e-05
7.684677995e-06
0.0004740484009
0.0001375953407
1.460351739e-05
0.0006580721647
0.0001944046691
8.875972547e-05
4.754720616e-05
0.004715065813
0.004726828233
0.0001579252044
0.0009237405444
7.658994257e-05
5.705647833e-06
4.212015119e-06
2.092350854e-05
1.531039369e-06
1.404523746e-06
1.701845886e-06
1.563554462e-06
1.399926611e-06
1.308507039e-06
1.577239091e-06
4.235594281e-05
2.611731113e-05
1.616609728e-05
3.921968105e-06
3.401648609e-06
3.168812701e-06
2.816091534e-06
2.986950532e-06
0.0001075954892
1.28144338e-05
3.125015857e-06
2.792621351e-06
1.944411266e-06
1.847055507e-06
2.06612678e-06
6.96402341e-06
0.0001291296542
0.00034565991
8.409166159e-05
3.101825836e-05
1.195267309e-05
2.381803171e-06
3.256908867e-06
7.774849795e-06
3.760461801e-05
0.0001269985312
8.256110074e-05
7.322724556e-05
1.874815752e-05
1.102301088e-05
8.950708166e-06
7.203920368e-06
0.0002523802813
0.0001170915507
5.466221175e-05
1.258961117e-05
1.864946021e-05
5.539076736e-05
0.0001446508702
3.941183843e-05
1.001782563e-05
4.035636483e-06
0.0001041902558
5.742831029e-06
5.032865146e-06
5.854666056e-06
1.734785413e-05
2.068264372e-05
4.004757993e-05
8.942833657e-05
8.464156659e-06
2.178898051e-05
4.572819078e-05
6.381113008e-05
8.606187103e-05
2.901422387e-06
6.794813542e-06
2.660779155e-05
4.941469868e-05
0.0001435236439
7.234484123e-06
2.207188004e-06
7.133430446e-06
2.691075544e-05
0.00143608219
5.130847877e-05
0.002385904386
0.0001130474098
0.000244767019
1.12282901e-05
0.001092843707
2.002617665e-05
8.349799115e-05
8.674100861e-05
6.944858459e-06
5.522780658e-06
0.0007829565379
1.348469452e-05
6.479922099e-05
3.81131333e-05
4.787259191e-06
4.404883281e-06
1.575458041e-05
4.237768969e-06
0.0002545277969
0.0137243612
0.001240906103
4.614433998e-05
0.0001795755291
2.307308127e-05
0.0005447801818
2.480406516e-05
2.496331798e-05
7.205833651e-05
2.633896003e-05
2.793092868e-05
2.638132521e-05
2.28588378e-05
1.898384582e-05
1.577694126e-05
3.888080478e-06
3.037316038e-06
6.47724213e-05
2.581937901e-05
2.657005334e-05
2.019109029e-05
2.351735677e-05
2.423707736e-05
1.599536608e-05
1.547796827e-05
1.266376093e-05
1.034447176e-05
2.143363109e-06
2.237941064e-06
2.531635657e-06
2.057418802e-06
5.4363375e-05
1.924088953e-05
1.307831959e-05
1.546940094e-05
1.169630029e-05
5.914883082e-06
4.932340093e-06
6.049978013e-06
4.39570693e-06
2.234327265e-05
1.444563051e-05
8.693142243e-06
7.162860431e-06
3.618314114e-06
5.611801329e-06
1.709301095e-06
2.909981202e-06
2.824266342e-06
4.454203255e-06
7.362221348e-06
7.353406192e-06
1.242172451e-05
3.763098637e-06
2.566485666e-05
4.876879905e-06
2.775391837e-06
6.228355691e-06
3.88165834e-06
4.857225219e-06
3.248754955e-06
2.98954267e-06
3.215801338e-06
3.66005053e-06
4.397525731e-06
8.172463951e-06
7.530483752e-06
3.625975802e-06
3.427235048e-06
5.618055174e-06
6.132197384e-06
1.01980905e-05
1.098788188e-05
1.880730874e-05
2.776915779e-05
2.95185627e-05
4.153810849e-05
5.247254501e-05
1.253721882e-05
1.820742531e-05
2.787065899e-05
3.357780529e-05
4.348554117e-05
5.869913387e-05
5.617791912e-05
7.019317626e-05
7.72297408e-05
8.034334262e-05
3.083669238e-06
4.001216255e-06
1.832750814e-06
1.455860468e-05
3.183220563e-06
6.701360896e-06
3.946118021e-05
1.418064603e-05
2.596887565e-05
3.880844791e-05
1.852567031e-06
1.16752666e-05
2.211177849e-06
3.572377994e-06
2.105839683e-06
2.501902575e-06
1.475618706e-05
3.962301843e-06
7.761627724e-06
3.890720835e-06
1.597550277e-05
)
;

boundaryField
{
    walls
    {
        type            zeroGradient;
    }
    wallFilmFace_top
    {
        type            zeroGradient;
    }
    region0_to_wallFilmRegion_wallFilmFace
    {
        type            zeroGradient;
    }
    mirrorFace_top
    {
        type            zeroGradient;
    }
    region0_to_wallFilmRegion_mirrorFace
    {
        type            zeroGradient;
    }
    procBoundary2to0
    {
        type            processor;
        value           nonuniform List<scalar> 
26
(
3.22260751e-16
4.692225274e-16
2.888550316e-10
4.891926e-07
1.492446499e-05
1.623877088e-10
3.123893043e-10
1.800548325e-09
8.104701562e-09
3.378231022e-08
1.199626081e-07
8.817549625e-07
3.578527994e-06
3.364208131e-05
0.0001974091948
0.0002696025289
0.0002034862502
0.0003017783317
0.0003168769472
0.0002620503468
0.0002086404343
0.0001626149627
0.0001140517986
6.137375438e-05
2.260099554e-05
0.0002509483585
)
;
    }
    procBoundary2to1
    {
        type            processor;
        value           nonuniform List<scalar> 
33
(
3.02998139e-10
3.02998139e-10
5.156882904e-06
5.156882904e-06
3.054165312e-05
1.811938462e-05
5.916681672e-07
5.916681672e-07
1.136446554e-13
3.520913954e-07
4.917994919e-07
7.69691263e-12
2.814034097e-26
1.00293859e-29
4.68472637e-20
4.641825154e-12
9.516736789e-07
1.317321902e-06
3.397914216e-06
8.623570806e-06
1.765703725e-05
3.476734879e-05
5.883694739e-05
7.091676468e-05
3.014082908e-05
1.331203577e-06
5.503251039e-11
4.193351828e-11
3.244186362e-08
5.866366225e-07
4.978901585e-06
3.952804834e-06
9.119454805e-05
)
;
    }
    procBoundary2to3
    {
        type            processor;
        value           nonuniform List<scalar> 
64
(
5.079281531e-05
2.763144698e-05
2.560879973e-05
1.935050855e-05
1.072561241e-05
2.775313307e-06
4.653118299e-06
2.092410381e-05
1.365428277e-05
2.006945301e-06
1.269469567e-05
2.911324676e-06
1.305036523e-05
1.269469567e-05
2.012849145e-05
2.05451357e-05
2.067541099e-05
2.139556307e-05
2.524085144e-05
3.524049922e-05
4.689461643e-05
3.366526744e-05
5.802422455e-06
2.364971899e-05
2.364971899e-05
1.028663835e-05
0.0003926001069
0.0003926001069
8.239150126e-05
0.0003926001069
3.796370268e-06
3.408517608e-06
3.796370268e-06
3.083393156e-06
2.884756232e-06
0.0005922382416
1.214312114e-05
2.006945301e-06
0.0001024858424
3.796370268e-06
6.279374699e-06
3.173470561e-05
5.1404209e-05
6.836096908e-05
5.538322972e-05
4.017596108e-05
3.151071459e-08
4.239110353e-06
0.0005779292444
2.661003923e-05
2.763144698e-05
2.242905058e-05
1.345813963e-05
8.811085971e-06
3.127241724e-06
5.407731911e-06
4.288678747e-06
9.272542858e-06
4.486503635e-06
7.748502498e-06
6.072860735e-05
8.012538916e-05
4.893103862e-05
2.907890873e-05
)
;
    }
}


// ************************************************************************* //
