/*--------------------------------*- C++ -*----------------------------------*\
  =========                 |
  \\      /  F ield         | OpenFOAM: The Open Source CFD Toolbox
   \\    /   O peration     | Website:  https://openfoam.org
    \\  /    A nd           | Version:  8
     \\/     M anipulation  |
\*---------------------------------------------------------------------------*/
FoamFile
{
    version     2.0;
    format      ascii;
    class       volVectorField;
    location    "0.4/wallFilmRegion";
    object      U;
}
// * * * * * * * * * * * * * * * * * * * * * * * * * * * * * * * * * * * * * //

dimensions      [0 1 -1 0 0 0 0];

internalField   nonuniform List<vector> 
1342
(
(-1.03409621e-07 -4.760797353e-08 0)
(-1.080243425e-07 -1.127420321e-07 0)
(-0.0007303196869 -0.002181311068 0)
(-0.08379871336 -0.03179530417 0)
(-0.3225445754 -0.0233008311 0)
(-6.133646788e-06 -1.186974494e-05 0)
(0.8294875984 0.4986065133 0)
(0.7094222247 0.5559482148 0)
(0.6070663662 0.5945128433 0)
(0.5094774191 0.6044393788 0)
(0.4207865836 0.6030584079 0)
(-0.4653412334 0.6671178948 0)
(-0.5513761081 0.728716172 0)
(-0.5579703275 0.7278428642 0)
(-0.5388843299 0.7216331931 0)
(-0.5010754376 0.7134284104 0)
(-0.4626177369 0.6984902865 0)
(0.7595259591 0.9096786512 0)
(0.7496256554 1.225965266 0)
(0.6640025937 1.514935994 0)
(0.530744162 1.680010474 0)
(0.346725899 1.590380921 0)
(0.08161455149 1.189941354 0)
(-0.02516099999 1.106616882 0)
(-0.01675753507 1.141624128 0)
(-0.03324483158 1.437982969 0)
(0.1176682594 -0.7746976302 0)
(0.09699314816 -0.7146862734 0)
(0.02024680259 -0.5727355227 0)
(-0.1388038123 -0.3310248763 0)
(-0.329385687 -0.09330770872 0)
(-0.3484340365 -0.08998997371 0)
(0.1117830291 -0.5086576215 0)
(0.9393586824 0.5084292805 0)
(0.8064221405 0.5544442212 0)
(0.6983738721 0.5821561972 0)
(0.5922887198 0.5909610979 0)
(0.4990379734 0.5901850912 0)
(-0.2260908217 0.6552126926 0)
(-0.3381414398 0.7177863406 0)
(-0.3756447558 0.7948538828 0)
(-0.3760083524 0.8193499307 0)
(-0.3652075134 0.8103734227 0)
(-0.3531283056 0.7887842541 0)
(1.28630846 0.9111326316 0)
(1.223604696 1.13303711 0)
(1.009770561 1.285002028 0)
(0.6828066262 1.276763641 0)
(0.2915990064 1.07682567 0)
(0.1622542124 0.9936607269 0)
(0.1933988002 1.045151624 0)
(0.2249581915 0.07642561699 0)
(0.001494120456 1.175865019 0)
(0.0602068769 -0.5501771036 0)
(0.03686532071 -0.5228005426 0)
(-0.005685925832 -0.4621353625 0)
(-0.07748357161 -0.3550916835 0)
(-0.2016440147 -0.1949481073 0)
(-0.3309801283 -0.1224566211 0)
(-0.2279193084 -0.2624086551 0)
(-0.02671092473 -0.4009787282 0)
(0.9652297664 0.4961992796 0)
(0.8596824205 0.5548701387 0)
(0.7572725841 0.5721220285 0)
(0.6579711744 0.5784347831 0)
(0.5760667168 0.5775642579 0)
(0.1246137652 0.6284312742 0)
(-0.09460832906 0.696782025 0)
(-0.1977912881 0.7873651135 0)
(-0.2458636301 0.814967034 0)
(-0.2557686481 0.8026133114 0)
(-0.2462345532 0.7763826104 0)
(1.598286275 0.9049192404 0)
(1.442434324 1.035280516 0)
(1.098862913 1.099522634 0)
(0.5879147947 1.027026713 0)
(0.280685183 0.9729083897 0)
(0.2732865264 1.003501622 0)
(0.2922043188 1.047857655 0)
(0.305765755 0.7945164488 0)
(-0.02044481293 1.225027318 0)
(0.02934086141 -0.2140517594 0)
(0.02686383676 -0.2059655869 0)
(0.02152362346 -0.1705564545 0)
(0.01608411763 -0.12016835 0)
(-0.0217214359 -0.1187890933 0)
(-0.1477951993 -0.3854718093 0)
(0.01112433054 -0.5676939082 0)
(0.1548575648 -0.7195069583 0)
(0.2091005335 -0.7930683603 0)
(0.2047923898 -0.7202833757 0)
(0.2233047074 -0.6070154061 0)
(0.2634356892 -0.4289825099 0)
(0.311906102 -0.1674185974 0)
(0.1617877221 0.4804582107 0)
(0.156878883 0.6708188425 0)
(0.1594401648 0.7957180302 0)
(0.1598392297 0.9115923832 0)
(0.1625905006 1.028241874 0)
(0.1688415316 1.13857121 0)
(1.666204772 0.9158658807 0)
(1.380051414 1.022955341 0)
(0.8337701041 1.142621461 0)
(0.3598266537 1.283294324 0)
(0.2547124051 1.336422222 0)
(0.2653365041 1.327273303 0)
(0.2902752071 1.296555053 0)
(0.3152027296 1.222969043 0)
(0.1652827038 1.262051253 0)
(6.275900991e-05 -0.0004202020235 0)
(9.20412448e-05 -0.000637988295 0)
(6.248969244e-05 -0.0004510447383 0)
(2.473270481e-05 -0.0001666854928 0)
(5.36826678e-06 -2.58862539e-05 0)
(-0.6121493793 0.09915636236 0)
(-0.07066098451 -0.4264619341 0)
(0.07142938567 -0.5454994967 0)
(0.2389032874 -0.8103673724 0)
(0.2290594843 -0.7712684911 0)
(0.2317556104 -0.7062671261 0)
(0.2420673211 -0.623995785 0)
(0.2503532114 -0.530967035 0)
(0.348201436 0.6174017652 0)
(0.3279399369 0.7270110245 0)
(0.3162381545 0.8138436614 0)
(0.307383832 0.9026571233 0)
(0.2993780334 0.9968577486 0)
(0.2917927014 1.093413457 0)
(1.300745279 0.993721046 0)
(0.8795031939 1.123376021 0)
(0.4335634281 1.276120219 0)
(0.2989866159 1.360258913 0)
(0.2879912034 1.383357848 0)
(0.2977603868 1.374019982 0)
(0.3142532749 1.346085944 0)
(0.3347706949 1.293071427 0)
(0.2479070481 1.280989092 0)
(1.900885478e-12 -1.130117903e-11 0)
(-1.076277235e-12 -1.947812664e-11 0)
(-2.263402854e-11 -7.197240284e-11 0)
(-4.010337317e-11 -1.701840807e-10 0)
(-1.393513828e-11 -2.082377032e-10 0)
(-3.540484701e-10 -5.03536502e-09 0)
(-0.8590834549 0.2761447535 0)
(-0.4645724144 0.07180911565 0)
(0.299685578 -0.4607864543 0)
(0.3506792637 -0.6746697588 0)
(0.3025473677 -0.7123269972 0)
(0.3051083152 -0.6651914674 0)
(0.3202638943 -0.5949050907 0)
(0.3511351831 -0.4859174543 0)
(0.5485925252 0.593428703 0)
(0.4978500535 0.7184222138 0)
(0.4662712471 0.8048282624 0)
(0.4451718541 0.8889124675 0)
(0.4293996873 0.9769827259 0)
(0.4162549719 1.067088893 0)
(0.637524016 1.112450367 0)
(0.4668439242 1.209604099 0)
(0.3937594611 1.281885124 0)
(0.3745285843 1.322742534 0)
(0.3648935453 1.338190197 0)
(0.3607814126 1.332625783 0)
(0.3637559643 1.312685917 0)
(0.3726347482 1.27121855 0)
(0.2984069317 1.333999726 0)
(5.429388923e-12 2.483090073e-12 0)
(9.598492161e-12 -4.426915656e-12 0)
(1.309224159e-11 -1.519724381e-11 0)
(7.54864176e-12 -3.185896884e-11 0)
(-2.108097728e-09 -1.803378706e-09 0)
(-1.3171441e-09 -7.149101678e-09 0)
(-0.9210295368 0.3092966876 0)
(-0.7829662593 0.3052101633 0)
(-0.37855214 0.05325440359 0)
(0.1149108772 -0.4047533095 0)
(0.3857157318 -0.5403859837 0)
(0.4056716063 -0.4992930031 0)
(0.4345472437 -0.3959309341 0)
(0.4900953751 -0.1894706639 0)
(0.6928362235 0.5058897055 0)
(0.6502821175 0.6785122365 0)
(0.6101463037 0.7799733006 0)
(0.581627326 0.8684309609 0)
(0.5604391159 0.954072196 0)
(0.5430241587 1.03426001 0)
(0.5359765875 1.10317067 0)
(0.5133246812 1.156170442 0)
(0.4907613207 1.186427225 0)
(0.46529811 1.204333453 0)
(0.4409207765 1.216852393 0)
(0.4230007735 1.223713577 0)
(0.4146176944 1.22372982 0)
(0.4139628252 1.202330469 0)
(0.3359115619 1.402469796 0)
(-4.881522514e-12 -5.284880516e-13 0)
(-1.375695492e-11 -7.972022317e-12 0)
(-2.082202085e-11 -2.273742122e-11 0)
(-5.64015464e-11 -4.110332236e-11 0)
(-0.01155443505 0.002756831943 0)
(-4.292909364e-09 -1.049203271e-08 0)
(-0.9328678193 0.3355729838 0)
(-0.7853374109 0.3246860757 0)
(-0.6257892443 0.2683165855 0)
(0.1213043845 -0.09766880272 0)
(0.4206620546 -0.331298205 0)
(0.4835405757 -0.3070251153 0)
(0.5215327337 -0.1966569435 0)
(0.5840873009 0.0443801023 0)
(0.7750965827 0.4423513184 0)
(0.7740435699 0.63167641 0)
(0.7411817753 0.748199371 0)
(0.70916473 0.8429563131 0)
(0.6777694322 0.9249786412 0)
(0.646443112 0.9905450732 0)
(0.6157309622 1.036212926 0)
(0.5849501866 1.060264989 0)
(0.5537102184 1.049396961 0)
(0.5131371027 1.0502193 0)
(0.4781527273 1.068957449 0)
(0.4570721393 1.095085863 0)
(0.4498480608 1.119433527 0)
(0.4499670043 1.11713398 0)
(0.369091137 1.475481394 0)
(-1.128120344e-11 -6.258833105e-12 0)
(-2.732782407e-11 -1.755368415e-11 0)
(-5.030628856e-11 -4.723923922e-11 0)
(-1.906660444e-10 -1.275857275e-10 0)
(-0.3844407083 0.09234621986 0)
(-0.0006149660726 0.0001497492179 0)
(-0.8972719863 0.3549873504 0)
(-0.7683927435 0.3406606579 0)
(-0.610760843 0.2771234371 0)
(-0.04445391931 0.3119132778 0)
(0.4080771401 -0.1520901812 0)
(0.5203738554 -0.1310841123 0)
(0.5738110905 -0.03285610583 0)
(0.6266570428 0.1586982933 0)
(0.8051908383 0.4092898999 0)
(0.8600447381 0.5904697977 0)
(0.8504792838 0.715921545 0)
(0.8194090808 0.8153365191 0)
(0.773845048 0.8929393706 0)
(0.7181068365 0.9422853867 0)
(0.6629834097 0.9637696634 0)
(0.6134494178 0.9623041231 0)
(0.5892481343 0.9010724974 0)
(0.5054864373 0.9057687912 0)
(0.4750218915 0.9388317413 0)
(0.470415952 0.9817450604 0)
(0.478799275 1.024811662 0)
(0.4871903654 1.023570945 0)
(0.3908522669 1.525073467 0)
(-2.733554286e-11 -1.798250148e-11 0)
(-6.074878738e-11 -4.038529624e-11 0)
(-1.222358071e-10 -1.026815323e-10 0)
(-2.083140849e-09 -2.846198088e-09 0)
(-0.6484219173 0.1587117037 0)
(-0.06952582192 0.01699059215 0)
(-0.8219021934 0.3651471507 0)
(-0.7357269725 0.3537412288 0)
(-0.5813799008 0.2815502927 0)
(0.07336646913 0.3209911134 0)
(0.3918133823 0.05674695871 0)
(0.5269078192 0.03674585491 0)
(0.5974155812 0.1021949102 0)
(0.6461357059 0.2355415683 0)
(0.8125066844 0.4071743207 0)
(0.9131358197 0.5638713721 0)
(0.9348266567 0.688487254 0)
(0.9094432001 0.7884544798 0)
(0.8498522387 0.8604210702 0)
(0.763192981 0.8936293814 0)
(0.6742962033 0.8930237108 0)
(0.5737475798 0.840885557 0)
(0.4714245558 0.7632515059 0)
(0.4520887014 0.7849746282 0)
(0.4611100877 0.8280709186 0)
(0.4859374217 0.8828423025 0)
(0.5126323236 0.9396003369 0)
(0.5279020702 0.9177466868 0)
(0.3782748673 1.48873866 0)
(-5.091854134e-11 -4.452927268e-11 0)
(-1.137996739e-10 -9.85083378e-11 0)
(-2.416944721e-10 -2.165809897e-10 0)
(-8.65289665e-09 -8.839476159e-09 0)
(-0.7263737876 0.187106718 0)
(-0.3050709364 0.07589518245 0)
(-0.7118817312 0.3563288778 0)
(-0.6892746342 0.3641390013 0)
(-0.5367455011 0.2802604401 0)
(0.2473031176 0.3263413216 0)
(0.4594680659 0.311654486 0)
(0.5517595591 0.2039584016 0)
(0.6364731323 0.262134753 0)
(0.6796220799 0.3480708326 0)
(0.776929833 0.4237617893 0)
(0.8917471811 0.5211251774 0)
(0.9719506154 0.6358743711 0)
(0.9789046658 0.7445548977 0)
(0.9144835212 0.8197897582 0)
(0.7998399346 0.8447581218 0)
(0.6532784613 0.811641382 0)
(0.4817367975 0.6932299792 0)
(0.4091492571 0.6558006719 0)
(0.4183608867 0.6807576173 0)
(0.4566615565 0.7301003205 0)
(0.5041614586 0.7955950823 0)
(0.5417496813 0.8637251662 0)
(0.5603435474 0.8429504506 0)
(0.3623835341 1.419911733 0)
(-1.417590763e-10 -1.038633298e-10 0)
(-2.433954677e-10 -2.113450553e-10 0)
(-4.428675837e-10 -4.137844337e-10 0)
(-4.330999954e-07 -3.377874607e-07 0)
(-0.717826518 0.2010698014 0)
(-0.4657566615 0.1200357497 0)
(-0.6209433179 0.3461369242 0)
(-0.6292828055 0.3719832524 0)
(-0.4714048845 0.2706088761 0)
(0.4808004503 0.3310836183 0)
(0.642287507 0.3975262391 0)
(0.6304755698 0.3492346428 0)
(0.1513585447 0.4890295294 0)
(-0.1818516216 0.7285762489 0)
(-0.07773638021 0.6547887093 0)
(-0.02548110643 0.6162076465 0)
(0.3748311353 0.6109356934 0)
(0.6985076324 0.6658340964 0)
(0.8644107395 0.7369419698 0)
(0.8263562572 0.7751104566 0)
(0.6314084083 0.690819462 0)
(0.4440003316 0.5976108325 0)
(0.3750718613 0.5725577919 0)
(0.3930606359 0.5956777572 0)
(0.4567957368 0.6590010109 0)
(0.5201986123 0.735758162 0)
(0.5640435221 0.8106679159 0)
(0.5859437871 0.8144525796 0)
(0.359310065 1.356497503 0)
(-1.820472512e-09 -1.236328539e-09 0)
(-3.831900699e-09 -2.297729567e-09 0)
(-2.863181155e-07 -2.636786969e-07 0)
(-0.003599011702 -0.004530757653 0)
(-0.6643287851 0.2058293749 0)
(-0.5160377998 0.1391913821 0)
(-0.5388194273 0.3609876517 0)
(-0.5477344168 0.3774457113 0)
(-0.3578984986 0.2421276832 0)
(0.7215596392 0.3296700291 0)
(0.8247398793 0.3990920931 0)
(0.7617384393 0.4232983293 0)
(-0.1547902033 0.526424746 0)
(-0.5422811908 0.5681181971 0)
(-0.5850001412 0.58750179 0)
(-1.020213665 0.6332938775 0)
(-0.07317735059 0.6212494713 0)
(0.3908108313 0.6236289537 0)
(0.6172389368 0.6530140969 0)
(0.6470282155 0.6619112589 0)
(0.5062546213 0.5883791811 0)
(0.3716359296 0.4921490124 0)
(-0.4161353957 0.5435061983 0)
(0.2062077558 0.5175367118 0)
(0.4828663849 0.612358407 0)
(0.5677403473 0.7093947105 0)
(0.6093320342 0.7883429198 0)
(0.6335216868 0.8156368504 0)
(0.377946127 1.317100454 0)
(0.4152579301 -0.8985465494 0)
(0.4639681741 -0.924613506 0)
(0.3184418826 -0.7017989475 0)
(-0.2046505232 -0.2398468123 0)
(-0.6105037324 0.2080058615 0)
(0.5251510654 -0.3688842716 0)
(0.5481659854 0.3479993407 0)
(0.5492039225 0.4639475507 0)
(0.4899420603 0.5644394534 0)
(0.8479711632 0.3453602623 0)
(0.9446601032 0.3897100546 0)
(0.8868598921 0.4303976056 0)
(-0.07840162867 0.5230095819 0)
(-0.5012285291 0.5690605339 0)
(-0.624078545 0.5904539793 0)
(-1.293177746 0.6442475474 0)
(-1.167027525 0.7976379186 0)
(0.02736641155 0.6881630583 0)
(0.417916518 0.6434724414 0)
(0.4639847533 0.6174067485 0)
(0.374135981 0.5778382113 0)
(0.2495136624 0.3932797969 0)
(-1.392856285 0.8163262446 0)
(-0.7600540868 0.8059573234 0)
(0.419372583 0.6689612873 0)
(0.7297972895 0.7317869645 0)
(0.747367685 0.8076734157 0)
(0.7622624277 0.8545961612 0)
(0.4336406287 1.331473431 0)
(0.438687525 -0.7939200779 0)
(0.4821100945 -0.7902217871 0)
(0.4150692004 -0.6569073237 0)
(-0.05265571999 -0.238095743 0)
(-0.5402780392 0.2094396899 0)
(0.5773082308 -0.3679226159 0)
(0.6354802569 0.3523209937 0)
(0.6259661245 0.4443115115 0)
(0.5970136301 0.5384468159 0)
(0.8546916082 0.3831841477 0)
(0.9832139854 0.3828246903 0)
(0.9638069052 0.4166635417 0)
(0.07840920175 0.5138808565 0)
(-0.4131872519 0.5847897132 0)
(-0.5532263505 0.6214704237 0)
(-0.6837549622 0.6606020448 0)
(-0.6450048271 0.8891517145 0)
(-0.5299751491 0.9433488078 0)
(0.1603570989 0.7413589007 0)
(0.3467766865 0.6802559584 0)
(0.3174939512 0.6711454984 0)
(0.3049108961 0.6760282796 0)
(-1.206898037 0.9539852269 0)
(-1.031271287 1.078647992 0)
(-0.2533755991 0.965328728 0)
(0.8114369046 0.8200170809 0)
(0.9951029337 0.8593706977 0)
(0.9802039939 0.9156164237 0)
(0.5217276316 1.423113678 0)
(0.5767999102 -0.8393182487 0)
(0.5796652305 -0.6644763096 0)
(0.5766042473 -0.4848483768 0)
(0.5720889565 -0.2785818109 0)
(0.5842046594 0.2362732524 0)
(0.6153496972 0.3273412701 0)
(0.6215620294 0.4899939269 0)
(0.6213462411 0.682278595 0)
(0.6260857106 0.8898827409 0)
(0.6392020271 0.9908760452 0)
(0.6829795978 0.9180446412 0)
(0.7566530405 0.7248570427 0)
(0.6228808462 0.4387785347 0)
(0.5494304366 -0.8567281057 0)
(0.5509905135 -0.659436951 0)
(0.5498569583 0.6569367038 0)
(0.5502609276 1.113994154 0)
(0.5516186684 1.621822312 0)
(0.5421792965 2.045819367 0)
(0.5306597702 2.296751771 0)
(0.5197387364 2.357697951 0)
(0.5153405799 2.092647964 0)
(-0.6413129611 1.01836943 0)
(-0.6688463179 1.199656519 0)
(-0.5457343988 1.27735484 0)
(0.1932300273 1.143538696 0)
(0.98610554 0.9650628421 0)
(1.146145268 0.9382862195 0)
(0.6087196992 1.551397268 0)
(0.6363022948 -0.7597617494 0)
(0.6414921523 -0.5996497728 0)
(0.6454023811 -0.4399202859 0)
(0.6526223746 -0.2715209234 0)
(0.677852736 0.2445413266 0)
(0.6825563055 0.3302482268 0)
(0.6828613555 0.4514897539 0)
(0.6816307761 0.6113216616 0)
(0.6858660349 0.7900560575 0)
(0.6994381598 0.8756306644 0)
(0.7096628012 0.8439606652 0)
(0.7336055895 0.7202212145 0)
(0.7027160071 0.5537750838 0)
(0.6580170261 0.2839182154 0)
(0.6213588007 -0.03609750748 0)
(1.056714848 0.6563126972 0)
(1.023050101 1.077876967 0)
(0.9689646922 1.534855592 0)
(0.8890075401 1.915678234 0)
(0.8069114513 2.121030357 0)
(0.6997822833 1.78865299 0)
(0.6043975363 0.7299360808 0)
(0.5908736522 0.9362040536 0)
(0.5913135322 1.37428196 0)
(0.5933856992 1.85685809 0)
(0.6032028484 2.263803375 0)
(0.6422838456 2.475876707 0)
(0.7190789404 2.417614518 0)
(0.684206748 1.7459428 0)
(0.6888072571 -0.7124719184 0)
(0.7009725196 -0.5687361016 0)
(0.7088433228 -0.4216941724 0)
(0.7204599455 -0.2709882581 0)
(0.747840361 0.2521282543 0)
(0.7457781005 0.3273676647 0)
(0.7415198961 0.4353880078 0)
(0.7393189141 0.5890678647 0)
(0.7457808983 0.7504130977 0)
(0.7697702705 0.7700306135 0)
(0.7548107247 0.7036264032 0)
(0.7522206477 0.5852947045 0)
(0.7480710006 0.4963264547 0)
(0.7513052706 0.5695634393 0)
(0.7403111365 0.5968414017 0)
(1.571423533 0.6601103881 0)
(1.503281414 1.033256556 0)
(1.375456898 1.411116022 0)
(1.204300174 1.690523855 0)
(0.9768150347 1.726327452 0)
(0.7639232142 1.372897789 0)
(0.6725415639 0.9773414491 0)
(1.137421231 0.9432147591 0)
(1.112988051 1.340905406 0)
(1.059810556 1.762570296 0)
(0.9801808556 2.075171398 0)
(0.9025092129 2.148129428 0)
(0.8966824174 1.937824267 0)
(0.7337576374 1.725267309 0)
(0.72331168 -0.6661856398 0)
(0.7593941614 -0.5479433587 0)
(0.7787192073 -0.4128942794 0)
(0.7970745853 -0.271757168 0)
(0.8186305502 0.2572934308 0)
(0.8123429752 0.3251296625 0)
(0.804878191 0.4262678879 0)
(0.799468824 0.5872815817 0)
(0.8047712309 0.7143915568 0)
(0.8212047827 0.6566162765 0)
(0.7898064255 0.4862553982 0)
(0.7683130074 0.3345958987 0)
(0.827780144 0.447701896 0)
(0.8422439026 0.6136965506 0)
(0.8288585359 0.7039902687 0)
(2.047359701 0.6642989018 0)
(1.918800457 0.9738412456 0)
(1.679023103 1.265831957 0)
(1.312466614 1.388759035 0)
(0.9343424867 1.309739684 0)
(0.7590260797 1.210662912 0)
(0.7117751906 1.164337002 0)
(1.639732032 0.9631493433 0)
(1.582048526 1.291268579 0)
(1.412904279 1.59107788 0)
(1.157327184 1.711519575 0)
(0.9484595251 1.609875201 0)
(0.8971375444 1.367547215 0)
(0.764179834 1.71631194 0)
(0.71343167 -0.5948384113 0)
(0.7952060926 -0.5163264156 0)
(0.8462069097 -0.4023909348 0)
(0.8828688245 -0.2710698355 0)
(0.8988605416 0.2590012597 0)
(0.8875278823 0.3222870142 0)
(0.8773546551 0.4188353471 0)
(0.8654156825 0.5889312615 0)
(0.8577573497 0.666532416 0)
(0.7947327904 0.4748905763 0)
(0.7531265905 0.3261949833 0)
(0.7753032018 -0.01035725166 0)
(0.943333737 0.4386441138 0)
(0.9316850918 0.6050274633 0)
(0.9084522986 0.6995052766 0)
(2.390497763 0.667845091 0)
(2.160148179 0.9145337009 0)
(1.708524665 1.100471426 0)
(1.151000201 1.132849038 0)
(0.8561144586 1.133035808 0)
(0.7759388759 1.157944568 0)
(0.7433908543 1.15818034 0)
(1.893852522 0.9988651017 0)
(1.750837787 1.219762569 0)
(1.396239631 1.355898029 0)
(1.015007182 1.340980944 0)
(0.8130815772 1.221283129 0)
(0.8311878846 1.088783491 0)
(0.7953512834 1.710469715 0)
(0.6564936771 -0.4991427891 0)
(0.7853971547 -0.4622222005 0)
(0.8865381987 -0.3799323665 0)
(0.9598534254 -0.2657047756 0)
(0.9938994137 0.2557220705 0)
(0.9748609698 0.3173943779 0)
(0.9609641843 0.4106523444 0)
(0.9376224746 0.5863830102 0)
(0.8524879244 0.5572376035 0)
(0.7681094988 0.2872986733 0)
(0.7568207784 0.1436725972 0)
(0.7131617592 -0.09030572475 0)
(0.9325661803 0.3609005662 0)
(0.9861775814 0.5561422663 0)
(0.9803508629 0.671661685 0)
(2.50196133 0.6763653779 0)
(2.085630695 0.8640200556 0)
(1.420675745 0.9726328508 0)
(0.9834733014 1.025854896 0)
(0.8591117805 1.077495224 0)
(0.8103018228 1.111254889 0)
(0.7775855082 1.112294088 0)
(1.636865719 1.03172573 0)
(1.419643979 1.119214891 0)
(1.035140519 1.13740094 0)
(0.7703281003 1.099358231 0)
(0.7211756431 1.046069416 0)
(0.8114783647 0.9818618593 0)
(0.829812184 1.694605949 0)
(0.5157387758 -0.359221451 0)
(0.7072421867 -0.3798616987 0)
(0.8647111163 -0.3375968037 0)
(0.9891455291 -0.2519858603 0)
(1.106823683 0.2462080946 0)
(1.075572729 0.3092876545 0)
(1.055014333 0.4001035712 0)
(1.012823256 0.5751899019 0)
(0.8468061801 0.4375861432 0)
(0.7472679843 0.1215480005 0)
(0.7429866798 -0.05214302483 0)
(0.6231882303 0.06636759386 0)
(0.8531685765 0.3198192372 0)
(0.9906493499 0.5036174534 0)
(1.031856149 0.6338082903 0)
(2.217596951 0.6948229578 0)
(1.637061002 0.8266350471 0)
(1.125619383 0.9139255442 0)
(0.9532362469 0.9834945894 0)
(0.8754994645 1.032486715 0)
(0.7949978274 1.048064617 0)
(0.6732702878 0.984663748 0)
(0.8989388701 0.9504672801 0)
(0.7699814189 0.9230849918 0)
(0.6219259011 0.89716225 0)
(0.5830687715 0.911187938 0)
(0.653008588 0.9239903644 0)
(0.7778433304 0.9074381679 0)
(0.8621805274 1.660440899 0)
(0.1349200078 -0.08934311191 0)
(0.4759031263 -0.2391172214 0)
(0.7410911326 -0.2726958678 0)
(0.9404209567 -0.2298261406 0)
(1.23753284 0.2301821286 0)
(1.187358999 0.2973124219 0)
(1.155155741 0.3860569101 0)
(1.087264291 0.5553722579 0)
(0.8336377368 0.3903560891 0)
(0.7671403904 0.02113422639 0)
(0.7057839329 -0.0667961628 0)
(0.57750488 0.1528344532 0)
(0.7950474539 0.320948882 0)
(0.9746995354 0.4751295244 0)
(1.06241737 0.6022750835 0)
(1.564463839 0.7035901791 0)
(1.22052345 0.79947823 0)
(1.057221547 0.879405037 0)
(0.9720724238 0.9434213956 0)
(0.8733878562 0.9872003236 0)
(0.6981538583 0.9547210461 0)
(0.524795812 0.8930839668 0)
(0.446164405 0.8393735315 0)
(0.3633899984 0.7805153729 0)
(0.3585465771 0.7809697667 0)
(0.4234116633 0.8139442304 0)
(0.5496432082 0.8498089962 0)
(0.6890911187 0.859144252 0)
(0.8872043092 1.610078132 0)
(1.17311526e-05 -7.67974944e-06 0)
(0.05494143953 -0.02660549387 0)
(0.4928504107 -0.1833563824 0)
(0.9062924608 -0.2051420834 0)
(1.379089204 0.2093981175 0)
(1.303206442 0.2814488043 0)
(1.253862901 0.3680006917 0)
(1.158512108 0.52712302 0)
(0.8516799201 0.3482265496 0)
(0.7974851273 -0.00578652227 0)
(0.6748122488 0.04214939499 0)
(0.5608121732 0.2014249579 0)
(0.7701581875 0.3403506057 0)
(0.9668453385 0.47302533 0)
(1.082132443 0.5876793499 0)
(1.195918381 0.6872175163 0)
(1.136061772 0.7702802572 0)
(1.074453903 0.8405205243 0)
(0.9786487333 0.8961444097 0)
(0.8117161805 0.9252323201 0)
(0.6334778439 0.8688789395 0)
(0.4700319408 0.8254999329 0)
(0.3545707267 0.7970073995 0)
(0.283232947 0.7674455392 0)
(0.2975405355 0.7724096392 0)
(0.3748813065 0.7964130787 0)
(0.5024721734 0.8302794501 0)
(0.6251485209 0.8406861058 0)
(0.9083801624 1.5525822 0)
(6.617125541e-05 -5.755931588e-05 0)
(0.05960571266 -0.0436698814 0)
(0.4540411654 -0.2225116176 0)
(1.031938311 -0.1863747928 0)
(1.521168778 0.1878821378 0)
(1.413666897 0.262018627 0)
(1.34390891 0.3461213638 0)
(1.224730634 0.4918882392 0)
(0.9546483244 0.3320099922 0)
(0.8406531446 0.05245206423 0)
(0.6798539885 0.1333613625 0)
(0.567650661 0.2371827029 0)
(0.7720521408 0.364366498 0)
(0.9710819024 0.4839845488 0)
(1.092842175 0.5876722219 0)
(1.151944078 0.6739218571 0)
(1.142005247 0.7425777358 0)
(1.06130267 0.7937728601 0)
(0.9258277649 0.8203113696 0)
(0.7996031634 0.8288341833 0)
(0.6510509965 0.8168701048 0)
(0.4966987444 0.8039292767 0)
(0.3584074051 0.7879794206 0)
(0.2962646268 0.7796336872 0)
(0.3263437217 0.7877363933 0)
(0.4031095999 0.8063904349 0)
(0.5085246025 0.832534108 0)
(0.6023880153 0.8324233301 0)
(0.9294304043 1.491623496 0)
(0.009604703024 -0.006745701001 0)
(0.2443706124 -0.1460780957 0)
(0.7640695087 -0.2749314193 0)
(1.257102873 -0.181133173 0)
(1.661015918 0.1672684519 0)
(1.512484906 0.2377621624 0)
(1.422234208 0.3202496329 0)
(1.286149525 0.4504004774 0)
(1.0359219 0.3158758011 0)
(0.875913066 0.1279399792 0)
(0.7020774774 0.1880829494 0)
(0.6022209425 0.2637983388 0)
(0.7932727671 0.3862569741 0)
(0.9807094767 0.4961394555 0)
(1.091760694 0.5890312308 0)
(1.134047155 0.6690043322 0)
(1.092127989 0.6903975293 0)
(1.027134529 0.7286466942 0)
(0.9230724851 0.7536024828 0)
(0.8091445986 0.7699833196 0)
(0.6741864551 0.7824080519 0)
(0.5261421709 0.7995490972 0)
(0.4106169198 0.8134280728 0)
(0.3835183494 0.8149645349 0)
(0.4142465073 0.8171374733 0)
(0.4713367441 0.8260766551 0)
(0.5452872656 0.8407266122 0)
(0.6101202352 0.8243990562 0)
(0.9506277767 1.428451457 0)
(0.05957805464 -0.04706876474 0)
(0.1626159037 -0.1596589344 0)
(0.07573081181 -0.1156972946 0)
(0.001121075949 0.04997344515 0)
(1.444860088 0.1332203977 0)
(1.564526966 0.2041557055 0)
(1.48606013 0.2880908722 0)
(1.344095364 0.4016163634 0)
(1.098165028 0.2786156698 0)
(0.8930652536 0.1640971458 0)
(0.7360428883 0.2090202593 0)
(0.6739281114 0.2895106568 0)
(0.8265546109 0.400550021 0)
(0.9885126083 0.5005704695 0)
(1.080313028 0.5819017482 0)
(1.105582294 0.6482499916 0)
(1.062170863 0.6575208571 0)
(1.004749812 0.6819104739 0)
(0.9202737383 0.7061829451 0)
(0.817088059 0.7331345431 0)
(0.6967890037 0.7780295978 0)
(0.5810692907 0.8411804045 0)
(0.5160842949 0.8685202549 0)
(0.5010145223 0.8607084905 0)
(0.5147140016 0.8524926683 0)
(0.548629272 0.8506288655 0)
(0.5950555286 0.852963994 0)
(0.6367381035 0.8197765896 0)
(0.9697097757 1.36526155 0)
(0.006632212697 -0.1816618018 0)
(-0.1190013401 -0.3071715744 0)
(-0.07127749878 -0.1431356751 0)
(-0.5586668821 0.1202733772 0)
(1.525477141 0.1241188865 0)
(1.59313728 0.1589614181 0)
(1.535579173 0.2403848836 0)
(1.396456781 0.3440268433 0)
(1.128474535 0.2066180943 0)
(0.9008929368 0.1490287076 0)
(0.7929320899 0.211605253 0)
(0.7872995185 0.3298043719 0)
(0.8672412548 0.3916800351 0)
(0.9904183574 0.4850948616 0)
(1.061516989 0.5592756074 0)
(1.07484598 0.6129943024 0)
(1.039047969 0.6261740418 0)
(0.9855826686 0.6458574891 0)
(0.9117667701 0.6727348576 0)
(0.8257645073 0.721026538 0)
(0.7434189229 0.8120181024 0)
(0.6806177235 0.8974271914 0)
(0.6366793739 0.9174125506 0)
(0.6123073404 0.9060717516 0)
(0.609375495 0.8921557697 0)
(0.6248899916 0.8817285182 0)
(0.6511715614 0.8734895702 0)
(0.6765064949 0.8237499425 0)
(0.9889503726 1.300544849 0)
(-0.4167489062 -0.3648125287 0)
(-0.5108332342 -0.533585155 0)
(-0.1888380409 -0.1580631597 0)
(-0.4823198453 0.1175848657 0)
(1.692768227 0.1079751749 0)
(1.570806198 0.08116312849 0)
(1.494567046 0.1539031322 0)
(1.110657439 0.2825911345 0)
(0.893314955 0.1242006027 0)
(0.8100672662 0.09407794415 0)
(0.8891202842 0.2290930113 0)
(0.9305826736 0.3931872173 0)
(0.8586547664 0.3410820171 0)
(0.951186547 0.4436667329 0)
(1.023028085 0.5226818599 0)
(1.037138905 0.5745286008 0)
(1.007621927 0.5958808873 0)
(0.9535922832 0.6198710229 0)
(0.8753365542 0.6643490264 0)
(0.7785455978 0.7621523851 0)
(0.6833701195 0.8869612196 0)
(0.6157610218 0.9514671189 0)
(0.5792113513 0.9613398524 0)
(0.5656419558 0.9488179149 0)
(0.5681884553 0.9300834298 0)
(0.5818474777 0.9120529111 0)
(0.5955722684 0.8957108167 0)
(0.62554002 0.8561139955 0)
(0.7238949203 1.247797529 0)
(0.7069895225 0.6615548888 0)
(0.4891218859 -0.5859560838 0)
(0.533910156 -0.05894937296 0)
(0.5245615727 0.122120873 0)
(1.122247254 0.1988497979 0)
(0.8537842053 0.3589615211 0)
(0.6915251366 0.5677220143 0)
(0.7259493429 0.6370695883 0)
(0.8148895757 0.5290372722 0)
(0.8577261136 0.4618634054 0)
(0.9053804793 0.4111900403 0)
(1.135333814 0.3908825437 0)
(1.453332876 0.1744163799 0)
(1.468993406 0.1711907237 0)
(1.492944291 0.230546712 0)
(1.521721546 0.3075190465 0)
(1.556956142 0.3775749805 0)
(1.599577889 0.4430148473 0)
(1.637348998 0.5088155059 0)
(1.657052646 0.5737878895 0)
(1.654893413 0.6351243947 0)
(1.634174411 0.6936097541 0)
(1.598507392 0.7507231072 0)
(1.549995256 0.8068189988 0)
(1.490562981 0.8611719731 0)
(1.422431548 0.9114895421 0)
(1.348288776 0.9591114368 0)
(1.281199561 0.8083127805 0)
(1.007541388 0.9890864552 0)
(-0.4706137626 -0.002038939931 -1.435986887)
(-1.721118132 -0.007115429402 -5.013824716)
(-1.744662046 0.2365121985 -3.993152876)
(-2.280492418 0.2541729091 -4.425145669)
(-2.857011634 0.9512228334 -3.725425434)
(-2.896400691 1.024198624 -4.026448465)
(-3.077742291 1.131443474 -4.465493593)
(-3.092099116 1.27092797 -4.998968507)
(-6.30870043 -2.090635242 -3.863991926)
(-6.24758821 -2.70718322 -5.181579273)
(-6.341687524 -3.198963657 -6.061584278)
(-5.872126191 -3.495886205 -6.652083615)
(-7.143633843 -2.820254088 -2.923500142)
(-7.135917066 -3.635938672 -3.971893218)
(-7.186789113 -4.288311077 -4.660592113)
(-6.443650914 -4.581234768 -5.011947553)
(-8.152731179 -2.828633 -1.76701927)
(-8.549113288 -3.684061209 -2.347653686)
(-8.329976131 -4.275656165 -2.712775069)
(-7.174595537 -4.146839067 -2.630564005)
(-5.846713212 2.049379635 -0.9466326505)
(-5.844508451 2.39531581 -1.167865625)
(-5.888076211 2.653617587 -1.299108861)
(-5.671829934 2.891997781 -1.415351854)
(3.353276087e-06 -1.73524793 -1.973262711)
(0.0002154308632 -1.364023893 -2.156914274)
(3.942885736e-05 -1.418786197 -1.98718616)
(0 -0.6902102949 -1.703176128)
(-5.275101037e-06 -1.632639164 -1.226215784)
(2.784551921e-07 -1.515076747 -1.966514297)
(0 0.7154491422 -2.615671461)
(0 0.766809182 -3.745903755)
(0 1.136090944 -4.061681482)
(0 0.8908808953 -2.674748107)
(0 1.364828111 -4.166307523)
(0 1.563168748 -4.139751038)
(0 1.036763612 -2.505957305)
(0 1.733743702 -4.001084863)
(0 1.86229007 -3.79010525)
(0 1.03986723 -2.119548545)
(0 1.940762488 -3.53345959)
(0 1.969552603 -3.24612746)
(0 0.9233797268 -1.730381449)
(0 1.955149402 -2.943897386)
(0 1.906491248 -2.644713978)
(0 0.7673485686 -1.401681737)
(0 1.833991456 -2.362042161)
(0 1.74788401 -2.087447329)
(3.064585134e-07 -0.2162203804 -0.1568853933)
(1.994909606e-07 1.810597974 -2.151799581)
(7.59631007e-06 2.375370435 -3.286317312)
(2.979457558e-06 0.1319842409 -0.3579857562)
(5.868539162e-05 2.054021656 -2.921569777)
(0.000243155906 1.964168508 -1.456782166)
(-4.418524757e-05 -1.383149315 -2.10784648)
(-0.0009153843573 -1.372155673 -2.231705881)
(-0.001156112586 -1.380988689 -2.196218682)
(0.0008911328948 2.009929765 -2.453143046)
(-0.001113345561 1.847403799 -2.408075331)
(-0.0003533137796 1.932103658 -2.404903562)
(0.002223826493 -1.424615204 -2.205713527)
(0.002437366538 -1.619087167 -1.745438083)
(-2.420400517 0.7189446491 -3.5509821)
(0.00309647619 2.125276609 -1.927782909)
(0.0007057057703 -1.661230222 -1.577386769)
(-1.401003422e-05 -1.471747997 -1.01083593)
(1.450339791e-05 -1.684837613 -1.412332119)
(-4.823401146e-07 -1.579815858 -1.104240209)
(-0.0003827938875 2.102993973 -1.598369228)
(-5.58866182e-07 2.019348878 -1.254622068)
(1.694046576e-05 2.062481206 -1.68252173)
(0 -1.652300861 -1.125758715)
(0 -1.175998339 -0.6073716551)
(0 -1.59189361 -0.8787233164)
(0 -1.404403834 -0.677426337)
(0 1.858649637 -0.9132204175)
(0 1.652318083 -0.6326012641)
(0 1.839448557 -0.9350855969)
(0 -1.017520769 -0.3486429302)
(0 -0.2643886715 -0.09679521825)
(0 0.8331371111 -0.1481455822)
(0 1.383796521 -0.4481330063)
(0.236145144 0.1885688769 -0.0003011598056)
(-0.3211004251 0.5669007478 -0.0009038861006)
(0.3437749513 0.3805768513 -0.0006065911029)