/*--------------------------------*- C++ -*----------------------------------*\
  =========                 |
  \\      /  F ield         | OpenFOAM: The Open Source CFD Toolbox
   \\    /   O peration     | Website:  https://openfoam.org
    \\  /    A nd           | Version:  8
     \\/     M anipulation  |
\*---------------------------------------------------------------------------*/
FoamFile
{
    version     2.0;
    format      ascii;
    class       scalarField;
    location    "1.7/lagrangian/reactingCloud1";
    object      d;
}
// * * * * * * * * * * * * * * * * * * * * * * * * * * * * * * * * * * * * * //


75
(
0.0009363368671
0.0005382856467
0.0005820183718
0.0007669504898
0.0005585282431
0.0009495594029
0.0005316617117
0.001198464138
0.0009106255762
0.0008664969818
0.001122525449
0.0006473781666
0.0006395471085
0.000907589442
0.0005681016941
0.0005788131917
0.0006313449653
0.001167550724
0.0005380439867
0.0006635023031
0.000585036642
0.0009948670437
0.0006250045163
0.0009761348141
0.0009052618574
0.0005360261967
0.0009467667526
0.0009277392845
0.001031020293
0.0005646527371
0.0005444699812
0.0005051683483
0.0005716014878
0.0009508984705
0.0005200560662
0.0007632689035
0.0007431155275
0.00110233478
0.0006684691678
0.0007992212318
0.0005788974486
0.000601213215
0.0006199921063
0.000616645247
0.0005010319044
0.0006073595426
0.000769831974
0.0005790909987
0.0007284333402
0.0007465657539
0.00106675061
0.0009331211369
0.0005581765787
0.0006151157377
0.0008031270148
0.0006024446413
0.0006155749343
0.0005070232124
0.0006831092983
0.0006059591947
0.0005833750492
0.0006582896884
0.0007150886557
0.0005365519915
0.0006538555129
0.0005091584852
0.0007526376209
0.0006821783328
0.0006196001143
0.0005630877075
0.0007747752
0.0005561650198
0.0008207694697
0.0005468396895
0.0005581330021
)


// ************************************************************************* //
