/*--------------------------------*- C++ -*----------------------------------*\
  =========                 |
  \\      /  F ield         | OpenFOAM: The Open Source CFD Toolbox
   \\    /   O peration     | Website:  https://openfoam.org
    \\  /    A nd           | Version:  8
     \\/     M anipulation  |
\*---------------------------------------------------------------------------*/
FoamFile
{
    version     2.0;
    format      ascii;
    class       scalarField;
    location    "1.7/lagrangian/reactingCloud1";
    object      mass0;
}
// * * * * * * * * * * * * * * * * * * * * * * * * * * * * * * * * * * * * * //


75
(
4.274691608e-07
8.121697632e-08
1.026640751e-07
2.349148144e-07
9.072852175e-08
4.482961802e-07
7.86873243e-08
8.963622282e-07
3.93213078e-07
3.387736171e-07
7.365411364e-07
1.412806106e-07
1.362153458e-07
3.89293116e-07
9.54743416e-08
1.015345583e-07
1.317646118e-07
8.287731851e-07
8.155525845e-08
1.529417046e-07
1.042695795e-07
5.12747501e-07
1.2713288e-07
4.843260466e-07
3.884376236e-07
8.019854033e-08
4.443524896e-07
4.158016989e-07
5.707028735e-07
9.374599693e-08
8.451240164e-08
6.750050428e-08
9.724974485e-08
4.501954163e-07
7.324178478e-08
2.328259209e-07
2.136866676e-07
7.013570281e-07
1.555437487e-07
2.673004318e-07
1.010213867e-07
1.131602696e-07
1.247834827e-07
1.220996964e-07
6.549445968e-08
1.166664538e-07
2.388836671e-07
1.011227476e-07
2.012694516e-07
2.178726999e-07
6.321164874e-07
4.230800035e-07
9.055725428e-08
1.218622347e-07
2.697497942e-07
1.138570315e-07
1.221353565e-07
6.824677755e-08
1.659888857e-07
1.165007608e-07
1.039542319e-07
1.485455256e-07
1.904092686e-07
8.043477534e-08
1.455639352e-07
6.911265541e-08
2.220067547e-07
1.653111639e-07
1.24546948e-07
9.296865717e-08
2.435150206e-07
8.958172693e-08
2.879201104e-07
8.515075511e-08
9.103569896e-08
)


// ************************************************************************* //
