/*--------------------------------*- C++ -*----------------------------------*\
  =========                 |
  \\      /  F ield         | OpenFOAM: The Open Source CFD Toolbox
   \\    /   O peration     | Website:  https://openfoam.org
    \\  /    A nd           | Version:  8
     \\/     M anipulation  |
\*---------------------------------------------------------------------------*/
FoamFile
{
    version     2.0;
    format      ascii;
    class       scalarField;
    location    "1.7/lagrangian/reactingCloud1";
    object      nParticle;
}
// * * * * * * * * * * * * * * * * * * * * * * * * * * * * * * * * * * * * * //


75
(
100.004235
102.9739248
104.7058477
101.7518087
107.6395033
1109.367841
6254.473996
100.0007272
105.1502948
100.2744861
453.7128687
100.1559468
160.3501616
101.813896
103.1562573
5004.5654
3883.879817
100.4413635
6200.638552
3110.077217
101.9221195
100.2676171
105.9678771
100.0963208
1306.228587
100.2864881
1128.896608
102.4864402
100.1366364
106.0626256
5883.065622
7359.807014
104.3084927
1098.936358
116.1810004
2158.446638
100.3940627
712.3187827
102.0522969
1872.444639
102.4899646
101.6452078
4049.305182
100.1882679
101.0760205
100.0163817
2073.094715
234.8617573
100.3351296
2310.834024
100.2955751
101.7831813
100.5789055
4073.965837
100.1484992
101.0623675
4052.952224
7401.321175
100.2618135
4229.144949
4817.382815
100.1999825
100.2384597
104.4136059
100.3124867
7187.225162
101.061469
103.3966458
4006.541162
100.5566748
2061.354668
102.7605444
100.0318579
104.694423
5434.086744
)


// ************************************************************************* //
