/*--------------------------------*- C++ -*----------------------------------*\
  =========                 |
  \\      /  F ield         | OpenFOAM: The Open Source CFD Toolbox
   \\    /   O peration     | Website:  https://openfoam.org
    \\  /    A nd           | Version:  8
     \\/     M anipulation  |
\*---------------------------------------------------------------------------*/
FoamFile
{
    version     2.0;
    format      ascii;
    class       labelField;
    location    "1.7/lagrangian/reactingCloud1";
    object      origId;
}
// * * * * * * * * * * * * * * * * * * * * * * * * * * * * * * * * * * * * * //


75
(
787
788
790
792
794
806
820
824
1142
830
1147
643
650
1133
1156
881
807
1159
795
896
1117
1164
1160
1168
810
1176
905
1238
1241
1242
911
840
1244
912
1246
913
642
914
1248
915
1249
1252
919
1154
1251
1254
920
1218
921
922
1169
644
923
924
1247
1257
845
925
655
868
926
927
1277
1278
1258
928
1275
1273
916
653
929
1271
1261
1270
930
)


// ************************************************************************* //
