/*--------------------------------*- C++ -*----------------------------------*\
  =========                 |
  \\      /  F ield         | OpenFOAM: The Open Source CFD Toolbox
   \\    /   O peration     | Website:  https://openfoam.org
    \\  /    A nd           | Version:  8
     \\/     M anipulation  |
\*---------------------------------------------------------------------------*/
FoamFile
{
    version     2.0;
    format      ascii;
    class       Cloud<basicReactingMultiphaseParcel>;
    location    "1.7/lagrangian/reactingCloud1";
    object      positions;
}
// * * * * * * * * * * * * * * * * * * * * * * * * * * * * * * * * * * * * * //

75
(
(0.3854987893 0.3778555133 0.146591059 0.09005463838) 5958 17483 1
(0.03482380451 0.107756368 0.2815580491 0.5758617784) 5956 17477 2
(0.1398863055 0.382102967 0.4477148898 0.03029583776) 6947 17485 1
(0.1725499586 0.1949896541 0.4720295234 0.1604308638) 6952 17500 2
(0.2199745008 0.1531194985 0.4192505724 0.2076554284) 6952 20390 1
(0.4333527911 0.3945313182 0.1394048321 0.03271105854) 5827 17098 2
(0.3260989315 0.129255012 0.472335333 0.07231072343) 13348 36346 2
(0.6865627546 0.1422514581 0.10849335 0.06269243734) 16364 47818 1
(0.125023988 0.6106523766 0.02170986887 0.2426137665) 9667 28217 2
(0.2716199636 0.4487430283 0.1232157202 0.1564212879) 17243 50471 1
(0.4144164877 0.2065845796 0.1978027989 0.1811961338) 11704 34275 1
(0.003780913503 0.3254201862 0.1417964686 0.5290024317) 2898 8529 1
(0.2066919259 0.1836305598 0.04773338925 0.561944125) 4920 14441 2
(0.1110830537 0.06151261103 0.2200883169 0.6073160183) 7891 20259 1
(0.005905672181 0.1281527416 0.2521272631 0.6138143231) 14084 41218 1
(0.09348564657 0.4223882087 0.02102087142 0.4631052733) 33096 100377 2
(0.03980403664 0.3070589453 0.1084753035 0.5446617146) 4902 11444 2
(0.4045510083 0.08664213827 0.2043556292 0.3044512242) 16334 47814 1
(0.04830051697 0.4821448547 0.3335357082 0.1360189201) 952 2830 1
(0.1309428326 0.004248771372 0.3168917105 0.5479166856) 39042 119381 2
(0.327242361 0.04817276324 0.1529699604 0.4716149154) 3984 11615 1
(0.1216923144 0.6857846154 0.1757356997 0.01678737047) 16957 46972 2
(0.1318498214 0.04048178098 0.3102923479 0.5173760498) 16081 47068 1
(0.4448088107 0.2317813206 0.1482030004 0.1752068683) 16955 49622 1
(0.1314951276 0.5222007636 0.09559697485 0.250707134) 3991 11733 2
(0.307864023 0.3095995457 0.3612433745 0.02129305683) 19978 58471 2
(0.367078529 0.0579956983 0.2434572846 0.3314684882) 41228 122777 2
(0.4192288553 0.3423673804 0.09175645156 0.1466473127) 60971 77572 1
(0.2819473246 0.3038678348 0.1465610336 0.267623807) 60978 181504 1
(0.06381900845 0.6079718333 0.2814333961 0.04677576219) 60976 181487 2
(0.2472321682 0.4595585301 0.2437168592 0.04949244254) 44456 132135 1
(0.4028749912 0.02979123078 0.3582028205 0.2091309575) 17962 49932 1
(0.2646477113 0.06339494712 0.1342524898 0.5377048518) 61051 181679 2
(0.1605697997 0.07946199343 0.565605305 0.1943629019) 43418 132222 2
(0.4570713611 0.02522612899 0.1204087717 0.3972937382) 61051 181679 1
(0.5755005517 0.05581626966 0.2684536938 0.1002294849) 44453 135166 1
(0.2216594233 0.1386356881 0.3374235928 0.3022812957) 1802 5317 1
(0.2922324356 0.191841063 0.4320499544 0.083876547) 44484 135352 2
(0.4616604625 0.1283174597 0.218624151 0.1913979268) 61053 181693 2
(0.05725705774 0.278910455 0.2494484348 0.4143840524) 44486 135360 2
(0.2611845768 0.06688571571 0.3716202708 0.3003094367) 61130 181882 1
(0.02902520965 0.02548153436 0.6444268703 0.3010663857) 61134 181883 2
(0.0795233205 0.1174054929 0.2545215295 0.548549657) 47692 144754 1
(0.006072404449 0.3047450554 0.5653043209 0.1238782192) 14570 42653 1
(0.1123981873 0.3563259854 0.1722602335 0.3590155938) 61205 181889 2
(0.1096876431 0.4836249317 0.2810426492 0.125644776) 61136 181904 1
(0.3772962531 0.1353351342 0.2295851692 0.2577834434) 47690 141626 2
(0.5428426819 0.003188378296 0.01100373868 0.4429652011) 24414 72381 2
(0.4042167853 0.3844704599 0.02947594343 0.1818368114) 58556 175494 2
(0.1704719745 0.2015235786 0.2140368105 0.4139676364) 47752 144935 1
(0.1999867757 0.3434731815 0.2574466833 0.1990933596) 18020 52743 2
(0.4866716159 0.006936413146 0.3291271133 0.1772648577) 851 2530 2
(0.3330784201 0.1414828839 0.1088414566 0.4165972394) 58556 202609 2
(0.1439823382 0.1712260396 0.07986369634 0.6049279259) 48755 144750 2
(0.3203826887 0.04720364524 0.05976479039 0.5726488757) 61213 182083 2
(0.1026754805 0.1280795676 0.6648371135 0.1044078384) 61211 80759 1
(0.6476775388 0.004326727807 0.1307007376 0.2172949958) 17149 50103 2
(0.506262597 0.3491887649 0.1009097006 0.04363893753) 48787 147969 1
(0.1387551015 0.08280107213 0.4153630452 0.3630807812) 4912 205398 2
(0.3024122497 0.1531421914 0.4480464221 0.09639913677) 29688 89495 1
(0.3534446672 0.06033719551 0.5202233735 0.06599476379) 48786 207205 2
(0.1380894732 0.09684623922 0.176202654 0.5888616335) 58558 175499 1
(0.07124020975 0.03340619237 0.7129268213 0.1824267766) 58564 175514 1
(0.1331102238 0.09456141295 0.652097711 0.1202306522) 58564 175514 1
(0.5384220305 0.2850777097 0.1748155146 0.001684745242) 58548 175473 2
(0.2165058389 0.1262663466 0.4420580194 0.2151697951) 48817 148060 1
(0.2256894804 0.07373299569 0.525445285 0.1751322389) 58566 175518 1
(0.2661624641 0.3469701764 0.1250948634 0.2617724962) 58566 175518 1
(0.4287632467 0.2160985469 0.1910929355 0.1640452709) 45585 207079 1
(0.4359729461 0.1737677133 0.05401582001 0.3362435206) 5903 205436 1
(0.1284047748 0.7411010383 0.03606542869 0.09442875823) 49885 151185 2
(0.3090014321 0.4165788459 0.07495024326 0.1994694788) 58566 175518 2
(0.250307815 0.3205749864 0.3175330611 0.1115841375) 58568 204755 2
(0.06313361796 0.5119879077 0.3939044792 0.03097399517) 58566 204750 1
(0.008219954461 0.0006321820634 0.5490455547 0.4421023088) 49855 151093 1
)


// ************************************************************************* //
