/*--------------------------------*- C++ -*----------------------------------*\
  =========                 |
  \\      /  F ield         | OpenFOAM: The Open Source CFD Toolbox
   \\    /   O peration     | Website:  https://openfoam.org
    \\  /    A nd           | Version:  8
     \\/     M anipulation  |
\*---------------------------------------------------------------------------*/
FoamFile
{
    version     2.0;
    format      ascii;
    class       scalarField;
    location    "1.7/lagrangian/reactingCloud1";
    object      T;
}
// * * * * * * * * * * * * * * * * * * * * * * * * * * * * * * * * * * * * * //


75
(
299.9999999
299.9999999
299.9999999
299.9999998
299.9999998
300
300
299.9999984
299.9999654
299.9999977
299.9999841
299.9999999
299.9999999
299.9999932
299.9999905
300
300
299.9999933
300
300
299.9999915
299.9999925
299.999993
299.9999925
300
299.9999947
300
299.9999926
299.9999919
299.9999916
300
300
299.9999912
300
299.9999909
300
299.9999976
300
299.9999902
300
299.9999897
299.9999891
300
299.9999923
299.9999896
299.9999885
300
299.9999994
299.9999994
300
299.9999936
299.9999999
299.9999994
300
299.9999952
299.9999878
300
300
299.999993
300
300
299.9999994
299.9999849
299.9999847
299.999995
300
299.9999854
299.9999859
300
299.9999963
300
299.9999862
299.9999868
299.9999864
300
)


// ************************************************************************* //
