/*--------------------------------*- C++ -*----------------------------------*\
  =========                 |
  \\      /  F ield         | OpenFOAM: The Open Source CFD Toolbox
   \\    /   O peration     | Website:  https://openfoam.org
    \\  /    A nd           | Version:  8
     \\/     M anipulation  |
\*---------------------------------------------------------------------------*/
FoamFile
{
    version     2.0;
    format      ascii;
    class       vectorField;
    location    "1.7/lagrangian/reactingCloud1";
    object      U;
}
// * * * * * * * * * * * * * * * * * * * * * * * * * * * * * * * * * * * * * //


75
(
(0.5455177913 0.04082441381 -2.128189265)
(0.4429548079 0.0106073038 -1.987402393)
(0.5092676873 0.03931121218 -2.027271479)
(0.7021898886 0.0586666916 -2.074188486)
(0.6737283014 0.05073465335 -2.002415281)
(0.9677976351 -0.3570951325 -3.222893629)
(0.5013605773 -0.7020195363 -3.025129767)
(-0.0256621365 -0.01490888072 -1.586195784)
(0.1467649975 -0.4569051229 -1.894445328)
(0.04183887978 -0.01631482136 -1.515605077)
(0.3020034389 -0.2645498129 -1.866374612)
(0.160980023 0.02864901749 -1.901811988)
(0.1344579168 0.02716530461 -1.899021213)
(0.1277515964 -0.1876332486 -2.001314104)
(-0.4161548066 -0.6647394344 -1.542749718)
(0.3318418759 -1.108548849 -2.212011812)
(0.8854169364 -0.2491793751 -3.30993593)
(-0.1651817903 -0.1396824631 -1.584120264)
(0.9621441498 -0.1227969739 -3.186892945)
(0.5509847984 -1.085959552 -1.997893582)
(0.09046554863 -0.1464943957 -1.820545408)
(-0.4081295534 -0.6803759847 -1.53563874)
(-0.3352083336 -0.5262292072 -1.527143282)
(-0.5050192818 -0.6924753849 -1.495339088)
(0.7771684447 -0.1341938207 -3.452798631)
(0.05798561008 -0.08950403193 -1.316489871)
(0.3067534352 -0.7203494258 -2.220722109)
(-0.5766473176 -0.8701405527 -0.630739309)
(-0.4830313128 -0.9200475427 -0.5774864983)
(-0.5622148603 -0.8858292812 -0.5792070575)
(0.6727916096 -0.8021427572 -1.945164594)
(0.2196070448 -0.718427448 -3.002673221)
(-0.5764358374 -0.8797825639 -0.5664800049)
(0.3273498416 -0.5699645682 -2.170274624)
(-0.5882458377 -0.8492370129 -0.5586250501)
(-0.1420448148 -0.9514901828 -1.992279568)
(0.1368096485 -0.191456999 -2.137184694)
(-0.4003474864 -0.5431301842 -2.129563652)
(-0.5709796669 -0.8046265081 -0.5358023547)
(0.1050013083 -0.5413707086 -2.149732892)
(-0.576664253 -0.6755362104 -0.5169862894)
(-0.5820063504 -0.7175878997 -0.499848488)
(1.148167777 -0.7134852623 -1.58089193)
(-0.01739206078 -0.02695686001 -1.633729653)
(-0.6103844009 -0.5964488619 -0.50020045)
(-0.5621999608 -0.6480731376 -0.4786624602)
(0.2906884701 -0.9357681897 -1.868242541)
(0.1300778219 -0.5086563687 -0.9305704667)
(-0.3458707298 -0.2740375568 -0.1211567707)
(0.691019483 0.5854521601 -1.883387464)
(-0.3748146502 -0.4013369834 -1.459975073)
(-0.06987370451 0.02430195078 -2.255795846)
(-0.5663424879 -0.3073582785 -0.1017676544)
(-0.2917978839 -1.226243615 -1.628412672)
(-0.3514500037 -0.3926340714 -0.5305066847)
(-0.5587849207 -0.5898289845 -0.4556612631)
(-0.02110036637 -0.570283449 -3.123708091)
(0.8494593812 -0.7486293984 -1.719973584)
(0.09363915574 0.03627471209 -2.069461169)
(1.182300841 -0.1859058122 -2.353504489)
(-1.24488944 -0.3933534088 -1.559806009)
(-0.4147725932 -0.2361197245 -0.05620788614)
(-0.6525915494 -1.436735227 -0.1866354511)
(-0.6876260996 -1.45484236 -0.1842608734)
(-0.3134857202 -0.4966358334 -0.3828651032)
(-0.5296467443 0.7943053551 -1.787249027)
(-0.6282482878 -1.324869681 -0.1933795389)
(-0.599485351 -1.183660862 -0.2013265759)
(-0.7316955986 -0.2794874741 -2.032434186)
(0.09334498245 -0.09549717397 -1.940847557)
(-0.2892056745 0.4916147309 -1.935486778)
(-0.57773376 -1.072539527 -0.2076226285)
(-0.2308094229 -0.7353458958 -0.233350688)
(-0.5467554915 -1.005813833 -0.2113588217)
(0.6407367694 -0.8146093183 -1.710899334)
)


// ************************************************************************* //
