/*--------------------------------*- C++ -*----------------------------------*\
  =========                 |
  \\      /  F ield         | OpenFOAM: The Open Source CFD Toolbox
   \\    /   O peration     | Website:  https://openfoam.org
    \\  /    A nd           | Version:  8
     \\/     M anipulation  |
\*---------------------------------------------------------------------------*/
FoamFile
{
    version     2.0;
    format      ascii;
    class       scalarField;
    location    "0.6/lagrangian/reactingCloud1";
    object      Cp;
}
// * * * * * * * * * * * * * * * * * * * * * * * * * * * * * * * * * * * * * //


260
(
4182.948108
4182.948106
4182.948111
4182.948104
4182.948111
4182.948111
4182.948111
4182.948111
4182.948111
4182.9481
4182.948109
4182.9481
4182.948111
4182.9481
4182.948111
4182.948103
4182.948103
4182.948103
4182.948103
4182.948103
4182.94811
4182.948099
4182.948103
4182.948107
4182.948101
4182.948099
4182.948103
4182.948102
4182.948099
4182.948107
4182.948102
4182.948107
4182.948099
4182.948101
4182.948101
4182.948102
4182.948107
4182.948101
4182.948101
4182.948101
4182.948101
4182.9481
4182.948102
4182.948102
4182.948101
4182.9481
4182.9481
4182.9481
4182.948102
4182.9481
4182.9481
4182.948102
4182.9481
4182.9481
4182.948104
4182.948102
4182.9481
4182.948101
4182.9481
4182.9481
4182.9481
4182.948104
4182.9481
4182.948101
4182.948102
4182.948101
4182.948101
4182.948102
4182.9481
4182.948101
4182.9481
4182.9481
4182.9481
4182.9481
4182.9481
4182.9481
4182.9481
4182.9481
4182.948101
4182.9481
4182.9481
4182.948101
4182.9481
4182.9481
4182.9481
4182.9481
4182.948099
4182.9481
4182.9481
4182.948104
4182.948106
4182.9481
4182.9481
4182.9481
4182.9481
4182.9481
4182.948103
4182.9481
4182.9481
4182.948107
4182.9481
4182.9481
4182.948102
4182.9481
4182.948102
4182.9481
4182.9481
4182.948101
4182.9481
4182.948099
4182.948099
4182.948102
4182.9481
4182.948101
4182.948099
4182.948101
4182.9481
4182.948101
4182.948105
4182.948099
4182.948101
4182.948104
4182.948101
4182.948101
4182.948099
4182.948102
4182.948101
4182.948104
4182.948099
4182.948101
4182.9481
4182.9481
4182.948099
4182.9481
4182.948104
4182.948103
4182.948103
4182.948103
4182.948103
4182.948101
4182.948103
4182.948103
4182.948104
4182.948101
4182.948105
4182.948101
4182.948106
4182.9481
4182.9481
4182.948156
4182.948148
4182.948148
4182.948148
4182.948148
4182.948156
4182.948148
4182.948156
4182.94814
4182.94814
4182.948139
4182.948141
4182.948147
4182.948154
4182.948154
4182.948147
4182.948148
4182.948156
4182.948107
4182.948147
4182.948154
4182.9481
4182.948154
4182.948153
4182.948138
4182.948105
4182.948108
4182.94813
4182.948131
4182.948104
4182.948107
4182.948129
4182.948101
4182.948099
4182.948106
4182.948099
4182.948105
4182.948126
4182.948101
4182.948105
4182.948104
4182.948125
4182.948099
4182.948101
4182.948107
4182.9481
4182.94815
4182.948125
4182.948109
4182.948124
4182.948109
4182.948124
4182.948099
4182.948099
4182.948103
4182.948108
4182.948123
4182.948106
4182.948109
4182.948107
4182.948101
4182.948135
4182.948123
4182.948099
4182.948122
4182.948108
4182.948099
4182.948102
4182.9481
4182.948127
4182.948103
4182.948105
4182.948103
4182.9481
4182.948103
4182.948103
4182.948123
4182.948113
4182.948104
4182.9481
4182.948102
4182.948107
4182.948116
4182.948099
4182.948116
4182.948099
4182.948103
4182.94811
4182.948121
4182.9481
4182.948117
4182.948103
4182.948101
4182.948104
4182.948099
4182.948104
4182.948118
4182.948104
4182.948099
4182.948117
4182.9481
4182.948099
4182.948109
4182.948105
4182.948116
4182.948105
4182.948107
4182.9481
4182.948108
4182.948118
4182.948099
)


// ************************************************************************* //
