/*--------------------------------*- C++ -*----------------------------------*\
  =========                 |
  \\      /  F ield         | OpenFOAM: The Open Source CFD Toolbox
   \\    /   O peration     | Website:  https://openfoam.org
    \\  /    A nd           | Version:  8
     \\/     M anipulation  |
\*---------------------------------------------------------------------------*/
FoamFile
{
    version     2.0;
    format      ascii;
    class       scalarField;
    location    "0.6/lagrangian/reactingCloud1";
    object      mass0;
}
// * * * * * * * * * * * * * * * * * * * * * * * * * * * * * * * * * * * * * //


260
(
1.929768323e-07
6.848815745e-08
4.545870525e-07
1.620011912e-07
3.498128126e-07
2.182786099e-07
1.02527538e-07
8.154058542e-08
7.845145981e-08
2.065624642e-07
1.700696595e-07
1.203457087e-07
2.167819202e-07
7.421260065e-08
2.06562465e-07
1.634612544e-07
1.530959376e-07
9.52246139e-08
2.340801102e-07
6.297484824e-07
1.497535071e-07
3.254005225e-07
1.356681047e-07
2.035821747e-07
1.367993446e-07
8.062884139e-08
4.805691894e-07
1.358449798e-07
2.085571497e-07
1.753217017e-07
2.842933154e-07
2.367173875e-07
7.578488726e-08
1.287028521e-07
4.587271139e-07
4.177086789e-07
7.650402429e-08
7.341722308e-08
6.963327193e-08
3.511653323e-07
3.458792081e-07
3.257611182e-07
2.839529355e-07
8.100174459e-08
3.30157722e-07
1.307317752e-07
1.698617202e-07
1.615155156e-07
1.884474019e-07
1.628734167e-07
1.339313891e-07
3.180242364e-07
1.659888854e-07
5.070294468e-07
1.551029974e-07
6.853722544e-08
1.883919473e-07
1.808421785e-07
3.802807995e-07
1.768959635e-07
1.400221652e-07
7.986541768e-08
9.395373577e-08
7.336991343e-08
2.872230508e-07
1.708529761e-07
1.438626053e-07
5.801317728e-07
1.869724212e-07
6.14815432e-07
8.941121572e-08
1.295331402e-07
3.49752435e-07
2.420768824e-07
1.929029728e-07
6.896385006e-08
2.929389783e-07
7.998146497e-08
1.135148658e-07
1.073457857e-07
4.274504306e-07
1.535944846e-07
4.267519406e-07
1.274700575e-07
8.556391966e-08
1.257276865e-07
1.694007664e-07
9.268782394e-08
2.136866676e-07
2.503505644e-07
7.490008264e-08
9.301232496e-08
1.408683065e-07
1.055101889e-07
5.614515299e-07
8.072883715e-08
1.008316545e-07
1.583515157e-07
8.847194516e-08
8.559219921e-08
9.296865713e-08
3.39206934e-07
2.891201749e-07
8.563895163e-08
8.103938667e-08
7.835315179e-08
4.498808589e-07
8.911100649e-08
1.46644014e-07
3.742153086e-07
8.798507418e-08
5.403453791e-07
9.581767551e-08
6.752765168e-08
2.207733e-07
8.801786752e-08
2.693925817e-07
9.355125001e-08
2.381629375e-07
6.617542711e-08
2.927653508e-07
1.367993447e-07
9.364847092e-08
8.60503953e-08
1.503844561e-07
1.323446989e-07
3.328253942e-07
1.749750448e-07
8.83804623e-07
1.010443052e-07
2.224684888e-07
3.321460168e-07
2.304162571e-07
7.570715299e-08
8.939610062e-07
9.613665514e-08
9.105309985e-08
2.931237812e-07
9.767056305e-08
5.892073268e-07
1.071493405e-07
5.297958825e-07
2.226608567e-07
4.114007652e-07
7.778057871e-08
5.154247937e-07
1.160681743e-07
1.393443533e-07
4.870822083e-07
2.233001569e-07
1.269173075e-07
7.455212125e-08
1.010623314e-07
7.973309485e-08
8.590648193e-08
2.345312268e-07
7.114188818e-08
6.961306797e-08
7.904821611e-08
1.334579025e-07
3.705634376e-07
1.212834944e-07
6.708416351e-08
1.674432663e-07
1.328175823e-07
6.84816733e-07
4.677133607e-07
8.755652363e-08
1.409079579e-07
1.364694951e-07
8.836721838e-08
6.949015799e-08
4.124426281e-07
3.305089735e-07
2.159081577e-07
8.442646971e-07
8.03472773e-08
1.526429232e-07
4.94176697e-07
1.422683858e-07
1.139673621e-07
1.380206804e-07
2.238062536e-07
5.876717653e-07
9.097874265e-08
1.374699366e-07
1.962466683e-07
1.174331783e-07
8.100017458e-08
6.65280812e-07
9.314037071e-08
1.626500254e-07
1.062634809e-07
1.322978632e-07
1.728741237e-07
5.099208124e-07
1.244453232e-07
1.813399807e-07
1.518038761e-07
2.800934463e-07
1.34575814e-07
5.87171512e-07
4.463220184e-07
9.134552749e-08
2.839770309e-07
1.314877758e-07
1.078811977e-07
1.766132524e-07
1.695234508e-07
1.01229905e-07
9.747085153e-08
8.599550119e-08
9.119295895e-08
6.794373998e-08
6.530263366e-08
7.288513927e-08
7.416428215e-07
7.435161061e-08
8.60389057e-07
1.715289402e-07
2.785979059e-07
8.019854032e-08
2.423608363e-07
3.998575558e-07
1.169440117e-07
6.756043516e-08
6.681279382e-08
7.719114437e-08
9.149077031e-08
3.095033574e-07
3.926204915e-07
8.209004051e-08
8.126457687e-08
3.704626665e-07
2.888081834e-07
3.882533194e-07
1.195342825e-07
1.641718327e-07
8.519759904e-08
3.721614183e-07
2.348928022e-07
3.119593743e-07
2.12273302e-07
8.521037272e-08
8.172603103e-08
7.650402455e-08
7.405333616e-08
1.050110516e-07
7.22834356e-08
9.327014562e-08
8.382449372e-08
8.801041277e-08
5.524751347e-07
2.225181807e-07
8.614689802e-08
2.67832597e-07
6.978600486e-08
1.193039336e-07
8.63627998e-08
2.838783275e-07
)


// ************************************************************************* //
