/*--------------------------------*- C++ -*----------------------------------*\
  =========                 |
  \\      /  F ield         | OpenFOAM: The Open Source CFD Toolbox
   \\    /   O peration     | Website:  https://openfoam.org
    \\  /    A nd           | Version:  8
     \\/     M anipulation  |
\*---------------------------------------------------------------------------*/
FoamFile
{
    version     2.0;
    format      ascii;
    class       scalarField;
    location    "1.9/lagrangian/reactingCloud1";
    object      age;
}
// * * * * * * * * * * * * * * * * * * * * * * * * * * * * * * * * * * * * * //


112
(
0.2748741116
0.2612974464
0.2142979241
0.213921663
0.2136206541
0.2224942226
0.2219582863
0.2226655325
0.2123124501
0.2201290326
0.2106098807
0.2101043317
0.2097014968
0.209105243
0.2072496766
0.2067699715
0.2189958038
0.2038120683
0.2027353772
0.2020951826
0.2014258881
0.2010475913
0.2004073966
0.1999704579
0.1995863494
0.2231470869
0.198995025
0.1981370366
0.1975154519
0.1949393189
0.1940805416
0.1936364118
0.1922450392
0.188871516
0.1879840041
0.2181981335
0.2096745482
0.2040448664
0.1700868232
0.1675173722
0.1840512825
0.1655522646
0.1607718025
0.1640303358
0.1700400518
0.1720462211
0.1600443631
0.1958869354
0.1500319797
0.1986400627
0.187717834
0.2386305122
0.1320812933
0.1995567898
0.1800323771
0.1300855674
0.1240983898
0.1220527708
0.09021956088
0.2135203177
0.08413173653
0.08248502994
0.08128742515
0.07839321357
0.07629740519
0.0744011976
0.07225548902
0.07205588822
0.07100798403
0.06796407186
0.09006986028
0.06322355289
0.07809381238
0.05329341317
0.0503493014
0.0494510978
0.04795409182
0.04481037924
0.04396207585
0.04020701618
0.03728738521
0.03544524863
0.03461946327
0.03207858523
0.03023644865
0.03023644865
0.02737990801
0.02694918376
0.05209580838
0.02664401184
0.02433340878
0.02361772028
0.02301110142
0.02262482394
0.02218336396
0.2281950256
0.02124318697
0.2463504289
0.01996899131
0.01743049653
0.01698681116
0.2393259035
0.03010940475
0.01395760208
0.2537745235
0.01332951128
0.02810426569
0.2451465216
0.1280898415
0.1660437311
0.1760496039
0.2525706163
)


// ************************************************************************* //
