/*--------------------------------*- C++ -*----------------------------------*\
  =========                 |
  \\      /  F ield         | OpenFOAM: The Open Source CFD Toolbox
   \\    /   O peration     | Website:  https://openfoam.org
    \\  /    A nd           | Version:  8
     \\/     M anipulation  |
\*---------------------------------------------------------------------------*/
FoamFile
{
    version     2.0;
    format      ascii;
    class       scalarField;
    location    "1.9/lagrangian/reactingCloud1";
    object      nParticle;
}
// * * * * * * * * * * * * * * * * * * * * * * * * * * * * * * * * * * * * * //


112
(
106.1995492
102.9400785
776.8282899
104.3311057
108.0594235
116.109346
102.7383887
104.474725
101.0562929
100.1928332
101.1910475
103.9493341
105.6170439
104.4492321
101.1640279
103.1316962
100.3015321
100.8592729
100.2883343
102.2595537
101.3918755
104.1454226
101.5144017
100.7970965
103.2129883
100.4706691
104.0301994
100.7404481
103.510028
100.802735
101.4746861
104.7998371
100.9296064
100.3063547
101.4038146
100.20734
100.4648502
7187.225162
100.0124136
101.2327153
3015.923116
100.0203201
243.4794011
1316.536982
654.4301282
6339.029459
3349.32779
100.5431182
2535.396455
101.2328742
100.0808268
100.7208574
7241.730659
100.5767599
2234.3372
685.0800936
6216.245578
1073.766204
128.9937072
100.301514
100.6526545
100.0432425
100.1710153
100.0372602
100.1077436
100.4865875
100.2776485
104.0003128
101.009729
156.353563
6809.174316
100.4909419
1972.261176
100.1520274
1018.884997
100.0243241
100.5229731
115.3624671
100.4055468
107.2883307
100.522578
103.1549491
101.6481894
100.9682929
100.0091805
101.3127382
100.7000359
144.9474156
6366.663224
101.2436902
102.9382034
105.7836901
107.4241186
108.9602898
105.1757647
100.5686354
103.9330249
100.0271463
103.43047
100.8030048
104.7614765
100.383906
3328.002551
100.267598
100.1728029
101.5029028
101.4030658
105.8496988
1422.474178
3005.978225
7457.929419
106.371623
)


// ************************************************************************* //
