/*--------------------------------*- C++ -*----------------------------------*\
  =========                 |
  \\      /  F ield         | OpenFOAM: The Open Source CFD Toolbox
   \\    /   O peration     | Website:  https://openfoam.org
    \\  /    A nd           | Version:  8
     \\/     M anipulation  |
\*---------------------------------------------------------------------------*/
FoamFile
{
    version     2.0;
    format      ascii;
    class       vectorField;
    location    "1.9/lagrangian/reactingCloud1";
    object      U;
}
// * * * * * * * * * * * * * * * * * * * * * * * * * * * * * * * * * * * * * //


112
(
(0.4855363952 0.04097058664 -1.684678604)
(0.08915432267 -0.02330264844 -1.906747845)
(-0.02923851141 -0.01323197609 -2.014211433)
(0.1709889748 0.1236722035 -1.898586854)
(0.1616661104 0.1296645704 -1.884038682)
(1.193596271 0.2468154163 -1.567883803)
(1.679724302 0.2874792081 -1.829286528)
(1.612593325 0.2606310765 -1.807914333)
(0.2100017856 0.1442450549 -1.984381723)
(1.917426921 0.3592899836 -1.911543445)
(0.1859374556 0.1328963044 -1.981662919)
(0.1312266682 0.1123930186 -1.899973423)
(0.1132305145 0.1043604982 -1.875720863)
(0.1169117572 0.1024527521 -1.900963617)
(0.1189710545 0.09811249579 -1.949934232)
(0.07481890432 0.08653762385 -1.862759074)
(1.039655872 0.2906035437 -1.696458987)
(0.08353479378 0.07739465308 -1.929745985)
(0.05729016364 0.06616025385 -1.881590458)
(0.04505656363 0.06373572685 -1.85373388)
(0.04248084944 0.06171465287 -1.855571618)
(0.03042899449 0.06248668456 -1.819608186)
(0.03681259634 0.05975946697 -1.84973173)
(0.02885923992 0.06026961098 -1.826488225)
(0.02441552914 0.06039301707 -1.814231778)
(-0.874271393 0.1600054026 -2.027022503)
(0.02909608635 0.05822296182 -1.834859058)
(0.03125192768 0.05618088706 -1.847726335)
(0.02531964643 0.05671721708 -1.829268883)
(0.03283540729 0.05198556249 -1.862273891)
(0.0242605751 0.05435868684 -1.832574751)
(0.01872285026 0.05641924257 -1.809150263)
(0.02499373053 0.05313816102 -1.833542459)
(0.02453357802 0.05121177563 -1.819390573)
(0.01679379546 0.05457412908 -1.781703031)
(-0.49174663 0.2224432353 -1.924640453)
(-0.5995025898 0.2204064582 -1.838975587)
(-0.4276419016 0.6418120275 -3.313493296)
(0.02580241512 0.04162005138 -1.644238928)
(-0.08687250537 0.05213191586 -1.574424428)
(-0.3574545591 0.9195697887 -2.983573897)
(-0.1518780073 0.004647291303 -1.573323059)
(-0.04092734671 -0.1296694684 -1.511000357)
(-0.2213669405 1.148523199 -2.74547765)
(-1.064776159 0.5141234019 -2.909439016)
(-0.2820941616 0.4970206092 -3.316449624)
(-0.2111016989 0.637210609 -3.246884823)
(-0.4778567058 0.5833444568 -1.838945515)
(-0.06914092689 0.6750061708 -3.165716471)
(-0.341007677 0.457395601 -1.830716745)
(-0.2838211752 0.2928807994 -1.832939659)
(-0.2297534168 0.2846294625 -2.11151636)
(-0.01270428916 1.030518358 -2.620358888)
(-0.4146060959 0.5093432229 -1.908051726)
(-1.073685191 0.2644153845 -2.947259551)
(-0.2471043427 0.6618255534 -3.070391326)
(-0.075699927 0.7226473179 -2.978983307)
(0.02292667376 0.7033295923 -3.007598697)
(-0.7937954387 0.06643049687 -0.8930885249)
(-0.1735425868 0.2547750189 -2.011372158)
(-0.9188846645 0.05020615149 -0.8295527767)
(0.4940185391 0.03281333841 -0.8063576185)
(-0.7985669207 0.03824605004 -0.8021410072)
(-0.773295304 0.03358676412 -0.7736966416)
(-0.7498060982 0.0295886594 -0.7547470915)
(0.5360015283 0.1923558997 -0.7502714054)
(-0.7066437937 0.02668932844 -0.7153569972)
(0.5260363392 0.2010878248 -0.7510098154)
(-0.5790950314 0.02376807892 -0.7071104868)
(-0.5754164417 0.02507930291 -0.6745438377)
(-0.9344833685 0.7505938713 -2.180513855)
(-0.6028235034 0.02749866739 -0.626087479)
(-0.4276950282 0.9910017643 -2.271477663)
(0.3442610186 0.0005684000622 -0.4983953882)
(-0.2998898173 0.0214446838 -0.4973809145)
(-0.5969244034 0.03271550709 -0.4865938027)
(0.3306185144 0.000226472827 -0.4555127582)
(-0.1627871939 0.2014594232 -0.4689581754)
(-0.569780365 0.05079213536 -0.4311945728)
(-0.1164934911 0.1997647188 -0.4139190349)
(-0.8014845959 0.04228043574 -0.3663045686)
(-0.5211583239 0.08708454831 -0.3481661635)
(-0.8093037388 0.04449583277 -0.3385320929)
(-0.7828687335 0.04455628102 -0.312842105)
(-0.5469523714 0.01340382938 -0.2939852676)
(-0.7502122742 0.044469308 -0.2942149405)
(-0.708894623 0.04199525094 -0.2661642061)
(0.2501060399 0.005340575217 -0.2641330711)
(-0.2303988115 0.7444209099 -2.254152962)
(0.239506739 0.03125607788 -0.2581713367)
(-0.9432318562 0.03556596087 -0.2385180915)
(-1.490159875 0.03320079401 -0.2344348061)
(-1.61587114 0.03457818292 -0.2301348662)
(-1.65457906 0.03546746192 -0.2279745506)
(-1.710421131 0.03658931088 -0.2233399313)
(-0.1896683969 0.1143934044 -2.042845653)
(-1.833588656 0.03702487887 -0.2124077283)
(-0.2987391346 0.1634075319 -2.221169662)
(-1.996110507 0.03502932736 -0.1996275615)
(-2.200858887 0.02784197816 -0.1731568257)
(-2.225400571 0.0221815385 -0.1733065598)
(-0.2948004324 0.1652531538 -2.168561221)
(-0.2615792615 1.252270162 -1.750693029)
(-2.400085451 0.01151016718 -0.1402473336)
(-0.3008733482 0.1542340911 -2.265311777)
(-2.384482687 0.005107868408 -0.1386157873)
(0.1647475664 0.1613099902 -0.2816745478)
(-0.2464073367 0.1326142214 -2.035262855)
(0.2074031759 0.9066955579 -2.845688904)
(-0.8460011849 0.05467308991 -3.187279085)
(-0.991566106 -0.0004718435322 -3.038164149)
(-0.2412091451 0.1238355589 -2.065881107)
)


// ************************************************************************* //
