/*--------------------------------*- C++ -*----------------------------------*\
  =========                 |
  \\      /  F ield         | OpenFOAM: The Open Source CFD Toolbox
   \\    /   O peration     | Website:  https://openfoam.org
    \\  /    A nd           | Version:  8
     \\/     M anipulation  |
\*---------------------------------------------------------------------------*/
FoamFile
{
    version     2.0;
    format      ascii;
    class       volVectorField;
    location    "0.2/wallFilmRegion";
    object      U;
}
// * * * * * * * * * * * * * * * * * * * * * * * * * * * * * * * * * * * * * //

dimensions      [0 1 -1 0 0 0 0];

internalField   nonuniform List<vector> 
1369
(
(-1.220497793e-14 -1.20152757e-15 0)
(-1.305881068e-14 -3.845709823e-15 0)
(-1.415897122e-14 -6.941428185e-15 0)
(-1.566079227e-14 -1.064421315e-14 0)
(-1.744082364e-14 -1.494815733e-14 0)
(-1.939632701e-14 -1.978120195e-14 0)
(-2.144480244e-14 -2.502783386e-14 0)
(-1.223471941e-14 -1.22464199e-15 0)
(-1.311009831e-14 -3.925080002e-15 0)
(-1.424713359e-14 -7.094010285e-15 0)
(-1.57947138e-14 -1.088938067e-14 0)
(-1.76231169e-14 -1.52980314e-14 0)
(-1.962507987e-14 -2.023640183e-14 0)
(-2.171430215e-14 -2.557593781e-14 0)
(-2.381741909e-14 -3.11644298e-14 0)
(-2.587113225e-14 -3.684974851e-14 0)
(-2.78209113e-14 -4.249437717e-14 0)
(-2.962040589e-14 -4.798370002e-14 0)
(-1.188813698e-14 -1.229489417e-15 0)
(-1.277386092e-14 -3.951374363e-15 0)
(-1.394049146e-14 -7.165562294e-15 0)
(-1.552114135e-14 -1.103277715e-14 0)
(-1.738021085e-14 -1.553134692e-14 0)
(-1.940690665e-14 -2.056376357e-14 0)
(-2.151291143e-14 -2.598616239e-14 0)
(-2.362311223e-14 -3.163251289e-14 0)
(-2.567248621e-14 -3.733903751e-14 0)
(-2.760435015e-14 -4.295957599e-14 0)
(-2.937033325e-14 -4.837491753e-14 0)
(-3.093075185e-14 -5.349562441e-14 0)
(-3.225335777e-14 -5.825978147e-14 0)
(-1.11819925e-14 -1.214695821e-15 0)
(-1.206681988e-14 -3.920973285e-15 0)
(-1.325463042e-14 -7.151453381e-15 0)
(-1.485343274e-14 -1.106964076e-14 0)
(-1.672239221e-14 -1.564300485e-14 0)
(-1.87495e-14 -2.075820282e-14 0)
(-2.08464684e-14 -2.625487187e-14 0)
(-2.293839795e-14 -3.195120551e-14 0)
(-2.496004973e-14 -3.767092556e-14 0)
(-2.68541551e-14 -4.325883554e-14 0)
(-2.857179724e-14 -4.85905646e-14 0)
(-3.007223565e-14 -5.357465709e-14 0)
(-3.132103766e-14 -5.814851153e-14 0)
(-3.229035178e-14 -6.227457418e-14 0)
(-3.295634222e-14 -6.593439278e-14 0)
(-3.3298298e-14 -6.9122544e-14 0)
(-3.329698266e-14 -7.184083928e-14 0)
(-1.015744205e-14 -1.179278513e-15 0)
(-1.103051206e-14 -3.831619407e-15 0)
(-1.222935265e-14 -7.049460665e-15 0)
(-1.382896107e-14 -1.099833262e-14 0)
(-1.568470677e-14 -1.563320637e-14 0)
(-1.768581706e-14 -2.082229704e-14 0)
(-1.974622458e-14 -2.638646097e-14 0)
(-2.179347766e-14 -3.212769163e-14 0)
(-2.37639037e-14 -3.785598829e-14 0)
(-2.560143716e-14 -4.340700515e-14 0)
(-2.725816546e-14 -4.865157664e-14 0)
(-2.869262361e-14 -5.349479714e-14 0)
(-2.986994858e-14 -5.787363375e-14 0)
(-3.076008918e-14 -6.175085726e-14 0)
(-3.133668062e-14 -6.510793477e-14 0)
(-3.15776602e-14 -6.794101338e-14 0)
(-3.14629467e-14 -7.02536472e-14 0)
(-3.097377948e-14 -7.205010722e-14 0)
(-3.009152202e-14 -7.33257335e-14 0)
(-8.877931735e-15 -1.122690423e-15 0)
(-9.729384112e-15 -3.68279963e-15 0)
(-1.092778226e-14 -6.86142394e-15 0)
(-1.250858859e-14 -1.082436748e-14 0)
(-1.432545156e-14 -1.55102872e-14 0)
(-1.62713776e-14 -2.076666588e-14 0)
(-1.826578226e-14 -2.639463376e-14 0)
(-2.024069994e-14 -3.217847447e-14 0)
(-2.213615489e-14 -3.791458995e-14 0)
(-2.389952937e-14 -4.34298381e-14 0)
(-2.548463124e-14 -4.858894207e-14 0)
(-2.685053334e-14 -5.329469922e-14 0)
(-2.796176141e-14 -5.748275275e-14 0)
(-2.878593415e-14 -6.111414738e-14 0)
(-2.929619245e-14 -6.417256008e-14 0)
(-2.946874233e-14 -6.665548412e-14 0)
(-2.928297644e-14 -6.856840539e-14 0)
(-2.872170922e-14 -6.991984458e-14 0)
(-2.777077085e-14 -7.071354286e-14 0)
(-2.641949311e-14 -7.093853467e-14 0)
(-2.466352078e-14 -7.055687772e-14 0)
(-2.250939471e-14 -6.949161727e-14 0)
(-1.998613655e-14 -6.761956484e-14 0)
(-7.425513372e-15 -1.045106323e-15 0)
(-8.246912545e-15 -3.476966893e-15 0)
(-9.431189706e-15 -6.594308579e-15 0)
(-1.09700551e-14 -1.055919745e-14 0)
(-1.271882798e-14 -1.528984584e-14 0)
(-1.457825698e-14 -2.061063761e-14 0)
(-1.647576871e-14 -2.630189813e-14 0)
(-1.835028512e-14 -3.213019899e-14 0)
(-2.014793699e-14 -3.787858086e-14 0)
(-2.182091794e-14 -4.336471475e-14 0)
(-2.332552714e-14 -4.844713857e-14 0)
(-2.462203324e-14 -5.302481125e-14 0)
(-2.56734907e-14 -5.703108165e-14 0)
(-2.644761204e-14 -6.042872836e-14 0)
(-2.691539541e-14 -6.320173755e-14 0)
(-2.705129403e-14 -6.534829941e-14 0)
(-2.683521473e-14 -6.687796499e-14 0)
(-2.625237632e-14 -6.780588077e-14 0)
(-2.529443749e-14 -6.814585783e-14 0)
(-2.395853119e-14 -6.790324839e-14 0)
(-2.225050399e-14 -6.706444782e-14 0)
(-2.018908545e-14 -6.558724967e-14 0)
(-1.781366589e-14 -6.339632829e-14 0)
(-1.519633051e-14 -6.038870832e-14 0)
(-1.245629028e-14 -5.645071613e-14 0)
(-5.893127985e-15 -9.472159334e-16 0)
(-6.677090942e-15 -3.219079581e-15 0)
(-7.83025743e-15 -6.260493582e-15 0)
(-9.299573977e-15 -1.022246714e-14 0)
(-1.094744432e-14 -1.499706192e-14 0)
(-1.268661026e-14 -2.038369761e-14 0)
(-1.445551345e-14 -2.614162288e-14 0)
(-1.620208483e-14 -3.202022151e-14 0)
(-1.78802127e-14 -3.778987193e-14 0)
(-1.944753436e-14 -4.325853694e-14 0)
(-2.086330304e-14 -4.827772598e-14 0)
(-2.208870135e-14 -5.2741753e-14 0)
(-2.308725235e-14 -5.658292659e-14 0)
(-2.382514634e-14 -5.976302068e-14 0)
(-2.427093237e-14 -6.226618734e-14 0)
(-2.439863282e-14 -6.409500406e-14 0)
(-2.41886952e-14 -6.526467699e-14 0)
(-2.36290773e-14 -6.579926914e-14 0)
(-2.271609823e-14 -6.572422102e-14 0)
(-2.145491193e-14 -6.506084644e-14 0)
(-1.985999037e-14 -6.38205402e-14 0)
(-1.7959777e-14 -6.199457135e-14 0)
(-1.580055565e-14 -5.954925342e-14 0)
(-1.345497278e-14 -5.643219091e-14 0)
(-1.102976154e-14 -5.258160648e-14 0)
(-8.672292644e-15 -4.795473381e-14 0)
(-4.379297297e-15 -8.305381773e-16 0)
(-5.118528128e-15 -2.918650955e-15 0)
(-6.217207858e-15 -5.880070462e-15 0)
(-7.582592035e-15 -9.84235422e-15 0)
(-9.091844237e-15 -1.466589789e-14 0)
(-1.067427404e-14 -2.012399461e-14 0)
(-1.228180663e-14 -2.595564571e-14 0)
(-1.387322615e-14 -3.189420326e-14 0)
(-1.541084561e-14 -3.769787364e-14 0)
(-1.685731263e-14 -4.316420409e-14 0)
(-1.817521501e-14 -4.813656124e-14 0)
(-1.932706832e-14 -5.250483467e-14 0)
(-2.027641238e-14 -5.61987236e-14 0)
(-2.098730064e-14 -5.917886752e-14 0)
(-2.142783932e-14 -6.143200768e-14 0)
(-2.157096e-14 -6.296539002e-14 0)
(-2.139745647e-14 -6.38016004e-14 0)
(-2.089748009e-14 -6.397482265e-14 0)
(-2.007094701e-14 -6.352478467e-14 0)
(-1.892908422e-14 -6.249041187e-14 0)
(-1.74938112e-14 -6.090581738e-14 0)
(-1.579948931e-14 -5.879278936e-14 0)
(-1.389586002e-14 -5.615360884e-14 0)
(-1.185289211e-14 -5.297440793e-14 0)
(-9.76427419e-15 -4.923499439e-14 0)
(-7.751690791e-15 -4.49220405e-14 0)
(-2.981442756e-15 -6.974474497e-16 0)
(-3.665707659e-15 -2.590347108e-15 0)
(-4.675784937e-15 -5.481519258e-15 0)
(-5.893585906e-15 -9.4566532e-15 0)
(-7.220697194e-15 -1.433911349e-14 0)
(-8.607170261e-15 -1.987735822e-14 0)
(-1.001991148e-14 -2.579241531e-14 0)
(-1.142895611e-14 -3.180331466e-14 0)
(-1.280451285e-14 -3.765544164e-14 0)
(-1.411445693e-14 -4.313571762e-14 0)
(-1.532445032e-14 -4.807956965e-14 0)
(-1.639850677e-14 -5.237099454e-14 0)
(-1.729927712e-14 -5.593588298e-14 0)
(-1.799029959e-14 -5.87351036e-14 0)
(-1.843764242e-14 -6.075813101e-14 0)
(-1.86140057e-14 -6.201807099e-14 0)
(-1.850005948e-14 -6.254732222e-14 0)
(-1.808682653e-14 -6.2391566e-14 0)
(-1.737710028e-14 -6.160514346e-14 0)
(-1.638573739e-14 -6.024538216e-14 0)
(-1.513947569e-14 -5.836801885e-14 0)
(-1.367634148e-14 -5.602085509e-14 0)
(-1.204716428e-14 -5.323759096e-14 0)
(-1.031666361e-14 -5.003577705e-14 0)
(-8.566460818e-15 -4.642240425e-14 0)
(-6.894798479e-15 -4.240865417e-14 0)
(-5.413922199e-15 -3.802461771e-14 0)
(-1.788945959e-15 -5.518544911e-16 0)
(-2.398461194e-15 -2.258120823e-15 0)
(-3.269193209e-15 -5.104091264e-15 0)
(-4.284533318e-15 -9.111047349e-15 0)
(-5.380575633e-15 -1.40652235e-14 0)
(-6.529979232e-15 -1.96938471e-14 0)
(-7.714136737e-15 -2.570281528e-14 0)
(-8.9136682e-15 -3.179823965e-14 0)
(-1.01057832e-14 -3.771382188e-14 0)
(-1.126352653e-14 -4.322541008e-14 0)
(-1.235491415e-14 -4.815927165e-14 0)
(-1.334520614e-14 -5.239257815e-14 0)
(-1.419636445e-14 -5.584753817e-14 0)
(-1.487054851e-14 -5.848398126e-14 0)
(-1.533308017e-14 -6.02956445e-14 0)
(-1.555541863e-14 -6.130373594e-14 0)
(-1.551735788e-14 -6.154936579e-14 0)
(-1.521001834e-14 -6.109198233e-14 0)
(-1.463735631e-14 -6.000230952e-14 0)
(-1.381606026e-14 -5.835553656e-14 0)
(-1.277553077e-14 -5.622796004e-14 0)
(-1.15557084e-14 -5.369130237e-14 0)
(-1.020594125e-14 -5.080346621e-14 0)
(-8.785644157e-15 -4.760678092e-14 0)
(-7.36488803e-15 -4.413036047e-14 0)
(-6.024294571e-15 -4.039651593e-14 0)
(-4.848650649e-15 -3.643574981e-14 0)
(-8.778069952e-16 -4.022079267e-16 0)
(-1.367897915e-15 -1.960418453e-15 0)
(-2.026716146e-15 -4.798024692e-15 0)
(-2.77586773e-15 -8.857608037e-15 0)
(-3.589752135e-15 -1.389554316e-14 0)
(-4.461183957e-15 -1.962350115e-14 0)
(-5.384139597e-15 -2.573598647e-14 0)
(-6.348049929e-15 -3.192788798e-14 0)
(-7.336751866e-15 -3.792130758e-14 0)
(-8.326321922e-15 -4.34805062e-14 0)
(-9.288043217e-15 -4.842224288e-14 0)
(-1.01870316e-14 -5.261570074e-14 0)
(-1.098526895e-14 -5.597745655e-14 0)
(-1.164384706e-14 -5.84688664e-14 0)
(-1.212659395e-14 -6.008768145e-14 0)
(-1.240297047e-14 -6.086163839e-14 0)
(-1.245169366e-14 -6.084416522e-14 0)
(-1.226279722e-14 -6.01085583e-14 0)
(-1.183990496e-14 -5.874164943e-14 0)
(-1.120003809e-14 -5.683778689e-14 0)
(-1.037350807e-14 -5.449307939e-14 0)
(-9.400250679e-15 -5.179827549e-14 0)
(-8.32743911e-15 -4.883320484e-14 0)
(-7.209267897e-15 -4.566052695e-14 0)
(-6.105558701e-15 -4.232458787e-14 0)
(-5.081370816e-15 -3.885418362e-14 0)
(-4.204547056e-15 -3.527396656e-14 0)
(-2.898088908e-16 -2.739117108e-16 0)
(-5.699908486e-16 -1.755772647e-15 0)
(-9.289883565e-16 -4.621115605e-15 0)
(-1.349177344e-15 -8.748286793e-15 0)
(-1.835000167e-15 -1.387744071e-14 0)
(-2.393729893e-15 -1.971106396e-14 0)
(-3.027527131e-15 -2.593487585e-14 0)
(-3.733087405e-15 -3.223408251e-14 0)
(-4.498911915e-15 -3.831799002e-14 0)
(-5.306010702e-15 -4.39398322e-14 0)
(-6.126960096e-15 -4.890617801e-14 0)
(-6.927241497e-15 -5.30765921e-14 0)
(-7.668980737e-15 -5.636414471e-14 0)
(-8.311688997e-15 -5.872767687e-14 0)
(-8.816809528e-15 -6.016893016e-14 0)
(-9.15169178e-15 -6.072517315e-14 0)
(-9.292141366e-15 -6.046037719e-14 0)
(-9.227661934e-15 -5.946327515e-14 0)
(-8.960639149e-15 -5.78385376e-14 0)
(-8.507430521e-15 -5.569918182e-14 0)
(-7.897167066e-15 -5.316026721e-14 0)
(-7.168619883e-15 -5.033053991e-14 0)
(-6.367206638e-15 -4.730655427e-14 0)
(-5.541083142e-15 -4.416627639e-14 0)
(-4.742034501e-15 -4.096493682e-14 0)
(-4.023046597e-15 -3.773709431e-14 0)
(-3.438728266e-15 -3.450303869e-14 0)
(-3.038996343e-15 -3.127576826e-14 0)
(5.171384732e-17 -2.277654587e-16 0)
(9.114784786e-17 -1.713174459e-15 0)
(1.022354152e-16 -4.626161586e-15 0)
(5.61381825e-17 -8.827381763e-15 0)
(-6.875558377e-17 -1.40512546e-14 0)
(-2.879717445e-16 -1.999351526e-14 0)
(-6.106623635e-16 -2.633274189e-14 0)
(-1.039436765e-15 -3.274586181e-14 0)
(-1.567063848e-15 -3.893229033e-14 0)
(-2.178384118e-15 -4.463270922e-14 0)
(-2.847970091e-15 -4.96395472e-14 0)
(-3.543044413e-15 -5.380506174e-14 0)
(-4.223621464e-15 -5.703481751e-14 0)
(-4.8478389e-15 -5.928609852e-14 0)
(-5.375986407e-15 -6.056438216e-14 0)
(-5.772683283e-15 -6.091357597e-14 0)
(-6.010206228e-15 -6.041344047e-14 0)
(-6.075613453e-15 -5.91695161e-14 0)
(-5.968386624e-15 -5.730209512e-14 0)
(-5.702886096e-15 -5.494277475e-14 0)
(-5.30696853e-15 -5.222458403e-14 0)
(-4.818175663e-15 -4.9273809e-14 0)
(-4.278347096e-15 -4.620081882e-14 0)
(-3.733119783e-15 -4.309541868e-14 0)
(-3.226358462e-15 -4.002094759e-14 0)
(-2.804016718e-15 -3.701358425e-14 0)
(-2.510446766e-15 -3.408911863e-14 0)
(-2.386045961e-15 -3.124574317e-14 0)
(-2.45982604e-15 -2.847087756e-14 0)
(4.458479109e-16 -3.176487666e-16 0)
(8.016194833e-16 -1.873320012e-15 0)
(1.186733872e-15 -4.843469741e-15 0)
(1.524040061e-15 -9.119877529e-15 0)
(1.772215817e-15 -1.443806792e-14 0)
(1.90615954e-15 -2.049065878e-14 0)
(1.908715678e-15 -2.695144618e-14 0)
(1.771390224e-15 -3.348749174e-14 0)
(1.495031568e-15 -3.978627002e-14 0)
(1.092208313e-15 -4.557747628e-14 0)
(5.847326112e-16 -5.064276615e-14 0)
(4.601125655e-18 -5.482003281e-14 0)
(-6.086019745e-16 -5.800775568e-14 0)
(-1.212320863e-15 -6.01636153e-14 0)
(-1.763034907e-15 -6.129577534e-14 0)
(-2.221201681e-15 -6.145374131e-14 0)
(-2.558646753e-15 -6.072928239e-14 0)
(-2.755660278e-15 -5.924501778e-14 0)
(-2.809095314e-15 -5.714003081e-14 0)
(-2.730777751e-15 -5.456678489e-14 0)
(-2.546560227e-15 -5.167790444e-14 0)
(-2.291363142e-15 -4.86125589e-14 0)
(-2.005719427e-15 -4.549537314e-14 0)
(-1.730543076e-15 -4.242400326e-14 0)
(-1.50522172e-15 -3.946649e-14 0)
(-1.369704179e-15 -3.666245379e-14 0)
(-1.362760943e-15 -3.402019192e-14 0)
(-1.517481709e-15 -3.152193564e-14 0)
(-1.860056241e-15 -2.91321469e-14 0)
(1.202586462e-15 -4.876593793e-16 0)
(1.758771084e-15 -2.210867813e-15 0)
(2.454849764e-15 -5.26574961e-15 0)
(3.147080928e-15 -9.6252583e-15 0)
(3.757052415e-15 -1.504057386e-14 0)
(4.241915074e-15 -2.120618153e-14 0)
(4.574487343e-15 -2.779197418e-14 0)
(4.738036701e-15 -3.445838746e-14 0)
(4.726146543e-15 -4.088205567e-14 0)
(4.54508297e-15 -4.677919977e-14 0)
(4.212751971e-15 -5.191814608e-14 0)
(3.758240566e-15 -5.612657868e-14 0)
(3.220154135e-15 -5.929515674e-14 0)
(2.643387903e-15 -6.137422342e-14 0)
(2.073753041e-15 -6.237073414e-14 0)
(1.554102976e-15 -6.234820712e-14 0)
(1.117573096e-15 -6.140997162e-14 0)
(7.883473532e-16 -5.969211353e-14 0)
(5.73853443e-16 -5.735705918e-14 0)
(4.651787226e-16 -5.457678978e-14 0)
(4.408703371e-16 -5.152085996e-14 0)
(4.689649092e-16 -4.83460395e-14 0)
(5.10086653e-16 -4.518581432e-14 0)
(5.274432962e-16 -4.214321005e-14 0)
(4.830209269e-16 -3.929134416e-14 0)
(3.418617951e-16 -3.666927404e-14 0)
(6.926757952e-17 -3.427895648e-14 0)
(-3.655866143e-16 -3.209412485e-14 0)
(-9.833536983e-16 -3.005433632e-14 0)
(2.401575405e-15 -6.831426732e-16 0)
(3.084398177e-15 -2.667197843e-15 0)
(4.010533061e-15 -5.857438308e-15 0)
(5.007965193e-15 -1.0321425e-14 0)
(5.951871594e-15 -1.584316884e-14 0)
(6.774590145e-15 -2.212669422e-14 0)
(7.433900594e-15 -2.884213427e-14 0)
(7.902133194e-15 -3.564533325e-14 0)
(8.164103958e-15 -4.220412864e-14 0)
(8.218488194e-15 -4.822313681e-14 0)
(8.077083386e-15 -5.345818564e-14 0)
(7.764209773e-15 -5.772123284e-14 0)
(7.316158587e-15 -6.088975079e-14 0)
(6.777042848e-15 -6.291158614e-14 0)
(6.194242957e-15 -6.379670167e-14 0)
(5.614291084e-15 -6.361081625e-14 0)
(5.07938508e-15 -6.246822292e-14 0)
(4.616062013e-15 -6.052429138e-14 0)
(4.238152068e-15 -5.796304502e-14 0)
(3.942774402e-15 -5.497687674e-14 0)
(3.712489683e-15 -5.175423039e-14 0)
(3.51735092e-15 -4.846920943e-14 0)
(3.323141199e-15 -4.526504874e-14 0)
(3.093028628e-15 -4.224974608e-14 0)
(2.792410494e-15 -3.949675481e-14 0)
(2.388257786e-15 -3.70423446e-14 0)
(1.847565013e-15 -3.48850277e-14 0)
(1.140312504e-15 -3.298114539e-14 0)
(2.513957776e-16 -3.124658216e-14 0)
(-8.15719903e-16 -2.955877244e-14 0)
(-2.019649865e-15 -2.775462031e-14 0)
(-3.267042395e-15 -2.561322716e-14 0)
(-4.413779767e-15 -2.281175007e-14 0)
(-5.285525779e-15 -1.907824069e-14 0)
(4.040371079e-15 -8.869389141e-16 0)
(4.820489566e-15 -3.191462186e-15 0)
(5.911595795e-15 -6.572006588e-15 0)
(7.161007344e-15 -1.11707257e-14 0)
(8.4039815e-15 -1.681406319e-14 0)
(9.544796202e-15 -2.322378521e-14 0)
(1.05228031e-14 -3.007523305e-14 0)
(1.12968834e-14 -3.702271423e-14 0)
(1.184080863e-14 -4.37269847e-14 0)
(1.21441706e-14 -4.988153854e-14 0)
(1.221143527e-14 -5.522916688e-14 0)
(1.206098522e-14 -5.956956363e-14 0)
(1.172322014e-14 -6.276983502e-14 0)
(1.123904089e-14 -6.476710466e-14 0)
(1.065697935e-14 -6.556518595e-14 0)
(1.00269966e-14 -6.523309275e-14 0)
(9.394733455e-15 -6.390167506e-14 0)
(8.795627674e-15 -6.174519713e-14 0)
(8.250420772e-15 -5.896516998e-14 0)
(7.763599786e-15 -5.577781509e-14 0)
(7.323505363e-15 -5.239432334e-14 0)
(6.905862373e-15 -4.900211712e-14 0)
(6.479732993e-15 -4.575414902e-14 0)
(6.011587171e-15 -4.276228588e-14 0)
(5.468107192e-15 -4.009734221e-14 0)
(4.816658819e-15 -3.779418358e-14 0)
(4.024579246e-15 -3.584597479e-14 0)
(3.063523065e-15 -3.419538826e-14 0)
(1.918095724e-15 -3.273502269e-14 0)
(5.997117844e-16 -3.130196383e-14 0)
(-8.380162812e-16 -2.968256828e-14 0)
(-2.276165998e-15 -2.760462757e-14 0)
(-3.552672409e-15 -2.471278241e-14 0)
(-4.483970425e-15 -2.071814718e-14 0)
(6.093384609e-15 -1.092068866e-15 0)
(6.96276462e-15 -3.749208072e-15 0)
(8.175233754e-15 -7.364839775e-15 0)
(9.631221922e-15 -1.21296287e-14 0)
(1.11388114e-14 -1.791231241e-14 0)
(1.257621034e-14 -2.445806628e-14 0)
(1.38633133e-14 -3.145212842e-14 0)
(1.494402163e-14 -3.855079151e-14 0)
(1.577958032e-14 -4.541028725e-14 0)
(1.634840784e-14 -5.17143918e-14 0)
(1.664561084e-14 -5.719428409e-14 0)
(1.668075535e-14 -6.163666566e-14 0)
(1.647800912e-14 -6.48956804e-14 0)
(1.607427966e-14 -6.689831116e-14 0)
(1.551533662e-14 -6.764430705e-14 0)
(1.485097311e-14 -6.720492076e-14 0)
(1.413021351e-14 -6.571498938e-14 0)
(1.339711504e-14 -6.336494543e-14 0)
(1.2681328e-14 -6.038209528e-14 0)
(1.199644567e-14 -5.700502504e-14 0)
(1.134044798e-14 -5.346569421e-14 0)
(1.069792931e-14 -4.997016235e-14 0)
(1.004262316e-14 -4.667980984e-14 0)
(9.344574896e-15 -4.370837447e-14 0)
(8.570279094e-15 -4.112528072e-14 0)
(7.685214783e-15 -3.895971058e-14 0)
(6.656480209e-15 -3.71980105e-14 0)
(5.456200436e-15 -3.576921847e-14 0)
(4.072643782e-15 -3.453883993e-14 0)
(2.523676583e-15 -3.33085919e-14 0)
(8.744790413e-16 -3.180625923e-14 0)
(-7.447302235e-16 -2.970508691e-14 0)
(-2.153038033e-15 -2.662804285e-14 0)
(-3.162594207e-15 -2.229252484e-14 0)
(8.516987254e-15 -1.293930823e-15 0)
(9.476444344e-15 -4.316143101e-15 0)
(1.078298108e-14 -8.196372852e-15 0)
(1.24107662e-14 -1.315284208e-14 0)
(1.415294666e-14 -1.909078873e-14 0)
(1.586665501e-14 -2.578118859e-14 0)
(1.745339393e-14 -3.292292466e-14 0)
(1.884181809e-14 -4.017750809e-14 0)
(1.997994008e-14 -4.719966953e-14 0)
(2.083364694e-14 -5.366554616e-14 0)
(2.138688555e-14 -5.929599515e-14 0)
(2.163897907e-14 -6.386561551e-14 0)
(2.160478337e-14 -6.721532131e-14 0)
(2.131369901e-14 -6.926095276e-14 0)
(2.080652009e-14 -6.999498689e-14 0)
(2.013191741e-14 -6.948682506e-14 0)
(1.934162145e-14 -6.78780363e-14 0)
(1.848372126e-14 -6.537268628e-14 0)
(1.759809735e-14 -6.221754075e-14 0)
(1.6710592e-14 -5.867474126e-14 0)
(1.58318253e-14 -5.49978196e-14 0)
(1.495802869e-14 -5.141006344e-14 0)
(1.407210824e-14 -4.808349964e-14 0)
(1.314785543e-14 -4.513408921e-14 0)
(1.215244208e-14 -4.262906306e-14 0)
(1.104821461e-14 -4.059050835e-14 0)
(9.799500942e-15 -3.899409808e-14 0)
(8.376335655e-15 -3.775278298e-14 0)
(6.767549887e-15 -3.670693652e-14 0)
(4.997994747e-15 -3.561652458e-14 0)
(3.145024878e-15 -3.415908301e-14 0)
(1.343980474e-15 -3.19496433e-14 0)
(-2.140744099e-16 -2.859242422e-14 0)
(1.125191488e-14 -1.488580907e-15 0)
(1.230533848e-14 -4.873643807e-15 0)
(1.36892881e-14 -9.032493139e-15 0)
(1.54636919e-14 -1.419655836e-14 0)
(1.741610317e-14 -2.030008952e-14 0)
(1.938841821e-14 -2.713970822e-14 0)
(2.126627785e-14 -3.443033334e-14 0)
(2.296393629e-14 -4.184153537e-14 0)
(2.441637857e-14 -4.902959735e-14 0)
(2.557628222e-14 -5.566574139e-14 0)
(2.641524213e-14 -6.146203501e-14 0)
(2.692095423e-14 -6.618238627e-14 0)
(2.709664023e-14 -6.965533926e-14 0)
(2.696146026e-14 -7.178507218e-14 0)
(2.654806014e-14 -7.255539574e-14 0)
(2.589991133e-14 -7.203170507e-14 0)
(2.506754103e-14 -7.035831496e-14 0)
(2.410348514e-14 -6.774932712e-14 0)
(2.305676235e-14 -6.446848411e-14 0)
(2.196655924e-14 -6.079870908e-14 0)
(2.085959763e-14 -5.701418114e-14 0)
(1.974779354e-14 -5.335583469e-14 0)
(1.862597567e-14 -5.000540827e-14 0)
(1.747476811e-14 -4.708127632e-14 0)
(1.626232307e-14 -4.464939042e-14 0)
(1.494807957e-14 -4.272547843e-14 0)
(1.349134633e-14 -4.1275644e-14 0)
(1.185812562e-14 -4.019749e-14 0)
(1.003499652e-14 -3.929677069e-14 0)
(8.049194374e-15 -3.828677566e-14 0)
(5.982226479e-15 -3.67954298e-14 0)
(3.979209379e-15 -3.439154409e-14 0)
(1.422449212e-14 -1.67230341e-15 0)
(1.537593665e-14 -5.406202566e-15 0)
(1.682696984e-14 -9.843519918e-15 0)
(1.87299089e-14 -1.521977029e-14 0)
(2.087313966e-14 -2.149111931e-14 0)
(2.308878345e-14 -2.847813152e-14 0)
(2.524991537e-14 -3.59131032e-14 0)
(2.725793976e-14 -4.34757161e-14 0)
(2.903586342e-14 -5.082690596e-14 0)
(3.05233228e-14 -5.763586932e-14 0)
(3.167893567e-14 -6.36077469e-14 0)
(3.247796551e-14 -6.849813732e-14 0)
(3.291035391e-14 -7.212472106e-14 0)
(3.298260028e-14 -7.438030953e-14 0)
(3.271615177e-14 -7.523949069e-14 0)
(3.214570687e-14 -7.476182208e-14 0)
(3.131700365e-14 -7.309090387e-14 0)
(3.02832835e-14 -7.044648987e-14 0)
(2.910070619e-14 -6.710452029e-14 0)
(2.782169573e-14 -6.336429092e-14 0)
(2.649043505e-14 -5.951748001e-14 0)
(2.513787896e-14 -5.582154416e-14 0)
(2.377453909e-14 -5.246841376e-14 0)
(2.239052386e-14 -4.958012396e-14 0)
(2.095733696e-14 -4.722285055e-14 0)
(1.943241188e-14 -4.540721199e-14 0)
(1.776967029e-14 -4.408826494e-14 0)
(1.592995298e-14 -4.314472023e-14 0)
(1.389582086e-14 -4.235209579e-14 0)
(1.168967382e-14 -4.137804312e-14 0)
(9.391954338e-15 -3.979285602e-14 0)
(7.149665393e-15 -3.712012949e-14 0)
(1.734811935e-14 -1.841542902e-15 0)
(1.860015945e-14 -5.90025375e-15 0)
(2.011126083e-14 -1.060337297e-14 0)
(2.212905727e-14 -1.618485886e-14 0)
(2.444693947e-14 -2.261687682e-14 0)
(2.689186743e-14 -2.974157243e-14 0)
(2.932777585e-14 -3.73090579e-14 0)
(3.164544249e-14 -4.50107864e-14 0)
(3.375712685e-14 -5.251472298e-14 0)
(3.55908164e-14 -5.949145597e-14 0)
(3.70918659e-14 -6.564135961e-14 0)
(3.822267801e-14 -7.071406056e-14 0)
(3.895964116e-14 -7.451908225e-14 0)
(3.929484421e-14 -7.693908059e-14 0)
(3.923606847e-14 -7.79396543e-14 0)
(3.880616644e-14 -7.757336032e-14 0)
(3.804229942e-14 -7.598026787e-14 0)
(3.699437008e-14 -7.338094906e-14 0)
(3.572180432e-14 -7.00572216e-14 0)
(3.428771974e-14 -6.631877158e-14 0)
(3.275253785e-14 -6.247017123e-14 0)
(3.116700387e-14 -5.878303504e-14 0)
(2.956072505e-14 -5.54600626e-14 0)
(2.793732836e-14 -5.26287238e-14 0)
(2.627607791e-14 -5.035702088e-14 0)
(2.453576866e-14 -4.865178304e-14 0)
(2.266603688e-14 -4.745743753e-14 0)
(2.06201698e-14 -4.663308676e-14 0)
(1.837188551e-14 -4.592131891e-14 0)
(1.593598413e-14 -4.494358789e-14 0)
(1.338610581e-14 -4.321583753e-14 0)
(1.086421707e-14 -4.021567902e-14 0)
(2.05256509e-14 -1.992967453e-15 0)
(2.187832242e-14 -6.343836004e-15 0)
(2.344372724e-14 -1.128924588e-14 0)
(2.556474079e-14 -1.7058158e-14 0)
(2.804232559e-14 -2.363410423e-14 0)
(3.070199905e-14 -3.087830176e-14 0)
(3.340175923e-14 -3.855846057e-14 0)
(3.602426043e-14 -4.637910233e-14 0)
(3.847250803e-14 -5.401712382e-14 0)
(4.066461813e-14 -6.114760225e-14 0)
(4.253349827e-14 -6.746939418e-14 0)
(4.402844092e-14 -7.272797524e-14 0)
(4.511298039e-14 -7.672765508e-14 0)
(4.576396123e-14 -7.934346524e-14 0)
(4.597428124e-14 -8.053297259e-14 0)
(4.575268235e-14 -8.034133087e-14 0)
(4.512459132e-14 -7.890263933e-14 0)
(4.413247933e-14 -7.643396954e-14 0)
(4.283429176e-14 -7.321661672e-14 0)
(4.129903241e-14 -6.956374603e-14 0)
(3.959975198e-14 -6.578744855e-14 0)
(3.780533808e-14 -6.21694021e-14 0)
(3.596675046e-14 -5.892283007e-14 0)
(3.410564311e-14 -5.618273951e-14 0)
(3.221452056e-14 -5.40202911e-14 0)
(3.025823106e-14 -5.24398318e-14 0)
(2.818436717e-14 -5.137608588e-14 0)
(2.59381136e-14 -5.066817828e-14 0)
(2.348145821e-14 -5.00260389e-14 0)
(2.081515054e-14 -4.902505392e-14 0)
(1.799931753e-14 -4.712749518e-14 0)
(2.365254566e-14 -2.123600414e-15 0)
(2.510268202e-14 -6.726639614e-15 0)
(2.671646293e-14 -1.188167892e-14 0)
(2.892918369e-14 -1.781058927e-14 0)
(3.155088946e-14 -2.450474591e-14 0)
(3.440850068e-14 -3.184204239e-14 0)
(3.735690141e-14 -3.960718294e-14 0)
(4.02730626e-14 -4.751875006e-14 0)
(4.305252817e-14 -5.526405953e-14 0)
(4.560532026e-14 -6.252536664e-14 0)
(4.785339176e-14 -6.900346123e-14 0)
(4.973364814e-14 -7.444163132e-14 0)
(5.119699604e-14 -7.864194196e-14 0)
(5.220613845e-14 -8.147497163e-14 0)
(5.273852911e-14 -8.289149185e-14 0)
(5.278793338e-14 -8.292984444e-14 0)
(5.236602514e-14 -8.171678666e-14 0)
(5.150449796e-14 -7.946213038e-14 0)
(5.025519615e-14 -7.644090414e-14 0)
(4.868770328e-14 -7.296326377e-14 0)
(4.688298619e-14 -6.934271979e-14 0)
(4.492493238e-14 -6.58659846e-14 0)
(4.288578531e-14 -6.275501104e-14 0)
(4.080851361e-14 -6.015327554e-14 0)
(3.870355055e-14 -5.813621637e-14 0)
(3.65470342e-14 -5.670767693e-14 0)
(3.428769296e-14 -5.579395634e-14 0)
(3.186346579e-14 -5.521430366e-14 0)
(2.922267398e-14 -5.464662164e-14 0)
(2.634785692e-14 -5.362218813e-14 0)
(2.327868125e-14 -5.155017375e-14 0)
(2.662081775e-14 -2.230950557e-15 0)
(2.816167045e-14 -7.040227304e-15 0)
(2.981681467e-14 -1.236485738e-14 0)
(3.210849843e-14 -1.841833165e-14 0)
(3.485664573e-14 -2.519725976e-14 0)
(3.789166177e-14 -3.259405794e-14 0)
(4.106769057e-14 -4.040964086e-14 0)
(4.425818563e-14 -4.83771844e-14 0)
(4.73531886e-14 -5.619573593e-14 0)
(5.025612554e-14 -6.355691982e-14 0)
(5.288031295e-14 -7.016672536e-14 0)
(5.515117826e-14 -7.57691302e-14 0)
(5.700727068e-14 -8.01657269e-14 0)
(5.839922049e-14 -8.322576614e-14 0)
(5.928963103e-14 -8.489563807e-14 0)
(5.965740468e-14 -8.520745185e-14 0)
(5.95000319e-14 -8.428005007e-14 0)
(5.883662285e-14 -8.231362414e-14 0)
(5.770993906e-14 -7.957262487e-14 0)
(5.618596819e-14 -7.635835643e-14 0)
(5.434927867e-14 -7.298002148e-14 0)
(5.229503151e-14 -6.97239784e-14 0)
(5.01143501e-14 -6.681752057e-14 0)
(4.787214522e-14 -6.441196346e-14 0)
(4.559880044e-14 -6.258678203e-14 0)
(4.328538457e-14 -6.13468678e-14 0)
(4.08852606e-14 -6.061230579e-14 0)
(3.833247355e-14 -6.018410572e-14 0)
(3.556144942e-14 -5.971003559e-14 0)
(3.253361749e-14 -5.867978778e-14 0)
(2.926238939e-14 -5.645182707e-14 0)
(2.93235644e-14 -2.313141645e-15 0)
(3.094469423e-14 -7.27829994e-15 0)
(3.26325851e-14 -1.272694483e-14 0)
(3.498842898e-14 -1.886341283e-14 0)
(3.784229442e-14 -2.568765697e-14 0)
(4.102957011e-14 -3.310473362e-14 0)
(4.440554806e-14 -4.093090539e-14 0)
(4.784208978e-14 -4.891422529e-14 0)
(5.122554415e-14 -5.676660628e-14 0)
(5.445401338e-14 -6.41903934e-14 0)
(5.743459817e-14 -7.090000909e-14 0)
(6.008262972e-14 -7.664335527e-14 0)
(6.23256072e-14 -8.122297552e-14 0)
(6.410263057e-14 -8.450888474e-14 0)
(6.536444184e-14 -8.644620716e-14 0)
(6.607595937e-14 -8.706150607e-14 0)
(6.622132835e-14 -8.646579889e-14 0)
(6.580730879e-14 -8.484816665e-14 0)
(6.486687428e-14 -8.245938097e-14 0)
(6.346034841e-14 -7.958778171e-14 0)
(6.167286605e-14 -7.653299546e-14 0)
(5.960746089e-14 -7.357583219e-14 0)
(5.736997315e-14 -7.094459048e-14 0)
(5.504517937e-14 -6.879633529e-14 0)
(5.268303347e-14 -6.721427146e-14 0)
(5.028963212e-14 -6.620545277e-14 0)
(4.782606801e-14 -6.568419974e-14 0)
(4.522647212e-14 -6.54351668e-14 0)
(4.241447874e-14 -6.508115644e-14 0)
(3.93295726e-14 -6.40744272e-14 0)
(3.595453084e-14 -6.172747744e-14 0)
(3.165981841e-14 -2.36899683e-15 0)
(3.334724858e-14 -7.436886481e-15 0)
(3.505748879e-14 -1.29603357e-14 0)
(3.746028855e-14 -1.913410577e-14 0)
(4.039577855e-14 -2.596015059e-14 0)
(4.370531766e-14 -3.335456708e-14 0)
(4.724680478e-14 -4.114807834e-14 0)
(5.089212747e-14 -4.910365595e-14 0)
(5.4525592e-14 -5.694705084e-14 0)
(5.804138643e-14 -6.439249506e-14 0)
(6.134180984e-14 -7.11650955e-14 0)
(6.433502212e-14 -7.701986913e-14 0)
(6.693848802e-14 -8.176264314e-14 0)
(6.908104773e-14 -8.526493688e-14 0)
(7.070365034e-14 -8.747215668e-14 0)
(7.176048678e-14 -8.840784258e-14 0)
(7.222418714e-14 -8.817482111e-14 0)
(7.20911597e-14 -8.695015381e-14 0)
(7.138562596e-14 -8.49692773e-14 0)
(7.016243026e-14 -8.250464564e-14 0)
(6.850572152e-14 -7.98419067e-14 0)
(6.652324413e-14 -7.725184263e-14 0)
(6.433093441e-14 -7.495937817e-14 0)
(6.202897207e-14 -7.3123807e-14 0)
(5.968468586e-14 -7.18323222e-14 0)
(5.731690824e-14 -7.10940064e-14 0)
(5.489793717e-14 -7.081752662e-14 0)
(5.236451787e-14 -7.077262015e-14 0)
(4.963369785e-14 -7.056283998e-14 0)
(4.662532109e-14 -6.961061731e-14 0)
(4.32893983e-14 -6.718958401e-14 0)
(3.353942477e-14 -2.39808524e-15 0)
(3.527603218e-14 -7.51443928e-15 0)
(3.699656504e-14 -1.306173968e-14 0)
(3.942683908e-14 -1.922502367e-14 0)
(4.241671846e-14 -2.60073581e-14 0)
(4.58141117e-14 -3.333451837e-14 0)
(4.948062966e-14 -4.105081722e-14 0)
(5.328950025e-14 -4.893404846e-14 0)
(5.712442011e-14 -5.672444935e-14 0)
(6.087722644e-14 -6.414938041e-14 0)
(6.444647869e-14 -7.094564622e-14 0)
(6.773586775e-14 -7.687851977e-14 0)
(7.065526287e-14 -8.175942013e-14 0)
(7.312485274e-14 -8.546220519e-14 0)
(7.507727199e-14 -8.793314212e-14 0)
(7.645957534e-14 -8.919359546e-14 0)
(7.72364731e-14 -8.933919745e-14 0)
(7.739686838e-14 -8.853455009e-14 0)
(7.695873627e-14 -8.6998514e-14 0)
(7.597271256e-14 -8.498559791e-14 0)
(7.45216045e-14 -8.276462908e-14 0)
(7.271507745e-14 -8.059262779e-14 0)
(7.067481411e-14 -7.868725325e-14 0)
(6.851132482e-14 -7.720642599e-14 0)
(6.630401831e-14 -7.624074642e-14 0)
(6.408370292e-14 -7.580025312e-14 0)
(6.183563628e-14 -7.578694498e-14 0)
(5.950194081e-14 -7.595963319e-14 0)
(5.6996157e-14 -7.590761196e-14 0)
(5.42227648e-14 -7.503235043e-14 0)
(5.109999632e-14 -7.258032763e-14 0)
(3.488757795e-14 -2.400713782e-15 0)
(3.665368808e-14 -7.511776435e-15 0)
(3.837116424e-14 -1.303204398e-14 0)
(4.080765417e-14 -1.913689608e-14 0)
(4.382225728e-14 -2.582999336e-14 0)
(4.726972248e-14 -3.304564946e-14 0)
(5.101617292e-14 -4.064092294e-14 0)
(5.493727171e-14 -4.840819413e-14 0)