/*--------------------------------*- C++ -*----------------------------------*\
  =========                 |
  \\      /  F ield         | OpenFOAM: The Open Source CFD Toolbox
   \\    /   O peration     | Website:  https://openfoam.org
    \\  /    A nd           | Version:  8
     \\/     M anipulation  |
\*---------------------------------------------------------------------------*/
FoamFile
{
    version     2.0;
    format      ascii;
    class       volVectorField;
    location    "1.6/wallFilmRegion";
    object      contactForce:contactAngle;
}
// * * * * * * * * * * * * * * * * * * * * * * * * * * * * * * * * * * * * * //

dimensions      [1 -2 -2 0 0 0 0];

internalField   nonuniform List<vector> 
1369
(
(0 0 0)
(0 0 0)
(0 0 0)
(0 0 0)
(0 0 0)
(0 0 0)
(0 0 0)
(0 0 0)
(0 0 0)
(0 0 0)
(0 0 0)
(0 0 0)
(0 0 0)
(0 0 0)
(0 0 0)
(0 0 0)
(0 0 0)
(0 0 0)
(0 0 0)
(0 0 0)
(0 0 0)
(0 0 0)
(0 0 0)
(0 0 0)
(0 0 0)
(0 0 0)
(0 0 0)
(-399.5579914 0 0)
(-323.9539398 0 0)
(-359.2044634 0 0)
(0 0 0)
(0 0 0)
(0 0 0)
(0 0 0)
(0 0 0)
(0 0 0)
(0 0 0)
(0 0 0)
(0 0 0)
(0 0 0)
(0 0 0)
(0 0 0)
(0 0 0)
(0 0 0)
(0 0 0)
(0 0 0)
(0 0 0)
(0 0 0)
(0 0 0)
(0 0 0)
(0 0 0)
(0 0 0)
(0 0 0)
(0 0 0)
(0 0 0)
(0 0 0)
(0 0 0)
(0 0 0)
(0 0 0)
(0 0 0)
(0 0 0)
(0 0 0)
(0 0 0)
(0 0 0)
(0 0 0)
(0 0 0)
(0 0 0)
(0 0 0)
(0 0 0)
(0 0 0)
(0 0 0)
(0 0 0)
(0 0 0)
(0 0 0)
(-527.8487748 0 0)
(-327.330943 0 0)
(0 0 0)
(0 0 0)
(0 0 0)
(0 0 0)
(-417.5760614 0 0)
(0 0 0)
(0 0 0)
(0 0 0)
(0 0 0)
(0 0 0)
(0 -530.8382314 -1.569643549e-12)
(0 0 0)
(0 0 0)
(0 0 0)
(0 495.1771543 0)
(0 0 0)
(0 0 0)
(0 0 0)
(0 0 0)
(0 0 0)
(0 0 0)
(0 0 0)
(0 0 0)
(-543.6140561 0 0)
(-419.5647912 0 0)
(-663.9655005 0 0)
(-617.8421895 0 0)
(0 0 0)
(0 0 0)
(0 0 0)
(0 0 0)
(0 0 0)
(0 0 0)
(0 0 0)
(0 0 0)
(0 0 0)
(0 0 0)
(0 0 0)
(0 0 0)
(0 0 0)
(0 0 0)
(0 0 0)
(0 0 0)
(0 0 0)
(0 0 0)
(0 0 0)
(0 0 0)
(0 0 0)
(0 0 0)
(0 0 0)
(0 0 0)
(0 0 0)
(0 0 0)
(0 0 0)
(0 0 0)
(0 0 0)
(0 0 0)
(-840.6836063 -770.6266419 2.278677481e-12)
(0 0 0)
(0 0 0)
(0 361.8559999 1.069977436e-12)
(0 0 0)
(0 0 0)
(-1061.204016 -972.7703516 2.876399249e-12)
(0 0 0)
(0 721.3110197 2.132855377e-12)
(0 0 0)
(0 0 0)
(0 0 0)
(0 0 0)
(0 0 0)
(743.6952826 -681.7206745 2.015790092e-12)
(0 0 0)
(0 0 0)
(-394.016299 361.1816088 1.067983319e-12)
(-649.6430762 0 1.760861086e-12)
(-551.507356 0 1.494863684e-12)
(0 0 0)
(0 0 0)
(0 0 0)
(0 0 0)
(-365.3956901 0 9.904070025e-13)
(-702.8249185 -644.2561777 1.905010759e-12)
(0 0 0)
(0 0 0)
(0 0 0)
(0 0 0)
(-981.2281543 899.4591447 2.659624242e-12)
(-554.639328 0 1.503352911e-12)
(-599.4607198 0 1.624841537e-12)
(-298.9433514 0 8.102875776e-13)
(0 0 0)
(0 0 0)
(0 0 0)
(0 0 0)
(0 0 0)
(0 0 0)
(0 0 0)
(0 0 0)
(0 0 0)
(0 0 0)
(0 0 0)
(0 0 0)
(0 0 0)
(0 0 0)
(0 0 0)
(0 0 0)
(0 0 0)
(0 0 0)
(0 0 0)
(0 0 0)
(0 0 0)
(0 0 0)
(0 0 0)
(0 0 0)
(0 0 0)
(0 -553.4293376 0)
(0 0 0)
(0 0 0)
(0 0 0)
(0 713.1365993 0)
(0 0 0)
(0 -593.9555031 0)
(0 0 0)
(-1.269655939e-05 2133.73075 0)
(-397.6874692 0 0)
(-341.3088904 0 0)
(-381.6191466 0 0)
(0 0 0)
(0 0 0)
(0 0 0)
(0 0 0)
(987.7122603 -905.4029086 0)
(0 0 0)
(0 0 0)
(0 0 0)
(0 0 0)
(0 323.5720819 0)
(0 0 0)
(0 0 0)
(0 -584.8609454 1.729384105e-12)
(0 0 0)
(0 0 0)
(0 0 0)
(0 0 0)
(0 0 0)
(0 0 0)
(0 0 0)
(0 0 0)
(0 0 0)
(0 0 0)
(-1066.33387 977.4727122 0)
(0 0 0)
(0 0 0)
(0 0 0)
(0 0 0)
(0 0 0)
(0 0 0)
(0 0 0)
(0 0 0)
(0 0 0)
(0 0 0)
(0 0 0)
(0 0 0)
(0 0 0)
(0 0 0)
(0 0 0)
(0 0 0)
(0 0 0)
(0 0 0)
(0 0 0)
(0 0 0)
(0 0 0)
(0 0 0)
(0 0 0)
(0 0 0)
(0 -579.3447313 0)
(0 0 0)
(0 0 0)
(0 0 0)
(0 657.147022 0)
(0 0 0)
(0 -602.9386459 0)
(0 0 0)
(0 0 0)
(0 0 0)
(0 0 0)
(0 0 0)
(0 363.184782 0)
(0 0 0)
(-456.0374768 0 -1.236092065e-12)
(-313.2263824 0 0)
(0 -425.4447193 0)
(0 0 0)
(0 0 0)
(0 0 0)
(0 0 0)
(0 295.7433977 0)
(0 0 0)
(0 0 0)
(0 -674.6248878 0)
(0 0 0)
(0 0 0)
(0 0 0)
(0 0 0)
(0 0 0)
(0 0 0)
(0 0 0)
(0 0 0)
(0 0 0)
(0 0 0)
(0 0 0)
(0 699.4012094 -2.068069953e-12)
(0 0 0)
(0 0 0)
(0 0 0)
(0 0 0)
(0 0 0)
(0 0 0)
(0 0 0)
(0 0 0)
(0 0 0)
(0 0 0)
(0 0 0)
(0 0 0)
(0 0 0)
(0 0 0)
(0 0 0)
(0 0 0)
(0 0 0)
(0 0 0)
(0 0 0)
(0 0 0)
(0 0 0)
(0 0 0)
(0 0 0)
(0 -240.1393445 0)
(0 0 0)
(0 0 0)
(378.0306903 346.5281322 0)
(0 0 0)
(0 0 0)
(-670.9166037 -615.006889 0)
(0 0 0)
(0 0 0)
(0 0 0)
(0 0 0)
(703.1066345 644.5144137 0)
(0 0 0)
(-656.7117971 -601.9858162 0)
(0 0 0)
(0 0 0)
(-1104.714972 1012.655395 0)
(375.1214355 -343.8613153 0)
(0 0 0)
(639.2104613 585.9429218 0)
(479.3576752 0 0)
(0 0 0)
(0 0 0)
(0 0 0)
(0 -665.1804528 1.966882062e-12)
(0 0 0)
(0 0 0)
(0 0 0)
(0 0 0)
(0 0 0)
(0 0 0)
(0 0 0)
(0 0 0)
(0 0 0)
(0 0 0)
(0 0 0)
(-718.2869076 658.4296677 0)
(0 0 0)
(0 0 0)
(0 0 0)
(0 0 0)
(0 0 0)
(0 0 0)
(0 0 0)
(0 0 0)
(0 0 0)
(0 0 0)
(0 0 0)
(0 0 0)
(0 0 0)
(0 0 0)
(0 0 0)
(0 0 0)
(0 0 0)
(0 0 0)
(0 0 0)
(0 0 0)
(0 0 0)
(0 0 0)
(0 0 0)
(-1033.457887 -947.3363948 0)
(0 0 0)
(0 0 0)
(0 784.9197277 0)
(0 0 0)
(0 -417.0079534 0)
(0 0 0)
(0 0 0)
(0 0 0)
(0 0 0)
(0 0 0)
(-818.8043913 750.5706907 0)
(0 -478.3799389 0)
(0 0 0)
(0 0 0)
(0 0 0)
(0 0 0)
(0 333.1038126 0)
(-646.7091764 0 0)
(-277.9338711 0 0)
(-274.6553879 0 0)
(-614.2273667 0 0)
(-330.6298213 0 0)
(-654.4816358 0 0)
(0 -474.7009421 1.403650339e-12)
(0 0 0)
(0 0 0)
(0 0 0)
(0 0 0)
(0 0 0)
(0 0 0)
(0 0 0)
(0 0 0)
(0 0 0)
(0 0 0)
(0 0 0)
(0 0 0)
(-1038.08062 951.5738999 0)
(0 0 0)
(0 0 0)
(0 0 0)
(0 0 0)
(0 0 0)
(0 0 0)
(0 0 0)
(0 0 0)
(0 0 0)
(0 0 0)
(0 0 0)
(0 0 0)
(0 0 0)
(0 0 0)
(0 0 0)
(0 0 0)
(0 0 0)
(0 0 0)
(0 0 0)
(0 0 0)
(0 0 0)
(0 -695.4830783 0)
(0 0 0)
(0 0 0)
(355.1620794 325.5652389 0)
(0 0 0)
(0 0 0)
(0 0 0)
(1019.595333 -934.6290532 0)
(0 0 0)
(0 0 0)
(0 0 0)
(0 0 0)
(0 0 0)
(-2232.667436 -3.366234343e-11 0)
(0 0 0)
(0 0 0)
(0 0 0)
(0 0 0)
(-2120.588323 -6.466349472e-11 0)
(0 0 0)
(0 0 0)
(0 0 0)
(0 0 0)
(0 0 0)
(0 0 0)
(-2259.049156 -3.826978151e-13 0)
(0 0 0)
(0 0 0)
(0 0 0)
(-5.564199439e-12 813.7333226 0)
(-4.841166361e-12 -748.4505284 0)
(0 0 0)
(0 0 0)
(0 0 0)
(0 0 0)
(0 0 0)
(0 0 0)
(0 0 0)
(0 0 0)
(-993.7717605 910.9574455 0)
(0 0 0)
(0 0 0)
(0 0 0)
(0 0 0)
(0 0 0)
(0 0 0)
(0 0 0)
(0 0 0)
(0 0 0)
(0 0 0)
(0 0 0)
(0 0 0)
(0 0 0)
(0 0 0)
(0 0 0)
(0 0 0)
(0 0 0)
(0 0 0)
(0 0 0)
(0 0 0)
(0 -490.9355653 0)
(0 0 0)
(0 0 0)
(0 731.2232833 0)
(0 0 0)
(0 0 0)
(0 0 0)
(0 -273.6108888 0)
(0 0 0)
(0 0 0)
(0 0 0)
(0 0 0)
(0 0 0)
(0 0 0)
(0 0 0)
(2510.599638 -0.01177409502 0)
(0 0 0)
(0 0 0)
(0 0 0)
(0 0 0)
(0 0 0)
(0 0 0)
(0 0 0)
(0 0 0)
(0 0 0)
(0 0 0)
(0 0 0)
(0 0 0)
(0 0 0)
(0 0 0)
(0 0 0)
(0 0 0)
(0 0 0)
(0 0 0)
(0 0 0)
(0 0 0)
(0 0 0)
(0 0 0)
(0 0 0)
(0 0 0)
(-1012.280315 927.9236256 0)
(0 0 0)
(0 0 0)
(0 0 0)
(0 0 0)
(0 0 0)
(0 0 0)
(0 0 0)
(0 0 0)
(0 0 0)
(0 0 0)
(0 0 0)
(0 0 0)
(0 0 0)
(0 0 0)
(0 0 0)
(0 0 0)
(0 0 0)
(0 0 0)
(0 0 0)
(-614.9687723 -563.7213736 -1.666876188e-12)
(0 0 0)
(0 0 0)
(0 498.1498886 0)
(0 0 0)
(0 0 0)
(0 0 0)
(0 -487.5737935 -1.441714266e-12)
(0 0 0)
(0 0 0)
(-7.585060756e-06 1274.714308 -3.769221863e-12)
(-7.98062775e-06 -1341.187181 -3.9657765e-12)
(0 0 0)
(0 0 0)
(0 0 0)
(0 0 0)
(0 0 0)
(0 0 0)
(0 0 0)
(0 0 0)
(0 0 0)
(0 0 0)
(0 0 0)
(0 0 0)
(0 0 0)
(0 0 0)
(0 0 0)
(0 0 0)
(0 0 0)
(0 0 0)
(0 0 0)
(0 0 0)
(0 0 0)
(0 0 0)
(0 0 0)
(0 0 0)
(0 0 0)
(0 0 0)
(0 0 0)
(0 0 0)
(0 0 0)
(-822.8243654 754.2556669 -2.230269899e-12)
(-237.9537344 0 6.449748859e-13)
(0 0 0)
(0 0 0)
(0 0 0)
(0 0 0)
(0 0 0)
(0 0 0)
(0 0 0)
(0 0 0)
(-518.6538646 0 0)
(-294.6181783 0 0)
(-631.4112962 0 0)
(-532.2026222 0 0)
(-716.4872007 0 0)
(-573.4594632 0 0)
(-363.9198888 0 0)
(-597.8632146 0 0)
(-449.4703409 -412.0144784 0)
(0 0 0)
(0 0 0)
(0 0 0)
(0 485.2297918 0)
(0 0 0)
(0 0 0)
(0 0 0)
(0 -365.2218562 0)
(0 0 0)
(0 0 0)
(0 0 0)
(0 0 0)
(0 0 0)
(0 0 0)
(0 0 0)
(0 0 0)
(0 0 0)
(0 0 0)
(0 0 0)
(0 0 0)
(0 0 0)
(0 0 0)
(0 0 0)
(0 0 0)
(658.7483242 603.8526295 0)
(885.5403272 -811.7452984 0)
(0 0 0)
(0 0 0)
(0 0 0)
(0 0 0)
(0 0 0)
(0 0 0)
(0 0 0)
(0 0 0)
(0 0 0)
(0 0 0)
(0 0 0)
(0 0 0)
(0 0 0)
(0 0 0)
(0 0 0)
(0 0 0)
(0 0 0)
(-656.287766 601.5971178 0)
(-390.7181608 0 0)
(-574.8931212 0 0)
(0 0 0)
(0 0 0)
(0 0 0)
(0 0 0)
(-469.7925708 -430.6431915 0)
(0 0 0)
(0 0 0)
(0 0 0)
(0 0 0)
(0 0 0)
(0 0 0)
(0 0 0)
(0 0 0)
(0 0 0)
(0 0 0)
(0 0 0)
(629.5574896 577.0943644 0)
(0 0 0)
(0 0 0)
(0 0 0)
(0 0 0)
(0 -318.3038957 0)
(0 0 0)
(0 0 0)
(0 0 0)
(0 0 0)
(0 0 0)
(0 0 0)
(0 0 0)
(0 0 0)
(0 0 0)
(0 0 0)
(0 0 0)
(0 0 0)
(0 0 0)
(0 0 0)
(872.7969694 800.0638871 0)
(611.24924 0 0)
(0 0 0)
(0 0 0)
(1060.064077 -971.7254021 0)
(0 0 0)
(0 0 0)
(0 0 0)
(0 0 0)
(0 0 0)
(0 0 0)
(0 0 0)
(0 0 0)
(0 0 0)
(0 0 0)
(0 0 0)
(0 0 0)
(0 0 0)
(0 0 0)
(0 0 0)
(0 0 0)
(0 0 0)
(0 0 0)
(0 0 0)
(0 632.307131 0)
(0 0 0)
(0 0 0)
(0 0 0)
(0 0 0)
(0 0 0)
(0 0 0)
(518.4965084 475.2884678 0)
(382.8145063 0 0)
(0 0 0)
(0 0 0)
(0 0 0)
(0 0 0)
(0 0 0)
(0 -361.6274373 0)
(0 0 0)
(0 0 0)
(0 0 0)
(0 0 0)
(0 0 0)
(0 0 0)
(0 0 0)
(0 0 0)
(0 0 0)
(0 0 0)
(0 0 0)
(0 0 0)
(0 0 0)
(625.5064214 573.3808883 0)
(-610.7488483 0 0)
(-431.9931264 0 0)
(0 0 0)
(0 0 0)
(0 0 0)
(245.7777733 0 0)
(1075.666045 -986.0272116 0)
(0 0 0)
(0 0 0)
(0 0 0)
(0 0 0)
(0 0 0)
(0 0 0)
(0 0 0)
(0 0 0)
(0 0 0)
(0 0 0)
(355.3625314 325.7489883 0)
(658.5414083 0 0)
(387.8382394 -355.5183874 0)
(0 0 0)
(0 0 0)
(0 0 0)
(0 0 0)
(0 427.8939936 0)
(0 0 0)
(0 0 0)
(0 0 0)
(0 0 0)
(0 0 0)
(0 0 0)
(0 0 0)
(0 0 0)
(0 0 0)
(0 0 0)
(799.0360289 0 0)
(1269.330134 0 0)
(348.1331147 0 0)
(690.556165 0 0)
(579.0079141 0 0)
(351.0699847 0 0)
(464.768119 0 0)
(583.8632115 0 -1.582564414e-12)
(618.1948511 0 0)
(957.9497065 -878.1205627 0)
(0 0 0)
(0 0 0)
(511.8591721 469.2042403 0)
(0 -284.5766541 0)
(0 0 0)
(0 0 0)
(-792.1950425 726.1787876 0)
(-428.5766117 0 0)
(0 0 0)
(0 0 0)
(0 -698.1563403 0)
(0 0 0)
(0 0 0)
(0 0 0)
(0 0 0)
(0 0 0)
(0 0 0)
(0 0 0)
(978.295825 896.7711713 0)
(634.1432497 0 -1.718848732e-12)
(235.0515951 0 0)
(0 0 0)
(0 0 0)
(0 0 0)
(565.964159 -518.8004781 0)
(0 0 0)
(0 0 0)
(0 0 0)
(0 454.0097527 0)
(0 0 0)
(0 0 0)
(0 0 0)
(0 0 0)
(0 0 0)
(-562.1571684 0 -1.523730058e-12)
(0 0 0)
(0 -731.4577999 -2.162858544e-12)
(0 0 0)
(0 0 0)
(-1002.540454 918.9954199 -2.717391347e-12)
(0 0 0)
(0 0 0)
(0 0 0)
(0 0 0)
(0 0 0)
(0 0 0)
(0 0 0)
(248.9351474 0 -6.747400653e-13)
(285.7061712 0 -7.744081245e-13)
(0 0 0)
(-391.1012079 -358.5094419 -1.060081948e-12)
(0 0 0)
(0 0 0)
(0 0 0)
(0 0 0)
(-871.8491235 799.1950327 -2.363151784e-12)
(0 0 0)
(0 -428.5056431 -1.267054766e-12)
(0 0 0)
(0 0 0)
(0 0 0)
(0 0 0)
(0 0 0)
(0 0 0)
(0 0 0)
(0 779.176308 -2.303958117e-12)
(0 0 0)
(0 0 0)
(0 0 0)
(0 0 0)
(0 0 0)
(0 0 0)
(233.6344468 0 -6.332674335e-13)
(227.3098958 0 6.161247038e-13)
(275.310843 0 -1.492463062e-12)
(0 0 0)
(0 0 0)
(0 0 0)
(0 329.7317778 0)
(0 -461.8445467 0)
(0 0 0)
(0 0 0)
(0 0 0)
(0 490.8921232 0)
(0 0 0)
(0 0 0)
(0 0 0)
(0 0 0)
(0 0 0)
(0 0 0)
(0 0 0)
(0 0 0)
(0 -716.8768186 2.119743824e-12)
(0 0 0)
(0 0 0)
(0 0 0)
(0 0 0)
(0 0 0)
(0 0 0)
(0 634.7274696 0)
(-609.9503698 -559.1211713 0)
(0 0 0)
(0 0 0)
(0 0 0)
(0 0 0)
(0 0 0)
(0 0 0)
(0 0 0)
(0 358.9078063 0)
(0 0 0)
(0 0 0)
(0 0 0)
(0 0 0)
(0 0 0)
(0 0 0)
(0 0 0)
(0 0 0)
(0 0 0)
(0 0 0)
(0 0 0)
(0 0 0)
(284.0941464 0 0)
(397.3344679 0 0)
(422.528708 0 0)
(0 0 0)
(0 0 0)
(0 0 0)
(0 0 0)
(0 0 0)
(0 0 0)
(0 0 0)
(0 0 0)
(0 0 0)
(0 -403.9049246 0)
(0 0 0)
(0 0 0)
(0 0 0)
(0 0 0)
(0 0 0)
(0 0 0)
(0 513.1610333 0)
(0 0 0)
(0 0 0)
(1049.620662 2.115970624e-11 0)
(0 0 0)
(0 0 0)
(746.2471944 7.585151567e-12 0)
(0 0 0)
(0 0 0)
(0 409.2042972 0)
(0 0 0)
(0 0 0)
(0 0 0)
(0 0 0)
(0 0 0)
(0 0 0)
(0 0 0)
(0 0 0)
(0 0 0)
(0 0 0)
(0 0 0)
(0 0 0)
(0 0 0)
(0 0 0)
(0 0 0)
(0 0 0)
(0 0 0)
(0 0 0)
(0 0 0)
(0 0 0)
(0 0 0)
(365.0172117 0 0)
(386.0399034 0 0)
(391.5373991 -3.915374299e-06 -1.061264241e-12)
(917.6322517 -841.1628974 2.487247195e-12)
(0 0 0)
(0 0 0)
(-1380.196346 -2.805772269e-11 0)
(0 0 0)
(0 0 0)
(0 -1542.129294 0)
(0 0 0)
(0 0 0)
(0 712.0733284 0)
(341.4588674 -313.0039612 0)
(0 0 0)
(0 582.7889993 0)
(-309.2220942 0 0)
(-631.1914914 0 0)
(-643.9002801 0 0)
(-230.5920985 0 0)
(-419.3112212 0 0)
(0 0 0)
(0 0 0)
(0 0 0)
(0 0 0)
(0 0 0)
(0 0 0)
(0 0 0)
(0 0 0)
(0 0 0)
(0 0 0)
(0 0 0)
(0 0 0)
(0 0 0)
(0 0 0)
(0 0 0)
(0 0 0)
(0 0 0)
(0 0 0)
(895.9945329 -821.3283263 0)
(0 0 0)
(0 0 0)
(0 0 0)
(0 0 0)
(0 656.6767244 0)
(714.8007524 -655.2340254 0)
(0 0 0)
(0 761.5055205 0)
(0 0 0)
(370.9068307 0 0)
(0 -554.2452953 0)
(0 0 0)
(0 0 0)
(0 0 0)
(0 0 0)
(0 0 0)
(-1075.857005 986.2022525 0)
(-699.5022142 0 0)
(-503.8010213 0 0)
(-362.7750382 0 0)
(-599.9671842 0 0)
(0 0 0)
(0 0 0)
(0 0 0)
(0 0 0)
(0 0 0)
(0 0 0)
(0 0 0)
(-662.957735 0 0)
(-685.7432389 0 0)
(0 0 0)
(0 0 0)
(0 0 0)
(0 -655.0456781 -1.936914416e-12)
(0 0 0)
(0 0 0)
(0 0 0)
(0 0 0)
(0 664.7506359 0)
(0 0 0)
(505.5942687 0 0)
(0 0 0)
(0 0 0)
(0 0 0)
(0 -744.1636378 0)
(0 0 0)
(0 0 0)
(0 0 0)
(0 0 0)
(0 0 0)
(0 0 0)
(0 0 0)
(0 0 0)
(0 0 0)
(0 0 0)
(0 410.0426957 0)
(0 0 0)
(0 0 0)
(0 0 0)
(0 0 0)
(0 0 0)
(0 -775.8043911 0)
(0 0 0)
(0 0 0)
(-1060.631938 972.2459463 0)
(0 0 0)
(0 0 0)
(0 -704.2715888 2.082471228e-12)
(0 0 0)
(0 0 0)
(0 0 0)
(0 0 0)
(0 688.7692514 0)
(0 0 0)
(0 0 0)
(0 0 0)
(0 0 0)
(0 0 0)
(0 -353.2735623 0)
(0 0 0)
(0 0 0)
(0 0 0)
(0 0 0)
(0 0 0)
(0 0 0)
(0 0 0)
(0 0 0)
(0 0 0)
(0 0 0)
(0 573.7023063 0)
(0 0 0)
(0 0 0)
(0 0 0)
(0 0 0)
(0 -458.9126286 0)
(0 0 0)
(0 0 0)
(0 0 0)
(0 407.8828968 0)
(0 0 0)
(0 0 0)
(408.340852 -374.312449 0)
(0 0 0)
(0 0 0)
(0 0 0)
(0 478.6540465 0)
(0 0 0)
(0 0 0)
(0 0 0)
(0 0 0)
(0 0 0)
(0 -530.1966063 0)
(0 0 0)
(0 0 0)
(0 0 0)
(0 0 0)
(0 0 0)
(0 0 0)
(0 0 0)
(0 0 0)
(0 0 0)
(0 0 0)
(-1105.506868 1013.381294 0)
(0 0 0)
(0 0 0)
(0 0 0)
(0 0 0)
(0 0 0)
(318.0547692 0 0)
(392.2686153 0 0)
(363.1261731 0 0)
(0 0 0)
(0 0 0)
(0 0 0)
(0 0 0)
(463.3714027 -424.7571184 0)
(0 0 0)
(0 0 0)
(0 667.0304492 0)
(0 0 0)
(0 0 0)
(0 0 0)
(0 0 0)
(0 0 0)
(0 -480.9818702 0)
(0 0 0)
(0 0 0)
(0 0 0)
(0 0 0)
(0 0 0)
(0 0 0)
(0 0 0)
(0 0 0)
(0 0 0)
(0 0 0)
(0 0 0)
(0 768.9181753 0)
(0 0 0)
(0 0 0)
(0 0 0)
(0 0 0)
(0 0 0)
(0 0 0)
(0 0 0)
(0 0 0)
(0 0 0)
(0 0 0)
(0 0 0)
(0 0 0)
(941.2279802 0 0)
(1283.835043 0 0)
(0 0 0)
(0 0 0)
(0 0 0)
(0 0 0)
(-666.2290757 0 0)
(-478.5933787 0 0)
(-802.1704302 -735.322897 0)
(0 0 0)
(0 0 0)
(0 0 0)
(0 0 0)
(0 0 0)
(0 0 0)
(0 0 0)
(0 0 0)
(0 0 0)
(0 0 0)
(0 0 0)
(0 374.8508253 0)
(0 0 0)
(0 0 0)
(0 0 0)
(-457.3533626 0 0)
(-443.0092469 0 0)
(0 0 0)
(0 0 0)
(0 0 0)
(0 0 0)
(0 0 0)
(0 -281.0876558 0)
(0 0 0)
(0 0 0)
(0 260.0846427 0)
(0 0 0)
(0 0 0)
(0 -638.9413664 0)
(0 0 0)
(0 0 0)
(0 0 0)
(0 0 0)
(0 0 0)
(0 0 0)
(0 0 0)
(0 0 0)
(0 0 0)
(0 0 0)
(0 0 0)
(0 0 0)
(0 0 0)
(0 0 0)
(0 599.1743393 0)
(0 0 0)
(0 -547.6135631 0)
(0 0 0)
(0 0 0)
(0 722.1091187 0)
(0 0 0)
(0 0 0)
(0 0 0)
(0 0 0)
(0 -249.0645309 7.364626568e-13)
(0 0 0)
(0 0 0)
(0 609.4937103 1.802221117e-12)
(0 0 0)
(0 0 0)
(0 -597.0744503 1.765498421e-12)
(0 0 0)
(0 0 0)
(0 0 0)
(0 0 0)
(0 0 0)
(0 0 0)
(0 0 0)
(0 0 0)
(0 0 0)
(0 0 0)
(0 0 0)
(0 0 0)
(0 0 0)
(502.1243882 460.2806883 1.361010889e-12)
(0 0 0)
(0 0 0)
(0 0 0)
(623.8535656 -571.8657705 1.690958459e-12)
(0 0 0)
(0 265.4708026 7.84974591e-13)
(0 0 0)
(0 0 0)
(0 0 0)
(0 0 0)
(0 0 0)
(694.1173282 0 0)
(511.9415189 0 0)
(0 0 0)
(0 0 0)
(0 0 0)
(0 0 0)
(602.0392114 0 0)
(9.434094662e-06 -1585.448445 0)
(0 0 0)
(0 0 0)
(0 0 0)
(0 0 0)
(0 0 0)
(0 0 0)
(0 0 0)
(0 0 0)
(0 0 0)
(0 0 0)
(527.0970503 483.1722952 0)
(0 0 0)
(0 0 0)
(0 0 0)
(0 0 0)
(0 0 0)
(711.3213388 0 0)
(0 0 0)
(0 0 0)
(0 0 0)
(0 0 0)
(0 0 0)
(0 0 0)
(0 -279.5448976 0)
(0 0 0)
(0 258.8204997 0)
(-329.0435085 0 0)
(0 0 0)
(-552.7021348 -506.6436227 0)
(0 0 0)
(0 0 0)
(0 0 0)
(0 0 0)
(0 0 0)
(0 0 0)
(0 0 0)
(0 0 0)
(0 0 0)
(0 0 0)
(0 0 0)
(0 0 0)
(-836.2334979 766.5473717 0)
(0 0 0)
(0 0 0)
(0 0 0)
(0 0 0)
(0 0 0)
(0 0 0)
(0 0 0)
(0 0 0)
(619.1565174 0 0)
(0 -281.6645308 0)
(0 0 0)
(0 773.2340508 0)
(0 0 0)
(0 0 0)
(0 0 0)
(0 0 0)
(0 0 0)
(0 0 0)
(0 0 0)
(0 0 0)
(0 0 0)
(0 0 0)
(0 0 0)
(0 0 0)
(0 0 0)
(0 0 0)
(-986.5145125 904.3049682 0)
(0 0 0)
(0 0 0)
(0 0 0)
(0 0 0)
(0 0 0)
(0 0 0)
(0 0 0)
(0 0 0)
(-751.2829087 -688.6760022 0)
(0 0 0)
(-1203.671451 2.446918504e-11 0)
(0 0 0)
(0 0 0)
(0 0 0)
(0 0 0)
(0 0 0)
(0 0 0)
(0 0 0)
(0 0 0)
(0 0 0)
(0 0 0)
(0 0 0)
(0 0 0)
(0 0 0)
(0 0 0)
(0 0 0)
(0 450.3188276 0)
)
;

boundaryField
{
    walls
    {
        type            calculated;
        value           uniform (0 0 0);
    }
    wallFilmFace_top
    {
        type            calculated;
        value           uniform (0 0 0);
    }
    region0_to_wallFilmRegion_wallFilmFace
    {
        type            calculated;
        value           uniform (0 0 0);
    }
    mirrorFace_top
    {
        type            calculated;
        value           nonuniform List<vector> 0();
    }
    region0_to_wallFilmRegion_mirrorFace
    {
        type            calculated;
        value           nonuniform List<vector> 0();
    }
    procBoundary0to1
    {
        type            processor;
        value           uniform (0 0 0);
    }
    procBoundary0to2
    {
        type            processor;
        value           uniform (0 0 0);
    }
}


// ************************************************************************* //
