/*--------------------------------*- C++ -*----------------------------------*\
  =========                 |
  \\      /  F ield         | OpenFOAM: The Open Source CFD Toolbox
   \\    /   O peration     | Website:  https://openfoam.org
    \\  /    A nd           | Version:  8
     \\/     M anipulation  |
\*---------------------------------------------------------------------------*/
FoamFile
{
    version     2.0;
    format      ascii;
    class       volScalarField;
    location    "1.6/wallFilmRegion";
    object      mu;
}
// * * * * * * * * * * * * * * * * * * * * * * * * * * * * * * * * * * * * * //

dimensions      [1 -1 -1 0 0 0 0];

internalField   nonuniform List<scalar> 
1369
(
0.000886147367
0.0008861473647
0.0008861473648
0.000886147367
0.0008861473693
0.0008861473712
0.0008861473725
0.0008861473739
0.0008861473756
0.0008861473774
0.0008861473793
0.0008861473812
0.0008861473841
0.0008861473881
0.0008861473922
0.0008861473963
0.0008861474
0.0008861474029
0.0008861474053
0.0008861474077
0.0008861474097
0.0008861474095
0.000886147408
0.0008861474067
0.0008861474066
0.0008861474059
0.0008861474046
0.0008861474036
0.0008861474055
0.0008861474072
0.0008861474023
0.0008861474011
0.0008861473974
0.0008861473938
0.0008861473931
0.0008861473962
0.0008861473981
0.0008861473989
0.0008861473995
0.0008861473983
0.0008861473986
0.000886147398
0.0008861473974
0.0008861473969
0.0008861473966
0.0008861473964
0.0008861473961
0.0008861473944
0.0008861473956
0.0008861473958
0.0008861473945
0.0008861473938
0.0008861473937
0.000886147395
0.0008861473973
0.0008861474005
0.0008861474037
0.0008861474053
0.0008861474041
0.0008861474048
0.0008861473693
0.0008861473668
0.0008861473654
0.0008861473653
0.0008861473661
0.0008861473674
0.0008861473677
0.0008861473679
0.0008861473676
0.0008861473663
0.0008861473653
0.000886147357
0.0008861473524
0.0008861473593
0.0008861473676
0.0008861473718
0.000886147376
0.0008861473869
0.0008861473873
0.0008861473863
0.000886147391
0.0008861473941
0.0008861473977
0.0008861474014
0.0008861474044
0.0008861474037
0.0008861474031
0.0008861473997
0.000886147332
0.0008861473037
0.0008861473823
0.0008861473909
0.0008861473938
0.0008861473943
0.0008861473909
0.000886147389
0.0008861473894
0.0008861473893
0.0008861473915
0.0008861473972
0.0008861474048
0.000886147405
0.0008861474043
0.000886147403
0.0008861474009
0.0008861473981
0.000886147394
0.0008861473778
0.0008861473815
0.000886147389
0.0008861473893
0.0008861473896
0.0008861473916
0.000886147402
0.0008861474031
0.000886147403
0.0008861474043
0.0008861474041
0.0008861474034
0.0008861474038
0.00088614737
0.0008861473676
0.0008861473664
0.0008861473658
0.0008861473656
0.0008861473655
0.0008861473632
0.0008861473615
0.0008861473626
0.0008861473624
0.0008861473648
0.0008861473647
0.0008861473596
0.0008861473415
0.0008861473351
0.0008861473718
0.000886147394
0.0008861474026
0.0008861473964
0.0008861473785
0.0008861473789
0.0008861473943
0.0008861474008
0.0008861474035
0.0008861474051
0.0008861473931
0.0008861473979
0.0008861473994
0.0008861473966
0.0008861473867
0.0008861473791
0.0008861473868
0.0008861473931
0.0008861473989
0.000886147398
0.0008861473891
0.0008861473875
0.0008861473901
0.0008861473912
0.0008861473982
0.0008861474043
0.0008861474048
0.0008861474042
0.0008861474029
0.0008861474008
0.0008861473978
0.0008861473939
0.0008861473807
0.000886147383
0.0008861473866
0.0008861473874
0.00088614739
0.0008861473929
0.0008861473995
0.0008861474018
0.0008861474026
0.0008861474031
0.0008861474028
0.0008861474019
0.0008861474
0.0008861473702
0.0008861473682
0.000886147367
0.0008861473663
0.0008861473657
0.0008861473653
0.0008861473641
0.0008861473628
0.000886147362
0.0008861473614
0.0008861473626
0.0008861473603
0.0008861473504
0.0008861473005
0.0008861473663
0.0008861473934
0.0008861474065
0.0008861474097
0.0008861474017
0.0008861473881
0.0008861473926
0.0008861474005
0.0008861474042
0.0008861474065
0.0008861474077
0.0008861473891
0.0008861473866
0.0008861473997
0.0008861474057
0.0008861473962
0.0008861473818
0.0008861473905
0.0008861473947
0.0008861474019
0.0008861474077
0.0008861473957
0.0008861473899
0.0008861473925
0.0008861473939
0.0008861473899
0.0008861474024
0.0008861474035
0.0008861474028
0.0008861474007
0.0008861473976
0.0008861473938
0.0008861473894
0.0008861473853
0.0008861473844
0.0008861473881
0.0008861473905
0.0008861473935
0.0008861473969
0.0008861473995
0.0008861474011
0.0008861474018
0.000886147402
0.0008861474017
0.0008861474004
0.0008861473959
0.0008861473706
0.0008861473677
0.0008861473649
0.0008861473654
0.0008861473653
0.0008861473651
0.0008861473642
0.0008861473633
0.0008861473626
0.0008861473622
0.0008861473625
0.0008861473613
0.0008861473579
0.0008861473151
0.0008861473798
0.0008861474008
0.0008861474102
0.000886147412
0.0008861474041
0.0008861473888
0.0008861449259
0.000886146969
0.0008861472823
0.000886147383
0.000886147394
0.0008861473784
0.0008861473912
0.0008861474001
0.0008861474066
0.000886147401
0.0008861473884
0.0008861473952
0.0008861473976
0.0008861473969
0.0008861474126
0.0008861474023
0.000886147391
0.0008861473676
0.0008861473688
0.0008861473697
0.0008861473974
0.0008861474002
0.0008861473992
0.0008861473943
0.0008861473882
0.0008861473827
0.0008861473783
0.0008861473763
0.0008861473839
0.0008861473882
0.0008861473908
0.0008861473937
0.0008861473966
0.0008861473989
0.0008861474002
0.0008861474007
0.0008861474007
0.0008861474
0.0008861473978
0.0008861473915
0.0008861473713
0.0008861473669
0.0008861473622
0.0008861473624
0.000886147364
0.0008861473643
0.0008861473639
0.0008861473632
0.0008861473626
0.0008861473622
0.0008861473621
0.0008861473608
0.000886147356
0.0008861473382
0.0008861473893
0.0008861474045
0.0008861474116
0.0008861474123
0.0008861474039
0.0008861473897
0.0008861468022
0.000886147311
0.0008861473633
0.000886147379
0.0008861473902
0.0008861473864
0.0008861473952
0.0008861474022
0.0008861474058
0.0008861474033
0.0008861474007
0.0008861474012
0.000886147401
0.0008861473994
0.0008861474105
0.0008861474043
0.0008861473962
0.0008861472728
0.0008861471862
0.0008861473307
0.000886147383
0.0008861473916
0.0008861473879
0.000886147376
0.0008861473625
0.0008861473555
0.0008861473546
0.0008861473591
0.0008861473804
0.0008861473864
0.00088614739
0.0008861473925
0.0008861473952
0.0008861473974
0.0008861473988
0.0008861473991
0.0008861473984
0.0008861473963
0.0008861473892
0.0008861473879
0.0008861473723
0.0008861473654
0.0008861473606
0.0008861473587
0.000886147362
0.0008861473631
0.0008861473631
0.0008861473627
0.0008861473623
0.0008861473617
0.0008861473614
0.0008861473595
0.000886147353
0.0008861473588
0.0008861473948
0.0008861474061
0.0008861474117
0.0008861474113
0.0008861474033
0.0008861473881
0.000886147263
0.0008861473513
0.0008861473685
0.0008861473782
0.0008861473869
0.0008861473753
0.0008861473891
0.0008861473987
0.0008861474018
0.0008861474045
0.0008861474043
0.0008861474039
0.0008861474025
0.0008861474014
0.000886147411
0.0008861474057
0.0008861473974
0.0008861472255
0.0008861471789
0.0008861473396
0.0008861473989
0.0008861474
0.0008861473917
0.0008861473696
0.0008861473413
0.0008861473287
0.0008861473307
0.0008861473377
0.0008861473578
0.0008861473812
0.0008861473872
0.0008861473902
0.0008861473925
0.0008861473947
0.0008861473968
0.0008861473973
0.0008861473964
0.0008861473914
0.0008861473855
0.0008861473858
0.000886147373
0.0008861473623
0.0008861473591
0.0008861473572
0.0008861473598
0.0008861473616
0.000886147362
0.0008861473619
0.0008861473616
0.0008861473606
0.0008861473594
0.000886147354
0.0008861472563
0.0008861473786
0.0008861473981
0.0008861474065
0.000886147411
0.0008861474097
0.0008861474042
0.0008861473845
0.0008861469084
0.0008861472562
0.000886147264
0.0008861473206
0.0008861473767
0.0008861473096
0.0008861473597
0.0008861473819
0.0008861473915
0.0008861474018
0.000886147275
0.0008861472708
0.0008861473933
0.0008861474119
0.0008861474018
0.0008861474013
0.0008861473942
0.0008861471663
0.0008861472543
0.0008861473552
0.0008861474028
0.0008861473975
0.0008861473748
0.0008861473163
0.0008861472729
0.0008861472775
0.0008861472947
0.0008861473115
0.0008861473276
0.0008861473587
0.0008861473808
0.0008861473864
0.0008861473895
0.0008861473918
0.0008861473943
0.0008861473947
0.0008861473935
0.00088614739
0.0008861473832
0.0008861473845
0.000886147373
0.0008861473595
0.000886147358
0.0008861473572
0.0008861473584
0.00088614736
0.0008861473608
0.0008861473608
0.0008861473602
0.0008861473589
0.0008861473568
0.0008861473495
0.0008861473307
0.000886147386
0.0008861473999
0.0008861474066
0.0008861474102
0.0008861474089
0.0008861474061
0.000886147379
0.0008861466579
0.0008861470172
0.0008861472963
0.0008861473421
0.0008861473392
0.0008861473277
0.0008861473687
0.0008861473888
0.0008861473931
0.0008861472502
0.0008861470212
0.0008861473413
0.0008861474283
0.0008861474213
0.0008861474136
0.0008861474052
0.0008861473824
0.000886147157
0.0008861473207
0.0008861473656
0.0008861473702
0.0008861469313
0.0008861469098
0.0008861470351
0.0008861471452
0.0008861472063
0.0008861472472
0.0008861472807
0.0008861473066
0.0008861473276
0.0008861473578
0.0008861473783
0.0008861473834
0.0008861473884
0.0008861473912
0.0008861473914
0.0008861473901
0.0008861473875
0.0008861473815
0.0008861473834
0.0008861473727
0.0008861473605
0.0008861473591
0.0008861473593
0.000886147359
0.0008861473586
0.0008861473581
0.0008861473568
0.000886147355
0.0008861473561
0.0008861473518
0.0008861473476
0.0008861473641
0.0008861473912
0.0008861474013
0.000886147407
0.00088614741
0.0008861474094
0.0008861474078
0.0008861473885
0.000886147377
0.0008861473734
0.0008861473722
0.0008861473685
0.0008861473614
0.0008861473498
0.0008861473176
0.0008861473541
0.0008861473954
0.000886144938
0.0008861456559
0.0008861461357
0.0008861473622
0.000886147406
0.0008861474359
0.0008861474332
0.0008861470762
0.0008861471616
0.0008861473202
0.0008861473476
0.0008861473121
0.0008861465335
0.0008861462443
0.0008861467958
0.0008861470227
0.0008861471175
0.0008861471826
0.0008861472464
0.0008861472885
0.000886147317
0.0008861473374
0.0008861473525
0.000886147376
0.0008861473812
0.0008861473862
0.0008861473875
0.0008861473869
0.0008861473832
0.0008861473803
0.0008861473826
0.0008861473761
0.0008861473675
0.0008861473673
0.0008861473672
0.0008861473653
0.0008861473627
0.0008861473599
0.000886147357
0.0008861473539
0.0008861473533
0.000886147349
0.0008861473674
0.0008861473859
0.0008861473968
0.0008861474033
0.0008861474081
0.0008861474106
0.0008861474101
0.0008861474087
0.0008861473794
0.0008861473874
0.0008861473922
0.0008861473901
0.0008861473827
0.0008861473723
0.0008861473606
0.0008861473418
0.000886147252
0.0008861473897
0.0008861463203
0.0008861467565
0.0008861469421
0.0008861473284
0.0008861474181
0.0008861474693
0.0008861474749
0.0008861474501
0.0008861472808
0.0008861473188
0.0008861473627
0.0008861473115
0.0008861466015
0.0008861457884
0.0008861465393
0.0008861468615
0.00088614698
0.0008861470759
0.0008861472183
0.0008861472818
0.0008861473173
0.0008861473394
0.0008861473499
0.0008861473547
0.0008861473584
0.0008861473806
0.0008861473798
0.0008861473804
0.0008861473749
0.0008861473808
0.0008861473822
0.0008861473828
0.0008861473801
0.0008861473697
0.0008861473588
0.0008861473456
0.0008861473281
0.0008861473138
0.0008861473182
0.0008861473425
0.0008861473688
0.0008861473885
0.0008861474016
0.0008861474079
0.0008861474095
0.0008861474077
0.0008861474109
0.0008861474115
0.0008861474103
0.0008861474092
0.0008861473583
0.0008861473593
0.0008861473676
0.0008861473755
0.0008861473713
0.0008861473631
0.0008861473543
0.0008861473331
0.0008861472288
0.0008861473765
0.0008861467363
0.000886146984
0.0008861470985
0.0008861473766
0.0008861474467
0.0008861474866
0.0008861474885
0.000886147477
0.000886147445
0.0008861473328
0.0008861473868
0.0008861473302
0.0008861467807
0.0008861455046
0.0008861461893
0.0008861465938
0.0008861467401
0.000886146903
0.0008861472358
0.0008861472999
0.0008861473314
0.0008861473503
0.0008861473565
0.0008861473567
0.000886147354
0.0008861473486
0.0008861473391
0.00088614732
0.0008861472911
0.0008861473809
0.0008861473822
0.0008861473438
0.0008861473745
0.0008861473973
0.0008861474114
0.0008861474193
0.0008861474226
0.0008861474226
0.0008861474186
0.000886147416
0.0008861474123
0.0008861474102
0.0008861474095
0.000886147362
0.0008861473783
0.0008861467975
0.0008861435922
0.0008861457029
0.0008861465842
0.0008861470799
0.0008861469363
0.0008861453817
0.0008861473387
0.0008861470543
0.000886147276
0.0008861473932
0.0008861474398
0.0008861474863
0.0008861475
0.0008861474957
0.0008861474829
0.0008861474611
0.0008861474259
0.0008861474038
0.0008861473753
0.0008861469923
0.000886145635
0.0008861457363
0.0008861461
0.0008861463098
0.0008861467849
0.0008861473092
0.0008861473335
0.0008861473495
0.0008861473606
0.0008861473633
0.0008861473615
0.0008861473559
0.0008861473457
0.0008861473302
0.0008861473162
0.0008861473201
0.000886147381
0.0008861473826
0.0008861474268
0.0008861474269
0.0008861474257
0.0008861474245
0.0008861474185
0.0008861474126
0.0008861474099
0.00088614741
0.0008861474091
0.0008861474077
0.0008861474048
0.0008861474224
0.0008861474365
0.0008861474403
0.0008861474432
0.0008861474441
0.0008861474198
0.000886147339
0.0008861472845
0.0008861473618
0.0008861474052
0.0008861474356
0.0008861474921
0.0008861475208
0.0008861475259
0.0008861475245
0.0008861475008
0.0008861474497
0.0008861474162
0.0008861474263
0.000886147202
0.000886146315
0.000886145409
0.0008861450416
0.0008861453041
0.0008861467055
0.0008861473488
0.0008861473535
0.00088614736
0.0008861473659
0.0008861473674
0.0008861473659
0.000886147361
0.0008861473512
0.0008861473393
0.0008861473419
0.000886147353
0.0008861473806
0.0008861473831
0.0008861474236
0.000886147434
0.0008861474292
0.0008861474167
0.0008861474076
0.0008861474091
0.0008861473952
0.0008861473645
0.000886147413
0.0008861474285
0.0008861474378
0.0008861474369
0.0008861474429
0.0008861474508
0.0008861474414
0.0008861473984
0.0008861473792
0.000886147394
0.0008861474094
0.0008861474314
0.0008861474341
0.0008861472234
0.0008861474492
0.0008861475753
0.0008861475698
0.000886147539
0.0008861474635
0.0008861474556
0.0008861473669
0.0008861471523
0.0008861467745
0.0008861468171
0.0008861458638
0.0008861469226
0.0008861473601
0.0008861473608
0.0008861473642
0.0008861473682
0.0008861473697
0.0008861473691
0.0008861473666
0.0008861473615
0.0008861473577
0.0008861473643
0.0008861473711
0.0008861473804
0.0008861473836
0.0008861474043
0.000886147407
0.0008861473877
0.0008861473266
0.0008861473776
0.0008861474111
0.0008861474568
0.0008861474318
0.0008861474364
0.0008861474523
0.0008861474513
0.0008861474306
0.0008861474067
0.0008861474044
0.0008861474095
0.0008861474249
0.0008861474122
0.0008861473109
0.0008861471878
0.0008861474355
0.0008861475927
0.0008861475242
0.0008861475233
0.0008861474579
0.00088614742
0.0008861472651
0.0008861469747
0.0008861473844
0.0008861471527
0.0008861473157
0.0008861473633
0.0008861473633
0.0008861473655
0.0008861473687
0.0008861473705
0.0008861473709
0.0008861473703
0.0008861473687
0.0008861473692
0.0008861473751
0.0008861473803
0.0008861473815
0.000886147384
0.0008861473825
0.0008861473939
0.0008861474149
0.0008861474463
0.0008861474742
0.0008861474654
0.0008861474505
0.0008861474571
0.0008861474565
0.0008861474469
0.0008861474252
0.0008861474123
0.0008861474044
0.0008861474176
0.0008861474156
0.0008861473744
0.0008861473928
0.0008861473982
0.0008861474825
0.0008861474817
0.0008861474885
0.0008861473969
0.0008861474278
0.0008861473894
0.0008861471535
0.0008861474063
0.0008861473698
0.0008861473302
0.0008861473653
0.0008861473631
0.0008861473638
0.0008861473665
0.000886147369
0.0008861473705
0.0008861473716
0.0008861473722
0.0008861473751
0.0008861473808
0.000886147386
0.0008861473849
0.0008861473845
0.0008861474672
0.0008861474666
0.0008861474558
0.0008861474586
0.0008861474561
0.0008861474458
0.0008861474376
0.000886147433
0.0008861474234
0.0008861474183
0.0008861474261
0.000886147424
0.0008861474618
0.0008861474433
0.0008861473628
0.0008861474499
0.0008861469571
0.0008861459911
0.0008861474257
0.0008861474382
0.0008861473312
0.0008861474121
0.0008861474046
0.0008861473532
0.0008861473668
0.0008861473582
0.0008861473536
0.0008861473556
0.00088614736
0.0008861473641
0.0008861473682
0.0008861473718
0.0008861473774
0.0008861473841
0.0008861473901
0.0008861473894
0.0008861473855
0.0008861474574
0.0008861474609
0.0008861474598
0.0008861474551
0.0008861474477
0.0008861474489
0.0008861474564
0.0008861474548
0.0008861474433
0.0008861474475
0.0008861474671
0.0008861474775
0.0008861473263
0.0008861474109
0.0008861466893
0.0008861465868
0.0008861474184
0.0008861474586
0.0008861474612
0.0008861474137
0.0008861474157
0.0008861474051
0.0008861473817
0.000886147352
0.0008861473153
0.0008861473
0.0008861473128
0.000886147331
0.0008861473531
0.0008861473649
0.0008861473755
0.0008861473852
0.0008861473929
0.0008861473942
0.0008861473868
0.0008861474643
0.0008861474607
0.0008861474635
0.0008861474603
0.0008861474487
0.0008861474467
0.0008861474719
0.0008861474649
0.0008861474711
0.0008861474772
0.0008861475217
0.0008861473697
0.000886147389
0.0008861469318
0.0008861472256
0.0008861474119
0.0008861474439
0.000886147427
0.0008861474127
0.0008861474172
0.0008861474216
0.0008861474121
0.0008861473692
0.0008861472628
0.0008861471561
0.0008861471407
0.0008861472235
0.000886147334
0.0008861473527
0.0008861473691
0.0008861473837
0.0008861473937
0.0008861473983
0.0008861473881
0.0008861475099
0.0008861475041
0.0008861474948
0.0008861474772
0.0008861474663
0.0008861474538
0.000886147502
0.0008861474703
0.0008861475625
0.0008861475085
0.0008861475154
0.0008861474723
0.0008861473859
0.0008861473053
0.0008861473536
0.000886147408
0.0008861474267
0.0008861474641
0.0008861474382
0.0008861474427
0.0008861474094
0.0008861473655
0.0008861473045
0.0008861472192
0.0008861471205
0.000886147053
0.0008861471393
0.0008861473327
0.0008861473464
0.0008861473626
0.0008861473799
0.0008861473922
0.0008861474001
0.0008861473894
0.0008861475388
0.0008861475089
0.0008861474906
0.0008861474863
0.0008861474647
0.0008861475877
0.0008861475304
0.0008861475917
0.0008861475544
0.0008861475466
0.0008861475212
0.000886147382
0.0008861473842
0.0008861473909
0.0008861474085
0.0008861474156
0.0008861474174
0.0008861474185
0.0008861473944
0.00088614738
0.0008861473629
0.0008861473328
0.000886147281
0.0008861472075
0.0008861471287
0.0008861471372
0.0008861473306
0.0008861473435
0.0008861473597
0.0008861473755
0.0008861473888
0.0008861473995
0.0008861473909
0.000886147565
0.0008861475097
0.0008861474921
0.000886147495
0.0008861475981
0.0008861476381
0.0008861475989
0.0008861475951
0.0008861475823
0.0008861475869
0.0008861475898
0.0008861475491
0.0008861474032
0.0008861474042
0.0008861474093
0.0008861474095
0.0008861474105
0.0008861474072
0.0008861474001
0.0008861473908
0.0008861473775
0.0008861473581
0.0008861473286
0.0008861472841
0.0008861472244
0.0008861471799
0.0008861473139
0.0008861473458
0.0008861473604
0.0008861473734
0.0008861473849
0.0008861473971
0.0008861473923
0.0008861474779
0.0008861474698
0.00088614748
0.000886147505
0.0008861476193
0.0008861477349
0.0008861475423
0.0008861475448
0.00088614749
0.000886147528
0.0008861474591
0.0008861474507
0.0008861474076
0.0008861474082
0.0008861474098
0.0008861474097
0.0008861474125
0.0008861474109
0.000886147408
0.0008861474013
0.0008861473882
0.0008861473715
0.0008861473532
0.0008861473285
0.0008861472922
0.0008861472505
0.000886147303
0.0008861473422
0.0008861473654
0.0008861473752
0.0008861473823
0.000886147394
0.0008861473902
0.0008861474653
0.000886147486
0.0008861475119
0.0008861475642
0.0008861477238
0.0008861476032
0.000886147501
0.0008861474786
0.0008861474798
0.0008861474713
0.0008861474653
0.0008861240258
0.0008861056168
0.0008861474086
0.0008861474226
0.0008861474152
0.0008861474116
0.0008861473975
0.0008861473835
0.0008861473774
0.0008861473723
0.0008861473644
0.0008861473523
0.0008861473353
0.0008861473141
0.0008861473238
0.0008861473498
0.0008861473699
0.000886147378
0.0008861473814
0.0008861473893
0.0008861473861
0.0008861475013
0.0008861475188
0.0008861476538
0.0008861477692
0.000886147714
0.0008861475108
0.0008861475203
0.0008861475027
0.0008861474909
0.0008861474736
0.0008861379858
0.0008861134619
0.0008861474081
0.000886147423
0.0008861474111
0.000886147409
0.0008861474023
0.0008861473841
0.0008861473703
0.0008861473699
0.0008861473692
0.0008861473651
0.0008861473579
0.0008861473478
0.0008861473479
0.0008861473606
0.0008861473751
0.0008861473828
0.0008861473856
0.0008861473903
0.0008861473831
0.0008861475252
0.0008861475293
0.0008861475447
0.0008861475217
0.0008861475299
0.0008861475198
0.0008861475371
0.0008861475235
0.000886147502
0.0008861474745
0.0008861474115
0.0008861474056
0.0008861474102
0.0008861474123
0.0008861474111
0.0008861474105
0.0008861474089
0.0008861474037
0.0008861473886
0.0008861473711
0.0008861473705
0.0008861473716
0.0008861473703
0.0008861473666
0.0008861473656
0.0008861473704
0.0008861473787
0.0008861473856
0.0008861473891
0.0008861473893
0.0008861473764
0.0008861475274
0.0008861475321
0.0008861475406
0.0008861475634
0.0008861475402
0.000886147544
0.0008861475417
0.0008861475586
0.0008861474939
0.0008861474707
0.000886147437
0.0008861474228
0.0008861474105
0.0008861474271
0.0008861474115
0.0008861474117
0.0008861474061
0.000886147377
0.0008861473647
0.000886147367
0.0008861473712
0.0008861473746
0.0008861473764
0.0008861473765
0.0008861473764
0.0008861473781
0.0008861473816
0.0008861473861
0.0008861473874
0.0008861473854
0.0008861473772
0.0008861475532
0.0008861475843
0.0008861475541
0.0008861474715
0.0008861474472
0.0008861474592
0.0008861474454
0.0008861474128
0.0008861475171
0.0008861474194
0.0008861474321
0.0008861474329
0.0008861473889
0.0008861473625
0.000886147364
0.0008861473685
0.000886147373
0.0008861473762
0.0008861473773
0.0008861473769
0.0008861473784
0.0008861473814
0.0008861473844
0.0008861473866
0.0008861473836
0.0008861473766
0.0008861475505
0.0008861475433
0.0008861475008
0.0008861474703
0.0008861474534
0.0008861474946
0.0008861474565
0.0008861474145
0.0008861475838
0.0008861475504
0.0008861472415
0.0008861350019
0.0008861302318
0.0008861460935
0.0008861461727
0.0008861466711
0.0008861469532
0.0008861471615
0.000886147254
0.0008861473133
0.0008861473504
0.0008861473701
0.0008861473793
0.0008861473841
0.0008861473867
0.0008861473768
)
;

boundaryField
{
    walls
    {
        type            zeroGradient;
    }
    wallFilmFace_top
    {
        type            zeroGradient;
    }
    region0_to_wallFilmRegion_wallFilmFace
    {
        type            zeroGradient;
    }
    mirrorFace_top
    {
        type            zeroGradient;
    }
    region0_to_wallFilmRegion_mirrorFace
    {
        type            zeroGradient;
    }
    procBoundary0to1
    {
        type            processor;
        value           nonuniform List<scalar> 
52
(
0.0008861473835
0.0008861473736
0.0008861473577
0.000886147344
0.0008861473297
0.0008861473171
0.0008861473194
0.0008861473194
0.0008861473672
0.000886147395
0.0008861474122
0.000886147422
0.000886147422
0.0008861474275
0.0008861474253
0.0008861474253
0.0008861474172
0.0008861474306
0.0008861474235
0.0008861474078
0.0008861474078
0.000886147394
0.0008861474005
0.0008861474005
0.0008861473767
0.0008861473966
0.0008861474331
0.0008861474554
0.0008861474554
0.0008861474722
0.0008861474602
0.0008861474602
0.0008861474588
0.0008861474588
0.0008861474659
0.0008861475716
0.0008861475716
0.0008861475804
0.0008861475311
0.000886147454
0.000886147454
0.0008861475055
0.0008861475055
0.0008861475561
0.0008861475526
0.0008861475359
0.0008861476067
0.000886147583
0.0008861475802
0.0008861475495
0.0008861475495
0.0008861475572
)
;
    }
    procBoundary0to2
    {
        type            processor;
        value           nonuniform List<scalar> 
26
(
0.0008861475092
0.0008861475222
0.0008861475055
0.000886147479
0.0008861474673
0.0008861475169
0.0008861474651
0.0008861474617
0.0008861474579
0.0008861475799
0.0008861475539
0.0008861475065
0.000886147442
0.0008861473423
0.0008861471468
0.0008861469154
0.0008861471195
0.0008861472607
0.0008861473068
0.00088614734
0.0008861473635
0.0008861473773
0.0008861473841
0.0008861473876
0.0008861473909
0.000886147378
)
;
    }
}


// ************************************************************************* //
