/*--------------------------------*- C++ -*----------------------------------*\
  =========                 |
  \\      /  F ield         | OpenFOAM: The Open Source CFD Toolbox
   \\    /   O peration     | Website:  https://openfoam.org
    \\  /    A nd           | Version:  8
     \\/     M anipulation  |
\*---------------------------------------------------------------------------*/
FoamFile
{
    version     2.0;
    format      ascii;
    class       volScalarField;
    location    "1.6/wallFilmRegion";
    object      sigma;
}
// * * * * * * * * * * * * * * * * * * * * * * * * * * * * * * * * * * * * * //

dimensions      [1 0 -2 0 0 0 0];

internalField   nonuniform List<scalar> 
1369
(
0.07244713437
0.07244713435
0.07244713435
0.07244713437
0.0724471344
0.07244713442
0.07244713443
0.07244713445
0.07244713446
0.07244713448
0.0724471345
0.07244713452
0.07244713455
0.07244713459
0.07244713464
0.07244713468
0.07244713472
0.07244713475
0.07244713477
0.0724471348
0.07244713482
0.07244713481
0.0724471348
0.07244713479
0.07244713478
0.07244713478
0.07244713476
0.07244713475
0.07244713477
0.07244713479
0.07244713474
0.07244713473
0.07244713469
0.07244713465
0.07244713464
0.07244713468
0.0724471347
0.0724471347
0.07244713471
0.0724471347
0.0724471347
0.0724471347
0.07244713469
0.07244713468
0.07244713468
0.07244713468
0.07244713468
0.07244713466
0.07244713467
0.07244713467
0.07244713466
0.07244713465
0.07244713465
0.07244713466
0.07244713469
0.07244713472
0.07244713475
0.07244713477
0.07244713476
0.07244713477
0.0724471344
0.07244713437
0.07244713436
0.07244713436
0.07244713436
0.07244713438
0.07244713438
0.07244713438
0.07244713438
0.07244713437
0.07244713436
0.07244713427
0.07244713422
0.07244713429
0.07244713438
0.07244713442
0.07244713447
0.07244713458
0.07244713458
0.07244713457
0.07244713462
0.07244713466
0.07244713469
0.07244713473
0.07244713476
0.07244713475
0.07244713475
0.07244713471
0.07244713401
0.07244713372
0.07244713453
0.07244713462
0.07244713465
0.07244713466
0.07244713462
0.0724471346
0.07244713461
0.07244713461
0.07244713463
0.07244713469
0.07244713477
0.07244713477
0.07244713476
0.07244713475
0.07244713473
0.0724471347
0.07244713465
0.07244713449
0.07244713452
0.0724471346
0.0724471346
0.07244713461
0.07244713463
0.07244713474
0.07244713475
0.07244713475
0.07244713476
0.07244713476
0.07244713475
0.07244713476
0.07244713441
0.07244713438
0.07244713437
0.07244713436
0.07244713436
0.07244713436
0.07244713433
0.07244713432
0.07244713433
0.07244713433
0.07244713435
0.07244713435
0.0724471343
0.07244713411
0.07244713404
0.07244713442
0.07244713465
0.07244713474
0.07244713468
0.07244713449
0.0724471345
0.07244713466
0.07244713472
0.07244713475
0.07244713477
0.07244713464
0.07244713469
0.07244713471
0.07244713468
0.07244713458
0.0724471345
0.07244713458
0.07244713464
0.07244713471
0.0724471347
0.0724471346
0.07244713459
0.07244713461
0.07244713462
0.0724471347
0.07244713476
0.07244713477
0.07244713476
0.07244713475
0.07244713472
0.07244713469
0.07244713465
0.07244713452
0.07244713454
0.07244713458
0.07244713459
0.07244713461
0.07244713464
0.07244713471
0.07244713473
0.07244713474
0.07244713475
0.07244713475
0.07244713474
0.07244713472
0.07244713441
0.07244713439
0.07244713437
0.07244713437
0.07244713436
0.07244713436
0.07244713434
0.07244713433
0.07244713432
0.07244713432
0.07244713433
0.0724471343
0.0724471342
0.07244713368
0.07244713437
0.07244713465
0.07244713478
0.07244713482
0.07244713473
0.07244713459
0.07244713464
0.07244713472
0.07244713476
0.07244713478
0.0724471348
0.0724471346
0.07244713458
0.07244713471
0.07244713478
0.07244713468
0.07244713453
0.07244713462
0.07244713466
0.07244713474
0.0724471348
0.07244713467
0.07244713461
0.07244713464
0.07244713465
0.07244713461
0.07244713474
0.07244713475
0.07244713475
0.07244713472
0.07244713469
0.07244713465
0.07244713461
0.07244713456
0.07244713455
0.07244713459
0.07244713462
0.07244713465
0.07244713468
0.07244713471
0.07244713473
0.07244713473
0.07244713474
0.07244713473
0.07244713472
0.07244713467
0.07244713441
0.07244713438
0.07244713435
0.07244713436
0.07244713436
0.07244713435
0.07244713434
0.07244713433
0.07244713433
0.07244713432
0.07244713433
0.07244713431
0.07244713428
0.07244713384
0.07244713451
0.07244713472
0.07244713482
0.07244713484
0.07244713476
0.0724471346
0.07244710903
0.07244713024
0.07244713349
0.07244713454
0.07244713465
0.07244713449
0.07244713463
0.07244713472
0.07244713478
0.07244713473
0.0724471346
0.07244713467
0.07244713469
0.07244713468
0.07244713485
0.07244713474
0.07244713462
0.07244713438
0.07244713439
0.0724471344
0.07244713469
0.07244713472
0.07244713471
0.07244713466
0.07244713459
0.07244713454
0.07244713449
0.07244713447
0.07244713455
0.07244713459
0.07244713462
0.07244713465
0.07244713468
0.0724471347
0.07244713472
0.07244713472
0.07244713472
0.07244713472
0.07244713469
0.07244713463
0.07244713442
0.07244713437
0.07244713432
0.07244713433
0.07244713434
0.07244713435
0.07244713434
0.07244713433
0.07244713433
0.07244713432
0.07244713432
0.07244713431
0.07244713426
0.07244713407
0.0724471346
0.07244713476
0.07244713484
0.07244713484
0.07244713476
0.07244713461
0.07244712851
0.07244713379
0.07244713434
0.0724471345
0.07244713461
0.07244713458
0.07244713467
0.07244713474
0.07244713478
0.07244713475
0.07244713472
0.07244713473
0.07244713473
0.07244713471
0.07244713482
0.07244713476
0.07244713468
0.07244713339
0.0724471325
0.072447134
0.07244713454
0.07244713463
0.07244713459
0.07244713447
0.07244713433
0.07244713425
0.07244713424
0.07244713429
0.07244713451
0.07244713458
0.07244713461
0.07244713464
0.07244713467
0.07244713469
0.0724471347
0.07244713471
0.0724471347
0.07244713468
0.0724471346
0.07244713459
0.07244713443
0.07244713436
0.07244713431
0.07244713429
0.07244713432
0.07244713433
0.07244713433
0.07244713433
0.07244713432
0.07244713432
0.07244713432
0.0724471343
0.07244713423
0.07244713429
0.07244713466
0.07244713478
0.07244713484
0.07244713483
0.07244713475
0.07244713459
0.07244713329
0.07244713421
0.07244713439
0.07244713449
0.07244713458
0.07244713446
0.0724471346
0.0724471347
0.07244713474
0.07244713476
0.07244713476
0.07244713476
0.07244713474
0.07244713473
0.07244713483
0.07244713478
0.07244713469
0.0724471329
0.07244713242
0.07244713409
0.0724471347
0.07244713472
0.07244713463
0.0724471344
0.07244713411
0.07244713398
0.072447134
0.07244713407
0.07244713428
0.07244713452
0.07244713458
0.07244713461
0.07244713464
0.07244713466
0.07244713468
0.07244713469
0.07244713468
0.07244713463
0.07244713457
0.07244713457
0.07244713444
0.07244713432
0.07244713429
0.07244713427
0.0724471343
0.07244713432
0.07244713432
0.07244713432
0.07244713432
0.07244713431
0.07244713429
0.07244713424
0.07244713322
0.07244713449
0.0724471347
0.07244713478
0.07244713483
0.07244713482
0.07244713476
0.07244713455
0.07244712961
0.07244713322
0.0724471333
0.07244713389
0.07244713447
0.07244713378
0.0724471343
0.07244713453
0.07244713463
0.07244713473
0.07244713342
0.07244713337
0.07244713465
0.07244713484
0.07244713473
0.07244713473
0.07244713466
0.07244713229
0.0724471332
0.07244713425
0.07244713474
0.07244713469
0.07244713445
0.07244713385
0.0724471334
0.07244713344
0.07244713362
0.0724471338
0.07244713396
0.07244713429
0.07244713452
0.07244713458
0.07244713461
0.07244713463
0.07244713466
0.07244713466
0.07244713465
0.07244713461
0.07244713454
0.07244713455
0.07244713444
0.0724471343
0.07244713428
0.07244713427
0.07244713428
0.0724471343
0.07244713431
0.07244713431
0.0724471343
0.07244713429
0.07244713427
0.07244713419
0.072447134
0.07244713457
0.07244713471
0.07244713478
0.07244713482
0.07244713481
0.07244713478
0.0724471345
0.07244712701
0.07244713074
0.07244713364
0.07244713411
0.07244713408
0.07244713397
0.07244713439
0.0724471346
0.07244713464
0.07244713316
0.07244713078
0.07244713411
0.07244713501
0.07244713494
0.07244713486
0.07244713477
0.07244713453
0.07244713219
0.07244713389
0.07244713436
0.07244713441
0.07244712985
0.07244712963
0.07244713093
0.07244713207
0.0724471327
0.07244713313
0.07244713348
0.07244713375
0.07244713396
0.07244713428
0.07244713449
0.07244713454
0.0724471346
0.07244713463
0.07244713463
0.07244713461
0.07244713459
0.07244713452
0.07244713454
0.07244713443
0.07244713431
0.07244713429
0.07244713429
0.07244713429
0.07244713429
0.07244713428
0.07244713427
0.07244713425
0.07244713426
0.07244713422
0.07244713417
0.07244713434
0.07244713463
0.07244713473
0.07244713479
0.07244713482
0.07244713481
0.0724471348
0.0724471346
0.07244713448
0.07244713444
0.07244713443
0.07244713439
0.07244713432
0.07244713419
0.07244713386
0.07244713424
0.07244713467
0.07244710915
0.07244711661
0.07244712159
0.07244713432
0.07244713478
0.07244713509
0.07244713506
0.07244713135
0.07244713224
0.07244713389
0.07244713417
0.0724471338
0.07244712572
0.07244712272
0.07244712844
0.0724471308
0.07244713178
0.07244713246
0.07244713312
0.07244713356
0.07244713385
0.07244713407
0.07244713422
0.07244713447
0.07244713452
0.07244713457
0.07244713459
0.07244713458
0.07244713454
0.07244713451
0.07244713454
0.07244713447
0.07244713438
0.07244713438
0.07244713438
0.07244713436
0.07244713433
0.0724471343
0.07244713427
0.07244713424
0.07244713423
0.07244713419
0.07244713438
0.07244713457
0.07244713468
0.07244713475
0.0724471348
0.07244713483
0.07244713482
0.07244713481
0.0724471345
0.07244713459
0.07244713464
0.07244713461
0.07244713454
0.07244713443
0.07244713431
0.07244713411
0.07244713318
0.07244713461
0.07244712351
0.07244712803
0.07244712996
0.07244713397
0.0724471349
0.07244713544
0.07244713549
0.07244713524
0.07244713348
0.07244713387
0.07244713433
0.0724471338
0.07244712642
0.07244711798
0.07244712578
0.07244712912
0.07244713035
0.07244713135
0.07244713283
0.07244713349
0.07244713386
0.07244713409
0.0724471342
0.07244713425
0.07244713428
0.07244713452
0.07244713451
0.07244713451
0.07244713446
0.07244713452
0.07244713453
0.07244713454
0.07244713451
0.0724471344
0.07244713429
0.07244713415
0.07244713397
0.07244713382
0.07244713387
0.07244713412
0.07244713439
0.0724471346
0.07244713473
0.0724471348
0.07244713482
0.0724471348
0.07244713483
0.07244713484
0.07244713482
0.07244713481
0.07244713428
0.07244713429
0.07244713438
0.07244713446
0.07244713442
0.07244713433
0.07244713424
0.07244713402
0.07244713294
0.07244713447
0.07244712782
0.0724471304
0.07244713159
0.07244713447
0.0724471352
0.07244713562
0.07244713563
0.07244713552
0.07244713518
0.07244713402
0.07244713458
0.07244713399
0.07244712829
0.07244711503
0.07244712214
0.07244712635
0.07244712786
0.07244712956
0.07244713301
0.07244713368
0.072447134
0.0724471342
0.07244713426
0.07244713427
0.07244713424
0.07244713418
0.07244713408
0.07244713389
0.07244713359
0.07244713452
0.07244713453
0.07244713413
0.07244713445
0.07244713469
0.07244713483
0.07244713492
0.07244713495
0.07244713495
0.07244713491
0.07244713488
0.07244713484
0.07244713482
0.07244713481
0.07244713432
0.07244713449
0.07244712846
0.07244709518
0.07244711709
0.07244712624
0.07244713139
0.0724471299
0.07244711376
0.07244713408
0.07244713113
0.07244713343
0.07244713465
0.07244713513
0.07244713561
0.07244713575
0.07244713571
0.07244713558
0.07244713535
0.07244713498
0.07244713476
0.07244713446
0.07244713048
0.07244711639
0.07244711744
0.07244712122
0.0724471234
0.07244712833
0.07244713377
0.07244713403
0.07244713419
0.07244713431
0.07244713433
0.07244713432
0.07244713426
0.07244713415
0.07244713399
0.07244713385
0.07244713389
0.07244713452
0.07244713454
0.07244713499
0.072447135
0.07244713498
0.07244713497
0.07244713491
0.07244713485
0.07244713482
0.07244713482
0.07244713481
0.0724471348
0.07244713477
0.07244713495
0.0724471351
0.07244713513
0.07244713517
0.07244713517
0.07244713492
0.07244713408
0.07244713352
0.07244713432
0.07244713477
0.07244713509
0.07244713567
0.07244713597
0.07244713602
0.07244713601
0.07244713576
0.07244713523
0.07244713488
0.07244713499
0.07244713266
0.07244712345
0.07244711404
0.07244711023
0.07244711295
0.0724471275
0.07244713418
0.07244713423
0.0724471343
0.07244713436
0.07244713438
0.07244713436
0.07244713431
0.07244713421
0.07244713409
0.07244713411
0.07244713423
0.07244713451
0.07244713454
0.07244713496
0.07244713507
0.07244713502
0.07244713489
0.0724471348
0.07244713481
0.07244713467
0.07244713435
0.07244713485
0.07244713501
0.07244713511
0.0724471351
0.07244713516
0.07244713524
0.07244713515
0.0724471347
0.0724471345
0.07244713465
0.07244713481
0.07244713504
0.07244713507
0.07244713288
0.07244713523
0.07244713654
0.07244713648
0.07244713616
0.07244713538
0.07244713529
0.07244713437
0.07244713214
0.07244712822
0.07244712866
0.07244711877
0.07244712976
0.0724471343
0.07244713431
0.07244713434
0.07244713439
0.0724471344
0.0724471344
0.07244713437
0.07244713432
0.07244713428
0.07244713435
0.07244713442
0.07244713451
0.07244713455
0.07244713476
0.07244713479
0.07244713459
0.07244713395
0.07244713448
0.07244713483
0.07244713531
0.07244713505
0.07244713509
0.07244713526
0.07244713525
0.07244713503
0.07244713479
0.07244713476
0.07244713482
0.07244713498
0.07244713484
0.07244713379
0.07244713251
0.07244713508
0.07244713672
0.07244713601
0.072447136
0.07244713532
0.07244713492
0.07244713332
0.0724471303
0.07244713455
0.07244713215
0.07244713384
0.07244713433
0.07244713434
0.07244713436
0.07244713439
0.07244713441
0.07244713441
0.07244713441
0.07244713439
0.0724471344
0.07244713446
0.07244713451
0.07244713452
0.07244713455
0.07244713453
0.07244713465
0.07244713487
0.0724471352
0.07244713549
0.0724471354
0.07244713524
0.07244713531
0.0724471353
0.0724471352
0.07244713498
0.07244713484
0.07244713476
0.0724471349
0.07244713488
0.07244713445
0.07244713464
0.0724471347
0.07244713557
0.07244713556
0.07244713564
0.07244713468
0.072447135
0.07244713461
0.07244713216
0.07244713478
0.0724471344
0.07244713399
0.07244713436
0.07244713433
0.07244713434
0.07244713437
0.07244713439
0.07244713441
0.07244713442
0.07244713443
0.07244713446
0.07244713452
0.07244713457
0.07244713456
0.07244713456
0.07244713541
0.07244713541
0.0724471353
0.07244713532
0.0724471353
0.07244713519
0.07244713511
0.07244713506
0.07244713496
0.07244713491
0.07244713499
0.07244713497
0.07244713536
0.07244713517
0.07244713433
0.07244713523
0.07244713012
0.07244712009
0.07244713498
0.07244713511
0.072447134
0.07244713484
0.07244713476
0.07244713423
0.07244713437
0.07244713428
0.07244713423
0.07244713426
0.0724471343
0.07244713434
0.07244713439
0.07244713442
0.07244713448
0.07244713455
0.07244713461
0.07244713461
0.07244713457
0.07244713531
0.07244713535
0.07244713534
0.07244713529
0.07244713521
0.07244713522
0.0724471353
0.07244713529
0.07244713517
0.07244713521
0.07244713541
0.07244713552
0.07244713395
0.07244713483
0.07244712734
0.07244712627
0.07244713491
0.07244713532
0.07244713535
0.07244713486
0.07244713488
0.07244713477
0.07244713453
0.07244713422
0.07244713384
0.07244713368
0.07244713381
0.072447134
0.07244713423
0.07244713435
0.07244713446
0.07244713456
0.07244713464
0.07244713466
0.07244713458
0.07244713538
0.07244713535
0.07244713538
0.07244713534
0.07244713522
0.0724471352
0.07244713546
0.07244713539
0.07244713545
0.07244713552
0.07244713598
0.0724471344
0.0724471346
0.07244712985
0.07244713291
0.07244713484
0.07244713517
0.072447135
0.07244713485
0.07244713489
0.07244713494
0.07244713484
0.0724471344
0.07244713329
0.07244713218
0.07244713202
0.07244713288
0.07244713403
0.07244713422
0.0724471344
0.07244713455
0.07244713465
0.0724471347
0.07244713459
0.07244713586
0.0724471358
0.0724471357
0.07244713552
0.0724471354
0.07244713528
0.07244713578
0.07244713545
0.0724471364
0.07244713584
0.07244713591
0.07244713547
0.07244713457
0.07244713373
0.07244713423
0.0724471348
0.07244713499
0.07244713538
0.07244713511
0.07244713516
0.07244713481
0.07244713436
0.07244713372
0.07244713284
0.07244713181
0.07244713111
0.07244713201
0.07244713402
0.07244713416
0.07244713433
0.07244713451
0.07244713464
0.07244713472
0.07244713461
0.07244713616
0.07244713585
0.07244713566
0.07244713561
0.07244713539
0.07244713667
0.07244713607
0.07244713671
0.07244713632
0.07244713624
0.07244713597
0.07244713453
0.07244713455
0.07244713462
0.0724471348
0.07244713488
0.0724471349
0.07244713491
0.07244713466
0.07244713451
0.07244713433
0.07244713402
0.07244713348
0.07244713272
0.0724471319
0.07244713199
0.072447134
0.07244713413
0.0724471343
0.07244713446
0.0724471346
0.07244713471
0.07244713462
0.07244713643
0.07244713586
0.07244713567
0.0724471357
0.07244713677
0.07244713719
0.07244713678
0.07244713674
0.07244713661
0.07244713666
0.07244713669
0.07244713626
0.07244713475
0.07244713476
0.07244713481
0.07244713481
0.07244713483
0.07244713479
0.07244713472
0.07244713462
0.07244713448
0.07244713428
0.07244713397
0.07244713351
0.07244713289
0.07244713243
0.07244713382
0.07244713415
0.07244713431
0.07244713444
0.07244713456
0.07244713469
0.07244713464
0.07244713553
0.07244713544
0.07244713555
0.07244713581
0.07244713699
0.07244713819
0.07244713619
0.07244713622
0.07244713565
0.07244713605
0.07244713533
0.07244713524
0.07244713479
0.0724471348
0.07244713482
0.07244713482
0.07244713485
0.07244713483
0.0724471348
0.07244713473
0.07244713459
0.07244713442
0.07244713423
0.07244713397
0.0724471336
0.07244713316
0.07244713371
0.07244713412
0.07244713436
0.07244713446
0.07244713453
0.07244713465
0.07244713461
0.07244713539
0.07244713561
0.07244713588
0.07244713642
0.07244713808
0.07244713683
0.07244713577
0.07244713553
0.07244713554
0.07244713546
0.07244713539
0.07244689201
0.07244670084
0.07244713481
0.07244713495
0.07244713487
0.07244713484
0.07244713469
0.07244713454
0.07244713448
0.07244713443
0.07244713435
0.07244713422
0.07244713404
0.07244713382
0.07244713393
0.0724471342
0.0724471344
0.07244713449
0.07244713452
0.0724471346
0.07244713457
0.07244713577
0.07244713595
0.07244713735
0.07244713855
0.07244713798
0.07244713587
0.07244713597
0.07244713578
0.07244713566
0.07244713548
0.07244703696
0.07244678231
0.0724471348
0.07244713496
0.07244713483
0.07244713481
0.07244713474
0.07244713455
0.07244713441
0.0724471344
0.0724471344
0.07244713435
0.07244713428
0.07244713417
0.07244713417
0.07244713431
0.07244713446
0.07244713454
0.07244713457
0.07244713461
0.07244713454
0.07244713602
0.07244713606
0.07244713622
0.07244713598
0.07244713607
0.07244713596
0.07244713614
0.072447136
0.07244713578
0.07244713549
0.07244713484
0.07244713477
0.07244713482
0.07244713484
0.07244713483
0.07244713483
0.07244713481
0.07244713475
0.0724471346
0.07244713442
0.07244713441
0.07244713442
0.07244713441
0.07244713437
0.07244713436
0.07244713441
0.0724471345
0.07244713457
0.0724471346
0.0724471346
0.07244713447
0.07244713604
0.07244713609
0.07244713618
0.07244713641
0.07244713617
0.07244713621
0.07244713619
0.07244713636
0.07244713569
0.07244713545
0.0724471351
0.07244713495
0.07244713482
0.072447135
0.07244713484
0.07244713484
0.07244713478
0.07244713448
0.07244713435
0.07244713437
0.07244713442
0.07244713445
0.07244713447
0.07244713447
0.07244713447
0.07244713449
0.07244713453
0.07244713457
0.07244713459
0.07244713456
0.07244713448
0.07244713631
0.07244713663
0.07244713632
0.07244713546
0.07244713521
0.07244713533
0.07244713519
0.07244713485
0.07244713593
0.07244713492
0.07244713505
0.07244713506
0.0724471346
0.07244713433
0.07244713434
0.07244713439
0.07244713444
0.07244713447
0.07244713448
0.07244713448
0.07244713449
0.07244713452
0.07244713455
0.07244713458
0.07244713455
0.07244713447
0.07244713628
0.0724471362
0.07244713576
0.07244713545
0.07244713527
0.0724471357
0.0724471353
0.07244713487
0.07244713662
0.07244713628
0.07244713307
0.07244700598
0.07244695645
0.07244712115
0.07244712197
0.07244712715
0.07244713008
0.07244713224
0.0724471332
0.07244713382
0.0724471342
0.07244713441
0.0724471345
0.07244713455
0.07244713458
0.07244713448
)
;

boundaryField
{
    walls
    {
        type            zeroGradient;
    }
    wallFilmFace_top
    {
        type            zeroGradient;
    }
    region0_to_wallFilmRegion_wallFilmFace
    {
        type            zeroGradient;
    }
    mirrorFace_top
    {
        type            zeroGradient;
    }
    region0_to_wallFilmRegion_mirrorFace
    {
        type            zeroGradient;
    }
    procBoundary0to1
    {
        type            processor;
        value           nonuniform List<scalar> 
52
(
0.07244713454
0.07244713444
0.07244713428
0.07244713413
0.07244713399
0.07244713385
0.07244713388
0.07244713388
0.07244713438
0.07244713466
0.07244713484
0.07244713494
0.07244713494
0.072447135
0.07244713498
0.07244713498
0.07244713489
0.07244713503
0.07244713496
0.0724471348
0.0724471348
0.07244713465
0.07244713472
0.07244713472
0.07244713447
0.07244713468
0.07244713506
0.07244713529
0.07244713529
0.07244713547
0.07244713534
0.07244713534
0.07244713533
0.07244713533
0.0724471354
0.0724471365
0.0724471365
0.07244713659
0.07244713608
0.07244713528
0.07244713528
0.07244713581
0.07244713581
0.07244713634
0.0724471363
0.07244713613
0.07244713686
0.07244713662
0.07244713659
0.07244713627
0.07244713627
0.07244713635
)
;
    }
    procBoundary0to2
    {
        type            processor;
        value           nonuniform List<scalar> 
26
(
0.07244713585
0.07244713599
0.07244713581
0.07244713554
0.07244713542
0.07244713593
0.07244713539
0.07244713536
0.07244713532
0.07244713658
0.07244713631
0.07244713582
0.07244713515
0.07244713412
0.07244713209
0.07244712968
0.0724471318
0.07244713327
0.07244713375
0.07244713409
0.07244713434
0.07244713448
0.07244713455
0.07244713459
0.07244713462
0.07244713449
)
;
    }
}


// ************************************************************************* //
