/*--------------------------------*- C++ -*----------------------------------*\
  =========                 |
  \\      /  F ield         | OpenFOAM: The Open Source CFD Toolbox
   \\    /   O peration     | Website:  https://openfoam.org
    \\  /    A nd           | Version:  8
     \\/     M anipulation  |
\*---------------------------------------------------------------------------*/
FoamFile
{
    version     2.0;
    format      ascii;
    class       volVectorField;
    location    "1.6/wallFilmRegion";
    object      U;
}
// * * * * * * * * * * * * * * * * * * * * * * * * * * * * * * * * * * * * * //

dimensions      [0 1 -1 0 0 0 0];

internalField   nonuniform List<vector> 
1369
(
(0.04125111255 0.0415167806 0)
(0.09388591399 -0.07285358416 0)
(0.04137443802 -0.1439227323 0)
(0.0158799785 -0.198044071 0)
(-0.005837907207 -0.237879708 0)
(-0.001099542546 -0.253729835 0)
(-0.03293418076 -0.2437519065 0)
(-0.09909621701 -0.2242999394 0)
(-0.1938100057 -0.2140899319 0)
(-0.324189256 -0.2123082466 0)
(-0.4678690044 -0.2272247515 0)
(-0.5608782635 -0.3010545218 0)
(-0.5409336834 -0.3878114383 0)
(-0.5074669966 -0.4273816235 0)
(-0.4736722503 -0.4338877341 0)
(-0.4319335856 -0.4316101248 0)
(-0.384339088 -0.4229543551 0)
(-0.3346390157 -0.4075870065 0)
(-0.2872574078 -0.3906462813 0)
(-0.2289592579 -0.3943838026 0)
(-0.2065702505 -0.4683096755 0)
(-0.2971528548 -0.6138253926 0)
(-0.5404565947 -0.7229793781 0)
(-0.9480756991 -0.658682127 0)
(-1.369049462 -0.3579850801 0)
(-0.3236376049 0.3315820276 0)
(-0.3729155287 0.4973917398 0)
(-0.7972411029 0.1377515921 0)
(-1.649273661 -0.2772083892 0)
(-1.930547787 -0.01460916947 0)
(-1.355155923 0.3056942001 0)
(-1.084987087 0.5556078217 0)
(-1.02641504 0.5586547232 0)
(-0.9434186902 0.3814702246 0)
(-0.7244887386 0.1939936884 0)
(-0.4641674745 0.1044653248 0)
(-0.3617503231 0.1175656851 0)
(-0.3683965196 0.1591754921 0)
(-0.4650704316 0.1736376531 0)
(-0.5818171185 0.1618012932 0)
(-0.815668899 0.2459908652 0)
(-0.8494353194 0.3154015984 0)
(-0.847967223 0.3646816253 0)
(-0.8499803048 0.4009118766 0)
(-0.8520130901 0.4280409691 0)
(-0.8449033252 0.4436719544 0)
(-0.8212050444 0.4395701661 0)
(-0.7362235115 0.3449637063 0)
(-0.5355675036 0.1968925231 0)
(-0.3821205365 0.1854435536 0)
(-0.2685493047 0.213800117 0)
(-0.2011817739 0.2414652369 0)
(-0.1523534986 0.2565187301 0)
(-0.1160303889 0.2276705233 0)
(-0.06470045069 0.2133750478 0)
(-0.00744741684 0.2050686591 0)
(0.02987921371 0.1838523268 0)
(0.04970432246 0.1457509396 0)
(0.0507264091 0.07545166661 0)
(0.08023549227 0.00150566822 0)
(-0.04755200232 0.06252095336 0)
(0.08610785753 0.06772993163 0)
(0.1074194119 0.03813577917 0)
(0.1120848277 -0.008690785363 0)
(0.08707880251 -0.02276373811 0)
(0.03772393504 -0.1008175126 0)
(0.000887816333 -0.1672679937 0)
(0.07468117515 -0.1785657761 0)
(0.1978198907 -0.1295152838 0)
(0.3438221784 -0.07992467069 0)
(0.4933930894 -0.2481411861 0)
(0.5782129079 -0.6487311156 0)
(0.5459131903 -0.7265010236 0)
(0.5370645374 -0.6458152566 0)
(0.4934587787 -0.6338538959 0)
(0.4422581153 -0.5597949917 0)
(0.1486572237 -0.4822286991 0)
(-0.4902710312 -0.44306599 0)
(-0.6531591167 -0.5170713661 0)
(-0.298927309 -0.6486533809 0)
(-0.08466453527 -0.8398991385 0)
(-0.2854679109 -1.024599608 0)
(-0.6654785952 -1.055154862 0)
(-1.134391828 -0.6825825245 0)
(-1.364257597 -0.1503032939 0)
(-0.5924226287 0.7074758958 0)
(-0.1909535781 0.5610305659 0)
(0.6440014959 0.07279677912 0)
(1.114567421 -0.6106317747 0)
(1.076605125 -0.003400925494 0)
(-0.78157889 0.03030353825 0)
(-0.57498701 0.3645813753 0)
(-0.7764761316 0.3369180962 0)
(-0.6797802903 0.04564427359 0)
(-0.4764697464 -0.1002368533 0)
(-0.344995595 -0.1302527892 0)
(-0.228028941 -0.1838156399 0)
(-0.1226634304 -0.1274430107 0)
(0.4761254763 0.1106041001 0)
(-0.7404970403 -0.2926344311 0)
(-1.211589405 0.4010149218 0)
(-1.201194827 0.6321609697 0)
(-1.138966874 0.8477937301 0)
(-1.065124284 1.03919793 0)
(-0.9973560054 1.16995633 0)
(-0.9511540243 1.205165221 0)
(-0.9431856572 1.121115549 0)
(-0.6950609763 0.3313435255 0)
(-0.1636040042 -0.08112428089 0)
(0.4065664945 0.03327029996 0)
(0.2870069416 0.1406442684 0)
(0.2184323064 0.2018921051 0)
(0.09728971344 0.06554417857 0)
(0.06373307524 -0.1813154434 0)
(0.1299406284 -0.1165061323 0)
(0.1417375689 -0.03081633067 0)
(0.1235602976 -0.04208201688 0)
(0.0955298286 -0.05565222677 0)
(0.07059319935 -0.07293824126 0)
(0.02818585466 -0.06472772293 0)
(-0.09810190497 -0.02595292359 0)
(0.1356905997 0.07773698399 0)
(0.1192092874 0.08017257562 0)
(0.121445048 0.0762090195 0)
(0.1246795166 0.06923974649 0)
(0.06343720005 0.04241339962 0)
(-0.02374254648 0.00568778864 0)
(-0.07793622818 -0.00324985176 0)
(-0.0774112572 -0.03107663933 0)
(-0.08403347535 -0.03846233181 0)
(-0.0552350593 0.03072133228 0)
(-0.103278812 0.1098584056 0)
(-0.1822693911 0.1214944655 0)
(-0.4109381023 0.1184656127 0)
(-0.9619297569 -0.7587403539 0)
(-0.9944675992 -0.5332469217 0)
(-1.115441468 -0.4231490361 0)
(-1.338292317 -0.4527165923 0)
(-1.650444016 -0.5914961763 0)
(-1.603930018 -0.9691834725 0)
(-0.9078431201 -1.622834646 0)
(-0.9441955174 -1.514916382 0)
(-1.006879038 -1.160284786 0)
(-1.072850802 -0.683250229 0)
(-1.101718462 -0.1396879324 0)
(0.4936655825 -0.07600171142 0)
(0.4298505941 -0.34110119 0)
(1.035199705 -0.6483461443 0)
(1.001456592 -0.43988409 0)
(0.2368259962 -0.1185630876 0)
(-1.176874174 -0.1901601654 0)
(-1.250273447 0.004115053838 0)
(-1.25110504 0.1018028627 0)
(-0.7644870876 -0.006769078896 0)
(-0.6685767903 -0.009168828926 0)
(-0.6001464445 -0.1203182166 0)
(-0.591206944 -0.4755294534 0)
(-0.5230387607 -0.3314994764 0)
(-0.4351052858 -0.188046698 0)
(-1.182163291 -0.4739034042 0)
(-1.296969923 0.4623954879 0)
(-1.273869917 0.6926667493 0)
(-1.236745179 0.918169218 0)
(-1.205856206 1.119589209 0)
(-1.191561708 1.259083784 0)
(-1.204768608 1.299228691 0)
(-1.247830612 1.224978137 0)
(-0.8902713799 0.07471190062 0)
(-0.173865564 -0.15564993 0)
(-0.08774271644 0.005555129417 0)
(-0.1123106615 -0.06058704387 0)
(-0.1003658006 -0.01145738754 0)
(-0.05811403171 -0.008651503367 0)
(-0.0007924125954 -0.082214644 0)
(0.0505075091 -0.1114875671 0)
(0.08121423596 -0.1243597748 0)
(0.09979064996 -0.1229662728 0)
(0.08405629492 -0.1143690393 0)
(0.04394396688 -0.1152127737 0)
(-0.06037897716 -0.06692575847 0)
(-0.2123597953 -0.05099157103 0)
(0.08079828276 0.05620143742 0)
(0.1247933323 0.06952902673 0)
(0.1437885857 0.1166913334 0)
(0.1667535051 0.116761684 0)
(0.1520555717 0.1222521444 0)
(0.1472131154 0.1172645491 0)
(0.1452983988 0.1183389502 0)
(0.1100133563 0.130892131 0)
(0.1017580203 0.1157715569 0)
(0.106213427 0.1247029201 0)
(0.1401988734 0.1511711731 0)
(0.2060432093 0.113373622 0)
(-0.8739999205 -0.8421321875 0)
(-0.9023370794 -0.7050899806 0)
(-0.9871871147 -0.4638567296 0)
(-1.13360306 -0.4273666653 0)
(-1.360806594 -0.4978844789 0)
(-1.656361841 -0.6616351004 0)
(-1.392190175 -1.272795522 0)
(-0.7478033483 -1.977142751 0)
(-0.7391742413 -1.735530862 0)
(-0.7299293671 -1.306771946 0)
(-0.7241275426 -0.7906617908 0)
(-0.7194029452 -0.1438153519 0)
(-0.1080092162 0.8402640443 0)
(-0.2058800477 0.2259605282 0)
(-0.680578503 -0.4562290877 0)
(-0.9009509003 -0.2228609248 0)
(0.9613840911 -0.05810025156 0)
(-0.745803871 -0.04947190173 0)
(-0.7994419291 0.3731649306 0)
(-0.9544138193 0.4698280613 0)
(-0.8183595332 0.1057228036 0)
(-0.7299359201 0.08594376962 0)
(-0.7185444961 0.09104970488 0)
(-0.9003754879 -0.8060195551 0)
(-1.053102035 -1.019494125 0)
(-1.07146578 -0.8132810001 0)
(-1.098015236 -0.4691120602 0)
(-1.102274963 0.4714255053 0)
(-1.075347495 0.7002968009 0)
(-1.024750555 0.9242514519 0)
(-1.01271665 1.115608341 0)
(-1.04804093 1.24146526 0)
(-1.107324633 1.269643466 0)
(-1.180989132 1.209658622 0)
(-1.278038586 0.7386455877 0)
(0.1146847194 -0.1471585999 0)
(0.03549703958 -0.1669181585 0)
(0.008876885099 -0.1634517936 0)
(0.02368620524 -0.1378545133 0)
(0.1174650398 -0.1369280964 0)
(0.1414026632 -0.1558339532 0)
(0.1309542923 -0.1709899191 0)
(0.1288978921 -0.1676609846 0)
(0.121677152 -0.1531927472 0)
(0.0896131635 -0.1219951909 0)
(0.003216219075 -0.1148951811 0)
(-0.1116074367 -0.02261046486 0)
(-0.2734240147 -0.07314119341 0)
(-0.1586402518 0.1298599145 0)
(0.01495442137 0.04696555614 0)
(0.1237032792 0.08995878632 0)
(0.1771360733 0.1193218556 0)
(0.1785583577 0.1338467967 0)
(0.1642043867 0.1368756055 0)
(0.1330657273 0.1430671249 0)
(0.0868191106 0.1536743435 0)
(0.03470861817 0.1470407947 0)
(-0.0005238132449 0.1520855222 0)
(-0.02934869735 0.190367224 0)
(-0.05814660841 0.2166652507 0)
(-0.8366242588 -0.455919436 0)
(-0.8874126188 -0.5871947897 0)
(-0.9926802438 -0.4661381343 0)
(-1.14203029 -0.4853861314 0)
(-1.366746961 -0.5577989482 0)
(-1.682268346 -0.6273200427 0)
(-1.899725177 -0.5083034731 0)
(-0.9780223976 -0.4370734779 0)
(-0.9906335533 -0.3858355709 0)
(-0.8319934377 0.3064322417 0)
(0.8192213127 -0.2401926134 0)
(0.9169165754 -0.2976800204 0)
(-1.084584809 -0.9272883822 0)
(-1.226603305 -0.7145257867 0)
(-1.302995641 -0.4398573025 0)
(-1.190204371 -0.1315007526 0)
(1.388623177 -0.07857674174 0)
(-0.001309384277 0.1327136383 0)
(-0.3581352912 0.6200174084 0)
(-0.5785708227 0.7752284168 0)
(-0.8658948207 0.4590022311 0)
(-0.6363033897 0.1053414105 0)
(-0.6954869716 0.3631425014 0)
(-0.7893130306 -0.2128343132 0)
(-0.9594224907 -0.9696170857 0)
(-0.99014511 -0.7501187717 0)
(-1.008643888 -0.2920173681 0)
(-0.9126602927 0.4548007697 0)
(-0.8841241601 0.7024663943 0)
(-0.7620428281 0.8942429321 0)
(-0.7895306544 1.017287813 0)
(-0.9152808252 1.092355602 0)
(-1.037427956 1.104353397 0)
(-1.131110288 1.065231566 0)
(-1.218378247 0.5400069254 0)
(-0.1395287686 -0.1259857775 0)
(-0.06487757798 -0.1809261828 0)
(-0.02635844911 -0.1905906717 0)
(0.007741289582 -0.1818907967 0)
(0.05675014231 -0.1677916621 0)
(0.1100280338 -0.1641516967 0)
(0.1388812512 -0.173025585 0)
(0.1415452241 -0.1687230314 0)
(0.1287170909 -0.152161789 0)
(0.07855132124 -0.1212808486 0)
(0.04511398824 -0.02911205106 0)
(-0.1977206316 0.0222908406 0)
(-0.2929603885 -0.1009337568 0)
(-0.2459200138 0.1697649594 0)
(-0.1527820684 0.07517828643 0)
(0.05003357424 0.06741073183 0)
(0.1650094064 0.09778050771 0)
(0.1883617738 0.1207959038 0)
(0.1823224955 0.132228238 0)
(0.1563253329 0.1462412041 0)
(0.1215279541 0.1617913745 0)
(0.08708247799 0.168376107 0)
(0.06461908985 0.1811889846 0)
(0.05200197576 0.2006706708 0)
(0.007109147309 0.1891789374 0)
(-0.8117166908 -0.5887538554 0)
(-0.8794342455 -0.5386186331 0)
(-0.9795811797 -0.5167522835 0)
(-1.145429549 -0.5811942858 0)
(-1.361295631 -0.6379251038 0)
(-1.669744463 -0.6658271001 0)
(-1.761199748 -0.5020613179 0)
(-0.9096374054 -0.4461263722 0)
(-0.8650010226 -0.3770174601 0)
(0.4598007503 -0.3136522496 0)
(1.086339837 -0.4064529642 0)
(1.235619406 -0.3569734665 0)
(-1.011537746 -1.120103868 0)
(-1.016433453 -0.8332591052 0)
(-1.018145539 -0.4770662957 0)
(-0.693679036 -0.09130526526 0)
(1.664396274 -0.07466890536 0)
(0.9755652083 0.292134397 0)
(0.2276613508 0.7117432363 0)
(-0.2487134204 0.8921728112 0)
(-0.6009083808 0.8721093402 0)
(-0.5452501857 0.263973981 0)
(-0.6832091779 0.4831205943 0)
(-0.7339892761 0.2955923158 0)
(-0.8768177923 -0.5552086388 0)
(-0.9132604487 -0.4384757581 0)
(-1.02290254 0.424175742 0)
(0.7369436612 0.4536674615 0)
(0.7869330392 0.4633764489 0)
(0.2329272268 0.5290024042 0)
(-0.3916153893 0.6192614083 0)
(-0.8315536241 0.7270205475 0)
(-1.056583357 0.8098397661 0)
(-1.143530097 0.8678150722 0)
(-1.173932096 0.9066760984 0)
(-0.3396387959 0.1933610065 0)
(0.03934811915 -0.189016806 0)
(0.06122029264 -0.1834636481 0)
(0.0820495779 -0.1928592216 0)
(0.0986939485 -0.1745967278 0)
(0.1164617695 -0.155592571 0)
(0.1419943913 -0.1522620426 0)
(0.1455978446 -0.1477715603 0)
(0.1318631599 -0.1373294713 0)
(0.06787202536 -0.04481534378 0)
(-0.10176062 -0.0113489426 0)
(-0.2953045198 -0.01361848628 0)
(-0.2931217734 -0.1244245194 0)
(-0.2312894888 0.1848154992 0)
(-0.1686057288 0.05546837467 0)
(-0.05790598883 0.0614900626 0)
(0.1234861974 0.06388497912 0)
(0.1717475532 0.0943262977 0)
(0.17425889 0.1115656021 0)
(0.1506517916 0.1271577247 0)
(0.120285578 0.1394069839 0)
(0.07491695714 0.1310210097 0)
(0.06120073878 0.1421151313 0)
(0.05386559048 0.175263095 0)
(0.02649604116 0.1829400897 0)
(-0.786905009 -0.4418146106 0)
(-0.8564712295 -0.5647579417 0)
(-0.9636342507 -0.6060232259 0)
(-1.120868577 -0.6839596207 0)
(-1.354652884 -0.7313815804 0)
(-1.730739579 -0.6801987625 0)
(-1.585107583 -0.4923274716 0)
(0.7072073369 -0.3625225139 0)
(0.3634697253 -0.7260197771 0)
(0.189076312 -0.9082943543 0)
(0.6912274337 -0.676334707 0)
(1.115166665 -0.4925240241 0)
(-0.7520718582 -1.034793186 0)
(-0.7414219109 -0.8852999809 0)
(-0.9081250773 -0.5476610646 0)
(-0.8901742126 -0.1294158115 0)
(1.159434115 0.1628490346 0)
(0.4718318112 0.5204084788 0)
(0.02988064625 0.7736070868 0)
(-0.3030325807 0.9286000295 0)
(-0.5638728882 0.9145544027 0)
(-0.5896508247 0.2588697724 0)
(-0.7046370814 0.5317076687 0)
(-0.7501513626 0.403506735 0)
(-0.8760849046 -0.5895867761 0)
(-0.9161702497 -0.445076414 0)
(-0.8839124658 0.3818833173 0)
(1.014924819 0.4672167131 0)
(0.869765889 0.4099264317 0)
(0.3282134456 0.4518689374 0)
(-0.2734030261 0.5488785832 0)
(-0.8269192105 0.6930487613 0)
(-1.065464443 0.7956179887 0)
(-1.121351777 0.8634730314 0)
(-1.121233021 0.9291648229 0)
(-1.094179435 0.7392779538 0)
(-0.09020286997 0.0251164898 0)
(0.08477140358 -0.1650633561 0)
(0.1012486257 -0.1633749063 0)
(0.1247644635 -0.1621605947 0)
(0.1264660523 -0.130254322 0)
(0.1484726895 -0.1171113169 0)
(0.1539778672 -0.09651141937 0)
(0.1329924619 -0.08681217095 0)
(0.05117090417 0.02357861832 0)
(-0.2233134561 -0.05865807752 0)
(-0.330476463 -0.02455470676 0)
(-0.2887416204 -0.1452816879 0)
(-0.2018649739 0.1751635878 0)
(-0.1410200396 -0.0007215603897 0)
(0.001433394723 0.04043336776 0)
(0.09997863453 0.0004783067011 0)
(0.1546056412 0.05310484189 0)
(0.1621581358 0.07178098108 0)
(0.1434777501 0.09506977081 0)
(0.1297991474 0.1055669434 0)
(0.1022582477 0.121329618 0)
(0.09504277549 0.1342159646 0)
(0.0926447854 0.1617597931 0)
(-0.3408481806 -0.2495858043 0)
(-0.7466572026 -0.6146644977 0)
(-0.7970901139 -0.6080377156 0)
(-0.9121305632 -0.6970542929 0)
(-1.075741321 -0.7797551551 0)
(-1.411033017 -0.7996527433 0)
(-1.993810184 -0.6604132758 0)
(-1.414286233 -0.4814940906 0)
(0.7737306726 -0.3513309916 0)
(0.9162564547 -0.3557072129 0)
(0.3906264803 -0.2946964842 0)
(-0.2618646098 -0.04969002999 0)
(0.8645612229 -0.4536457865 0)
(-0.2022675121 -0.1681696074 0)
(0.2641320096 -0.623676904 0)
(0.8267858437 -0.4010700723 0)
(0.7474776798 -0.2260336113 0)
(0.9267204332 0.1316337923 0)
(-0.934624183 -0.607452361 0)
(-0.9655555534 -0.3433095508 0)
(-0.8888254609 0.09671520904 0)
(-0.5277345416 0.1241617439 0)
(-0.5374616132 0.4162181958 0)
(-0.7115235773 0.6465215366 0)
(-0.8106815702 0.4710721955 0)
(-0.8505012778 -0.6287278523 0)
(-0.888415467 -0.4400161088 0)
(-0.6809785407 0.1759063755 0)
(0.7537782919 0.3541868458 0)
(0.5549718861 0.3096108127 0)
(0.06415537393 0.3699874415 0)
(-0.7484240699 0.5735100741 0)
(-1.060821147 0.72708972 0)
(-1.096070015 0.8023297093 0)
(-1.087224278 0.8716075338 0)
(-1.062253539 0.9466022209 0)
(-1.027941103 1.025606917 0)
(-0.6868121849 0.7015255623 0)
(-0.0107506501 0.03172460668 0)
(0.1342142412 -0.1203039843 0)
(0.1038935949 -0.1149512411 0)
(0.1581325884 -0.1050450947 0)
(0.1724484592 -0.08069385855 0)
(0.1606597045 -0.04101898908 0)
(0.112433153 0.01780529856 0)
(0.01581209334 0.03386963973 0)
(-0.2371318145 -0.07879736985 0)
(-0.3117285299 -0.02461318339 0)
(-0.2741972404 -0.1682182411 0)
(-0.1717696518 0.05983514308 0)
(-0.1101266741 -0.09604012447 0)
(-0.07306696279 0.02343603025 0)
(-0.07932991863 -0.05530460197 0)
(0.02249318026 -0.0009939485351 0)
(0.0670003418 0.0170917332 0)
(0.05993716527 0.05810771453 0)
(0.06706936863 0.06928890485 0)
(0.09692549174 0.1062790121 0)
(0.09056974285 0.133677619 0)
(0.09380629435 0.1566625122 0)
(-0.7470996181 -0.3182405873 0)
(-0.6773573881 -0.5741178568 0)
(-0.7244246201 -0.6369265803 0)
(-0.8299680764 -0.7512251114 0)
(-1.031155041 -0.8367529351 0)
(-1.589007624 -0.8212718844 0)
(-2.284883577 -0.6070936745 0)
(-1.22979013 -0.4664526402 0)
(0.7848198446 -0.3223338405 0)
(0.8152032353 -0.2856408983 0)
(-0.07976047603 0.2073964022 0)
(-0.5020937427 0.5165701223 0)
(-0.4798591643 0.4489596062 0)
(-0.2740332108 0.1456231161 0)
(0.5013127534 -0.6032337775 0)
(0.9182483828 -0.4306912341 0)
(0.9594010343 -0.2535745599 0)
(-0.8283530631 -0.9723185057 0)
(-0.8502741242 -0.6957315921 0)
(-0.8420358613 -0.3788552009 0)
(-0.4182736113 -0.01552090405 0)
(-0.3679337016 0.0169020898 0)
(-0.4347771409 0.143694202 0)
(-0.5012470834 0.3425226215 0)
(-0.6550593605 0.4328955723 0)
(-0.784936069 -0.6787176423 0)
(-0.8134501224 -0.4277231253 0)
(-0.5748034281 -0.2447686691 0)
(-0.7724558875 -0.5410580291 0)
(-0.8985081388 0.2049839508 0)
(-1.035640424 0.5516016109 0)
(-1.083825573 0.6625209722 0)
(-1.077230365 0.7336686177 0)
(-1.05524808 0.8075650439 0)
(-1.026788371 0.889744275 0)
(-0.9888432206 0.9724896533 0)
(-0.9450297606 1.0483975 0)
(-0.9003217213 1.111858534 0)
(-0.4427633536 1.09253772 0)
(-0.03985155315 0.1149010313 0)
(0.1504445033 -0.04760261245 0)
(0.1643320951 -0.02326244919 0)
(0.161598737 -0.03951057341 0)
(0.1653524812 0.01537520848 0)
(0.1325328993 0.06240293307 0)
(0.03823096747 0.01342273588 0)
(-0.2149789795 -0.08789932176 0)
(-0.2672741074 -0.01851087323 0)
(-0.240899752 -0.2150641852 0)
(-0.1167188464 -0.1684835784 0)
(-0.01674025696 -0.2408405406 0)
(0.02509034567 -0.1885971887 0)
(0.05932071321 -0.1686956008 0)
(0.07536570749 -0.1039651251 0)
(0.08957555134 -0.07348766572 0)
(0.09867261258 -0.02424823451 0)
(0.09704940803 0.01061791178 0)
(0.1193847767 0.07926489516 0)
(0.1138543698 0.1378145426 0)
(0.08590424764 0.1693807623 0)
(-0.6863111092 -0.4358817924 0)
(-0.5871059615 -0.5174539654 0)
(-0.6284699415 -0.617376296 0)
(-0.7267258284 -0.7385775292 0)
(-0.99351914 -0.8223876463 0)
(-1.741844557 -0.8291212806 0)
(-2.334211256 -0.5658838822 0)
(-1.093023718 -0.4529880866 0)
(-0.4886116669 0.4433401548 0)
(-0.4004883194 0.5863568978 0)
(-0.4540688666 0.5566229835 0)
(-0.5244125518 0.7192469941 0)
(-0.5731036281 0.8095399473 0)
(-0.5888243907 0.8124755998 0)
(-0.6387375686 0.9032210893 0)
(0.3960446138 0.03097857817 0)
(1.131369602 -0.2237589658 0)
(0.7472114424 -0.3602543584 0)
(0.5385117428 -0.1764445823 0)
(0.5436775316 -0.15941958 0)
(0.8558517393 0.1521063175 0)
(-0.1514281208 -0.1095620615 0)
(-0.2172605393 -0.1587495396 0)
(-0.1048648595 -0.1890977872 0)
(0.1637433775 -0.2814420726 0)
(0.5459076703 -0.2859474041 0)
(0.553628584 -0.3444058229 0)
(-0.3253421535 -0.4101911705 0)
(-0.7463079233 -0.6778502193 0)
(-0.9551192594 -0.46106376 0)
(-1.144808975 0.5340404597 0)
(-1.068335036 0.6437942797 0)
(-1.020504417 0.7341426764 0)
(-0.9861842462 0.8243539478 0)
(-0.9521873702 0.9179919619 0)
(-0.9019850779 0.9970549596 0)
(-0.8470573765 1.056740227 0)
(-0.7899000735 1.090561618 0)
(-0.7370991884 1.093972012 0)
(-0.600050608 1.122948202 0)
(0.1055709359 0.4028315682 0)
(0.1254778961 0.07488966858 0)
(0.1927712648 0.02811691227 0)
(0.1890123077 0.08681510591 0)
(0.1667217351 0.07448113954 0)
(0.08635888009 0.01770743879 0)
(-0.2013479604 -0.1245429 0)
(-0.2262424502 -0.01396008183 0)
(-0.2371611935 -0.3083876258 0)
(-0.2505206253 -0.414171933 0)
(-0.2016505107 -0.5883603683 0)
(-0.1773315791 -0.5729227388 0)
(-0.1099852873 -0.5116030604 0)
(-0.05446327413 -0.4260585906 0)
(0.02168522232 -0.3155959484 0)
(0.1024590364 -0.1922880534 0)
(0.1387084375 -0.08977827319 0)
(0.1489016027 0.02870909497 0)
(0.1401700159 0.07527045246 0)
(-0.7161761429 -0.4611464236 0)
(-0.5510050356 -0.3460771253 0)
(-0.4724913833 -0.407140248 0)
(-0.5099792533 -0.5196426932 0)
(-0.6072091273 -0.6371991831 0)
(-0.9192149366 -0.7534687122 0)
(-1.695883941 -0.8822294255 0)
(-2.12009573 -0.5436308655 0)
(-0.9494623199 -0.4806368553 0)
(-0.7426262297 0.583672527 0)
(-0.7028639561 0.7867764041 0)
(-0.6855067754 0.910324991 0)
(-0.6716295327 1.022169734 0)
(-0.6443733167 1.068573513 0)
(-0.5621247522 0.9997935596 0)
(-0.4431854773 0.7986839955 0)
(-0.3105488648 0.6015491941 0)
(1.222107999 -0.2095421791 0)
(0.8660547201 -0.1988030295 0)
(0.6317324174 -0.139418767 0)
(0.4928584599 -0.1385634016 0)
(1.008023496 0.1554553604 0)
(-0.1082852165 -0.1058032151 0)
(-0.1086942353 -0.2137721741 0)
(-0.05727731808 -0.2034238668 0)
(0.1721573594 -0.2569847717 0)
(0.4062768622 -0.2094730698 0)
(0.643053392 -0.202071098 0)
(0.1827169788 -0.1721842245 0)
(-0.7122906889 -0.6346413975 0)
(-0.8558478799 -0.5418518182 0)
(-1.020887154 0.5571977201 0)
(-0.9648853437 0.6597750757 0)
(-0.9322496318 0.7543731611 0)
(-0.9063620177 0.8517178788 0)
(-0.8719200198 0.952244369 0)
(-0.7884779948 0.9950757979 0)
(-0.7118029825 1.007209851 0)
(-0.6388140501 0.9817258817 0)
(-0.5754062399 0.9106002067 0)
(-0.5507641497 0.8868898787 0)
(-0.5618427381 0.9365776552 0)
(-0.1231676545 1.054264291 0)
(0.1809568085 0.2461384524 0)
(0.1565985746 0.2183139346 0)
(0.1697069022 0.161133101 0)
(0.03140588727 -0.01231412574 0)
(-0.2599550317 -0.179044634 0)
(-0.2432961657 -0.01840452502 0)
(-0.2941290743 -0.3932733096 0)
(-0.7931625933 -0.7084087259 0)
(-0.8138980696 -1.152236964 0)
(-0.7846938244 -1.086271336 0)
(-0.7494516188 -1.043758256 0)
(-0.7101908535 -0.9986342985 0)
(-0.6918217456 -0.9467002522 0)
(-0.7175775585 -0.8749449039 0)
(-0.7409301247 -0.7630306759 0)
(-0.6618626356 -0.6169282052 0)
(-0.6139679688 -0.4850745628 0)
(-0.463936946 -0.3786316834 0)
(-0.4126576236 -0.3102331699 0)
(-0.4057802884 -0.2854138376 0)
(-0.3776794642 -0.342094589 0)
(-0.4860401602 -0.4846259492 0)
(-0.7960234892 -0.7361504416 0)
(-1.455104324 -0.9874108694 0)
(-1.725996308 -0.5343799445 0)
(-0.7760309985 -0.4820098223 0)
(-0.7251027845 0.5971815132 0)
(-0.7415177161 0.8846589069 0)
(-0.7433329188 1.089936407 0)
(-0.7307973392 1.23051819 0)
(-0.6715971223 1.246142259 0)
(-0.4757219238 1.074965953 0)
(-0.02216081734 0.6331119836 0)
(0.2769989371 0.3487454022 0)
(1.259828128 -0.2086507577 0)
(0.8894125758 -0.1666928452 0)
(0.7026257105 -0.1182888057 0)
(0.5555069132 -0.1100815853 0)
(0.9905676355 0.1615876632 0)
(0.1461651635 -0.121160343 0)
(-0.1141723271 -0.3018027238 0)
(-0.1800135124 -0.3304220253 0)
(-0.1222974962 -0.3323781962 0)
(0.03669390123 -0.3460677014 0)
(0.6120454577 -0.09789039932 0)
(0.6882758057 -0.0156039163 0)
(-0.6541060093 -0.5211432786 0)
(-0.7783443381 -0.5575034166 0)
(-0.9001135098 0.5612027946 0)
(-0.8685972939 0.6684467333 0)
(-0.8485735468 0.7734743181 0)
(-0.8269870012 0.8832739874 0)
(-0.782796063 0.9918317421 0)
(-0.5902009304 0.860874298 0)
(-0.5064536496 0.8045972312 0)
(-0.4439280735 0.7253842329 0)
(-0.4076513092 0.6109812504 0)
(-0.4022068225 0.567923729 0)
(-0.4201746504 0.6164491602 0)
(-0.4509900221 0.7280043093 0)
(-0.4804128163 0.850421768 0)
(-0.4008418208 0.9339612168 0)
(-0.3238886689 0.9417948154 0)
(-0.3958948846 0.3098473937 0)
(-0.3249813579 -0.1756747071 0)
(-0.2831034358 0.01307886357 0)
(-0.680671923 -0.8246990676 0)
(-0.5862575674 -0.6389557536 0)
(-0.4450220571 -0.4670334522 0)
(-0.3579007591 -0.4092822862 0)
(-0.379880702 -0.4085958336 0)
(-0.4963411782 -0.4018584515 0)
(-0.5884805872 -0.3724921719 0)
(-0.3108609522 -0.2879111406 0)
(-0.4313703192 -0.5517508277 0)
(-0.6782869342 -0.9404373781 0)
(-1.092612044 -1.116926552 0)
(-1.228470686 -0.5300119293 0)
(0.7691369725 -0.4477299404 0)
(0.06877127852 0.5507740792 0)
(0.4584468929 -0.2783138365 0)
(0.5314069775 -0.3752276625 0)
(0.4006060651 -0.3642257433 0)
(0.2783639454 -0.313553147 0)
(0.2929095181 0.06730648979 0)
(0.3082601384 0.217742818 0)
(0.5130627589 0.205896147 0)
(1.183878752 -0.1937983844 0)
(0.8359698697 -0.1394395457 0)
(0.5829484882 -0.1141938417 0)
(0.3590699653 -0.1097849492 0)
(0.281965389 0.04969712804 0)
(-0.293199403 -0.1691147978 0)
(-0.2660368491 -0.3228283972 0)
(-0.2014564648 -0.3570422511 0)
(-0.1133699308 -0.361589482 0)
(0.03296766265 -0.3380575757 0)
(0.3616105099 -0.2327064713 0)
(0.7560864319 -0.05275040159 0)
(-0.5513692048 -0.3275780092 0)
(-0.703283635 -0.5153316504 0)
(-0.7769528931 0.5501057396 0)
(-0.7713014563 0.6774488781 0)
(-0.7613813937 0.8009729544 0)
(-0.7372448765 0.9290591602 0)
(-0.6626607845 1.034390985 0)
(-0.3012498524 0.4485196378 0)
(-0.287377843 0.4486946133 0)
(-0.2901509106 0.4237186656 0)
(-0.3092835961 0.3754001562 0)
(-0.3235330722 0.313080846 0)
(-0.3356704115 0.3356188083 0)
(-0.3574685493 0.4239285901 0)
(-0.3842163474 0.5433795859 0)
(-0.4236413437 0.6388325034 0)
(-0.4919360329 0.6472845672 0)
(-0.5625038262 0.370325168 0)
(-0.3348766322 -0.1686206495 0)
(-0.2875621109 0.04830980371 0)
(-0.484203017 -0.5199376162 0)
(-0.7076061332 -0.537983463 0)
(-0.8194088433 -0.4906382197 0)
(-0.3570630978 -0.5771736663 0)
(-0.4531744198 -1.099599464 0)
(-0.5547883179 -1.526129825 0)
(-0.6391762731 -1.249787549 0)
(-0.6512973462 -0.5255302949 0)
(-0.598097565 0.9070753285 0)
(-0.5628211782 1.382324797 0)
(-0.4404517803 1.426031704 0)
(-0.09168009533 0.2127926999 0)
(-0.08010913512 -0.1421338146 0)
(-0.09461208818 -0.140401404 0)
(-0.09854639311 -0.1142009331 0)
(-0.07382539087 -0.07888332043 0)
(0.03468868462 -0.04128669003 0)
(0.651663611 -0.1252246857 0)
(0.6306954735 -0.09384142999 0)
(0.5148226449 -0.03988301811 0)
(0.346907428 -0.08587511744 0)
(0.2602360087 -0.03171791423 0)
(-0.07189302218 -0.1616929365 0)
(-0.3486876525 -0.2601965658 0)
(-0.3751983846 -0.2444434223 0)
(-0.2765695882 -0.2694591763 0)
(-0.107689626 -0.245523272 0)
(0.2343107917 -0.2059066111 0)
(0.6326357226 -0.1034692912 0)
(-0.4295499739 -0.1168741969 0)
(-0.5869508273 -0.3302080576 0)
(-0.6252694819 0.5253715271 0)
(-0.6604953233 0.6941277131 0)
(-0.6555709502 0.8488193601 0)
(-0.6019783495 0.9974658011 0)
(-0.4418388692 1.03486723 0)
(-0.1797593059 0.1906203598 0)
(-0.1853642516 0.2182301523 0)
(-0.2428580536 0.2492705078 0)
(-0.3451001175 0.2257164692 0)
(-0.3717683443 0.2256024119 0)
(-0.348731686 0.2238662391 0)
(-0.3167645787 0.2384418421 0)
(-0.3346851073 0.3253180583 0)
(-0.3719795833 0.4088214069 0)
(-0.4977272786 0.4954178679 0)
(-0.6066157896 0.5513005634 0)
(-0.3324818191 -0.1627201466 0)
(-0.277000176 0.08325902136 0)
(-1.097940325 -0.5652244258 0)
(-0.3259903017 -0.3150921008 0)
(-0.3126106952 -0.3100771898 0)
(0.1097158271 -0.5375944135 0)
(0.7839203329 -0.7738251251 0)
(0.9222004289 -0.5320878673 0)
(0.6232791433 0.5670173456 0)
(0.3211244106 0.01721169891 0)
(-0.01819816778 -0.03621418617 0)
(-0.02131942716 -0.08951035337 0)
(-0.0663816733 -0.09337399198 0)
(-0.05987967744 -0.0980287929 0)
(-0.05904783829 -0.0988706419 0)
(-0.03422517772 -0.1015912587 0)
(0.01613568894 -0.09543000808 0)
(0.2393504852 -0.07101029811 0)
(0.4319627058 -0.07571587096 0)
(0.3506710075 -0.1137151591 0)
(0.2525416078 -0.1306953661 0)
(0.1957531523 -0.1219538689 0)
(0.4324483884 -0.1131812508 0)
(0.2841135505 0.06281947514 0)
(-0.2700229532 -0.08791359851 0)
(-0.386035979 0.04596825315 0)
(-0.3976401217 -0.008435116245 0)
(-0.3065075607 0.1188151703 0)
(0.2071676035 -0.1159953166 0)
(-0.3607662004 0.0198091521 0)
(-0.3434324251 0.2187741112 0)
(0.4282064187 0.5123955569 0)
(0.6224331799 0.6022788745 0)
(0.611975005 0.6816762686 0)
(0.4250418088 0.8135832226 0)
(0.09276695044 0.7791829102 0)
(-0.1828523553 0.1082983614 0)
(-0.2083575461 0.121089172 0)
(-0.3086518927 0.1564844124 0)
(-0.3875166393 0.1826278435 0)
(-0.4131845858 0.2061254788 0)
(-0.4069093103 0.2254964123 0)
(-0.3767994912 0.2421840433 0)
(-0.3363470162 0.2656757734 0)
(-0.3876675771 0.3544394914 0)
(-0.556528349 0.5014454779 0)
(-0.7079031461 0.6214638092 0)
(-0.3504005359 -0.1271855434 0)
(-0.2578305202 0.1184540082 0)
(1.165644446 -0.6034217823 0)
(1.463564736 -0.5038149546 0)
(0.9664220984 0.06838300712 0)
(0.2698613211 -0.09678194472 0)
(0.1149457952 -0.04002897498 0)
(-0.02013987627 -0.0008837372465 0)
(-0.07373420478 0.01480035118 0)
(-0.03654546099 -0.03238944731 0)
(-0.05137273916 -0.06267728311 0)
(-0.03461520447 -0.08393280056 0)
(-0.004614637858 -0.1024297401 0)
(0.09637508713 -0.09134764369 0)
(0.2661941038 -0.07267297846 0)
(0.2654485604 -0.1380762382 0)
(0.1849313332 -0.2080339581 0)
(0.2529012768 -0.147997818 0)
(0.6513931178 -0.09527932802 0)
(0.5602986122 -0.05109218841 0)
(-0.1248778764 -0.186916785 0)
(-0.2483315224 0.3119859543 0)
(-0.3375355375 0.2235651541 0)
(-0.3566958394 0.2462797915 0)
(-0.4392458252 0.03881822575 0)
(-0.3667569526 0.01539091188 0)
(-0.9236991343 0.2723458743 0)
(0.5617407249 0.4437690751 0)
(0.7254444918 0.5557038387 0)
(-1.213454768 0.6327023449 0)
(0.5861455078 0.6696675642 0)
(0.1478952917 0.5402576191 0)
(-0.2218212916 0.0556968131 0)
(-0.2744576376 0.09717938176 0)
(-0.3526075074 0.1474164252 0)
(-0.4164745103 0.1847000761 0)
(-0.4440145855 0.2176179836 0)
(-0.4461166646 0.2481049269 0)
(-0.4337155538 0.2789549837 0)
(-0.4101666627 0.3131017907 0)
(-0.4671586704 0.3896914382 0)
(-0.6658146261 0.5238355735 0)
(-0.8037019118 0.670915686 0)
(-0.4420056574 0.01083223636 0)
(-0.2406324041 0.1518938185 0)
(0.8454540284 -0.1754001539 0)
(0.2032519552 -0.09604610181 0)
(0.09793610585 -0.08207184328 0)
(-0.04998160337 0.05650796388 0)
(-0.08766706037 0.1030199765 0)
(-0.0586257281 0.001986814404 0)
(0.01373903453 -0.05087005427 0)
(0.01934829269 -0.07084822592 0)
(-0.001956517961 -0.08088584649 0)
(0.02205440399 -0.06799877213 0)
(0.1366048245 -0.08037740475 0)
(0.1665265254 -0.1415788276 0)
(0.2175021853 -0.2141409847 0)
(0.4075112464 -0.1390140883 0)
(0.7849879111 -0.05871981298 0)
(0.5555087206 -0.06494288215 0)
(-0.05535118836 -0.1718149945 0)
(-0.239426704 0.2240630371 0)
(-0.2875642041 0.1815837092 0)
(-0.46429731 0.2373563438 0)
(-0.3964075012 0.1561961467 0)
(-0.3727863558 -0.02047494365 0)
(-2.261868277 0.4688695798 0)
(0.3376693835 0.4454423783 0)
(0.8215222054 0.5345286018 0)
(-2.513376256 0.6402236343 0)
(-0.6784519698 0.6913708655 0)