/*--------------------------------*- C++ -*----------------------------------*\
  =========                 |
  \\      /  F ield         | OpenFOAM: The Open Source CFD Toolbox
   \\    /   O peration     | Website:  https://openfoam.org
    \\  /    A nd           | Version:  8
     \\/     M anipulation  |
\*---------------------------------------------------------------------------*/
FoamFile
{
    version     2.0;
    format      ascii;
    class       volScalarField;
    location    "0.1";
    object      alphat;
}
// * * * * * * * * * * * * * * * * * * * * * * * * * * * * * * * * * * * * * //

dimensions      [1 -1 -1 0 0 0 0];

internalField   nonuniform List<scalar> 
67286
(
6.863288068e-07
8.24870981e-07
8.253386229e-07
8.253510762e-07
8.253521548e-07
8.253532441e-07
8.253545171e-07
8.253559621e-07
8.253575618e-07
8.253592969e-07
8.253611476e-07
8.253630912e-07
8.253651011e-07
8.253671587e-07
8.253692382e-07
8.253713184e-07
8.253733632e-07
8.253753587e-07
8.25377283e-07
8.253791047e-07
8.253808151e-07
8.253823843e-07
8.253838071e-07
8.25385055e-07
8.253861192e-07
8.253869924e-07
8.253876549e-07
8.253883454e-07
6.863286223e-07
8.248707394e-07
8.253383807e-07
8.253508346e-07
8.253519142e-07
8.253530055e-07
8.253542814e-07
8.253557288e-07
8.253573322e-07
8.253590716e-07
8.253609268e-07
8.253628756e-07
8.253648934e-07
8.253669592e-07
8.253690431e-07
8.253711324e-07
8.253731898e-07
8.253751946e-07
8.253771287e-07
8.253789654e-07
8.253806885e-07
8.253822709e-07
8.25383702e-07
8.253849685e-07
8.25386049e-07
8.253869301e-07
8.253876009e-07
8.253880694e-07
8.2538852e-07
8.25388536e-07
8.253883338e-07
8.253881549e-07
6.863286584e-07
8.248705316e-07
8.25338163e-07
8.253506151e-07
8.253516932e-07
8.253527827e-07
8.253540568e-07
8.253555029e-07
8.253571044e-07
8.253588423e-07
8.253606959e-07
8.253626439e-07
8.253646625e-07
8.253667282e-07
8.253688143e-07
8.253709036e-07
8.253729674e-07
8.253749763e-07
8.253769134e-07
8.253787576e-07
8.253804882e-07
8.25382082e-07
8.253835241e-07
8.253847993e-07
8.253858858e-07
8.253867792e-07
8.253874645e-07
8.253879415e-07
8.253882011e-07
8.253882307e-07
8.253880421e-07
8.253878784e-07
6.863287136e-07
8.248701582e-07
8.253377722e-07
8.253502198e-07
8.253512928e-07
8.253523759e-07
8.253536427e-07
8.253550808e-07
8.253566742e-07
8.253584042e-07
8.253602503e-07
8.253621913e-07
8.253642033e-07
8.253662646e-07
8.253683438e-07
8.253704302e-07
8.253724903e-07
8.253744954e-07
8.253764349e-07
8.253782824e-07
8.253800136e-07
8.253816124e-07
8.253830597e-07
8.253843382e-07
8.253854347e-07
8.253863394e-07
8.253870363e-07
8.253875255e-07
8.253877911e-07
8.253878346e-07
8.253876573e-07
8.253872651e-07
8.253871025e-07
6.863287822e-07
8.248696147e-07
8.253372035e-07
8.253496457e-07
8.253507122e-07
8.253517866e-07
8.253530432e-07
8.253544697e-07
8.253560503e-07
8.253577673e-07
8.253596e-07
8.253615273e-07
8.253635262e-07
8.253655743e-07
8.25367645e-07
8.253697177e-07
8.253717697e-07
8.253737724e-07
8.25375702e-07
8.253775407e-07
8.253792696e-07
8.253808685e-07
8.253823149e-07
8.253835916e-07
8.253846903e-07
8.253855995e-07
8.253863152e-07
8.253868091e-07
8.253870838e-07
8.253871413e-07
8.253869802e-07
8.253866011e-07
8.253862522e-07
6.86328855e-07
8.248689531e-07
8.253364782e-07
8.253489082e-07
8.253499631e-07
8.25351024e-07
8.253522656e-07
8.253536757e-07
8.253552374e-07
8.253569354e-07
8.253587486e-07
8.253606553e-07
8.253626339e-07
8.253646617e-07
8.253667138e-07
8.253687647e-07
8.253708002e-07
8.253727903e-07
8.253747105e-07
8.253765398e-07
8.253782626e-07
8.253798546e-07
8.253812965e-07
8.253825781e-07
8.253836777e-07
8.253845947e-07
8.253852986e-07
8.253858022e-07
8.253860866e-07
8.253861575e-07
8.253860059e-07
8.253856473e-07
8.253853167e-07
6.863289102e-07
8.248683513e-07
8.253357252e-07
8.253480323e-07
8.253490524e-07
8.253500969e-07
8.253513195e-07
8.253527085e-07
8.253542465e-07
8.253559163e-07
8.253577056e-07
8.253595875e-07
8.253615401e-07
8.253635421e-07
8.253655696e-07
8.253675981e-07
8.253696065e-07
8.253715769e-07
8.253734797e-07
8.253752924e-07
8.253770016e-07
8.25378581e-07
8.253800143e-07
8.253812927e-07
8.253823938e-07
8.253832964e-07
8.253840152e-07
8.253845203e-07
8.253848116e-07
8.25384902e-07
8.253847707e-07
8.253844208e-07
8.25384105e-07
6.863289357e-07
8.248679552e-07
8.253351929e-07
8.25347271e-07
8.253480371e-07
8.253490164e-07
8.253502177e-07
8.253515823e-07
8.253530946e-07
8.253547423e-07
8.253564958e-07
8.253583427e-07
8.253602613e-07
8.253622304e-07
8.253642264e-07
8.253662258e-07
8.253682031e-07
8.253701463e-07
8.253720206e-07
8.253738144e-07
8.253755043e-07
8.253770668e-07
8.25378487e-07
8.253797563e-07
8.253808504e-07
8.253817572e-07
8.253824743e-07
8.253829869e-07
8.253832906e-07
8.253833756e-07
8.253832556e-07
8.253829253e-07
8.253826348e-07
6.863289393e-07
8.248676972e-07
8.253348517e-07
8.253468108e-07
8.253472969e-07
8.253478886e-07
8.25348974e-07
8.25350309e-07
8.253517889e-07
8.253533989e-07
8.253551177e-07
8.253569275e-07
8.253588072e-07
8.253607382e-07
8.253626966e-07
8.253646598e-07
8.253666042e-07
8.253685121e-07
8.253703555e-07
8.253721213e-07
8.253737859e-07
8.25375325e-07
8.2537673e-07
8.253779848e-07
8.253790679e-07
8.253799707e-07
8.253806831e-07
8.25381195e-07
8.253815046e-07
8.253816047e-07
8.253814972e-07
8.253811847e-07
8.253809143e-07
6.863289234e-07
8.248675623e-07
8.253346279e-07
8.253465105e-07
8.253468796e-07
8.253471794e-07
8.253477433e-07
8.253489042e-07
8.253503497e-07
8.2535192e-07
8.253535977e-07
8.253553664e-07
8.253571974e-07
8.253590867e-07
8.253610021e-07
8.253629227e-07
8.253648266e-07
8.25366694e-07
8.253685039e-07
8.25370235e-07
8.25371869e-07
8.253733829e-07
8.253747648e-07
8.253760031e-07
8.253770705e-07
8.253779619e-07
8.253786724e-07
8.253791814e-07
8.253794941e-07
8.253796049e-07
8.253795108e-07
8.253792146e-07
8.253789652e-07
6.863289015e-07
8.248674586e-07
8.253344596e-07
8.253463238e-07
8.253466206e-07
8.253467816e-07
8.253470765e-07
8.253476145e-07
8.253487964e-07
8.253503216e-07
8.25351954e-07
8.253536732e-07
8.253554671e-07
8.253573036e-07
8.253591679e-07
8.253610397e-07
8.253628971e-07
8.253647199e-07
8.253664881e-07
8.253681805e-07
8.253697786e-07
8.253712654e-07
8.253726163e-07
8.253738333e-07
8.253748829e-07
8.253757652e-07
8.253764611e-07
8.253769698e-07
8.253772874e-07
8.253774062e-07
8.25377326e-07
8.253770505e-07
8.253768232e-07
6.86328872e-07
8.248673783e-07
8.253343104e-07
8.253461573e-07
8.253464351e-07
8.253465547e-07
8.253467096e-07
8.253469862e-07
8.253474823e-07
8.253486267e-07
8.253502074e-07
8.253518764e-07
8.253536121e-07
8.253553973e-07
8.253572097e-07
8.253590292e-07
8.253608358e-07
8.253626104e-07
8.253643319e-07
8.253659815e-07
8.253675389e-07
8.253689887e-07
8.253703126e-07
8.253715002e-07
8.253725294e-07
8.253733959e-07
8.253740803e-07
8.253745866e-07
8.25374907e-07
8.253750307e-07
8.253749609e-07
8.253747013e-07
8.253744965e-07
6.863288391e-07
8.248673079e-07
8.253341682e-07
8.253460064e-07
8.253462714e-07
8.253463694e-07
8.25346492e-07
8.253466538e-07
8.253469055e-07
8.25347353e-07
8.253483886e-07
8.253499884e-07
8.253516711e-07
8.253533988e-07
8.253551541e-07
8.25356918e-07
8.253586686e-07
8.253603899e-07
8.253620592e-07
8.253636599e-07
8.253651742e-07
8.253665832e-07
8.253678756e-07
8.253690333e-07
8.253700382e-07
8.253708848e-07
8.253715576e-07
8.253720568e-07
8.253723726e-07
8.253725029e-07
8.253724474e-07
8.253722055e-07
8.253720231e-07
6.863288034e-07
8.24867238e-07
8.253340264e-07
8.253458561e-07
8.253461169e-07
8.25346206e-07
8.253463088e-07
8.253464361e-07
8.253465999e-07
8.253468213e-07
8.253472312e-07
8.253480915e-07
8.2534967e-07
8.253513358e-07
8.253530302e-07
8.25354734e-07
8.253564275e-07
8.253580914e-07
8.253597067e-07
8.253612592e-07
8.253627256e-07
8.253640837e-07
8.253653343e-07
8.253664641e-07
8.253674439e-07
8.253682685e-07
8.253689267e-07
8.253694143e-07
8.253697266e-07
8.253698645e-07
8.253698261e-07
8.253695992e-07
8.253694388e-07
6.863287637e-07
8.248671752e-07
8.25333886e-07
8.253457086e-07
8.253459655e-07
8.253460467e-07
8.253461424e-07
8.253462541e-07
8.253463849e-07
8.253465464e-07
8.253467509e-07
8.253471014e-07
8.253477666e-07
8.253492285e-07
8.253508593e-07
8.253524998e-07
8.253541311e-07
8.253557365e-07
8.253572959e-07
8.253587908e-07
8.253602105e-07
8.253615417e-07
8.253627553e-07
8.253638419e-07
8.253647922e-07
8.253655944e-07
8.253662374e-07
8.253667191e-07
8.253670299e-07
8.253671619e-07
8.253671156e-07
8.253669068e-07
8.253667715e-07
6.86328723e-07
8.248671147e-07
8.253337502e-07
8.253455653e-07
8.253458165e-07
8.253458926e-07
8.25345982e-07
8.253460843e-07
8.253462019e-07
8.253463354e-07
8.253464911e-07
8.25346689e-07
8.253469858e-07
8.253474899e-07
8.253486766e-07
8.253502498e-07
8.253518181e-07
8.253533616e-07
8.253548639e-07
8.253563053e-07
8.253576722e-07
8.253589485e-07
8.25360119e-07
8.253611695e-07
8.253620889e-07
8.253628666e-07
8.253634934e-07
8.253639631e-07
8.253642672e-07
8.253644044e-07
8.253643738e-07
8.253641791e-07
8.25364065e-07
6.863286805e-07
8.248670603e-07
8.25333618e-07
8.253454275e-07
8.253456745e-07
8.25345746e-07
8.25345827e-07
8.253459221e-07
8.25346031e-07
8.253461524e-07
8.253462868e-07
8.253464386e-07
8.253466234e-07
8.253468623e-07
8.253472712e-07
8.253480581e-07
8.253495098e-07
8.253509925e-07
8.253524354e-07
8.253538202e-07
8.253551338e-07
8.253563605e-07
8.253574863e-07
8.253585041e-07
8.253593896e-07
8.253601377e-07
8.253607424e-07
8.253612001e-07
8.253615023e-07
8.253616424e-07
8.253616182e-07
8.253614374e-07
8.253613448e-07
6.863286386e-07
8.248670081e-07
8.253334912e-07
8.253452929e-07
8.253455361e-07
8.253456034e-07
8.253456802e-07
8.253457687e-07
8.253458688e-07
8.253459819e-07
8.253461043e-07
8.253462398e-07
8.253463859e-07
8.25346555e-07
8.253467604e-07
8.253470772e-07
8.253475671e-07
8.253486582e-07
8.253500384e-07
8.253513647e-07
8.253526269e-07
8.253538042e-07
8.253548839e-07
8.253558568e-07
8.253567111e-07
8.253574371e-07
8.253580233e-07
8.253584642e-07
8.25358754e-07
8.253588939e-07
8.253588827e-07
8.253587189e-07
8.253586479e-07
6.863285959e-07
8.24866959e-07
8.253333667e-07
8.253451636e-07
8.253454055e-07
8.25345469e-07
8.253455397e-07
8.253456243e-07
8.253457183e-07
8.253458208e-07
8.253459341e-07
8.253460577e-07
8.253461904e-07
8.25346332e-07
8.253464883e-07
8.253466712e-07
8.253469063e-07
8.253472662e-07
8.253478449e-07
8.253489827e-07
8.253501885e-07
8.253513172e-07
8.253523555e-07
8.25353293e-07
8.253541121e-07
8.253548068e-07
8.253553712e-07
8.253558001e-07
8.25356086e-07
8.253562276e-07
8.253562199e-07
8.253560671e-07
8.253560162e-07
6.86328555e-07
8.248669136e-07
8.253332523e-07
8.253450424e-07
8.253452803e-07
8.2534534e-07
8.253454101e-07
8.253454856e-07
8.253455738e-07
8.253456716e-07
8.253457777e-07
8.253458923e-07
8.253460156e-07
8.25346144e-07
8.253462812e-07
8.253464241e-07
8.253465855e-07
8.253467691e-07
8.253470268e-07
8.253473803e-07
8.253479405e-07
8.253489228e-07
8.253499126e-07
8.253508115e-07
8.253516041e-07
8.253522749e-07
8.2535282e-07
8.253532334e-07
8.253535079e-07
8.25353644e-07
8.253536437e-07
8.253535063e-07
8.253534754e-07
6.863285149e-07
8.248668728e-07
8.253331422e-07
8.25344929e-07
8.253451651e-07
8.253452211e-07
8.253452846e-07
8.253453596e-07
8.253454433e-07
8.253455332e-07
8.253456347e-07
8.253457418e-07
8.253458536e-07
8.253459728e-07
8.25346098e-07
8.25346228e-07
8.253463613e-07
8.253465034e-07
8.253466617e-07
8.253468394e-07
8.253470799e-07
8.253473782e-07
8.253477856e-07
8.253484736e-07
8.253492239e-07
8.253498672e-07
8.253503909e-07
8.253507908e-07
8.253510605e-07
8.253511976e-07
8.253512015e-07
8.253510734e-07
8.253510578e-07
6.863284765e-07
8.248668365e-07
8.253330418e-07
8.253448229e-07
8.25345057e-07
8.253451122e-07
8.253451734e-07
8.253452419e-07
8.253453201e-07
8.253454089e-07
8.253454999e-07
8.253456028e-07
8.253457093e-07
8.253458207e-07
8.253459365e-07
8.253460577e-07
8.253461776e-07
8.253463035e-07
8.253464283e-07
8.253465591e-07
8.253467043e-07
8.253468572e-07
8.253470516e-07
8.253472643e-07
8.253475044e-07
8.25347792e-07
8.253481539e-07
8.253485152e-07
8.253487742e-07
8.253489109e-07
8.25348919e-07
8.253488032e-07
8.253488094e-07
6.863284409e-07
8.248668032e-07
8.253329508e-07
8.253447274e-07
8.253449591e-07
8.253450108e-07
8.253450701e-07
8.253451362e-07
8.253452101e-07
8.253452917e-07
8.253453837e-07
8.253454768e-07
8.25345578e-07
8.25345683e-07
8.253457926e-07
8.253459038e-07
8.253460196e-07
8.253461332e-07
8.253462475e-07
8.253463606e-07
8.253464719e-07
8.253465848e-07
8.253467028e-07
8.253468195e-07
8.25346942e-07
8.253470765e-07
8.253471899e-07
8.253472849e-07
8.253473551e-07
8.253473856e-07
8.253473736e-07
8.253473195e-07
8.253474716e-07
6.8632841e-07
8.248667741e-07
8.253328701e-07
8.253446419e-07
8.253448719e-07
8.253449216e-07
8.25344977e-07
8.253450419e-07
8.253451137e-07
8.253451912e-07
8.253452753e-07
8.253453678e-07
8.253454622e-07
8.253455632e-07
8.253456664e-07
8.253457729e-07
8.25345879e-07
8.253459859e-07
8.25346094e-07
8.253461971e-07
8.253463004e-07
8.253463969e-07
8.253464889e-07
8.253465768e-07
8.253466615e-07
8.253467378e-07
8.25346802e-07
8.253468542e-07
8.253468879e-07
8.253469006e-07
8.253468903e-07
8.253468594e-07
8.253470557e-07
6.863283817e-07
8.248667477e-07
8.253327994e-07
8.253445698e-07
8.253447974e-07
8.253448445e-07
8.253448977e-07
8.253449586e-07
8.253450274e-07
8.253451031e-07
8.253451842e-07
8.253452705e-07
8.253453644e-07
8.253454582e-07
8.253455567e-07
8.253456581e-07
8.253457614e-07
8.253458617e-07
8.253459623e-07
8.253460619e-07
8.253461558e-07
8.253462464e-07
8.253463313e-07
8.25346407e-07
8.253464758e-07
8.25346535e-07
8.253465845e-07
8.25346622e-07
8.25346645e-07
8.253466529e-07
8.253466442e-07
8.253466226e-07
8.253468331e-07
6.863283577e-07
8.248667263e-07
8.253327372e-07
8.253445039e-07
8.253447328e-07
8.253447784e-07
8.253448292e-07
8.253448875e-07
8.253449535e-07
8.253450274e-07
8.25345106e-07
8.25345189e-07
8.253452767e-07
8.253453712e-07
8.25345464e-07
8.253455614e-07
8.253456596e-07
8.253457585e-07
8.253458529e-07
8.253459466e-07
8.253460368e-07
8.253461234e-07
8.253462016e-07
8.253462738e-07
8.253463386e-07
8.253463916e-07
8.253464346e-07
8.253464659e-07
8.253464852e-07
8.253464915e-07
8.253464849e-07
8.253464684e-07
8.253466869e-07
6.863283382e-07
8.248666894e-07
8.253325927e-07
8.253443505e-07
8.253445767e-07
8.25344623e-07
8.253446723e-07
8.253447294e-07
8.253447933e-07
8.253448636e-07
8.253449411e-07
8.253450219e-07
8.253451064e-07
8.253451957e-07
8.253452903e-07
8.253453819e-07
8.25345477e-07
8.25345571e-07
8.253456654e-07
8.253457542e-07
8.25345841e-07
8.253459227e-07
8.253459994e-07
8.253460677e-07
8.253461279e-07
8.253461793e-07
8.253462204e-07
8.253462511e-07
8.253462688e-07
8.25346275e-07
8.253462695e-07
8.25346254e-07
8.253464748e-07
6.863280891e-07
8.248646437e-07
8.253255986e-07
8.253370508e-07
8.253372679e-07
8.253373115e-07
8.253373611e-07
8.253374146e-07
8.25337476e-07
8.253375434e-07
8.253376168e-07
8.253376959e-07
8.253377781e-07
8.253378622e-07
8.253379516e-07
8.25338041e-07
8.253381315e-07
8.253382236e-07
8.253383108e-07
8.253383997e-07
8.25338481e-07
8.253385595e-07
8.253386315e-07
8.253386979e-07
8.253387557e-07
8.253388036e-07
8.253388424e-07
8.253388706e-07
8.253388879e-07
8.253388939e-07
8.253388889e-07
8.25338876e-07
8.253390989e-07
6.86289517e-07
8.247181785e-07
8.250237086e-07
8.250283746e-07
8.250284435e-07
8.250284629e-07
8.25028486e-07
8.250285118e-07
8.250285409e-07
8.250285731e-07
8.250286079e-07
8.250286455e-07
8.250286859e-07
8.25028729e-07
8.250287743e-07
8.250288216e-07
8.250288684e-07
8.250289159e-07
8.250289635e-07
8.250290099e-07
8.250290556e-07
8.25029099e-07
8.250291385e-07
8.250291742e-07
8.250292054e-07
8.250292322e-07
8.250292536e-07
8.250292686e-07
8.250292769e-07
8.250292789e-07
8.250292737e-07
8.250292652e-07
8.250294984e-07
6.492832836e-07
7.648311945e-07
7.649734226e-07
7.649744297e-07
7.649744436e-07
7.649744545e-07
7.649744675e-07
7.649744822e-07
7.649744985e-07
7.649745161e-07
7.649745354e-07
7.649745555e-07
7.649745759e-07
7.649745967e-07
7.649746181e-07
7.649746394e-07
7.649746601e-07
7.649746806e-07
7.649747001e-07
7.649747185e-07
7.649747354e-07
7.649747512e-07
7.649747654e-07
7.649747779e-07
7.649747884e-07
7.649747967e-07
7.649748025e-07
7.649748062e-07
7.649748079e-07
7.649748075e-07
7.64974805e-07
7.649748023e-07
7.649750431e-07
5.862164165e-07
1.38552138e-05
2.654444241e-05
2.708818824e-05
2.709903707e-05
2.709966716e-05
2.710021924e-05
2.710084591e-05
2.710154333e-05
2.710230353e-05
2.710311842e-05
2.710397885e-05
2.710487493e-05
2.710579703e-05
2.710673369e-05
2.710767386e-05
2.710860665e-05
2.710952053e-05
2.711040489e-05
2.711124843e-05
2.711204193e-05
2.711277262e-05
2.7113431e-05
2.7114015e-05
2.711451247e-05
2.711492418e-05
2.711523953e-05
2.711559914e-05
5.862162845e-07
1.385514858e-05
2.65442974e-05
2.708804192e-05
2.709889131e-05
2.709952209e-05
2.710007523e-05
2.710070331e-05
2.710140213e-05
2.710216421e-05
2.710298126e-05
2.710384418e-05
2.710474329e-05
2.71056687e-05
2.710660902e-05
2.71075534e-05
2.710849039e-05
2.710940976e-05
2.711029868e-05
2.711114845e-05
2.711194819e-05
2.711268465e-05
2.711335065e-05
2.711394155e-05
2.711444548e-05
2.711485911e-05
2.711517622e-05
2.71154028e-05
2.711564711e-05
2.711565644e-05
2.711556722e-05
2.711552763e-05
5.86216314e-07
1.385513549e-05
2.654421042e-05
2.708794741e-05
2.709879573e-05
2.709942541e-05
2.709997755e-05
2.710060466e-05
2.710130234e-05
2.710206347e-05
2.710287963e-05
2.710374194e-05
2.710464067e-05
2.710556614e-05
2.710650634e-05
2.710745157e-05
2.710838941e-05
2.710931066e-05
2.711020169e-05
2.711105458e-05
2.71118579e-05
2.711259945e-05
2.711327027e-05
2.711386549e-05
2.711437473e-05
2.711479429e-05
2.711511738e-05
2.711534116e-05
2.711546638e-05
2.7115483e-05
2.711540029e-05
2.711537144e-05
5.862163222e-07
1.385510413e-05
2.654405136e-05
2.70877756e-05
2.709862134e-05
2.709924813e-05
2.709979687e-05
2.710042002e-05
2.710111352e-05
2.710187056e-05
2.710268279e-05
2.710354108e-05
2.710443569e-05
2.710535802e-05
2.710629609e-05
2.710723855e-05
2.710817445e-05
2.710909339e-05
2.710998419e-05
2.711083665e-05
2.711164023e-05
2.71123849e-05
2.711305898e-05
2.711365562e-05
2.711416817e-05
2.711459497e-05
2.71149241e-05
2.711515264e-05
2.711528041e-05
2.711530237e-05
2.711522052e-05
2.711505104e-05
2.711505102e-05
5.86216276e-07
1.385505321e-05
2.654382238e-05
2.708752845e-05
2.709836982e-05
2.709899182e-05
2.709953515e-05
2.710015235e-05
2.710083924e-05
2.710158965e-05
2.710239481e-05
2.710324606e-05
2.710413389e-05
2.710504916e-05
2.710598084e-05
2.710691768e-05
2.710784854e-05
2.710876278e-05
2.710965065e-05
2.711049831e-05
2.71112981e-05
2.711203992e-05
2.711271521e-05
2.711331504e-05
2.711383009e-05
2.711425716e-05
2.711458976e-05
2.71148259e-05
2.711495631e-05
2.711498369e-05
2.71149079e-05
2.711473834e-05
2.711462812e-05
5.862162099e-07
1.385492417e-05
2.654350662e-05
2.708720651e-05
2.709804172e-05
2.709865717e-05
2.709919332e-05
2.709980226e-05
2.710048012e-05
2.710122103e-05
2.710201613e-05
2.710285676e-05
2.710373374e-05
2.710463768e-05
2.710555813e-05
2.710648469e-05
2.710740649e-05
2.710831211e-05
2.710919338e-05
2.711003633e-05
2.711083216e-05
2.711157086e-05
2.711224395e-05
2.711284396e-05
2.711336236e-05
2.711378917e-05
2.711412382e-05
2.711435807e-05
2.711449193e-05
2.711452696e-05
2.711445995e-05
2.711429728e-05
2.711419309e-05
5.862161455e-07
1.38543623e-05
2.654224397e-05
2.708666801e-05
2.709764376e-05
2.709825109e-05
2.709877739e-05
2.709937514e-05
2.710004067e-05
2.710076979e-05
2.710155229e-05
2.710238006e-05
2.710324375e-05
2.710413422e-05
2.710504162e-05
2.710595531e-05
2.710686491e-05
2.710775864e-05
2.710862879e-05
2.710946228e-05
2.711025001e-05
2.711098184e-05
2.711164944e-05
2.71122461e-05
2.711276265e-05
2.711318903e-05
2.711352459e-05
2.711376314e-05
2.711390123e-05
2.711394072e-05
2.711388181e-05
2.711372819e-05
2.711362977e-05
5.862160824e-07
1.385303059e-05
2.653813527e-05
2.708411184e-05
2.709685088e-05
2.709777789e-05
2.709829531e-05
2.709888262e-05
2.709953641e-05
2.710024898e-05
2.710101421e-05
2.710182461e-05
2.71026715e-05
2.710354539e-05
2.710443592e-05
2.710533333e-05
2.710622731e-05
2.710710613e-05
2.71079623e-05
2.710878335e-05
2.710956019e-05
2.711028281e-05
2.711094343e-05
2.711153297e-05
2.711204587e-05
2.711247031e-05
2.711280673e-05
2.711304675e-05
2.711318956e-05
2.7113234e-05
2.711317847e-05
2.711303016e-05
2.711294459e-05
5.862160086e-07
1.385108177e-05
2.653129167e-05
2.707802383e-05
2.709296192e-05
2.709662344e-05
2.709774943e-05
2.709832332e-05
2.70989607e-05
2.709965691e-05
2.710040441e-05
2.710119585e-05
2.710202294e-05
2.710287719e-05
2.710374831e-05
2.710462666e-05
2.710550217e-05
2.710636341e-05
2.710720279e-05
2.710800824e-05
2.710877106e-05
2.710948158e-05
2.711013265e-05
2.711071263e-05
2.711121989e-05
2.711164124e-05
2.711197484e-05
2.711221607e-05
2.711236125e-05
2.711240955e-05
2.711236153e-05
2.71122232e-05
2.711214738e-05
5.862159237e-07
1.38484743e-05
2.652218312e-05
2.706928162e-05
2.708516234e-05
2.709123329e-05
2.709616698e-05
2.709770703e-05
2.709833052e-05
2.709900718e-05
2.709973369e-05
2.710050295e-05
2.710130826e-05
2.710214096e-05
2.710298963e-05
2.710384557e-05
2.710469916e-05
2.710554e-05
2.710636046e-05
2.710714819e-05
2.710789472e-05
2.710859072e-05
2.710922946e-05
2.710979822e-05
2.711029733e-05
2.711071411e-05
2.711104301e-05
2.711128334e-05
2.711143103e-05
2.711148401e-05
2.711144238e-05
2.711131255e-05
2.711124594e-05
5.862158271e-07
1.38455207e-05
2.651138406e-05
2.705807745e-05
2.707466367e-05
2.708208844e-05
2.708925467e-05
2.70954817e-05
2.709764439e-05
2.709830711e-05
2.709901298e-05
2.709976114e-05
2.710054187e-05
2.710134847e-05
2.710217198e-05
2.710300324e-05
2.71038324e-05
2.710465039e-05
2.710544867e-05
2.710621593e-05
2.710694353e-05
2.71076225e-05
2.710824614e-05
2.71088024e-05
2.710929079e-05
2.710970148e-05
2.711002561e-05
2.711026356e-05
2.711041252e-05
2.711046912e-05
2.711043355e-05
2.711031253e-05
2.71102584e-05
5.862157109e-07
1.384227462e-05
2.64995046e-05
2.704568302e-05
2.706247913e-05
2.707001391e-05
2.707863359e-05
2.708702637e-05
2.709448944e-05
2.709755414e-05
2.709824947e-05
2.709897184e-05
2.709972674e-05
2.710050718e-05
2.710130423e-05
2.710210886e-05
2.710291185e-05
2.710370502e-05
2.710447871e-05
2.71052239e-05
2.710592996e-05
2.710658944e-05
2.710719546e-05
2.710773843e-05
2.710821392e-05
2.710861491e-05
2.710893451e-05
2.710917045e-05
2.710931904e-05
2.710937886e-05
2.710934794e-05
2.710923493e-05
2.710919122e-05
5.86215585e-07
1.383881014e-05
2.648669407e-05
2.703244728e-05
2.704899465e-05
2.705673167e-05
2.706545775e-05
2.70749347e-05
2.708447536e-05
2.70930741e-05
2.709738106e-05
2.709814979e-05
2.709887752e-05
2.709962977e-05
2.710039816e-05
2.710117475e-05
2.710194979e-05
2.710271566e-05
2.710346188e-05
2.710418071e-05
2.710486497e-05
2.710550483e-05
2.710609235e-05
2.710662099e-05
2.710708254e-05
2.710747218e-05
2.710778385e-05
2.710801523e-05
2.71081619e-05
2.710822287e-05
2.710819919e-05
2.71080953e-05
2.710806252e-05
5.862154472e-07
1.383528158e-05
2.647360886e-05
2.701842994e-05
2.703487619e-05
2.704259413e-05
2.705114084e-05
2.706076491e-05
2.707099227e-05
2.70816728e-05
2.709100667e-05
2.709702343e-05
2.709800622e-05
2.709872988e-05
2.709946837e-05
2.71002151e-05
2.710096165e-05
2.710169813e-05
2.710241618e-05
2.71031088e-05
2.710376782e-05
2.710438546e-05
2.710495299e-05
2.710546415e-05
2.710591109e-05
2.710628887e-05
2.7106592e-05
2.710681759e-05
2.710696296e-05
2.710702544e-05
2.710700511e-05
2.710690954e-05
2.710688909e-05
5.862152995e-07
1.383155297e-05
2.646000194e-05
2.700426423e-05
2.702070977e-05
2.702783751e-05
2.703615148e-05
2.704567692e-05
2.705606966e-05
2.706708053e-05
2.707830306e-05
2.708838582e-05
2.709610554e-05
2.709781002e-05
2.709852432e-05
2.709923973e-05
2.709995478e-05
2.710066307e-05
2.710135473e-05
2.710202206e-05
2.710265675e-05
2.710324956e-05
2.710379507e-05
2.71042879e-05
2.710471874e-05
2.710508387e-05
2.710537794e-05
2.710559831e-05
2.710574011e-05
2.710580446e-05
2.710578952e-05
2.710569985e-05
2.710568896e-05
5.862151497e-07
1.38278573e-05
2.644648685e-05
2.698989101e-05
2.700590695e-05
2.701301084e-05
2.702126125e-05
2.703017188e-05
2.704029934e-05
2.705130912e-05
2.706267979e-05
2.70743107e-05
2.708503561e-05
2.709408868e-05
2.709755812e-05
2.709826439e-05
2.709894932e-05
2.709962632e-05
2.710028882e-05
2.710092745e-05
2.710153547e-05
2.710210474e-05
2.71026288e-05
2.710310263e-05
2.710351706e-05
2.710386894e-05
2.710415307e-05
2.710436654e-05
2.710450568e-05
2.710456993e-05
2.710455849e-05
2.710447694e-05
2.710447755e-05
5.862149882e-07
1.382415505e-05
2.643282363e-05
2.697566673e-05
2.699150986e-05
2.69983176e-05
2.700594841e-05
2.701480965e-05
2.702455489e-05
2.703499232e-05
2.704626641e-05
2.705796747e-05
2.706964554e-05
2.708107917e-05
2.709071165e-05
2.709693378e-05
2.709794855e-05
2.709859963e-05
2.709923314e-05
2.709984355e-05
2.710042449e-05
2.710096893e-05
2.71014707e-05
2.710192301e-05
2.71023217e-05
2.710266043e-05
2.710293419e-05
2.710314058e-05
2.710327592e-05
2.710333983e-05
2.710333245e-05
2.710325887e-05
2.710327084e-05
5.862148314e-07
1.382050001e-05
2.64194941e-05
2.696145824e-05
2.697700977e-05
2.698362627e-05
2.699112649e-05
2.699951686e-05
2.700882415e-05
2.701920386e-05
2.702978479e-05
2.704131528e-05
2.705307078e-05
2.706481159e-05
2.707624122e-05
2.708628042e-05
2.709453754e-05
2.709756846e-05
2.709819758e-05
2.709878079e-05
2.709933704e-05
2.709985806e-05
2.710033872e-05
2.710077384e-05
2.710115583e-05
2.710148005e-05
2.710174303e-05
2.710194223e-05
2.710207424e-05
2.710213765e-05
2.710213173e-05
2.710206357e-05
2.710208449e-05
5.862146743e-07
1.381692415e-05
2.640627087e-05
2.694762186e-05
2.696308996e-05
2.696939746e-05
2.69764496e-05
2.698473645e-05
2.699375374e-05
2.700329164e-05
2.701374814e-05
2.702467325e-05
2.703595263e-05
2.70475897e-05
2.705935244e-05
2.707043396e-05
2.7081096e-05
2.708982733e-05
2.709624096e-05
2.709774111e-05
2.709828523e-05
2.709878239e-05
2.709924007e-05
2.709965579e-05
2.71000213e-05
2.710033219e-05
2.710058466e-05
2.710077664e-05
2.710090329e-05
2.710096645e-05
2.710096443e-05
2.710090328e-05
2.710093433e-05
5.862145214e-07
1.381354141e-05
2.639390976e-05
2.693448648e-05
2.694959588e-05
2.695560251e-05
2.696262356e-05
2.697017333e-05
2.697881785e-05
2.698825774e-05
2.69981942e-05
2.700869973e-05
2.701982537e-05
2.703076623e-05
2.704227486e-05
2.705359161e-05
2.706451406e-05
2.707477725e-05
2.70838004e-05
2.709143635e-05
2.709657391e-05
2.709774195e-05
2.709819305e-05
2.709859227e-05
2.709894125e-05
2.709923796e-05
2.709947974e-05
2.709966441e-05
2.709978829e-05
2.709985082e-05
2.709985049e-05
2.70997942e-05
2.709983402e-05
5.862143717e-07
1.381024007e-05
2.638186445e-05
2.692200054e-05
2.693698961e-05
2.694269654e-05
2.694915639e-05
2.695667175e-05
2.696496867e-05
2.697380304e-05
2.698358959e-05
2.699368448e-05
2.700394328e-05
2.701481111e-05
2.702564777e-05
2.70365818e-05
2.704742945e-05
2.705808105e-05
2.706781263e-05
2.707699543e-05
2.708466273e-05
2.709119369e-05
2.709589032e-05
2.709751984e-05
2.709791344e-05
2.709820417e-05
2.709843752e-05
2.709861515e-05
2.709873485e-05
2.709879607e-05
2.709879801e-05
2.709874692e-05
2.709879433e-05
5.862142295e-07
1.38072034e-05
2.637069186e-05
2.691014292e-05
2.692497425e-05
2.693066144e-05
2.693697534e-05
2.69439415e-05
2.695178991e-05
2.696055488e-05
2.696949302e-05
2.697938761e-05
2.698946848e-05
2.699967308e-05
2.701018924e-05
2.702091619e-05
2.703109605e-05
2.704155675e-05
2.705149375e-05
2.706074469e-05
2.706928679e-05
2.707704185e-05
2.708347635e-05
2.708891975e-05
2.709316424e-05
2.709601363e-05
2.709725163e-05
2.709759883e-05
2.709774119e-05
2.709780423e-05
2.709780962e-05
2.709776269e-05
2.709781403e-05
5.862140973e-07
1.380441763e-05
2.636049185e-05
2.689936858e-05
2.691396687e-05
2.691933335e-05
2.692549926e-05
2.69323374e-05
2.693984022e-05
2.694799288e-05
2.695702546e-05
2.69661227e-05
2.697586539e-05
2.698581449e-05
2.699589864e-05
2.700598579e-05
2.701636345e-05
2.70260406e-05
2.703563615e-05
2.704485038e-05
2.705366814e-05
2.706156958e-05
2.706855033e-05
2.707493801e-05
2.708016233e-05
2.708418803e-05
2.708748213e-05
2.708997369e-05
2.709156557e-05
2.709242107e-05
2.709263011e-05
2.709220087e-05
2.709115977e-05
5.862139798e-07
1.38019527e-05
2.635138121e-05
2.688968828e-05
2.690409952e-05
2.690924834e-05
2.691506761e-05
2.69217841e-05
2.692916534e-05
2.693700754e-05
2.694537213e-05
2.695445791e-05
2.696362455e-05
2.697327556e-05
2.698305139e-05
2.699287762e-05
2.700245725e-05
2.701209051e-05
2.702154466e-05
2.703025199e-05
2.70388853e-05
2.704664706e-05
2.705398678e-05
2.706027279e-05
2.7065772e-05
2.707041487e-05
2.70742513e-05
2.707699672e-05
2.707897458e-05
2.707999277e-05
2.708021345e-05
2.707963147e-05
2.707827315e-05
5.862138722e-07
1.379970867e-05
2.634336161e-05
2.688136552e-05
2.689556089e-05
2.690046239e-05
2.69060407e-05
2.691239496e-05
2.691951042e-05
2.692725267e-05
2.693540384e-05
2.694393297e-05
2.695309025e-05
2.696216848e-05
2.697158552e-05
2.698113835e-05
2.699067009e-05
2.699971035e-05
2.700874279e-05
2.701765616e-05
2.702564049e-05
2.703327637e-05
2.704047672e-05
2.704666285e-05
2.70523816e-05
2.705708939e-05
2.706086979e-05
2.706379104e-05
2.706580545e-05
2.706698095e-05
2.706713883e-05
2.70664485e-05
2.706504448e-05
5.86213781e-07
1.379783819e-05
2.633636353e-05
2.687392622e-05
2.688816069e-05
2.689290707e-05
2.689825772e-05
2.690435782e-05
2.691119629e-05
2.691876135e-05
2.692675611e-05
2.693504326e-05
2.694367003e-05
2.695282652e-05
2.696175705e-05
2.697099273e-05
2.698020728e-05
2.698932626e-05
2.699784577e-05
2.700626373e-05
2.701436149e-05
2.70219424e-05
2.702861927e-05
2.703480366e-05
2.704042608e-05
2.70449702e-05
2.704878319e-05
2.70517539e-05
2.705384856e-05
2.705497955e-05
2.705512973e-05
2.70543782e-05
2.705289894e-05
5.862136889e-07
1.379565476e-05
2.632569188e-05
2.686238009e-05
2.687638957e-05
2.688114221e-05
2.688633633e-05
2.68922857e-05
2.689890587e-05