/*--------------------------------*- C++ -*----------------------------------*\
  =========                 |
  \\      /  F ield         | OpenFOAM: The Open Source CFD Toolbox
   \\    /   O peration     | Website:  https://openfoam.org
    \\  /    A nd           | Version:  8
     \\/     M anipulation  |
\*---------------------------------------------------------------------------*/
FoamFile
{
    version     2.0;
    format      ascii;
    class       volScalarField;
    location    "0.1";
    object      htcConv;
}
// * * * * * * * * * * * * * * * * * * * * * * * * * * * * * * * * * * * * * //

dimensions      [1 0 -1 1 0 0 0];

internalField   uniform 0;

boundaryField
{
    walls
    {
        type            calculated;
        value           uniform 0;
    }
    region0_to_wallFilmRegion_wallFilmFace
    {
        type            convectiveHeatTransfer;
        L               1;
        value           nonuniform List<scalar> 
983
(
0.04501937246
0.02955988478
0.02799580908
0.04330200675
0.05504287686
0.06442675282
0.07219569467
0.07873605786
0.08425997232
0.08890442707
0.09274880898
0.09585179243
0.09825540192
0.09998734954
0.1010668555
0.1015137785
0.1013295289
0.1005178385
0.09908824097
0.09703209371
0.09433982906
0.09099174611
0.08696324662
0.08221638131
0.07668680185
0.0702836641
0.06287347765
0.05426795163
0.04435392025
0.03446524373
0.05090668103
0.04223450177
0.04135117949
0.0490713061
0.05824642841
0.06659716011
0.07386851406
0.08013977885
0.08550564548
0.09005156083
0.09383266193
0.09689367883
0.09926815462
0.1009801495
0.1020448894
0.1024805654
0.1022875547
0.1014694012
0.1000352868
0.09797703286
0.09528701028
0.09194689742
0.08793533523
0.0832222412
0.07775483813
0.07146460997
0.06427062817
0.05611655013
0.04726027619
0.03958095431
0.05800173875
0.0528185021
0.05237666312
0.05679372931
0.06336586827
0.07020242136
0.07658085496
0.08229330386
0.08728953342
0.0915796294
0.09517750698
0.09810389985
0.1003778614
0.1020135434
0.1030213041
0.1034149021
0.1031935995
0.1023590428
0.1009198409
0.09886890169
0.09620127866
0.09290278562
0.0889585204
0.08434992627
0.07904644468
0.07301935971
0.06626646572
0.05890301834
0.05153873719
0.04596418077
0.06511850428
0.06165187307
0.0613806051
0.06428764568
0.06910799086
0.07460943334
0.08006713578
0.08514663137
0.08969963877
0.09367148997
0.09703513647
0.09978602814
0.1019277152
0.103462498
0.1043944063
0.1047300321
0.1044702318
0.1036141981
0.1021675002
0.1001262096
0.09748808814
0.09424500624
0.09038966554
0.08591822484
0.08082467297
0.0751250726
0.06889527213
0.06238393739
0.05633415564
0.05212769409
0.07167285828
0.06914222303
0.06895567147
0.07106764724
0.07477003821
0.07925235817
0.0839110438
0.08839171242
0.09249995797
0.09613944513
0.0992509115
0.1018094852
0.1038035138
0.1052242434
0.1060697966
0.106340438
0.1060350242
0.1051529867
0.1036971499
0.1016663286
0.09906028421
0.09587852284
0.09212182755
0.08779951895
0.08293131297
0.0775716345
0.07185629379
0.06610661935
0.0610614183
0.05770265629
0.07753416216
0.07556325153
0.07542603245
0.07707278668
0.08004851476
0.08378812458
0.08780669039
0.09177171353
0.09547654097
0.0988036424
0.1016708513
0.1040388915
0.1058843374
0.1071897466
0.1079458405
0.1081489679
0.1077958799
0.1068854602
0.1054190119
0.103398006
0.1008230092
0.09770150629
0.09404313863
0.08986685562
0.08521545716
0.08017252937
0.07491253637
0.06978758483
0.06547456693
0.06265348612
0.08269952524
0.08108712575
0.08098163089
0.08233577297
0.08482501724
0.08802903796
0.09155394982
0.09509813829
0.09845917004
0.101511823
0.1041600915
0.106351708
0.1080592699
0.109255021
0.1099255934
0.1100637414
0.1096642797
0.1087247592
0.1072464996
0.1052332378
0.1026867074
0.09961902974
0.09605083189
0.09200803972
0.0875502207
0.08278353474
0.07790183233
0.07326508498
0.06948004172
0.06701150928
0.08719281982
0.08582034566
0.08573719386
0.08689909719
0.08905545677
0.09187412103
0.09502677321
0.09823973823
0.1013215637
0.1041425844
0.106605404
0.1086454497
0.1102303771
0.1113285826
0.1119229591
0.1120016439
0.111558986
0.1105918221
0.1091015625
0.1070929169
0.1045707045
0.101548342
0.09805628916
0.09412893246
0.0898342252
0.08529539465
0.08071742836
0.07645130729
0.07304477234
0.07081300565
0.09104038823
0.08983263729
0.08976603698
0.09079875544
0.09272498975
0.09526811814
0.0981451476
0.1011074125
0.1039703646
0.1066074072
0.1089179317
0.1108349662
0.1123186221
0.1133340062
0.1138631362
0.1138915508
0.1134109989
0.1124191688
0.1109166982
0.108908859
0.1064049773
0.1034211357
0.09998748414
0.09615261479
0.09199099727
0.08763109597
0.08328693841
0.07929779835
0.07616183569
0.07409008854
0.09426504378
0.09317096623
0.09311683707
0.09406287617
0.09583150708
0.09818176132
0.1008595768
0.1036402913
0.1063402104
0.1088384744
0.1110318871
0.1128530125
0.1142588687
0.1152095236
0.1156867143
0.1156743026
0.1151626679
0.1141498953
0.1126363534
0.1106267439
0.1081339834
0.1051779953
0.1017896853
0.09802207555
0.09396014951
0.08973666591
0.08556509089
0.08177641785
0.0788308885
0.07686790764
0.09688438943
0.0958668051
0.09582231211
0.09671221988
0.09837743759
0.1005992862
0.1031420345
0.1057970249
0.1083855411
0.1107871204
0.1128984682
0.1146512469
0.1160014885
0.1169068755
0.1173463319
0.1173034841
0.1167684498
0.1157384877
0.1142153078
0.1122018903
0.1097145248
0.1067752721
0.1034172135
0.09969649781
0.09570152476
0.09157254201
0.08752186343
0.08387141104
0.08105473527
0.07916336748
0.09891276001
0.09794227545
0.09790476804
0.09876151992
0.1003657011
0.1025109857
0.1049736527
0.1075519974
0.1100743021
0.1124189687
0.1144816676
0.1161944117
0.11751009
0.1183888171
0.1188057169
0.1187445665
0.1181926726
0.1171509285
0.1156190836
0.1136013152
0.111112435
0.1081796787
0.1048367817
0.1011423672
0.09718826186
0.0931142372
0.08913765578
0.08557272451
0.082836787
0.08098845807
0.1003591139
0.0994114984
0.09937893401
0.100220741
0.101799215
0.103912129
0.1063416422
0.1088891814
0.1113861061
0.1137096924
0.115757169
0.117455976
0.1187604158
0.1196298067
0.1200380655
0.1199701392
0.1194108854
0.1183617356
0.1168217152
0.114798421
0.1123052305
0.1093678559
0.1060263757
0.1023368468
0.09839699183
0.09434651254
0.09040186819
0.08687655728
0.08417924332
0.08235130025
0.1012309805
0.1002840138
0.1002519176
0.1010984304
0.1026803448
0.1048004511
0.1072395976
0.1097986641
0.1123095255
0.1146455664
0.1167078564
0.1184197968
0.119734761
0.1206126499
0.121026959
0.1209624059
0.1204049607
0.1193535094
0.1178082803
0.1157762455
0.1132740876
0.110325093
0.1069696637
0.1032691238
0.09931567659
0.09525698248
0.09130796687
0.0877819858
0.08508605042
0.08325792981
0.1015350242
0.1005661871
0.1005305652
0.1013965018
0.1030110302
0.1051754968
0.1076650307
0.1102760529
0.1128380626
0.115221477
0.1173259932
0.1190767245
0.1204236586
0.1213278631
0.12176244
0.1217117003
0.1211639885
0.1201154935
0.1185669585
0.1165268266
0.1140094454
0.1110414583
0.107659191
0.1039282332
0.09994025242
0.09584088282
0.09185128653
0.08828661405
0.08555903869
0.08371267046
0.1012747964
0.1002610741
0.1002192274
0.1011147411
0.1027915227
0.1050380035
0.1076186425
0.110321689
0.1129717047
0.1154355897
0.1176115626
0.1194251973
0.1208250146
0.1217726168
0.1222416971
0.1222154799
0.1216844719
0.1206451024
0.1190945084
0.1170448131
0.1145087029
0.1115124638
0.1080930502
0.10431252
0.1002666631
0.09609928833
0.09203268009
0.08839082984
0.08559749199
0.08371627085
0.1004533586
0.09936789951
0.09931297309
0.1002533803
0.1020218627
0.104390062
0.1071043694
0.1099405904
0.1127160158
0.1152932806
0.1175692099
0.1194695242
0.1209425402
0.1219505002
0.1224673739
0.1224768033
0.1219688147
0.1209430291
0.1193949506
0.1173335948
0.1147748027
0.1117418641
0.1082731335
0.104426909
0.1002981809
0.09603373536
0.09185502954
0.08809686461
0.08520078764
0.08326484111
0.09907232066
0.09788360162
0.09780689893
0.09880726319
0.1007015772
0.1032346914
0.1061286815
0.1091417604
0.1120816372
0.114806096
0.1172105344
0.1192212988
0.1207868784
0.1218711748
0.1224482918
0.1225033347
0.1220270619
0.1210167515
0.1194729998
0.1174004671
0.1148156513
0.1117387994
0.1082084826
0.1042807411
0.1000464022
0.09565242593
0.09132513961
0.08740724678
0.08436982465
0.08235626103
0.09713603636
0.09580220113
0.09569088406
0.09676828105
0.09883141494
0.1015779347
0.1047029827
0.1079401661
0.1110854235
0.1139916363
0.1165531502
0.1186976236
0.1203745619
0.1215506894
0.1222005134
0.1223102102
0.1218724535
0.1208829514
0.119343587
0.1172594648
0.1146439685
0.1115162702
0.1079129532
0.1038861382
0.09952480676
0.09496867974
0.0904511908
0.08632723396
0.08310159104
0.08098386184
0.09464615514
0.0931132771
0.09294879089
0.09412863329
0.0964073036
0.09942931383
0.1028446013
0.1063584545
0.1097526662
0.1128758368
0.1156226297
0.1179231896
0.1197294394
0.1210111007
0.1217441702
0.1219168388
0.1215231549
0.1205592413
0.1190261084
0.1169290662
0.1142800379
0.1110944993
0.1074073463
0.1032646171
0.09875110216
0.09400285824
0.08924861057
0.08486342066
0.08139427554
0.07913784465
0.09161092456
0.08980752436
0.08956415479
0.09087307057
0.09342792334
0.09680160456
0.1005778118
0.1044271919
0.1081168685
0.1114928332
0.1144524054
0.1169300036
0.1188816345
0.120281962
0.1211076088
0.1213499561
0.121005751
0.1200698112
0.1185440304
0.1164329194
0.1137477021
0.1104990182
0.1067163522
0.1024437679
0.09775360521
0.09277817168
0.08774136651
0.08302951991
0.07924672404
0.07680541371
0.08804710237
0.08586825887
0.08550779114
0.08697772836
0.08989626469
0.09371759258
0.09793907057
0.1021895917
0.1062230961
0.1098870138
0.1130848491
0.1157581266
0.1178685925
0.1193977012
0.1203243064
0.1206409806
0.1203501238
0.1194447645
0.1179277604
0.1158019173
0.1130751676
0.1097592012
0.1058741686
0.1014566838
0.0965682544
0.09132982677
0.08595760187
0.08084609603
0.07666195189
0.07397260302
0.08398072117
0.08127440082
0.08073259628
0.08242188014
0.08582362242
0.09021598746
0.09498307937
0.09970631947
0.1041323447
0.1081163903
0.1115738677
0.1144571299
0.1167366738
0.118400265
0.119433268
0.1198284394
0.1195924868
0.1187186002
0.1172099902
0.1150693509
0.1123009138
0.1089117279
0.1049155736
0.1003407161
0.09523553896
0.0897001355
0.08393415899
0.07833443821
0.07363357935
0.07060753061
0.07947622334
0.07601462489
0.07518270556
0.07717024645
0.08123127368
0.08635896294
0.09178729896
0.09705687457
0.1019194183
0.1062499035
0.1099823237
0.1130843505
0.1155380989
0.1173380979
0.1184776652
0.118953463
0.1187735485
0.1179318121
0.1164318241
0.1142750056
0.1114628668
0.1079996571
0.1038899374
0.09914925895
0.09381002581
0.08794778061
0.08173007982
0.07553926764
0.07016985833
0.06667287454
0.07466520624
0.07010019104
0.06878977429
0.07119435642
0.07618012142
0.08225884517
0.08847387091
0.09435398838
0.09968419396
0.1043741658
0.1083852842
0.1117057727
0.1143315804
0.1162659481
0.1175090603
0.1180626812
0.1179363482
0.1171259458
0.115634813
0.1134633365
0.1106080698
0.1070703716
0.1028465639
0.09793809958
0.09235737782
0.08614720286
0.07942760593
0.07253271919
0.06629775332
0.06212596299
0.06981496579
0.06362518434
0.06147084169
0.06451106426
0.07081236671
0.07809739323
0.08521341579
0.09174610702
0.09754929019
0.1025923161
0.106871044
0.110396903
0.1131828574
0.1152420015
0.1165806071
0.1172055609
0.1171285306
0.1163464486
0.1148626749
0.112676788
0.1097826924
0.1061765439
0.1018433948
0.09677141808
0.0909518972
0.08438625679
0.07712986991
0.06942274536
0.06206603057
0.05688926816
0.06544065042
0.05695510579
0.05323789356
0.05728765453
0.06546317482
0.07418016101
0.08224567587
0.08940997162
0.09565164194
0.1010109378
0.1055261119
0.1092331162
0.1121581322
0.1143246235
0.1157447915
0.1164303936
0.1163957165
0.1156380393
0.1141603405
0.1119617123
0.1090322786
0.1053638178
0.1009344157
0.09571656107
0.08967582096
0.08277033344
0.07497441963
0.06637831591
0.05760076172
0.05086080698
0.06239523973
0.05123949689
0.0447184612
0.05026774688
0.06082799404
0.07097426785
0.07987576717
0.08755719534
0.09414406831
0.09974912286
0.1044450235
0.1082887551
0.1113187325
0.1135688145
0.1150517835
0.1157830522
0.1157814569
0.1150431955
0.1135704006
0.1113611059
0.1084040736
0.1046855783
0.1001771837
0.09483814955
0.08861164824
0.08141292935
0.07312724625
0.06364775802
0.05318521411
0.04392061163
0.04893587631
0.03942645229
0.04583164704
0.05806366283
0.06906161436
0.07842477242
0.08638985278
0.09316474344
0.09890732366
0.1037054927
0.1076284676
0.1107211358
0.1130204626
0.1145437741
0.115304813
0.1153228833
0.1145958515
0.1131274569
0.1109126003
0.107936872
0.1041843858
0.09962169073
0.09419877912
0.08784046089
0.0804280782
0.0717695994
0.06155882581
0.0494075126
0.03611005624
0.05179799343
0.04308563263
0.04732178164
0.05830725726
0.06891810677
0.07814375504
0.08605629123
0.09281813652
0.09856096394
0.1033668518
0.1073002081
0.1104049584
0.1127156219
0.114249206
0.1150200484
0.1150462299
0.1143246963
0.1128575475
0.110640001
0.1076571583
0.1038908338
0.09930434988
0.09384340811
0.08742423889
0.07990836405
0.07106124436
0.0604554902
0.04723167196
0.02916099298
0.05798862321
0.05165190795
0.05356054447
0.06151176651
0.07061381196
0.07909991871
0.08661451709
0.09314673323
0.09874548694
0.1034583192
0.1073288995
0.1103922875
0.1126740431
0.1141884913
0.1149486397
0.1149670273
0.1142425458
0.1127755312
0.1105602233
0.1075829751
0.1038235017
0.0992464839
0.09379857026
0.08739626408
0.07990492571
0.07109696565
0.06056549894
0.04753419043
0.03027437588
0.06511676263
0.06045089484
0.06116018995
0.06651703369
0.07375819558
0.08114461669
0.08800199587
0.09411839091
0.09944433164
0.1039707796
0.1077091872
0.1106796388
0.1128938152
0.1143606313
0.1150888993
0.1150859828
0.1143509997
0.1128825757
0.1106745768
0.1077151385
0.1039838131
0.09944961702
0.09406601748
0.08775930421
0.0804198516
0.07187468773
0.06187057138
0.05019011593
0.03784673238
0.06857872123
0.07219431318
0.07778361783
0.0839907344
0.09005748039
0.09563820328
0.1005961512
0.1048607207
0.1084095361
0.1112425651
0.1133553492
0.1147489093
0.1154263011
0.115389794
0.1146375315
0.1131664861
0.11097046
0.10804075
0.1043571221
0.09989638506
0.09462245606
0.08848049273
0.08140112095
0.07329501673
0.06412035432
0.05422967401
0.04556639864
)
;
    }
    region0_to_wallFilmRegion_mirrorFace
    {
        type            convectiveHeatTransfer;
        L               1;
        value           nonuniform List<scalar> 
428
(
0.9472599567
1.037438798
1.090782795
1.128144224
1.158912059
1.184853238
1.20584735
1.221271893
1.230339286
1.112807348
1.166580506
1.208646476
1.245760893
1.279605256
1.309263413
1.33423808
1.353794065
1.366629278
1.290300872
1.300835716
1.344156717
1.394321374
1.440180543
1.478888832
1.512117868
1.540785391
1.56234446
2.063952544
2.101461442
2.145317563
2.184555806
2.166168339
2.021158723
1.862105584
1.712154298
1.607582758
0.9743821578
1.015232105
0.9914826252
0.9292463492
0.9676185233
0.9451531088
0.8850754013
0.925561754
0.9120971467
0.8557197652
0.9026205215
0.9131975837
0.9797491561
0.9849775361
1.097203232
1.242779174
1.167824958
1.138518771
1.198984852
1.343330487
1.331572948
1.565857755
1.597933162
1.85113887
0.5117220228
0.6930120693
0.4958934352
0.3912026545
0.4503981819
0.3857427857
0.3258020046
0.3555165611
0.3434204077
0.3140457124
0.3431719298
0.348659419
0.3226384728
0.3562656831
0.3642403691
0.3345165938
0.3718028945
0.3786900403
0.3451944194
0.3848038887
0.3901866038
0.4772876729
0.6447796031
0.4580921665
0.3855305736
0.4293976908
0.3981338759
0.3714185204
0.4006988112
0.4125250583
0.3901638395
0.4267133463
0.4404542419
0.4103631839
0.452675406
0.4633656381
0.426442275
0.4725736427
0.4804436923
0.4384495239
0.4871419901
0.4927801796
0.4440287748
0.5809145817
0.4586565359
0.4316345468
0.4788109683
0.5033562826
0.4687507229
0.5290406442
0.5515928987
0.5019797105
0.5703328354
0.5860219514
0.5264871881
0.5993496299
0.610674427
0.5442894131
0.6203439994
0.6285735732
0.5569274832
0.6355157783
0.6412697956
1.03253386
1.121274405
1.082099501
0.9770215314
1.045573089
1.013399687
0.9474910941
0.9875621064
0.9844290006
1.139634193
1.261380006
1.198106031
1.057971645
1.146708078
1.104848995
1.02975218
1.077120098
1.072504718
1.247610902
1.35434149
1.278368805
1.147426519
1.239532362
1.200494152
1.287824666
1.407826884
0.9951920176
0.7113831998
0.4628681257
0.3499551839
0.315500076
0.3173067632
0.3286034795
0.3400754044
0.9521025524
0.6709010399
0.4376789262
0.3706324781
0.3796514794
0.4006670109
0.4189515244
0.4329124904
0.9065252824
0.6138666857
0.4345320446
0.4491836175
0.4864893802
0.5152091177
0.5361122951
0.5511854922
0.8666706717
0.5363136699
0.5202035634
0.5853554569
0.627391744
0.656079001
0.6769216449
0.6922395132
1.062685176
1.003354485
0.9557004521
0.9400684823
1.190163521
1.095201315
1.030566944
1.062761317
1.3223826
1.19408474
1.11838843
1.318689481
1.345687709
1.395868478
1.367359286
1.466292764
1.518378456
1.551357935
1.61646179
1.667988917
1.667122188
1.713213437
1.768002032
1.75909194
1.800619521
1.892267337
1.289411384
1.440564987
1.700665402
1.555385747
1.809079831
1.80479384
1.88481137
1.904716551
1.950430237
2.901377446
2.663288002
2.716774752
2.742191769
2.118395309
1.632046481
1.196094424
0.7933657925
0.4826564433
0.6276961651
0.6700627983
0.9974735251
1.020925477
1.055132637
0.5563043937
0.7348361699
0.7736092129
1.067181488
1.084476769
1.109237331
0.6085264669
0.8036891675
0.8270446845
1.110601652
1.13024681
1.14863973
0.6429516451
0.8463754643
0.8629208096
1.144154669
1.165427083
1.181156853
0.6672870911
0.8773834763
0.8901204469
1.172483695
1.195851284
1.209503206
0.6851956469
0.9013248786
0.9110999604
1.195999956
1.222100352
1.233726817
0.6981277565
0.9194881238
0.9264936128
1.21430059
1.24418368
1.253266758
1.226653031
1.260877259
1.266872963
1.271161394
1.142188599
1.211399559
1.229192886
1.188463717
1.249074214
1.269333566
1.22756573
1.29010436
1.311249713
1.26316081
1.332245752
1.352367868
1.295007302
1.371463055
1.389321836
1.322410113
1.405854976
1.420963712
1.34472862
1.434763611
1.447372259
1.361163327
1.458587639
1.468234423
1.369843411
1.475658471
1.480269882
1.285642228
1.25286978
1.290137422
1.322899268
1.320421642
1.282668461
1.364331797
1.369444618
1.40281343
1.438763941
1.471564165
1.418141049
1.46036634
1.50038036
1.526001544
1.54965287
1.572188825
1.496022091
1.594095173
1.615201759
1.5271232
1.552792658
1.635785247
1.654947238
1.670983359
1.683061551
1.568765816
1.526819978
1.367271873
1.506984839
1.414907587
1.466820007
1.648025054
1.687197933
1.604845436
1.72008179
1.768659564
1.693712285
1.787177272
1.717933621
1.742214576
1.845016009
1.871381653
1.827482417
1.902209745
1.97438155
1.919410702
2.009921375
1.325442442
1.417604232
1.510868757
1.564877378
1.586346415
1.638823124
1.642961427
1.690353848
1.735988433
1.796389445
1.78134228
1.860494363
1.815363581
2.057777065
1.914966816
1.91721945
2.12497826
1.734031848
1.958985288
1.773647428
1.988366859
2.013936529
2.036724322
1.860562441
2.051137496
2.055622845
1.883477103
2.046748335
1.885261205
2.01683994
1.98357803
1.94652378
1.784852687
1.886235654
1.909792244
1.875758859
1.846993762
1.923373605
1.826975984
1.647592736
1.823692128
1.85705984
1.68795621
1.602754319
1.838308014
1.746870162
1.875564581
1.823360264
1.884262515
1.892663995
1.937182148
1.988469789
2.456575043
2.526712474
2.741616099
2.548976428
2.493205031
2.685883047
2.464482576
2.483318277
2.169413306
2.76277091
2.496637441
2.501487354
2.186923948
2.356251264
2.461557778
2.237817722
2.092002721
1.870603121
2.07783367
1.905642965
1.941421764
1.409408749
1.74326112
1.588813534
0.9858744176
1.438703603
1.286700176
1.648404895
0.7818294189
1.122703675
0.9424278028
)
;
    }
    procBoundary0to1
    {
        type            processor;
        value           uniform 0;
    }
    procBoundary0to2
    {
        type            processor;
        value           uniform 0;
    }
    procBoundary0to3
    {
        type            processor;
        value           uniform 0;
    }
}


// ************************************************************************* //
