/*--------------------------------*- C++ -*----------------------------------*\
  =========                 |
  \\      /  F ield         | OpenFOAM: The Open Source CFD Toolbox
   \\    /   O peration     | Website:  https://openfoam.org
    \\  /    A nd           | Version:  8
     \\/     M anipulation  |
\*---------------------------------------------------------------------------*/
FoamFile
{
    version     2.0;
    format      ascii;
    class       volScalarField;
    location    "0.1";
    object      N2;
}
// * * * * * * * * * * * * * * * * * * * * * * * * * * * * * * * * * * * * * //

dimensions      [0 0 0 0 0 0 0];

internalField   nonuniform List<scalar> 
67286
(
0.7899935191
0.7899935224
0.7899935246
0.7899935245
0.7899935243
0.7899935241
0.7899935239
0.7899935235
0.7899935232
0.7899935228
0.7899935224
0.789993522
0.7899935216
0.7899935211
0.7899935206
0.7899935201
0.7899935196
0.7899935191
0.7899935186
0.7899935181
0.7899935177
0.7899935172
0.7899935167
0.7899935163
0.7899935159
0.7899935154
0.789993515
0.7899935146
0.7899935187
0.789993522
0.7899935242
0.7899935241
0.7899935239
0.7899935237
0.7899935235
0.7899935232
0.7899935228
0.7899935225
0.7899935221
0.7899935216
0.7899935212
0.7899935207
0.7899935202
0.7899935198
0.7899935193
0.7899935188
0.7899935183
0.7899935178
0.7899935173
0.7899935168
0.7899935164
0.7899935159
0.7899935155
0.7899935151
0.7899935147
0.7899935143
0.7899935138
0.7899935135
0.7899935131
0.7899935128
0.7899935182
0.7899935215
0.7899935237
0.7899935237
0.7899935235
0.7899935233
0.789993523
0.7899935227
0.7899935224
0.789993522
0.7899935216
0.7899935212
0.7899935208
0.7899935203
0.7899935198
0.7899935193
0.7899935188
0.7899935184
0.7899935179
0.7899935174
0.7899935169
0.7899935164
0.789993516
0.7899935155
0.7899935151
0.7899935147
0.7899935143
0.7899935139
0.7899935135
0.7899935132
0.7899935129
0.7899935126
0.7899935178
0.7899935211
0.7899935233
0.7899935232
0.7899935231
0.7899935229
0.7899935226
0.7899935223
0.789993522
0.7899935216
0.7899935212
0.7899935208
0.7899935204
0.7899935199
0.7899935194
0.7899935189
0.7899935185
0.789993518
0.7899935175
0.789993517
0.7899935165
0.789993516
0.7899935155
0.7899935151
0.7899935147
0.7899935142
0.7899935138
0.7899935135
0.7899935131
0.7899935128
0.7899935125
0.7899935121
0.7899935118
0.7899935174
0.7899935207
0.7899935229
0.7899935228
0.7899935227
0.7899935225
0.7899935222
0.7899935219
0.7899935216
0.7899935212
0.7899935208
0.7899935204
0.78999352
0.7899935195
0.789993519
0.7899935186
0.7899935181
0.7899935176
0.7899935171
0.7899935166
0.7899935161
0.7899935156
0.7899935152
0.7899935147
0.7899935143
0.7899935139
0.7899935135
0.7899935131
0.7899935127
0.7899935124
0.7899935121
0.7899935118
0.7899935115
0.789993517
0.7899935203
0.7899935225
0.7899935224
0.7899935223
0.7899935221
0.7899935218
0.7899935215
0.7899935212
0.7899935208
0.7899935205
0.78999352
0.7899935196
0.7899935192
0.7899935187
0.7899935182
0.7899935177
0.7899935172
0.7899935167
0.7899935162
0.7899935158
0.7899935153
0.7899935148
0.7899935144
0.7899935139
0.7899935135
0.7899935131
0.7899935127
0.7899935124
0.7899935121
0.7899935117
0.7899935114
0.7899935111
0.7899935166
0.7899935199
0.7899935221
0.7899935221
0.7899935219
0.7899935217
0.7899935214
0.7899935212
0.7899935208
0.7899935205
0.7899935201
0.7899935197
0.7899935193
0.7899935188
0.7899935184
0.7899935179
0.7899935174
0.7899935169
0.7899935164
0.7899935159
0.7899935154
0.789993515
0.7899935145
0.789993514
0.7899935136
0.7899935132
0.7899935128
0.7899935124
0.789993512
0.7899935117
0.7899935114
0.7899935111
0.7899935108
0.7899935163
0.7899935196
0.7899935218
0.7899935217
0.7899935216
0.7899935213
0.7899935211
0.7899935208
0.7899935205
0.7899935202
0.7899935198
0.7899935194
0.7899935189
0.7899935185
0.789993518
0.7899935176
0.7899935171
0.7899935166
0.7899935161
0.7899935156
0.7899935151
0.7899935147
0.7899935142
0.7899935137
0.7899935133
0.7899935129
0.7899935125
0.7899935121
0.7899935117
0.7899935114
0.7899935111
0.7899935108
0.7899935105
0.7899935159
0.7899935192
0.7899935214
0.7899935214
0.7899935212
0.789993521
0.7899935208
0.7899935205
0.7899935202
0.7899935198
0.7899935195
0.7899935191
0.7899935187
0.7899935182
0.7899935178
0.7899935173
0.7899935168
0.7899935163
0.7899935158
0.7899935154
0.7899935149
0.7899935144
0.7899935139
0.7899935135
0.789993513
0.7899935126
0.7899935122
0.7899935118
0.7899935115
0.7899935111
0.7899935108
0.7899935105
0.7899935102
0.7899935156
0.7899935189
0.7899935211
0.7899935211
0.7899935209
0.7899935207
0.7899935205
0.7899935202
0.7899935199
0.7899935196
0.7899935192
0.7899935188
0.7899935184
0.789993518
0.7899935175
0.789993517
0.7899935166
0.7899935161
0.7899935156
0.7899935151
0.7899935146
0.7899935142
0.7899935137
0.7899935132
0.7899935128
0.7899935124
0.789993512
0.7899935116
0.7899935112
0.7899935109
0.7899935106
0.7899935102
0.7899935099
0.7899935154
0.7899935187
0.7899935208
0.7899935208
0.7899935206
0.7899935204
0.7899935202
0.7899935199
0.7899935196
0.7899935193
0.7899935189
0.7899935185
0.7899935181
0.7899935177
0.7899935173
0.7899935168
0.7899935163
0.7899935158
0.7899935154
0.7899935149
0.7899935144
0.7899935139
0.7899935135
0.789993513
0.7899935126
0.7899935122
0.7899935118
0.7899935114
0.789993511
0.7899935107
0.7899935103
0.78999351
0.7899935097
0.7899935151
0.7899935184
0.7899935206
0.7899935205
0.7899935204
0.7899935202
0.7899935199
0.7899935197
0.7899935194
0.789993519
0.7899935187
0.7899935183
0.7899935179
0.7899935175
0.789993517
0.7899935166
0.7899935161
0.7899935156
0.7899935152
0.7899935147
0.7899935142
0.7899935137
0.7899935133
0.7899935128
0.7899935124
0.789993512
0.7899935116
0.7899935112
0.7899935108
0.7899935105
0.7899935101
0.7899935098
0.7899935095
0.7899935148
0.7899935181
0.7899935203
0.7899935203
0.7899935201
0.7899935199
0.7899935197
0.7899935194
0.7899935191
0.7899935188
0.7899935185
0.7899935181
0.7899935177
0.7899935173
0.7899935168
0.7899935164
0.7899935159
0.7899935155
0.789993515
0.7899935145
0.789993514
0.7899935136
0.7899935131
0.7899935127
0.7899935122
0.7899935118
0.7899935114
0.789993511
0.7899935107
0.7899935103
0.78999351
0.7899935096
0.7899935093
0.7899935146
0.7899935179
0.7899935201
0.7899935201
0.7899935199
0.7899935197
0.7899935195
0.7899935192
0.7899935189
0.7899935186
0.7899935183
0.7899935179
0.7899935175
0.7899935171
0.7899935167
0.7899935162
0.7899935158
0.7899935153
0.7899935148
0.7899935143
0.7899935139
0.7899935134
0.789993513
0.7899935125
0.7899935121
0.7899935117
0.7899935113
0.7899935109
0.7899935105
0.7899935102
0.7899935098
0.7899935095
0.7899935092
0.7899935144
0.7899935177
0.7899935199
0.7899935199
0.7899935197
0.7899935195
0.7899935193
0.789993519
0.7899935187
0.7899935184
0.7899935181
0.7899935177
0.7899935173
0.7899935169
0.7899935165
0.789993516
0.7899935156
0.7899935151
0.7899935147
0.7899935142
0.7899935137
0.7899935133
0.7899935128
0.7899935124
0.789993512
0.7899935115
0.7899935111
0.7899935108
0.7899935104
0.78999351
0.7899935097
0.7899935093
0.789993509
0.7899935142
0.7899935175
0.7899935197
0.7899935197
0.7899935195
0.7899935193
0.7899935191
0.7899935189
0.7899935186
0.7899935183
0.7899935179
0.7899935175
0.7899935172
0.7899935168
0.7899935163
0.7899935159
0.7899935155
0.789993515
0.7899935145
0.7899935141
0.7899935136
0.7899935132
0.7899935127
0.7899935123
0.7899935119
0.7899935114
0.789993511
0.7899935106
0.7899935103
0.7899935099
0.7899935096
0.7899935092
0.7899935089
0.789993514
0.7899935173
0.7899935195
0.7899935195
0.7899935193
0.7899935192
0.7899935189
0.7899935187
0.7899935184
0.7899935181
0.7899935178
0.7899935174
0.789993517
0.7899935166
0.7899935162
0.7899935158
0.7899935153
0.7899935149
0.7899935144
0.789993514
0.7899935135
0.7899935131
0.7899935126
0.7899935122
0.7899935118
0.7899935113
0.7899935109
0.7899935106
0.7899935102
0.7899935098
0.7899935095
0.7899935091
0.7899935088
0.7899935139
0.7899935172
0.7899935194
0.7899935193
0.7899935192
0.789993519
0.7899935188
0.7899935185
0.7899935183
0.789993518
0.7899935176
0.7899935173
0.7899935169
0.7899935165
0.7899935161
0.7899935157
0.7899935152
0.7899935148
0.7899935143
0.7899935139
0.7899935134
0.789993513
0.7899935125
0.7899935121
0.7899935117
0.7899935113
0.7899935109
0.7899935105
0.7899935101
0.7899935098
0.7899935094
0.789993509
0.7899935087
0.7899935137
0.789993517
0.7899935192
0.7899935192
0.789993519
0.7899935189
0.7899935186
0.7899935184
0.7899935181
0.7899935178
0.7899935175
0.7899935172
0.7899935168
0.7899935164
0.789993516
0.7899935156
0.7899935151
0.7899935147
0.7899935142
0.7899935138
0.7899935133
0.7899935129
0.7899935125
0.789993512
0.7899935116
0.7899935112
0.7899935108
0.7899935104
0.78999351
0.7899935097
0.7899935093
0.789993509
0.7899935086
0.7899935136
0.7899935169
0.7899935191
0.789993519
0.7899935189
0.7899935187
0.7899935185
0.7899935183
0.789993518
0.7899935177
0.7899935174
0.789993517
0.7899935167
0.7899935163
0.7899935159
0.7899935155
0.789993515
0.7899935146
0.7899935142
0.7899935137
0.7899935133
0.7899935128
0.7899935124
0.789993512
0.7899935116
0.7899935112
0.7899935108
0.7899935104
0.78999351
0.7899935096
0.7899935093
0.7899935089
0.7899935086
0.7899935134
0.7899935167
0.7899935189
0.7899935189
0.7899935188
0.7899935186
0.7899935184
0.7899935182
0.7899935179
0.7899935176
0.7899935173
0.789993517
0.7899935166
0.7899935162
0.7899935158
0.7899935154
0.789993515
0.7899935146
0.7899935141
0.7899935137
0.7899935132
0.7899935128
0.7899935124
0.7899935119
0.7899935115
0.7899935111
0.7899935107
0.7899935103
0.78999351
0.7899935096
0.7899935092
0.7899935089
0.7899935085
0.7899935133
0.7899935166
0.7899935188
0.7899935188
0.7899935187
0.7899935185
0.7899935183
0.7899935181
0.7899935178
0.7899935175
0.7899935172
0.7899935169
0.7899935165
0.7899935161
0.7899935157
0.7899935153
0.7899935149
0.7899935145
0.7899935141
0.7899935136
0.7899935132
0.7899935128
0.7899935123
0.7899935119
0.7899935115
0.7899935111
0.7899935107
0.7899935103
0.7899935099
0.7899935096
0.7899935092
0.7899935088
0.7899935085
0.7899935132
0.7899935165
0.7899935187
0.7899935187
0.7899935186
0.7899935184
0.7899935182
0.789993518
0.7899935177
0.7899935174
0.7899935171
0.7899935168
0.7899935165
0.7899935161
0.7899935157
0.7899935153
0.7899935149
0.7899935145
0.789993514
0.7899935136
0.7899935132
0.7899935127
0.7899935123
0.7899935119
0.7899935115
0.7899935111
0.7899935107
0.7899935103
0.7899935099
0.7899935095
0.7899935092
0.7899935088
0.7899935085
0.7899935131
0.7899935164
0.7899935186
0.7899935186
0.7899935185
0.7899935183
0.7899935181
0.7899935179
0.7899935177
0.7899935174
0.7899935171
0.7899935167
0.7899935164
0.789993516
0.7899935156
0.7899935152
0.7899935148
0.7899935144
0.789993514
0.7899935136
0.7899935131
0.7899935127
0.7899935123
0.7899935119
0.7899935114
0.789993511
0.7899935107
0.7899935103
0.7899935099
0.7899935095
0.7899935092
0.7899935088
0.7899935084
0.7899935131
0.7899935164
0.7899935186
0.7899935186
0.7899935184
0.7899935183
0.7899935181
0.7899935178
0.7899935176
0.7899935173
0.789993517
0.7899935167
0.7899935163
0.789993516
0.7899935156
0.7899935152
0.7899935148
0.7899935144
0.789993514
0.7899935135
0.7899935131
0.7899935127
0.7899935123
0.7899935118
0.7899935114
0.789993511
0.7899935106
0.7899935103
0.7899935099
0.7899935095
0.7899935092
0.7899935088
0.7899935084
0.789993513
0.7899935163
0.7899935185
0.7899935185
0.7899935184
0.7899935182
0.789993518
0.7899935178
0.7899935175
0.7899935173
0.789993517
0.7899935166
0.7899935163
0.7899935159
0.7899935156
0.7899935152
0.7899935148
0.7899935144
0.7899935139
0.7899935135
0.7899935131
0.7899935127
0.7899935122
0.7899935118
0.7899935114
0.789993511
0.7899935106
0.7899935103
0.7899935099
0.7899935095
0.7899935092
0.7899935088
0.7899935084
0.7899935129
0.7899935163
0.7899935185
0.7899935184
0.7899935183
0.7899935182
0.789993518
0.7899935177
0.7899935175
0.7899935172
0.7899935169
0.7899935166
0.7899935163
0.7899935159
0.7899935155
0.7899935152
0.7899935147
0.7899935143
0.7899935139
0.7899935135
0.7899935131
0.7899935127
0.7899935122
0.7899935118
0.7899935114
0.789993511
0.7899935106
0.7899935103
0.7899935099
0.7899935095
0.7899935092
0.7899935088
0.7899935084
0.7899935129
0.7899935162
0.7899935184
0.7899935184
0.7899935182
0.7899935181
0.7899935179
0.7899935177
0.7899935174
0.7899935171
0.7899935168
0.7899935165
0.7899935162
0.7899935158
0.7899935155
0.7899935151
0.7899935147
0.7899935143
0.7899935138
0.7899935134
0.789993513
0.7899935126
0.7899935122
0.7899935118
0.7899935114
0.789993511
0.7899935106
0.7899935102
0.7899935098
0.7899935095
0.7899935091
0.7899935087
0.7899935084
0.7899935129
0.7899935155
0.7899935165
0.7899935164
0.7899935163
0.7899935161
0.7899935159
0.7899935157
0.7899935155
0.7899935152
0.7899935149
0.7899935146
0.7899935143
0.7899935139
0.7899935135
0.7899935131
0.7899935127
0.7899935123
0.7899935119
0.7899935115
0.7899935111
0.7899935107
0.7899935102
0.7899935098
0.7899935094
0.789993509
0.7899935087
0.7899935083
0.7899935079
0.7899935076
0.7899935072
0.7899935068
0.7899935065
0.7899935128
0.7899935128
0.7899935128
0.7899935127
0.7899935126
0.7899935124
0.7899935122
0.789993512
0.7899935118
0.7899935115
0.7899935112
0.7899935109
0.7899935105
0.7899935102
0.7899935098
0.7899935094
0.789993509
0.7899935086
0.7899935082
0.7899935078
0.7899935074
0.789993507
0.7899935066
0.7899935061
0.7899935058
0.7899935054
0.789993505
0.7899935046
0.7899935042
0.7899935039
0.7899935035
0.7899935031
0.7899935028
0.7899938889
0.7899938908
0.7899938951
0.7899938954
0.7899938953
0.789993895
0.7899938948
0.7899938945
0.7899938941
0.7899938938
0.7899938934
0.789993893
0.7899938925
0.789993892
0.7899938916
0.7899938911
0.7899938906
0.7899938901
0.7899938896
0.7899938891
0.7899938886
0.7899938882
0.7899938877
0.7899938873
0.7899938868
0.7899938864
0.789993886
0.7899938858
0.7899938885
0.7899938903
0.7899938945
0.7899938949
0.7899938947
0.7899938945
0.7899938943
0.789993894
0.7899938936
0.7899938933
0.7899938929
0.7899938925
0.789993892
0.7899938916
0.7899938911
0.7899938906
0.7899938901
0.7899938896
0.7899938891
0.7899938886
0.7899938881
0.7899938877
0.7899938872
0.7899938868
0.7899938864
0.7899938859
0.7899938855
0.7899938851
0.7899938848
0.7899938845
0.7899938841
0.789993884
0.7899938881
0.7899938899
0.7899938941
0.7899938945
0.7899938943
0.7899938941
0.7899938938
0.7899938935
0.7899938932
0.7899938928
0.7899938925
0.789993892
0.7899938916
0.7899938911
0.7899938907
0.7899938902
0.7899938897
0.7899938892
0.7899938887
0.7899938882
0.7899938877
0.7899938873
0.7899938868
0.7899938864
0.7899938859
0.7899938855
0.7899938851
0.7899938847
0.7899938844
0.789993884
0.7899938837
0.7899938835
0.7899938876
0.7899938895
0.7899938937
0.789993894
0.7899938939
0.7899938937
0.7899938934
0.7899938931
0.7899938928
0.7899938924
0.789993892
0.7899938916
0.7899938912
0.7899938907
0.7899938903
0.7899938898
0.7899938893
0.7899938888
0.7899938883
0.7899938878
0.7899938873
0.7899938869
0.7899938864
0.789993886
0.7899938855
0.7899938851
0.7899938847
0.7899938843
0.789993884
0.7899938837
0.7899938833
0.7899938829
0.7899938829
0.7899938872
0.7899938891
0.7899938933
0.7899938936
0.7899938935
0.7899938933
0.789993893
0.7899938927
0.7899938924
0.789993892
0.7899938917
0.7899938913
0.7899938908
0.7899938904
0.7899938899
0.7899938894
0.7899938889
0.7899938884
0.7899938879
0.7899938875
0.789993887
0.7899938865
0.789993886
0.7899938856
0.7899938851
0.7899938847
0.7899938843
0.7899938839
0.7899938836
0.7899938833
0.789993883
0.7899938826
0.7899938825
0.7899938868
0.7899938887
0.7899938929
0.7899938932
0.7899938931
0.7899938929
0.7899938926
0.7899938923
0.789993892
0.7899938917
0.7899938913
0.7899938909
0.7899938904
0.78999389
0.7899938895
0.7899938891
0.7899938886
0.7899938881
0.7899938876
0.7899938871
0.7899938866
0.7899938861
0.7899938857
0.7899938852
0.7899938848
0.7899938844
0.789993884
0.7899938836
0.7899938832
0.7899938829
0.7899938826
0.7899938822
0.7899938821
0.7899938865
0.7899938883
0.7899938925
0.7899938929
0.7899938927
0.7899938925
0.7899938923
0.789993892
0.7899938917
0.7899938913
0.7899938909
0.7899938905
0.7899938901
0.7899938897
0.7899938892
0.7899938887
0.7899938882
0.7899938878
0.7899938873
0.7899938868
0.7899938863
0.7899938858
0.7899938854
0.7899938849
0.7899938845
0.7899938841
0.7899938836
0.7899938833
0.7899938829
0.7899938826
0.7899938823
0.7899938819
0.7899938818
0.7899938861
0.7899938879
0.7899938921
0.7899938925
0.7899938924
0.7899938922
0.7899938919
0.7899938916
0.7899938913
0.789993891
0.7899938906
0.7899938902
0.7899938898
0.7899938894
0.7899938889
0.7899938884
0.7899938879
0.7899938875
0.789993887
0.7899938865
0.789993886
0.7899938855
0.7899938851
0.7899938846
0.7899938842
0.7899938838
0.7899938833
0.789993883
0.7899938826
0.7899938823
0.789993882
0.7899938816
0.7899938815
0.7899938858
0.7899938876
0.7899938918
0.7899938922
0.789993892
0.7899938918
0.7899938916
0.7899938913
0.789993891
0.7899938907
0.7899938903
0.7899938899
0.7899938895
0.7899938891
0.7899938886
0.7899938881
0.7899938877
0.7899938872
0.7899938867
0.7899938862
0.7899938857
0.7899938853
0.7899938848
0.7899938843
0.7899938839
0.7899938835
0.7899938831
0.7899938827
0.7899938823
0.789993882
0.7899938817
0.7899938813
0.7899938812
0.7899938855
0.7899938873
0.7899938915
0.7899938919
0.7899938917
0.7899938915
0.7899938913
0.789993891
0.7899938907
0.7899938904
0.78999389
0.7899938896
0.7899938892
0.7899938888
0.7899938883
0.7899938879
0.7899938874
0.7899938869
0.7899938864
0.789993886
0.7899938855
0.789993885
0.7899938845
0.7899938841
0.7899938837
0.7899938832
0.7899938828
0.7899938825
0.7899938821
0.7899938818
0.7899938814
0.7899938811
0.7899938809
0.7899938852
0.789993887
0.7899938912
0.7899938916
0.7899938914
0.7899938913
0.789993891
0.7899938907
0.7899938904
0.7899938901
0.7899938898
0.7899938894
0.789993889
0.7899938885
0.7899938881
0.7899938876
0.7899938872
0.7899938867
0.7899938862
0.7899938857
0.7899938853
0.7899938848
0.7899938843
0.7899938839
0.7899938835
0.789993883
0.7899938826
0.7899938822
0.7899938819
0.7899938815
0.7899938812
0.7899938808
0.7899938807
0.7899938849
0.7899938867
0.7899938909
0.7899938913
0.7899938912
0.789993891
0.7899938908
0.7899938905
0.7899938902
0.7899938899
0.7899938895
0.7899938891
0.7899938887
0.7899938883
0.7899938879
0.7899938874
0.789993887
0.7899938865
0.789993886
0.7899938855
0.7899938851
0.7899938846
0.7899938841
0.7899938837
0.7899938833
0.7899938828
0.7899938824
0.789993882
0.7899938817
0.7899938813
0.789993881
0.7899938806
0.7899938805
0.7899938846
0.7899938865
0.7899938907
0.7899938911
0.7899938909
0.7899938907
0.7899938905
0.7899938903
0.78999389
0.7899938896
0.7899938893
0.7899938889
0.7899938885
0.7899938881
0.7899938877
0.7899938872
0.7899938868
0.7899938863
0.7899938858
0.7899938854
0.7899938849
0.7899938844
0.789993884
0.7899938835
0.7899938831
0.7899938827
0.7899938823
0.7899938819
0.7899938815
0.7899938812
0.7899938808
0.7899938805
0.7899938803
0.7899938844
0.7899938863
0.7899938905
0.7899938908
0.7899938907
0.7899938905
0.7899938903
0.78999389
0.7899938897
0.7899938894
0.7899938891
0.7899938887
0.7899938883
0.7899938879
0.7899938875
0.789993887
0.7899938866
0.7899938861
0.7899938857
0.7899938852
0.7899938847
0.7899938843
0.7899938838
0.7899938834
0.7899938829
0.7899938825
0.7899938821
0.7899938817
0.7899938814
0.789993881
0.7899938807
0.7899938803
0.7899938802
0.7899938842
0.789993886
0.7899938902
0.7899938906
0.7899938905
0.7899938903
0.7899938901
0.7899938898
0.7899938895
0.7899938892
0.7899938889
0.7899938885
0.7899938881
0.7899938877
0.7899938873
0.7899938869
0.7899938864
0.789993886
0.7899938855
0.7899938851
0.7899938846
0.7899938841
0.7899938837
0.7899938832
0.7899938828
0.7899938824
0.789993882
0.7899938816
0.7899938812
0.7899938809
0.7899938805
0.7899938802
0.78999388
0.789993884
0.7899938858
0.78999389
0.7899938904
0.7899938903
0.7899938901
0.7899938899
0.7899938896
0.7899938894
0.7899938891
0.7899938887
0.7899938884
0.789993888
0.7899938876
0.7899938872
0.7899938867
0.7899938863
0.7899938858
0.7899938854
0.7899938849
0.7899938845
0.789993884
0.7899938836
0.7899938831
0.7899938827
0.7899938823
0.7899938819
0.7899938815
0.7899938811
0.7899938808
0.7899938804
0.7899938801
0.7899938799
0.7899938838
0.7899938856
0.7899938899
0.7899938902
0.7899938901
0.7899938899
0.7899938897
0.7899938895
0.7899938892
0.7899938889
0.7899938886
0.7899938882
0.7899938878
0.7899938874
0.789993887
0.7899938866
0.7899938862
0.7899938857
0.7899938853
0.7899938848
0.7899938844
0.7899938839
0.7899938835
0.789993883
0.7899938826
0.7899938822
0.7899938818
0.7899938814
0.789993881
0.7899938807
0.7899938803
0.78999388
0.7899938798
0.7899938836
0.7899938855
0.7899938897
0.7899938901
0.7899938899
0.7899938898
0.7899938896
0.7899938893
0.789993889
0.7899938887
0.7899938884
0.7899938881
0.7899938877
0.7899938873
0.7899938869
0.7899938865
0.7899938861
0.7899938856
0.7899938852
0.7899938847
0.7899938843
0.7899938838
0.7899938834
0.789993883
0.7899938825
0.7899938821
0.7899938817
0.7899938813
0.789993881
0.7899938806
0.7899938802
0.7899938799
0.7899938797
0.7899938835
0.7899938853
0.7899938895
0.7899938899
0.7899938898
0.7899938896
0.7899938894
0.7899938892
0.7899938889
0.7899938886
0.7899938883
0.7899938879
0.7899938876
0.7899938872
0.7899938868
0.7899938864
0.789993886
0.7899938855
0.7899938851
0.7899938846
0.7899938842
0.7899938838
0.7899938833
0.7899938829
0.7899938825
0.7899938821
0.7899938817
0.7899938813
0.7899938809
0.7899938805
0.7899938802
0.7899938798
0.7899938796
0.7899938833
0.7899938852
0.7899938894
0.7899938898
0.7899938897
0.7899938895
0.7899938893
0.789993889
0.7899938888
0.7899938885
0.7899938882
0.7899938878
0.7899938875
0.7899938871
0.7899938867
0.7899938863
0.7899938859
0.7899938854
0.789993885
0.7899938846
0.7899938841
0.7899938837
0.7899938833
0.7899938828
0.7899938824
0.789993882
0.7899938816
0.7899938812
0.7899938808
0.7899938805
0.7899938801
0.7899938797
0.7899938796
0.7899938832
0.789993885
0.7899938892
0.7899938896
0.7899938895
0.7899938894
0.7899938892
0.7899938889
0.7899938887
0.7899938884
0.7899938881
0.7899938877
0.7899938874
0.789993887
0.7899938866
0.7899938862
0.7899938858
0.7899938854
0.7899938849
0.7899938845
0.7899938841
0.7899938836
0.7899938832
0.7899938828
0.7899938824
0.789993882
0.7899938816
0.7899938812
0.7899938808
0.7899938804
0.7899938801
0.7899938797
0.7899938795
0.7899938831
0.7899938849
0.7899938891
0.7899938895
0.7899938894
0.7899938892
0.789993889
0.7899938888
0.7899938886
0.7899938883
0.789993888
0.7899938876
0.7899938873
0.7899938869
0.7899938865
0.7899938861
0.7899938857
0.7899938853
0.7899938849
0.7899938844
0.789993884
0.7899938836
0.7899938832
0.7899938827
0.7899938823
0.7899938819
0.7899938815
0.7899938811
0.7899938808
0.7899938804
0.78999388
0.7899938796
0.7899938795
0.789993883
0.7899938848
0.789993889
0.7899938894
0.7899938893
0.7899938891
0.7899938889
0.7899938887
0.7899938885
0.7899938882
0.7899938879
0.7899938876
0.7899938872
0.7899938869
0.7899938865
0.7899938861
0.7899938857
0.7899938853
0.7899938848
0.7899938844
0.789993884
0.7899938835
0.7899938831
0.7899938827
0.7899938823
0.7899938819
0.7899938815
0.7899938811
0.7899938807
0.7899938804
0.78999388
0.7899938796
0.7899938794
0.7899938829
0.7899938847
0.7899938889
0.7899938893
0.7899938892
0.7899938891
0.7899938889
0.7899938886
0.7899938884
0.7899938881
0.7899938878
0.7899938875
0.7899938871
0.7899938868
0.7899938864
0.789993886
0.7899938856
0.7899938852
0.7899938848
0.7899938844
0.7899938839
0.7899938835
0.7899938831
0.7899938827
0.7899938823
0.7899938819
0.7899938815
0.7899938811
0.7899938807
0.7899938804
0.78999388
0.7899938796
0.7899938794
0.7899938828
0.7899938846
0.7899938889
0.7899938893
0.7899938892
0.789993889
0.7899938888
0.7899938886
0.7899938883
0.7899938881
0.7899938878
0.7899938874
0.7899938871
0.7899938867
0.7899938864
0.789993886
0.7899938856
0.7899938852
0.7899938848
0.7899938843
0.7899938839
0.7899938835
0.7899938831
0.7899938827
0.7899938823
0.7899938819
0.7899938815
0.7899938811
0.7899938807
0.7899938803
0.78999388
0.7899938796
0.7899938794
0.7899938827
0.7899938846
0.7899938888
0.7899938892
0.7899938891
0.7899938889
0.7899938887
0.7899938885
0.7899938883
0.789993888
0.7899938877
0.7899938874
0.7899938871
0.7899938867
0.7899938863
0.7899938859
0.7899938855
0.7899938851
0.7899938847
0.7899938843
0.7899938839
0.7899938835
0.7899938831
0.7899938826
0.7899938822
0.7899938819
0.7899938815
0.7899938811
0.7899938807
0.7899938803
0.78999388
0.7899938796
0.7899938794
0.7899938827
0.7899938845
0.7899938887
0.7899938891
0.789993889
0.7899938889
0.7899938887
0.7899938885
0.7899938882
0.7899938879
0.7899938877
0.7899938873
0.789993887
0.7899938867
0.7899938863
0.7899938859
0.7899938855
0.7899938851
0.7899938847
0.7899938843
0.7899938839
0.7899938834
0.789993883
0.7899938826
0.7899938822
0.7899938818
0.7899938814
0.7899938811
0.7899938807
0.7899938803
0.78999388
0.7899938796
0.7899938794
0.7899938826
0.7899938845
0.7899938884
0.7899938887
0.7899938886
0.7899938885
0.7899938883
0.7899938881
0.7899938878
0.7899938876
0.7899938873
0.789993887
0.7899938866
0.7899938863
0.7899938859
0.7899938855
0.7899938851
0.7899938847
0.7899938843
0.7899938839
0.7899938835
0.7899938831
0.7899938827
0.7899938823
0.7899938819
0.7899938815
0.7899938811
0.7899938807
0.7899938803
0.78999388
0.7899938796
0.7899938792
0.789993879
0.7899938826
0.7899938839
0.7899938847
0.7899938846
0.7899938845
0.7899938843
0.7899938842
0.7899938839
0.7899938837
0.7899938834
0.7899938831
0.7899938828
0.7899938825
0.7899938822
0.7899938818
0.7899938814
0.789993881
0.7899938806
0.7899938802
0.7899938798
0.7899938794
0.789993879
0.7899938786
0.7899938782
0.7899938778
0.7899938774
0.789993877
0.7899938766
0.7899938762
0.7899938759
0.7899938755
0.7899938751
0.7899938749
0.7899938826
0.7899938825
0.7899938825
0.7899938824
0.7899938823
0.7899938821
0.7899938819
0.7899938817
0.7899938815
0.7899938812
0.7899938809
0.7899938806
0.7899938803
0.7899938799
0.7899938796
0.7899938792
0.7899938788
0.7899938784
0.789993878
0.7899938776
0.7899938772
0.7899938768
0.7899938764
0.789993876
0.7899938756
0.7899938752
0.7899938748
0.7899938744
0.789993874
0.7899938737
0.7899938733
0.7899938729
0.7899938726
0.7899941542
0.7899941542
0.7899941567
0.7899941569
0.7899941568
0.7899941566
0.7899941563
0.789994156
0.7899941557
0.7899941553
0.7899941549
0.7899941545
0.7899941541
0.7899941536
0.7899941531
0.7899941526
0.7899941522
0.7899941517
0.7899941512
0.7899941507
0.7899941502
0.7899941497
0.7899941493
0.7899941488
0.7899941484
0.789994148
0.7899941475
0.7899941471
0.789994147
0.7899941538
0.7899941537
0.7899941561
0.7899941564
0.7899941562
0.789994156
0.7899941558
0.7899941555
0.7899941551
0.7899941548
0.7899941544
0.789994154
0.7899941535
0.7899941531
0.7899941526
0.7899941521
0.7899941516
0.7899941511
0.7899941507
0.7899941502
0.7899941497
0.7899941492
0.7899941488
0.7899941483
0.7899941479
0.7899941475
0.7899941471
0.7899941467
0.7899941463
0.7899941459
0.7899941456
0.7899941456
0.7899941533
0.7899941532
0.7899941557
0.789994156
0.7899941558
0.7899941556
0.7899941553
0.7899941551
0.7899941547
0.7899941544
0.789994154
0.7899941536
0.7899941531
0.7899941527
0.7899941522
0.7899941517
0.7899941512
0.7899941508
0.7899941503
0.7899941498
0.7899941493
0.7899941488
0.7899941484
0.7899941479
0.7899941475
0.7899941471
0.7899941467
0.7899941463
0.7899941459
0.7899941455
0.7899941451
0.7899941452
0.7899941529
0.7899941528
0.7899941553
0.7899941555
0.7899941554
0.7899941552
0.7899941549
0.7899941546
0.7899941543
0.789994154
0.7899941536
0.7899941532
0.7899941527
0.7899941523
0.7899941518
0.7899941513
0.7899941509
0.7899941504
0.7899941499
0.7899941494
0.7899941489
0.7899941484
0.789994148
0.7899941475
0.7899941471
0.7899941467
0.7899941463
0.7899941459
0.7899941455
0.7899941452
0.7899941448
0.7899941444
0.7899941446
0.7899941525
0.7899941524
0.7899941549
0.7899941551
0.789994155
0.7899941548
0.7899941545
0.7899941542
0.7899941539
0.7899941536
0.7899941532
0.7899941528
0.7899941523
0.7899941519
0.7899941514
0.789994151
0.7899941505
0.78999415
0.7899941495
0.789994149
0.7899941485
0.7899941481
0.7899941476
0.7899941471
0.7899941467
0.7899941463
0.7899941459
0.7899941455
0.7899941452
0.7899941448
0.7899941444
0.7899941441
0.7899941442
0.7899941521
0.789994152
0.7899941545
0.7899941548
0.7899941546
0.7899941544
0.7899941541
0.7899941539
0.7899941535
0.7899941532
0.7899941528
0.7899941524
0.789994152
0.7899941515
0.7899941511
0.7899941506
0.7899941501
0.7899941496
0.7899941492
0.7899941487
0.7899941482
0.7899941477
0.7899941472
0.7899941468
0.7899941464
0.7899941459
0.7899941455
0.7899941452
0.7899941448
0.7899941445
0.7899941441
0.7899941437
0.7899941438
0.7899941517
0.7899941517
0.7899941541
0.7899941544
0.7899941542
0.789994154
0.7899941538
0.7899941535
0.7899941532
0.7899941528
0.7899941525
0.7899941521
0.7899941516
0.7899941512
0.7899941507
0.7899941503
0.7899941498
0.7899941493
0.7899941488
0.7899941483
0.7899941479
0.7899941474
0.7899941469
0.7899941465
0.789994146
0.7899941456
0.7899941452
0.7899941448
0.7899941445
0.7899941441
0.7899941438
0.7899941434
0.7899941433
0.7899941514
0.7899941513
0.7899941538
0.789994154
0.7899941539
0.7899941537
0.7899941534
0.7899941532
0.7899941529
0.7899941525
0.7899941521
0.7899941517
0.7899941513
0.7899941509
0.7899941504
0.78999415
0.7899941495
0.789994149
0.7899941485
0.7899941481
0.7899941476
0.7899941471
0.7899941466
0.7899941462
0.7899941457
0.7899941453
0.7899941449
0.7899941445
0.7899941442
0.7899941438
0.7899941435
0.7899941431
0.789994143
0.7899941511
0.789994151
0.7899941535
0.7899941537
0.7899941536
0.7899941534
0.7899941531
0.7899941528
0.7899941525
0.7899941522
0.7899941518
0.7899941514
0.789994151
0.7899941506
0.7899941501
0.7899941497
0.7899941492
0.7899941487
0.7899941483
0.7899941478
0.7899941473
0.7899941468
0.7899941464
0.7899941459
0.7899941455
0.7899941451
0.7899941447
0.7899941443
0.7899941439
0.7899941436
0.7899941432
0.7899941428
0.7899941427
0.7899941508
0.7899941507
0.7899941532
0.7899941534
0.7899941533
0.7899941531
0.7899941528
0.7899941526
0.7899941523
0.7899941519
0.7899941516
0.7899941512
0.7899941508
0.7899941503
0.7899941499