/*--------------------------------*- C++ -*----------------------------------*\
  =========                 |
  \\      /  F ield         | OpenFOAM: The Open Source CFD Toolbox
   \\    /   O peration     | Website:  https://openfoam.org
    \\  /    A nd           | Version:  8
     \\/     M anipulation  |
\*---------------------------------------------------------------------------*/
FoamFile
{
    version     2.0;
    format      ascii;
    class       volScalarField;
    location    "0.1";
    object      nut;
}
// * * * * * * * * * * * * * * * * * * * * * * * * * * * * * * * * * * * * * //

dimensions      [0 2 -1 0 0 0 0];

internalField   nonuniform List<scalar> 
67286
(
5.951147974e-07
7.152445332e-07
7.156500251e-07
7.156608229e-07
7.156617576e-07
7.156627014e-07
7.156638044e-07
7.156650564e-07
7.156664424e-07
7.156679457e-07
7.156695491e-07
7.15671233e-07
7.156729744e-07
7.156747571e-07
7.156765587e-07
7.156783611e-07
7.156801325e-07
7.156818614e-07
7.156835285e-07
7.156851068e-07
7.156865886e-07
7.15687948e-07
7.156891805e-07
7.156902615e-07
7.156911833e-07
7.156919395e-07
7.156925131e-07
7.156931106e-07
5.951146362e-07
7.152443222e-07
7.156498136e-07
7.15660612e-07
7.156615475e-07
7.15662493e-07
7.156635985e-07
7.156648526e-07
7.156662418e-07
7.156677489e-07
7.156693562e-07
7.156710447e-07
7.156727929e-07
7.156745827e-07
7.156763882e-07
7.156781983e-07
7.156799808e-07
7.156817177e-07
7.156833934e-07
7.156849846e-07
7.156864773e-07
7.156878482e-07
7.156890879e-07
7.156901851e-07
7.15691121e-07
7.156918841e-07
7.156924648e-07
7.156928703e-07
7.156932601e-07
7.156932733e-07
7.156930975e-07
7.156929417e-07
5.95114666e-07
7.152441403e-07
7.156496231e-07
7.156604198e-07
7.156613541e-07
7.156622981e-07
7.156634021e-07
7.156646549e-07
7.156660426e-07
7.156675483e-07
7.156691543e-07
7.156708421e-07
7.15672591e-07
7.156743807e-07
7.156761881e-07
7.156779983e-07
7.156797863e-07
7.156815268e-07
7.156832051e-07
7.156848027e-07
7.156863021e-07
7.156876828e-07
7.156889321e-07
7.156900367e-07
7.156909778e-07
7.156917515e-07
7.156923449e-07
7.156927578e-07
7.156929823e-07
7.156930074e-07
7.156928434e-07
7.156927007e-07
5.951147125e-07
7.152438148e-07
7.156492826e-07
7.156600754e-07
7.156610053e-07
7.156619437e-07
7.156630413e-07
7.156642873e-07
7.156656679e-07
7.156671668e-07
7.156687663e-07
7.15670448e-07
7.156721913e-07
7.156739771e-07
7.156757785e-07
7.156775862e-07
7.156793711e-07
7.156811083e-07
7.156827886e-07
7.156843892e-07
7.15685889e-07
7.15687274e-07
7.156885278e-07
7.156896353e-07
7.156905851e-07
7.156913686e-07
7.156919721e-07
7.156923955e-07
7.156926252e-07
7.156926624e-07
7.156925083e-07
7.156921678e-07
7.156920258e-07
5.951147706e-07
7.152433419e-07
7.156487878e-07
7.15659576e-07
7.156605002e-07
7.156614311e-07
7.156625199e-07
7.156637559e-07
7.156651253e-07
7.15666613e-07
7.156682009e-07
7.156698707e-07
7.156716026e-07
7.156733771e-07
7.156751712e-07
7.15676967e-07
7.156787448e-07
7.156804799e-07
7.156821516e-07
7.156837447e-07
7.156852425e-07
7.156866276e-07
7.156878806e-07
7.156889866e-07
7.156899382e-07
7.156907256e-07
7.156913453e-07
7.156917729e-07
7.156920105e-07
7.156920598e-07
7.156919197e-07
7.156915906e-07
7.156912873e-07
5.951148325e-07
7.152427667e-07
7.156481574e-07
7.15658935e-07
7.156598492e-07
7.156607684e-07
7.156618442e-07
7.156630659e-07
7.15664419e-07
7.156658902e-07
7.156674612e-07
7.156691132e-07
7.156708275e-07
7.156725844e-07
7.156743624e-07
7.156761393e-07
7.156779028e-07
7.15679627e-07
7.156812906e-07
7.156828754e-07
7.15684368e-07
7.156857471e-07
7.156869962e-07
7.156881064e-07
7.156890589e-07
7.156898531e-07
7.156904625e-07
7.156908985e-07
7.156911445e-07
7.156912055e-07
7.156910736e-07
7.156907622e-07
7.156904747e-07
5.951148792e-07
7.152422435e-07
7.156475031e-07
7.156581742e-07
7.156590581e-07
7.156599632e-07
7.156610225e-07
7.156622259e-07
7.156635585e-07
7.156650053e-07
7.156665556e-07
7.156681861e-07
7.156698778e-07
7.156716123e-07
7.15673369e-07
7.156751265e-07
7.156768665e-07
7.156785737e-07
7.156802222e-07
7.156817927e-07
7.156832733e-07
7.156846416e-07
7.156858832e-07
7.156869906e-07
7.156879444e-07
7.156887261e-07
7.156893485e-07
7.156897858e-07
7.156900377e-07
7.156901155e-07
7.156900013e-07
7.156896975e-07
7.156894228e-07
5.951149002e-07
7.152418988e-07
7.156470403e-07
7.156575128e-07
7.156581765e-07
7.15659025e-07
7.156600658e-07
7.156612481e-07
7.156625585e-07
7.15663986e-07
7.156655053e-07
7.156671055e-07
7.156687678e-07
7.156704739e-07
7.156722032e-07
7.156739355e-07
7.156756486e-07
7.156773321e-07
7.15678956e-07
7.1568051e-07
7.15681974e-07
7.156833276e-07
7.156845579e-07
7.156856574e-07
7.156866051e-07
7.156873904e-07
7.156880114e-07
7.156884551e-07
7.156887178e-07
7.156887909e-07
7.156886865e-07
7.156883996e-07
7.156881469e-07
5.951149023e-07
7.152416738e-07
7.156467432e-07
7.156571125e-07
7.156575335e-07
7.156580458e-07
7.156589863e-07
7.156601429e-07
7.156614252e-07
7.156628201e-07
7.156643093e-07
7.156658773e-07
7.156675059e-07
7.156691789e-07
7.156708757e-07
7.156725766e-07
7.156742612e-07
7.156759141e-07
7.156775112e-07
7.15679041e-07
7.15680483e-07
7.156818164e-07
7.156830335e-07
7.156841204e-07
7.156850585e-07
7.156858404e-07
7.156864572e-07
7.156869004e-07
7.156871682e-07
7.156872544e-07
7.156871607e-07
7.156868893e-07
7.15686654e-07
5.951148877e-07
7.152415558e-07
7.156465481e-07
7.156568511e-07
7.156571705e-07
7.156574299e-07
7.156579181e-07
7.156589238e-07
7.156601762e-07
7.156615368e-07
7.156629904e-07
7.156645227e-07
7.156661092e-07
7.15667746e-07
7.156694055e-07
7.156710695e-07
7.15672719e-07
7.156743368e-07
7.156759048e-07
7.156774046e-07
7.156788201e-07
7.156801316e-07
7.156813287e-07
7.156824013e-07
7.156833258e-07
7.156840977e-07
7.15684713e-07
7.156851536e-07
7.15685424e-07
7.156855195e-07
7.156854374e-07
7.156851801e-07
7.156849631e-07
5.951148678e-07
7.152414649e-07
7.156464011e-07
7.156566882e-07
7.15656945e-07
7.15657084e-07
7.15657339e-07
7.156578046e-07
7.156588284e-07
7.156601499e-07
7.156615642e-07
7.156630537e-07
7.15664608e-07
7.156661991e-07
7.156678142e-07
7.15669436e-07
7.156710452e-07
7.156726244e-07
7.156741562e-07
7.156756224e-07
7.156770068e-07
7.156782947e-07
7.156794649e-07
7.156805191e-07
7.156814282e-07
7.156821923e-07
7.156827948e-07
7.156832351e-07
7.156835099e-07
7.156836123e-07
7.156835422e-07
7.156833028e-07
7.156831049e-07
5.951148415e-07
7.152413944e-07
7.156462709e-07
7.156565429e-07
7.156567834e-07
7.156568864e-07
7.1565702e-07
7.156572589e-07
7.156576882e-07
7.156586795e-07
7.15660049e-07
7.15661495e-07
7.156629988e-07
7.156645454e-07
7.156661156e-07
7.15667692e-07
7.156692572e-07
7.156707945e-07
7.15672286e-07
7.15673715e-07
7.156750642e-07
7.1567632e-07
7.156774669e-07
7.156784955e-07
7.156793869e-07
7.156801373e-07
7.156807298e-07
7.15681168e-07
7.156814452e-07
7.156815519e-07
7.156814908e-07
7.156812652e-07
7.156810867e-07
5.951148123e-07
7.152413326e-07
7.156461468e-07
7.156564113e-07
7.156566406e-07
7.156567249e-07
7.156568305e-07
7.1565697e-07
7.156571873e-07
7.156575744e-07
7.156584712e-07
7.156598572e-07
7.156613151e-07
7.156628119e-07
7.156643327e-07
7.156658608e-07
7.156673774e-07
7.156688686e-07
7.156703148e-07
7.156717014e-07
7.156730132e-07
7.156742338e-07
7.156753532e-07
7.15676356e-07
7.156772262e-07
7.156779594e-07
7.156785419e-07
7.15678974e-07
7.156792471e-07
7.156793594e-07
7.156793107e-07
7.156791004e-07
7.156789414e-07
5.951147808e-07
7.152412713e-07
7.156460232e-07
7.156562803e-07
7.15656506e-07
7.156565826e-07
7.15656671e-07
7.156567806e-07
7.156569217e-07
7.156571127e-07
7.15657467e-07
7.156582119e-07
7.156595794e-07
7.156610226e-07
7.156624906e-07
7.156639666e-07
7.156654337e-07
7.156668751e-07
7.156682745e-07
7.156696194e-07
7.156708896e-07
7.156720661e-07
7.156731493e-07
7.156741278e-07
7.156749764e-07
7.156756904e-07
7.156762603e-07
7.156766823e-07
7.156769523e-07
7.156770712e-07
7.156770373e-07
7.1567684e-07
7.156767e-07
5.951147459e-07
7.152412161e-07
7.156459008e-07
7.156561518e-07
7.156563741e-07
7.156564439e-07
7.156565262e-07
7.156566222e-07
7.156567347e-07
7.156568738e-07
7.156570501e-07
7.156573529e-07
7.156579285e-07
7.156591949e-07
7.156606077e-07
7.156620289e-07
7.156634421e-07
7.156648329e-07
7.156661837e-07
7.156674787e-07
7.156687085e-07
7.156698616e-07
7.156709127e-07
7.156718539e-07
7.156726768e-07
7.156733714e-07
7.156739281e-07
7.156743449e-07
7.156746137e-07
7.156747274e-07
7.156746867e-07
7.15674505e-07
7.156743867e-07
5.951147101e-07
7.152411631e-07
7.156457825e-07
7.15656027e-07
7.156562444e-07
7.156563097e-07
7.156563866e-07
7.156564745e-07
7.156565756e-07
7.156566905e-07
7.156568244e-07
7.156569949e-07
7.156572511e-07
7.15657687e-07
7.156587148e-07
7.156600777e-07
7.156614363e-07
7.156627733e-07
7.156640747e-07
7.156653233e-07
7.156665073e-07
7.156676128e-07
7.156686266e-07
7.156695364e-07
7.156703325e-07
7.156710059e-07
7.156715485e-07
7.156719549e-07
7.156722179e-07
7.156723361e-07
7.156723089e-07
7.156721395e-07
7.156720396e-07
5.951146728e-07
7.152411155e-07
7.156456674e-07
7.15655907e-07
7.156561208e-07
7.156561822e-07
7.156562518e-07
7.156563335e-07
7.156564271e-07
7.156565314e-07
7.156566469e-07
7.156567775e-07
7.156569365e-07
7.156571426e-07
7.156574959e-07
7.15658177e-07
7.156594345e-07
7.156607189e-07
7.156619687e-07
7.156631683e-07
7.156643061e-07
7.156653686e-07
7.156663436e-07
7.15667225e-07
7.156679918e-07
7.156686395e-07
7.156691629e-07
7.15669559e-07
7.156698202e-07
7.15669941e-07
7.156699193e-07
7.156697618e-07
7.156696806e-07
5.951146361e-07
7.152410698e-07
7.15645557e-07
7.1565579e-07
7.156560004e-07
7.156560582e-07
7.156561241e-07
7.156562001e-07
7.15656286e-07
7.156563832e-07
7.156564884e-07
7.156566048e-07
7.156567303e-07
7.156568758e-07
7.156570528e-07
7.156573263e-07
7.156577498e-07
7.156586946e-07
7.156598902e-07
7.15661039e-07
7.156621322e-07
7.156631519e-07
7.156640869e-07
7.156649295e-07
7.156656692e-07
7.156662977e-07
7.156668051e-07
7.156671865e-07
7.15667437e-07
7.156675576e-07
7.156675471e-07
7.156674045e-07
7.156673419e-07
5.951145988e-07
7.152410269e-07
7.156454487e-07
7.156556774e-07
7.156558868e-07
7.156559413e-07
7.15656002e-07
7.156560746e-07
7.156561553e-07
7.156562433e-07
7.156563406e-07
7.156564466e-07
7.156565607e-07
7.156566823e-07
7.156568166e-07
7.156569741e-07
7.156571767e-07
7.156574875e-07
7.156579881e-07
7.156589735e-07
7.156600178e-07
7.156609953e-07
7.156618946e-07
7.156627063e-07
7.156634156e-07
7.156640169e-07
7.156645054e-07
7.156648765e-07
7.156651236e-07
7.156652455e-07
7.156652381e-07
7.15665105e-07
7.156650597e-07
5.951145631e-07
7.152409872e-07
7.156453492e-07
7.156555721e-07
7.156557779e-07
7.156558292e-07
7.156558893e-07
7.156559541e-07
7.156560297e-07
7.156561137e-07
7.156562048e-07
7.156563031e-07
7.156564089e-07
7.156565191e-07
7.15656637e-07
7.156567597e-07
7.156568985e-07
7.156570564e-07
7.156572787e-07
7.15657584e-07
7.156580685e-07
7.156589191e-07
7.156597763e-07
7.156605546e-07
7.156612408e-07
7.156618215e-07
7.156622933e-07
7.156626508e-07
7.15662888e-07
7.156630053e-07
7.156630042e-07
7.156628844e-07
7.156628565e-07
5.951145281e-07
7.152409516e-07
7.156452534e-07
7.156554735e-07
7.156556778e-07
7.156557258e-07
7.156557803e-07
7.156558446e-07
7.156559164e-07
7.156559935e-07
7.156560806e-07
7.156561725e-07
7.156562684e-07
7.156563706e-07
7.156564781e-07
7.156565896e-07
7.15656704e-07
7.156568261e-07
7.15656962e-07
7.15657115e-07
7.156573223e-07
7.156575798e-07
7.15657932e-07
7.156585274e-07
7.156591771e-07
7.156597338e-07
7.15660187e-07
7.156605329e-07
7.156607659e-07
7.156608839e-07
7.156608865e-07
7.156607747e-07
7.156607601e-07
5.951144946e-07
7.152409199e-07
7.156451662e-07
7.156553813e-07
7.156555838e-07
7.156556312e-07
7.156556837e-07
7.156557424e-07
7.156558094e-07
7.156558856e-07
7.156559636e-07
7.156560518e-07
7.156561431e-07
7.156562386e-07
7.156563379e-07
7.156564419e-07
7.156565447e-07
7.156566527e-07
7.156567597e-07
7.156568719e-07
7.156569967e-07
7.156571281e-07
7.156572956e-07
7.15657479e-07
7.156576861e-07
7.156579345e-07
7.156582473e-07
7.156585597e-07
7.156587835e-07
7.156589011e-07
7.156589073e-07
7.156588062e-07
7.156588104e-07
5.951144636e-07
7.152408908e-07
7.156450871e-07
7.156552983e-07
7.156554988e-07
7.156555431e-07
7.15655594e-07
7.156556506e-07
7.156557139e-07
7.156557838e-07
7.156558627e-07
7.156559425e-07
7.156560292e-07
7.156561192e-07
7.156562132e-07
7.156563084e-07
7.156564077e-07
7.15656505e-07
7.15656603e-07
7.156566999e-07
7.156567952e-07
7.15656892e-07
7.156569932e-07
7.156570933e-07
7.156571985e-07
7.156573141e-07
7.156574115e-07
7.156574929e-07
7.15657553e-07
7.156575785e-07
7.156575673e-07
7.156575197e-07
7.156576504e-07
5.951144367e-07
7.152408654e-07
7.15645017e-07
7.15655224e-07
7.15655423e-07
7.156554656e-07
7.156555131e-07
7.156555688e-07
7.156556303e-07
7.156556966e-07
7.156557686e-07
7.156558479e-07
7.156559288e-07
7.156560153e-07
7.156561037e-07
7.156561949e-07
7.156562858e-07
7.156563773e-07
7.156564699e-07
7.156565582e-07
7.156566466e-07
7.156567291e-07
7.156568077e-07
7.15656883e-07
7.156569554e-07
7.156570205e-07
7.156570752e-07
7.156571195e-07
7.156571479e-07
7.15657158e-07
7.156571483e-07
7.156571207e-07
7.156572897e-07
5.95114412e-07
7.152408424e-07
7.156449556e-07
7.156551614e-07
7.156553584e-07
7.156553987e-07
7.156554442e-07
7.156554964e-07
7.156555553e-07
7.156556202e-07
7.156556896e-07
7.156557635e-07
7.156558439e-07
7.156559243e-07
7.156560086e-07
7.156560954e-07
7.156561839e-07
7.156562697e-07
7.156563557e-07
7.156564409e-07
7.156565212e-07
7.156565987e-07
7.156566712e-07
7.156567358e-07
7.156567944e-07
7.156568447e-07
7.156568867e-07
7.156569183e-07
7.156569374e-07
7.156569433e-07
7.156569349e-07
7.156569153e-07
7.156570967e-07
5.951143911e-07
7.152408237e-07
7.156449015e-07
7.156551041e-07
7.156553022e-07
7.156553412e-07
7.156553847e-07
7.156554347e-07
7.156554912e-07
7.156555545e-07
7.156556218e-07
7.156556928e-07
7.156557679e-07
7.156558487e-07
7.156559282e-07
7.156560115e-07
7.156560956e-07
7.156561802e-07
7.156562609e-07
7.15656341e-07
7.156564181e-07
7.156564921e-07
7.156565588e-07
7.156566203e-07
7.156566755e-07
7.156567205e-07
7.156567568e-07
7.15656783e-07
7.156567989e-07
7.156568035e-07
7.156567969e-07
7.156567817e-07
7.156569699e-07
5.951143741e-07
7.152407917e-07
7.156447761e-07
7.15654971e-07
7.156551668e-07
7.156552064e-07
7.156552486e-07
7.156552975e-07
7.156553522e-07
7.156554124e-07
7.156554787e-07
7.156555478e-07
7.156556202e-07
7.156556966e-07
7.156557776e-07
7.156558559e-07
7.156559373e-07
7.156560176e-07
7.156560984e-07
7.156561743e-07
7.156562484e-07
7.156563181e-07
7.156563835e-07
7.156564417e-07
7.156564929e-07
7.156565365e-07
7.156565711e-07
7.156565968e-07
7.156566113e-07
7.156566158e-07
7.156566101e-07
7.156565959e-07
7.156567861e-07
5.95114158e-07
7.152390177e-07
7.156387115e-07
7.156486414e-07
7.156488292e-07
7.156488666e-07
7.156489091e-07
7.156489549e-07
7.156490073e-07
7.15649065e-07
7.156491278e-07
7.156491954e-07
7.156492658e-07
7.156493377e-07
7.156494142e-07
7.156494906e-07
7.15649568e-07
7.156496467e-07
7.156497212e-07
7.156497972e-07
7.156498665e-07
7.156499335e-07
7.156499948e-07
7.156500514e-07
7.156501005e-07
7.15650141e-07
7.156501737e-07
7.156501972e-07
7.156502113e-07
7.156502156e-07
7.156502105e-07
7.156501984e-07
7.156503905e-07
5.950807123e-07
7.151120178e-07
7.153769426e-07
7.153809882e-07
7.153810475e-07
7.153810639e-07
7.153810833e-07
7.153811051e-07
7.153811297e-07
7.153811568e-07
7.153811861e-07
7.153812178e-07
7.153812519e-07
7.153812883e-07
7.153813265e-07
7.153813664e-07
7.153814059e-07
7.15381446e-07
7.153814861e-07
7.153815253e-07
7.153815637e-07
7.153816003e-07
7.153816335e-07
7.153816634e-07
7.153816894e-07
7.153817116e-07
7.153817292e-07
7.153817413e-07
7.153817476e-07
7.153817485e-07
7.153817431e-07
7.153817348e-07
7.153819358e-07
5.629926572e-07
6.631840944e-07
6.6330742e-07
6.63308293e-07
6.633083048e-07
6.633083138e-07
6.633083246e-07
6.633083367e-07
6.633083502e-07
6.633083648e-07
6.633083807e-07
6.633083973e-07
6.633084141e-07
6.633084312e-07
6.633084488e-07
6.633084662e-07
6.633084832e-07
6.633084999e-07
6.633085158e-07
6.633085308e-07
6.633085444e-07
6.633085571e-07
6.633085683e-07
6.633085782e-07
6.633085864e-07
6.633085926e-07
6.633085968e-07
6.633085992e-07
6.633085997e-07
6.633085986e-07
6.633085956e-07
6.633085925e-07
6.633088002e-07
5.08308278e-07
1.201385636e-05
2.30166868e-05
2.348816879e-05
2.34975758e-05
2.349812212e-05
2.34986008e-05
2.349914416e-05
2.349974885e-05
2.350040798e-05
2.350111453e-05
2.350186056e-05
2.350263751e-05
2.350343701e-05
2.350424914e-05
2.350506431e-05
2.350587309e-05
2.350666546e-05
2.350743224e-05
2.350816364e-05
2.350885164e-05
2.350948518e-05
2.351005602e-05
2.351056237e-05
2.351099369e-05
2.351135066e-05
2.351162407e-05
2.351193582e-05
5.083081624e-07
1.201379979e-05
2.301656104e-05
2.34880419e-05
2.349744939e-05
2.349799631e-05
2.349847591e-05
2.349902049e-05
2.34996264e-05
2.350028715e-05
2.350099558e-05
2.350174377e-05
2.350252334e-05
2.350332571e-05
2.350414102e-05
2.350495984e-05
2.350577226e-05
2.35065694e-05
2.350734013e-05
2.350807693e-05
2.350877034e-05
2.350940888e-05
2.350998633e-05
2.351049867e-05
2.351093559e-05
2.351129422e-05
2.351156915e-05
2.35117656e-05
2.351197738e-05
2.351198545e-05
2.351190807e-05
2.351187368e-05
5.083081867e-07
1.201378842e-05
2.301648556e-05
2.34879599e-05
2.349736645e-05
2.349791243e-05
2.349839115e-05
2.349893489e-05
2.349953981e-05
2.350019975e-05
2.35009074e-05
2.350165507e-05
2.350243431e-05
2.350323674e-05
2.350405193e-05
2.35048715e-05
2.350568464e-05
2.350648341e-05
2.350725598e-05
2.350799548e-05
2.350869199e-05
2.350933495e-05
2.350991658e-05
2.351043266e-05
2.351087419e-05
2.351123796e-05
2.351151809e-05
2.35117121e-05
2.351182066e-05
2.351183505e-05
2.351176331e-05
2.351173823e-05
5.083081927e-07
1.20137612e-05
2.301634758e-05
2.348781086e-05
2.349721519e-05
2.349775865e-05
2.349823443e-05
2.349877474e-05
2.349937604e-05
2.350003242e-05
2.350073667e-05
2.350148085e-05
2.350225652e-05
2.350305623e-05
2.350386958e-05
2.350468674e-05
2.350549821e-05
2.350629497e-05
2.350706733e-05
2.350780646e-05
2.35085032e-05
2.350914887e-05
2.350973333e-05
2.351025063e-05
2.351069503e-05
2.351106508e-05
2.351135044e-05
2.351154858e-05
2.351165936e-05
2.351167838e-05
2.351160739e-05
2.351146041e-05
2.351146031e-05
5.083081515e-07
1.201371702e-05
2.301614899e-05
2.34875965e-05
2.349699704e-05
2.349753635e-05
2.349800745e-05
2.349854258e-05
2.349913815e-05
2.349978879e-05
2.350048691e-05
2.350122498e-05
2.350199478e-05
2.350278836e-05
2.350359617e-05
2.350440846e-05
2.350521557e-05
2.350600826e-05
2.350677808e-05
2.350751304e-05
2.35082065e-05
2.350884969e-05
2.350943519e-05
2.350995527e-05
2.351040184e-05
2.351077211e-05
2.351106048e-05
2.351126522e-05
2.351137828e-05
2.3511402e-05
2.351133627e-05
2.351118923e-05
2.35110936e-05
5.083080931e-07
1.201360511e-05
2.301587515e-05
2.348731731e-05
2.349671249e-05
2.349724613e-05
2.3497711e-05
2.349823898e-05
2.349882672e-05
2.349946912e-05
2.350015851e-05
2.350088738e-05
2.350164776e-05
2.350243153e-05
2.35032296e-05
2.350403297e-05
2.350483222e-05
2.350561744e-05
2.350638153e-05
2.350711242e-05
2.350780244e-05
2.350844292e-05
2.350902652e-05
2.350954675e-05
2.350999622e-05
2.351036628e-05
2.351065643e-05
2.351085952e-05
2.351097557e-05
2.351100593e-05
2.351094781e-05
2.351080674e-05
2.351071634e-05
5.083080363e-07
1.201311788e-05
2.301478025e-05
2.348685033e-05
2.349636738e-05
2.349689397e-05
2.34973503e-05
2.349786857e-05
2.349844563e-05
2.349907781e-05
2.349975627e-05
2.350047399e-05
2.350122285e-05
2.350199493e-05
2.350278169e-05
2.350357391e-05
2.350436258e-05
2.350513748e-05
2.350589194e-05
2.350661462e-05
2.350729761e-05
2.350793214e-05
2.350851098e-05
2.350902831e-05
2.350947618e-05
2.350984586e-05
2.35101368e-05
2.351034362e-05
2.351046333e-05
2.351049756e-05
2.351044646e-05
2.351031325e-05
2.351022785e-05
5.083079806e-07
1.201196314e-05
2.301121756e-05
2.348463383e-05
2.349567982e-05
2.349648362e-05
2.349693225e-05
2.349744147e-05
2.349800834e-05
2.349862617e-05
2.349928966e-05
2.349999232e-05
2.350072661e-05
2.350148432e-05
2.350225645e-05
2.350303455e-05
2.350380968e-05
2.350457165e-05
2.3505314e-05
2.350602588e-05
2.350669943e-05
2.350732598e-05
2.350789877e-05
2.350840992e-05
2.350885462e-05
2.350922263e-05
2.35095143e-05
2.35097224e-05
2.350984622e-05
2.350988472e-05
2.350983656e-05
2.350970795e-05
2.350963369e-05
5.083079158e-07
1.201027329e-05
2.300528343e-05
2.347935488e-05
2.349230767e-05
2.349548256e-05
2.349645888e-05
2.349695647e-05
2.34975091e-05
2.349811276e-05
2.349876087e-05
2.349944709e-05
2.350016421e-05
2.350090489e-05
2.350166019e-05
2.350242177e-05
2.350318087e-05
2.350392761e-05
2.350465539e-05
2.350535375e-05
2.350601515e-05
2.35066312e-05
2.350719571e-05
2.350769858e-05
2.350813838e-05
2.350850371e-05
2.350879294e-05
2.350900209e-05
2.350912795e-05
2.350916981e-05
2.350912816e-05
2.35090082e-05
2.350894239e-05
5.083078414e-07
1.200801234e-05
2.299738537e-05
2.347177447e-05
2.348554462e-05
2.349080872e-05
2.34950867e-05
2.349642204e-05
2.349696264e-05
2.349754934e-05
2.349817926e-05
2.349884625e-05
2.349954448e-05
2.350026647e-05
2.350100231e-05
2.350174445e-05
2.350248456e-05
2.35032136e-05
2.350392498e-05
2.350460798e-05
2.350525525e-05
2.350585871e-05
2.350641253e-05
2.350690566e-05
2.35073384e-05
2.350769976e-05
2.350798493e-05
2.350819329e-05
2.350832133e-05
2.350836725e-05
2.350833114e-05
2.350821854e-05
2.350816072e-05
5.083077569e-07
1.200545126e-05
2.298802148e-05
2.34620593e-05
2.347644119e-05
2.348287919e-05
2.348909301e-05
2.349449244e-05
2.349636767e-05
2.349694228e-05
2.34975543e-05
2.3498203e-05
2.349887992e-05
2.349957928e-05
2.35002933e-05
2.350101405e-05
2.350173297e-05
2.35024422e-05
2.350313434e-05
2.350379959e-05
2.350443045e-05
2.350501915e-05
2.350555987e-05
2.350604217e-05
2.350646561e-05
2.350682169e-05
2.350710271e-05
2.350730902e-05
2.350743816e-05
2.350748721e-05
2.350745636e-05
2.35073514e-05
2.35073044e-05
5.083076555e-07
1.200263656e-05
2.297772077e-05
2.345131206e-05
2.346587595e-05
2.347240934e-05
2.347988344e-05
2.348716079e-05
2.349363199e-05
2.349628936e-05
2.349689224e-05
2.349751857e-05
2.34981731e-05
2.349884978e-05
2.349954086e-05
2.350023851e-05
2.350093473e-05
2.350162245e-05
2.350229327e-05
2.350293938e-05
2.350355156e-05
2.350412336e-05
2.35046488e-05
2.350511957e-05
2.350553184e-05
2.350587951e-05
2.350615661e-05
2.350636116e-05
2.350648998e-05
2.350654183e-05
2.3506515e-05
2.350641699e-05
2.350637903e-05
5.083075458e-07
1.19996325e-05
2.296661274e-05
2.343983533e-05
2.345418354e-05
2.346089229e-05
2.346845864e-05
2.347667608e-05
2.348494875e-05
2.349240469e-05
2.349613922e-05
2.349680575e-05
2.349743672e-05
2.349808896e-05
2.349875518e-05
2.349942852e-05
2.350010051e-05
2.350076455e-05
2.350141156e-05
2.350203481e-05
2.35026281e-05
2.350318288e-05
2.350369228e-05
2.350415063e-05
2.35045508e-05
2.350488863e-05
2.350515885e-05
2.350535945e-05
2.350548661e-05
2.350553945e-05
2.350551891e-05
2.35054288e-05
2.350540031e-05
5.083074258e-07
1.199657288e-05
2.295526653e-05
2.342768087e-05
2.34419414e-05
2.34486336e-05
2.345604443e-05
2.346438944e-05
2.347325755e-05
2.34825186e-05
2.349061197e-05
2.349582906e-05
2.34966812e-05
2.349730864e-05
2.349794895e-05
2.349859639e-05
2.349924368e-05
2.349988225e-05
2.350050483e-05
2.350110535e-05
2.350167675e-05
2.350221226e-05
2.350270433e-05
2.350314752e-05
2.350353503e-05
2.350386257e-05
2.350412539e-05
2.350432097e-05
2.350444699e-05
2.350450115e-05
2.350448351e-05
2.350440061e-05
2.350438282e-05
5.083072973e-07
1.199333979e-05
2.294346795e-05
2.341539776e-05
2.342965767e-05
2.343583811e-05
2.344304713e-05
2.345130662e-05
2.346031814e-05
2.346986563e-05
2.347959665e-05
2.348833938e-05
2.34950331e-05
2.349651102e-05
2.349713035e-05
2.349775064e-05
2.349837062e-05
2.349898474e-05
2.349958442e-05
2.350016303e-05
2.350071332e-05
2.350122731e-05
2.350170029e-05
2.350212759e-05
2.350250113e-05
2.350281771e-05
2.350307266e-05
2.350326372e-05
2.350338665e-05
2.350344243e-05
2.350342945e-05
2.350335168e-05
2.350334217e-05
5.08307167e-07
1.199013526e-05
2.2931749e-05
2.340293472e-05
2.341682213e-05
2.342298189e-05
2.34301358e-05
2.343786218e-05
2.344664368e-05
2.345619023e-05
2.34660497e-05
2.347613483e-05
2.348543436e-05
2.349328423e-05
2.349629255e-05
2.349690491e-05
2.349749877e-05
2.349808576e-05
2.349866017e-05
2.349921389e-05
2.349974105e-05
2.350023464e-05
2.350068901e-05
2.350109983e-05
2.350145915e-05
2.350176423e-05
2.350201057e-05
2.350219564e-05
2.350231626e-05
2.350237196e-05
2.350236201e-05
2.350229128e-05
2.350229175e-05
5.083070266e-07
1.198692503e-05
2.29199016e-05
2.339060084e-05
2.34043384e-05
2.341024137e-05
2.341685803e-05
2.342454158e-05
2.343299165e-05
2.344204192e-05
2.345181764e-05
2.34619636e-05
2.347208961e-05
2.348200368e-05
2.349035596e-05
2.349575113e-05
2.3496631e-05
2.34971955e-05
2.349774479e-05
2.349827403e-05
2.349877772e-05
2.349924977e-05
2.349968482e-05
2.350007697e-05
2.350042265e-05
2.350071632e-05
2.350095367e-05
2.350113261e-05
2.350124994e-05
2.350130533e-05
2.350129891e-05
2.350123508e-05
2.350124539e-05
5.083068904e-07
1.198375574e-05
2.290834355e-05
2.337828064e-05
2.339176535e-05
2.339750251e-05
2.340400592e-05
2.341128119e-05
2.341935151e-05
2.342835173e-05
2.343752643e-05
2.344752448e-05
2.345771763e-05
2.346789805e-05
2.347780865e-05
2.34865136e-05
2.349367331e-05
2.349630137e-05
2.349684685e-05
2.34973525e-05
2.349783479e-05
2.349828653e-05
2.349870327e-05
2.349908053e-05
2.349941172e-05
2.349969282e-05
2.349992082e-05
2.350009351e-05
2.350020795e-05
2.350026292e-05
2.350025776e-05
2.350019863e-05
2.35002167e-05
5.083067539e-07
1.198065511e-05
2.289687768e-05
2.33662831e-05
2.337969548e-05
2.33851647e-05
2.339127958e-05
2.339846509e-05
2.340628395e-05
2.341455423e-05
2.342362104e-05
2.343309416e-05
2.344287448e-05
2.345296494e-05
2.346316438e-05
2.347277313e-05
2.348201815e-05
2.348958904e-05
2.349515026e-05
2.3496451e-05
2.349692277e-05
2.349735381e-05
2.349775063e-05
2.349811107e-05
2.349842797e-05
2.349869751e-05
2.349891639e-05
2.349908283e-05
2.349919262e-05
2.349924736e-05
2.349924559e-05
2.349919254e-05
2.349921939e-05
5.083066211e-07
1.197772193e-05
2.288615935e-05
2.33548934e-05
2.336799475e-05
2.337320308e-05
2.337929102e-05
2.33858374e-05
2.339333303e-05
2.340151834e-05
2.341013421e-05
2.341924352e-05
2.342889053e-05
2.343837731e-05
2.34483564e-05
2.345816912e-05
2.346763994e-05
2.347653911e-05
2.348436305e-05
2.349098414e-05
2.349543888e-05
2.349645165e-05
2.349684276e-05
2.349718889e-05
2.349749146e-05
2.34977487e-05
2.349795832e-05
2.349811842e-05
2.34982258e-05
2.349828e-05
2.349827969e-05
2.349823085e-05
2.349826531e-05
5.083064911e-07
1.197485933e-05
2.287571485e-05
2.334406684e-05
2.335706385e-05
2.336201231e-05
2.336761363e-05
2.337413017e-05
2.33813244e-05
2.338898466e-05
2.339747054e-05
2.34062238e-05
2.341511916e-05
2.342454262e-05
2.343393906e-05
2.344341992e-05
2.345282588e-05
2.346206184e-05
2.347050005e-05
2.347846242e-05
2.34851107e-05
2.349077366e-05
2.349484606e-05
2.349625899e-05
2.349660024e-05
2.34968523e-05
2.349705461e-05
2.349720861e-05
2.349731237e-05
2.349736543e-05
2.349736709e-05
2.349732275e-05
2.349736379e-05
5.083063677e-07
1.197222623e-05
2.28660271e-05
2.333378509e-05
2.334664532e-05
2.335157666e-05
2.335705143e-05
2.336309176e-05
2.336989709e-05
2.337749717e-05
2.338524741e-05
2.339382697e-05
2.340256807e-05
2.341141644e-05
2.342053496e-05
2.342983626e-05
2.343866318e-05
2.344773362e-05
2.345634995e-05
2.34643714e-05
2.347177822e-05
2.34785026e-05
2.348408192e-05
2.348880185e-05
2.349248221e-05
2.349495289e-05
2.349602632e-05
2.349632735e-05
2.349645077e-05
2.34965054e-05
2.349651005e-05
2.349646933e-05
2.349651377e-05
5.083062529e-07
1.196981069e-05
2.285718266e-05
2.332444265e-05
2.333710081e-05
2.334175407e-05
2.334710051e-05
2.335302984e-05
2.335953551e-05
2.336660467e-05
2.337443678e-05
2.338232496e-05
2.339077283e-05
2.339939965e-05
2.340814358e-05
2.341689011e-05
2.342588855e-05
2.343427957e-05
2.344259983e-05
2.345058945e-05
2.345823529e-05
2.346508659e-05
2.347113957e-05
2.347667828e-05
2.348120826e-05
2.348469891e-05
2.348755519e-05
2.34897156e-05
2.349109589e-05
2.349183766e-05
2.34920189e-05
2.349164667e-05
2.349074387e-05
5.083061509e-07
1.196767334e-05
2.284928282e-05
2.331604886e-05
2.332854484e-05
2.333300936e-05
2.333805523e-05
2.334387908e-05
2.335027933e-05
2.335707927e-05
2.336433218e-05
2.337221042e-05
2.338015879e-05
2.338852714e-05
2.339700373e-05
2.340552402e-05
2.341383048e-05
2.342218344e-05
2.343038109e-05
2.343793119e-05
2.344541709e-05
2.345214728e-05
2.345851151e-05
2.346396207e-05
2.34687304e-05
2.347275621e-05
2.347608274e-05
2.347846327e-05
2.348017824e-05
2.348106109e-05
2.348125241e-05
2.348074775e-05
2.347956987e-05
5.083060575e-07
1.196572754e-05
2.284232902e-05
2.330883219e-05
2.332114098e-05
2.332539106e-05
2.3330228e-05
2.333573775e-05
2.334190754e-05
2.334862082e-05
2.335568868e-05
2.336308425e-05
2.337102449e-05
2.337889619e-05
2.338706168e-05
2.33953449e-05
2.340360983e-05
2.341144861e-05
2.34192806e-05
2.342700934e-05
2.343393252e-05
2.344055355e-05
2.344679694e-05
2.34521609e-05
2.345711959e-05
2.346120168e-05
2.346447964e-05
2.346701263e-05
2.346875929e-05
2.346977854e-05
2.346991541e-05
2.346931679e-05
2.346809929e-05
5.083059783e-07
1.196410565e-05
2.283626098e-05
2.330238157e-05
2.331472426e-05
2.331883984e-05
2.332347937e-05
2.332876875e-05
2.333469836e-05
2.3341258e-05
2.334819023e-05
2.335537598e-05
2.336285622e-05
2.337079578e-05
2.337853941e-05
2.338654763e-05
2.339453753e-05
2.340244457e-05
2.34098318e-05
2.341713097e-05
2.34241525e-05
2.343072587e-05
2.343651534e-05
2.34418778e-05
2.344675296e-05
2.345069314e-05
2.345399935e-05
2.345657522e-05
2.345839147e-05
2.345937213e-05
2.345950233e-05
2.345885064e-05
2.34575679e-05
5.083058985e-07
1.19622124e-05
2.282700759e-05
2.329236992e-05
2.330451752e-05
2.330863853e-05
2.331314233e-05
2.331830101e-05
2.332404133e-05
2.333032859e-05
2.333716855e-05