/*--------------------------------*- C++ -*----------------------------------*\
  =========                 |
  \\      /  F ield         | OpenFOAM: The Open Source CFD Toolbox
   \\    /   O peration     | Website:  https://openfoam.org
    \\  /    A nd           | Version:  8
     \\/     M anipulation  |
\*---------------------------------------------------------------------------*/
FoamFile
{
    version     2.0;
    format      ascii;
    class       volScalarField;
    location    "1.9/wallFilmRegion";
    object      alpha;
}
// * * * * * * * * * * * * * * * * * * * * * * * * * * * * * * * * * * * * * //

dimensions      [0 0 0 0 0 0 0];

internalField   nonuniform List<scalar> 
1342
(
0.9408774284
0.6061162692
0.3039157526
0.3403816279
0.2724030259
0.05810046383
0.0257581877
0.007968037664
0.0123983317
0.01529181179
0.04155191373
0.02155844608
0.02036164339
0.02440775106
0.03067981312
0.02816586292
0.02133394168
0.02490455129
0.2628814577
0.05584273895
0.05060154896
0.09692200076
0.1096452126
0.04131200155
0.01781206611
0.001739956913
0.002963282176
0.00996468536
0.02280456892
0.0110442231
0.01286666861
0.0172943024
0.0193389568
0.01589082907
0.01330128279
0.01173375906
0.1239731222
0.7299881795
0.1606682
0.01764627223
0.04923538154
0.08263024153
0.0302435946
0.02399206903
0.02560723727
0.02072449539
0.02915039482
0.03513158713
0.03087968313
0.02404736549
0.02275288958
0.001132391586
0.001133412544
0.000517135035
0.001383729724
0.001540376362
0.003273716812
0.0118077945
0.01316932529
1.163664699
0.1517237515
0.0589091513
0.05943190685
0.039288965
0.001111018116
0.0007727219982
0.00459850942
0.01559094776
0.01864832583
0.04302457343
0.06028566543
0.03949075578
0.04107984344
0.2701264789
0.02303101259
0.04338586522
0.001013662602
0.0161044568
0.04312046909
0.05047393144
0.08879750374
0.1307784698
0.1606367149
0.1279378493
0.3630103133
0.4046499957
0.0008272305934
0.0002350158299
0.0002020787136
0.009981185262
0.01205590759
0.009308420989
0.02261150741
0.03614832323
0.05232741484
1.309569138e-07
3.657756848e-09
0.0003904781559
0.137273637
0.9691405689
0.2295807428
0.2698447214
0.1419940346
0.1326085432
0.5184075821
0.3270453638
0.07224163006
0.0976190916
0.3199500357
0.1163013711
0.1208032207
1.615188314
0.06569355324
0.09049636918
0.3082807547
0.1251222547
0.0604840085
0.07813282719
0.01394676678
0.007179876636
0.02206580696
0.008489180569
0.01073969363
0.02012770654
0.01312015978
0.01374204421
0.01805174821
0.01307713475
0.01227939965
0.01581625544
0.01156363661
0.01073861165
0.01360243262
0.009778780384
0.008778077104
0.00691497274
0.007846195733
0.007214488941
0.4094409682
0.007490315231
0.008321463492
0.2011984914
0.4219739489
0.1045115805
0.004935104377
0.007097068044
0.003385393095
0.001376708293
0.003168527038
0.0005223623797
0.002079366757
0.0004259736308
0.0004367702059
0.00681277652
0.0004085854875
0.0003355029368
0.01081700445
0.001004362806
0.01176924511
0.008770222534
0.006710740049
0.005307174941
0.007769973163
0.005196971687
0.004730918158
0.006411947654
0.004072865309
0.003559392202
0.005059092188
0.003275033151
0.003167603606
0.003815118045
0.003131328669
0.003156333505
0.004734913887
0.003368126456
0.004297617157
0.525333432
0.03177174117
0.2249713666
0.00814993719
0.02324077144
0.009031052745
0.00393569198
0.00608269843
0.00557145689
0.0003620376721
0.001887684246
0.0002184490408
0.0001546478242
0.0001172726874
6.888497679e-05
0.0001549569483
8.493756155e-05
0.0001365795174
0.02945349061
0.001202295501
0.009538547905
0.002716248399
0.004181171244
0.001944255964
0.003180206393
0.002032334469
0.002254474169
0.001481021384
0.002344979069
0.001690425326
0.0008743192084
0.0005784213085
8.498790862e-05
0.001062587573
0.0001998722595
0.0004053429577
0.002219099923
0.000601777337
0.0004578785079
0.08788716858
3.131111002e-05
0.03489106233
0.01324058999
0.04711712307
0.02170420439
0.007891360095
0.01578841538
0.00981625475
0.0001496656866
0.00293318785
9.078024062e-05
4.14404133e-05
0.0003424194517
7.566431286e-05
0.0001274141644
8.022042287e-05
0.000110920911
0.007684224864
0.0009588354426
0.007710305278
0.001411368218
0.008261422819
0.001271820057
0.002022709213
0.0001962074928
6.270934498e-05
0.004900443464
6.050652509e-05
5.876036098e-05
0.004684766868
4.57355659e-05
2.622387747e-05
0.0009614856723
1.413980658e-05
1.075974531e-05
1.336743565e-06
1.217620081e-05
2.226815019e-06
0.0258454075
5.769468357e-06
0.0006002705208
2.239547058
0.1245219067
1.082057925
0.0403829515
0.1176749177
0.08286074236
0.01470256741
0.06473570337
0.03549286765
1.336487415e-05
0.01685839966
0.00484694049
8.141829854e-05
0.0001574983203
0.0001711090409
0.0002289207294
0.01107682422
0.0551865431
0.01646782372
0.01708129274
0.009767539469
0.003711234084
0.01640432513
0.01471956758
5.682960987e-05
0.0007412352508
5.908612859e-05
2.904400436e-05
4.438666734e-05
2.948040028e-05
8.144899426e-06
1.800646235e-05
8.992889445e-06
4.946008557e-07
3.033175316e-06
3.183108433e-07
4.367318877e-07
1.517739269e-07
2.446288898e-07
0.0002901651886
1.591919776e-05
0.0007405220535
1.430919636
0.02365861021
2.018749151
0.1725295197
0.1109815276
0.1576991474
0.0906228512
0.1428614502
0.07563371856
0.04113300491
0.0306612691
0.01427161777
0.03569232342
0.008478096281
0.005846913436
0.004886207143
0.004233109191
0.002935031792
0.002090734563
0.001832371074
0.0009824788608
0.01280370255
0.0004380041975
0.0002850258106
4.503298662e-05
0.000283150447
2.916585783e-05
2.511125049e-05
1.903848973e-05
1.548637898e-05
9.80118362e-06
1.308282855e-05
8.419491741e-06
2.389477697e-07
4.083185474e-06
3.006031356e-07
7.072635952e-07
2.254654104e-07
1.369652465e-06
0.006355830869
0.4068063351
0.4351866501
0.06332030579
0.03090143749
0.03464611976
0.01710291604
0.01188847658
0.01918043276
0.009210315578
0.007846832173
0.009218182094
0.007108000236
0.00671393974
0.007206773223
0.006814166617
0.007554123016
0.005741011381
0.009103322993
0.01115665632
0.002500283326
0.01154257463
0.00913628923
7.725782515e-05
0.00480597202
0.0002170552304
1.753709585e-05
0.0002277952056
0.0001775687933
6.897477322e-06
0.0002196002562
0.0002693399554
4.842379577e-07
0.0002967079176
0.0002185402016
4.906043017e-07
8.928572923e-07
2.786940129e-06
1.581446329e-06
1.126685596e-06
1.83658107e-06
0.5331214198
0.9789961422
0.4867228673
0.02877924103
0.05105110637
0.0130299949
0.03698836406
0.03125184543
0.008433696567
0.02663355984
0.02115319746
0.005688072171
0.01561511648
0.01114089617
0.004729295856
0.006546589636
0.003099941641
0.01357427502
0.003920056984
0.007897220598
0.02885920079
0.01637500406
0.03199279888
0.02363382066
0.05283028929
0.06559183146
0.008952785909
0.04846962952
0.01616922651
0.005595915859
0.005002275737
0.001210468213
0.0005062031189
0.0002060854385
5.541252563e-05
6.083151061e-05
0.0003780974055
0.00167632728
0.0006248900166
0.0006404702939
0.001345858281
0.0008226684094
0.001577125953
0.0012131586
0.001428336156
0.001167629254
0.0009652455046
0.0009614804565
0.000841763281
0.0009169096671
0.0007907858732
0.0007908373468
0.001064807484
0.000835176982
0.0009250247666
0.001453005801
0.001067295001
0.001275634795
0.002342077255
0.001596076631
0.002064100837
0.009198496582
0.003175172514
0.008419617069
0.2031117105
0.3967075743
0.6676340853
0.1668289449
0.09309975552
0.08087338461
0.0006483948917
0.001910560189
0.001068015923
0.0007198558741
0.0007024365456
0.0008309116173
0.001210277657
0.002055783963
0.0006440510194
0.0009850912204
0.0006587522345
0.000697145556
0.0007329601467
0.0007791505541
0.003075042353
0.01490053942
0.004191398023
0.0672333336
0.3650425736
0.2798820695
1.363364385
1.26432498
0.6950538689
0.0006319740863
0.002742597183
0.0006348785647
0.0009519638141
0.000552170301
0.001024986041
0.0008083053721
0.00147118142
0.001954982313
0.004390042481
0.006468710084
0.005852934312
0.01176799667
0.01878922791
0.009904897877
0.15750414
0.7331747194
0.09858029334
3.544630716
0.04439991593
0.3483253304
0.201136863
0.000513614607
0.008294410782
0.01640822376
0.02653183598
0.04996801965
0.06565872372
0.04961035157
0.07783244939
0.08314868688
0.04285790127
0.09530515063
0.03817428422
0.1211435612
0.519274154
0.01193935146
0.04851846896
0.1630052928
0.1818598565
0.6224397541
4.672638237
0.002850419037
3.373179899
0.005233192285
1.443646148
0.004658945332
1.016891075
0.004157398472
1.093148836
0.004452560654
1.291905048
0.005804481282
1.547586159
0.009063840231
2.039391511
0.02227595593
0.7010959064
4.232155736
0.1667620069
1.241799098
0.6622236207
0.178213512
0.03243907554
0.02071087256
0.01914158084
0.01695396908
0.01470452491
0.01183241126
0.1672648349
0.9356461874
0.4206838691
1.299891927
0.4141055892
0.8031161125
0.004880815259
0.005635429338
0.001738142498
0.003019416641
0.009393056781
0.009663535772
0.00831370249
0.007092751997
0.00574228075
0.004379808988
0.003622211916
0.09892513784
0.4977999618
0.5165978202
1.703207107
0.0265129858
0.003657455307
0.002298833781
0.0002096335754
0.0001301773922
0.0006855667265
0.00254638848
0.003809358986
0.00227936499
0.0009898506627
0.0009331573813
0.001378880726
0.004500574399
1.067061424
0.02874726035
0.009759634953
0.001964528754
0.0003461530205
7.179388709e-05
0.001129032089
0.004655757549
0.001401292127
0.003163642198
0.005967960364
0.002363691783
0.0003357719727
7.95291889e-07
0.2867071811
0.0988994609
0.02859568612
0.005204278491
0.0001398852708
8.946813291e-05
0.02545564366
0.02158232164
0.0002851182522
4.389633071e-05
1.71068799e-05
2.650152735e-06
2.983016291e-07
1.313267196e-05
0.05208776139
0.1373249423
0.1600557398
0.04818078744
0.04308518538
0.01643944479
0.002613505864
0.002420180128
0.003769559798
3.385160937e-05
1.756531101e-05
3.692029347e-06
1.795867311e-07
1.219004431e-05
0.01596459942
0.03954448246
0.02775488758
0.0127268132
0.007880887676
0.006619888521
0.004268601134
0.0009708598774
0.0001053729543
1.210616723e-05
2.807457089e-06
9.957976923e-07
4.545006665e-07
0.8644480633
1.092861409
0.09931880366
0.01809188489
0.010316886
0.006888193554
0.004848832238
0.007094401226
0.02182843473
0.02850598222
0.01309067726
0.007520569785
0.002659510735
1.505896639e-05
0.01834770341
0.5699001947
0.1700148468
0.1638876686
0.08927320532
0.02386873859
0.002125591597
0.01463006286
0.06213112747
0.1341791485
0.08666552828
0.004409862773
0.007191510215
0.02249501948
0.06256715257
0.0005662055895
0.0007473377731
0.001353118602
0.001066389488
0.0009166008068
0.0009652050825
0.001222881193
0.001791377305
0.003631119549
0.03433973505
0.1308235163
0.05708266835
0.266136845
0.1848128318
0.1265283219
0.1232026986
0.01722499127
0.01345954172
0.0009087844252
0.001460721534
0.001390530436
0.0008256369578
0.0006830200714
0.000690983739
0.0007464424987
0.0009759047248
0.001133128674
0.00166188993
0.002884839113
0.002933961684
0.0822032755
0.07378729113
0.06022762159
0.02413327974
0.3606551922
0.3192216297
1.015656154
0.004512027856
0.002296844307
0.03609044652
0.04378785316
0.04886149955
0.03890142633
0.04723588274
0.05767862118
0.06008348566
0.06145945647
0.06862284256
0.04525089497
0.03338447812
0.03504478971
0.03498308234
0.1608325679
0.1056512887
0.0008235967229
0.007293652377
0.01098891688
0.001452570086
0.0518445424
0.04005788344
0.05457218078
0.04901853649
0.04617865661
0.02200169939
0.04370018749
0.03674668219
0.006691005204
0.06355070193
0.1015792174
0.0766168162
0.1835666555
0.1320261991
0.2956418833
0.3872081532
0.3975830222
0.3577575323
0.0009381069998
0.01166543054
0.01055852435
0.009469413561
0.01822423707
0.05350215082
0.00308598283
7.739399556e-05
0.0006978588677
0.002581649993
0.02205334212
0.006189388152
0.007960686287
0.022883261
0.05668536198
1.21160784e-05
2.320842856e-05
0.0002748803953
0.007541445247
0.013077896
0.006649225014
0.01586476853
0.03644185322
0.06527333112
2.527759196e-06
1.231876916e-05
0.0002279121311
5.354605335
0.003309434825
1.255786952
0.0008219933019
4.127932431
0.004741248819
0.4625453888
0.2793963087
0.0008715598435
0.001492758342
2.474722275
0.005072292507
0.2040570303
0.121317476
0.001538623572
0.001396199495
1.006861407
0.004315460982
0.06025470586
0.03915450757
0.001220608005
0.001096354206
1.04147615
0.004197386566
0.03409024719
0.03167745601
0.001033725426
0.001026066276
1.178174049
0.004964240699
0.02931079612
0.02703289225
0.001071504538
0.001173669232
1.420406719
0.007091008109
0.02490439227
0.02273097357
0.001340894032
0.001588580278
1.689394415
0.01256305955
0.01950634986
0.01586832407
0.001954587049
0.002565583537
2.782853282
0.05826298869
0.03966681166
0.2375207637
0.004013271454
0.009666021997
0.206443482
2.279143762
0.03284563378
3.386322874
1.146416511
0.03383808743
0.07646916821
0.3666415717
1.190320135
0.1794316272
1.675164805
0.130848637
0.1118978401
2.995363658
0.5850793509
0.3434641756
0.4225266052
0.09590853684
0.06218723317
2.302725242
0.8302158373
0.2156841843
0.1344793745
11.22485744
0.1112548919
0.09202553538
0.07227519499
0.08467455
0.4380784073
0.04364508433
0.1800799373
0.01767471632
0.02812474813
0.05204162294
0.03653849874
0.6295803339
0.3782751573
0.03026361292
0.01947059616
0.01273287118
0.1654425645
1.036975642
0.004975282119
0.001239005224
0.1739223328
1.182269035
1.268393275
0.01007954073
0.00199590692
0.002532433603
0.132654531
1.255703877
1.081288684
0.01466624615
0.003236444102
0.004346680687
0.05247819635
0.7357668014
0.3703741927
0.02035414386
0.006672230885
0.01334267609
0.006435148786
0.1835495871
0.08912710522
0.03582427896
0.02082096401
0.01476820769
0.006241964066
0.05431479534
0.06299867343
0.01882106303
0.009460855757
0.008677077905
0.03198293402
0.117109735
0.2600526561
0.02218620569
0.009571493323
0.01077851898
0.1027237225
0.4922856969
0.7718308722
0.02716132673
0.01219287284
0.01362743353
0.1299483353
0.9892771018
1.033445089
0.03591740516
0.01482304254
0.01697831305
0.02451527657
0.8753827303
0.6156224911
0.02363297584
0.01279146062
0.01127467543
0.001578615993
0.2874601839
0.07362627314
0.02135714642
0.009946210158
0.009246494187
0.02876437983
0.0327994312
0.07724524303
0.01065268888
0.009311363354
0.01192951994
0.01011226881
0.4188356141
0.4530494593
0.136162189
0.1579474666
0.2187084926
0.03872982935
0.04324744307
0.05365209641
0.02819784775
0.07485219258
0.03181268106
0.05099177611
0.1090818953
0.07283851045
0.08928233629
0.09793969551
0.08359024434
0.1003391692
0.09703513265
0.07173336369
0.06009150178
0.08775940925
0.02831742633
0.03509679925
0.03714760696
0.05082511148
0.001108988876
0.002211158062
0.004767584177
0.006456433321
0.0198948976
0.01596991495
0.02622171815
0.015106563
0.02370495019
0.01662900589
0.01107486837
0.0144125326
0.01598052283
0.01507279839
0.01930479175
0.02267941148
0.01894312852
0.02530420231
0.02630806059
0.02022764836
0.02487637917
0.02369776582
0.01460456096
0.01986631907
0.01891909523
0.01223305464
0.01796439806
0.0166184304
0.01387166332
0.01813790813
0.01885477532
0.02418689811
0.01834216947
0.002251146732
0.0009167964693
0.0008838794232
0.001623971805
0.5574251054
0.4944786288
2.049445892
0.5015622403
0.4135110418
0.5496271185
0.1667226974
0.09698697752
0.0301315062
0.09718242609
0.05142194797
0.006879003072
0.03038768417
0.01711578671
0.006998934395
0.06430340708
0.04379153273
0.03057449747
0.01278806084
0.08920848401
0.06020255303
0.06625630698
0.07653348154
0.06947850811
0.06444710474
0.04818368938
0.04405294901
0.03135935859
0.06343809149
0.05145210923
0.01610229349
0.01031540631
0.03100345965
0.03146712273
0.03439811238
0.0289232355
0.02651900939
0.02060080043
0.02911121607
0.0345005922
0.02438072475
0.03301021505
0.03987972971
0.04344640024
0.04452731037
0.04233415017
0.03467560493
0.03046337501
0.02742612702
0.03615008201
0.02752263817
0.02353307969
0.02746711164
0.02348681611
0.02728573896
0.02920614167
0.02485850392
0.03031348828
0.031715704
0.03734296347
0.0005993004278
0.001158258994
0.002698221093
0.00327047423
0.004166102981
0.004086075935
0.02965879462
0.02163060761
0.01834414284
0.02062944522
0.002093789133
0.001082902472
0.01503208797
0.02913612518
0.172176148
0.08108344087
0.2190876499
0.1839952496
0.3042068467
0.1216577792
0.1804072991
0.0007234218847
0.00265410105
0.005652731629
0.00143171688
0.01146197864
0.003369897534
0.02199523314
0.04558914403
0.02619739241
0.02040083798
0.03114897317
0.04328456898
0.04773608191
0.05162750856
0.04715026026
0.05046919568
0.04609959287
0.05026259834
0.06596142199
0.07272965298
0.06992945474
0.07634524689
0.0711029313
0.06102347041
0.06115687032
0.04813040683
0.03608299606
0.03322889274
0.03612027997
0.03803259158
0.03850106341
0.04784365905
0.0395611009
0.04617436202
0.04152150391
0.05137479958
0.05153694495
0.04928345937
0.02918577486
0.03600018374
0.04225164843
0.04092599704
0.05454019024
0.06502405916
0.06260589851
0.07135436026
0.05587320851
0.03538919849
0.03417168355
0.03662949332
0.03559125724
0.03952623024
0.0004085494458
0.001001607615
0.001559244712
0.002145495391
0.03584563115
0.03072454654
0.03677613788
0.07172340907
0.07000161108
0.06717195154
0.07345157057
0.0002970797871
0.0003622872779
0.003345315368
0.001581813764
0.03643128515
0.03636648112
0.04259131056
0.05062616463
0.05880770437
0.06726673869
0.1018367323
0.110924159
0.1421660379
0.1892359363
0.2012512065
0.1270285237
0.2188530184
0.1787319525
0.1310169292
0.1830685261
0.129560571
0.2035141423
0.2176527931
0.2212708643
0.2445142566
0.2278470632
0.3926902355
0.2996134915
0.6278959626
0.3075859061
0.4651011255
0.0003572775556
0.0001972222953
0.000167238175
0.0002418586346
0.0003734475044
0.0001929324014
0.0002614910691
0.0007606241506
0.0002441069642
0.001211999244
0.003777100518
0.006009430841
0.0003772625926
0.002307533202
0.04113399633
0.01229182092
0.04051511606
0.01875915905
0.01085433609
0.008122509699
0.01435942324
0.04852016684
0.01006280383
0.01522759565
0.02101430865
0.05346043541
0.02493460838
0.0423311114
0.02756715449
0.02948944279
0.102387764
0.02960154259
0.03195509254
0.01870407681
0.05022280601
1.15940761e-07
1.171743072e-08
0.02742128504
7.119157766e-09
2.419799957e-09
0.01102439618
0.01280302464
0.04024133111
0.0004262485728
0.00740939848
0.01605899334
0.04107086659
0.02995054182
0.05791658196
0.04335952335
0.05273738379
0.07602118272
0.04100800947
0.03208767464
0.02518524202
0.04107999319
0.02996654031
0.0006302582583
0.0007145162363
0.03506139878
0.006647721093
0.03003805059
0.07995466396
0.05726065608
0.08774615706
0.136362886
0.1323763006
0.195629898
0.2383235624
0.2731549994
0.3574981763
0.3487516273
0.4412922277
0.5162093881
0.3956636554
0.5707681702
0.5931626883
0.3407327017
0.5773061957
0.4982016548
0.3644999949
0.5233125561
0.5617323989
0.618748639
0.0005417663718
0.0005440823611
0.002034105815
0.0007572306796
0.004285305754
0.01673301367
0.01596736256
0.01302902663
0.008765147138
0.0066406897
0.005538205311
0.01223207271
0.006382258132
0.009274482846
0.03011468434
0.01574988965
0.02737755043
0.1354665338
0.04745937291
0.1212686591
5.127784864e-05
0.002971983191
1.529279101e-05
0.0001785081923
2.921873839e-05
7.656883512e-05
0.0004938806165
0.0002977890798
0.0003533161382
0.0002642636903
0.0006338926159
0.001104053064
0.01728546782
0.008252431779
0.02255125062
0.01043969095
0.01458472848
0.007406431298
0.005919425201
0.005889954342
0.006885745259
0.01316281929
0.01098746465
0.01935937123
0.03632225418
0.03064723012
0.04355061425
0.134935673
0.06313695103
0.1433328266
9.980704526e-06
4.747860549e-06
6.969804461e-06
6.542793216e-05
1.768779975e-05
5.92889861e-05
0.0003109547803
0.0002503896404
0.0002734206605
0.0002113636216
0.0002451512249
0.001150729123
0.001432855374
0.001676703287
0.01879458456
0.009639636765
0.02107547351
0.019064698
0.007280443354
0.01295602164
0.007982865517
0.008195126414
0.009092447987
0.00824379796
0.01234452198
0.02601669803
0.0209118915
0.03039504923
0.03005186138
0.04764727468
0.03881944378
0.04771951201
0.1418677507
0.0620688963
0.1285143907
4.093936446e-06
9.033486832e-07
1.566102785e-06
5.948947967e-09
5.472302998e-05
6.066215222e-06
5.392326531e-05
0.0002174403325
8.940505329e-10
)
;

boundaryField
{
    walls
    {
        type            zeroGradient;
    }
    wallFilmFace_top
    {
        type            zeroGradient;
    }
    region0_to_wallFilmRegion_wallFilmFace
    {
        type            zeroGradient;
    }
    mirrorFace_top
    {
        type            zeroGradient;
    }
    region0_to_wallFilmRegion_mirrorFace
    {
        type            zeroGradient;
    }
    procBoundary3to2
    {
        type            processor;
        value           nonuniform List<scalar> 
64
(
0.002759627887
0.0006016236645
0.00150049504
0.002911526421
0.003363060941
0.0004513477147
0.0003195682709
0.000120315688
0.0007000237392
0.9131828732
0.6644537786
0.4190448077
0.4190448077
0.07766955414
2.159102143
0.09573225397
0.08175118408
0.1076727295
0.2407321931
0.3939207447
0.382883239
0.2409868566
0.09317893604
0.09317893604
0.5166352885
0.2102142786
0.2102142786
0.3922389154
0.1463311306
0.1463311306
0.0004981623277
0.0005519792407
0.0005519792407
0.0005301135771
0.0005012935062
5.711762637
0.004162121391
1.72484379
0.2068251948
0.0008154570072
0.008790641725
0.000131046004
0.0002015295971
0.0003098516913
0.0004062940135
0.0005313880812
1.72484379
0.0008154570072
1.112080025
0.0007086707225
0.001010112556
0.001938388685
0.002911526421
0.004662537091
0.0004089266273
0.01177335796
0.01451336237
0.0002229974003
0.009051882499
0.0008053105906
0.0002629464287
0.0003571735112
0.0004766500535
0.0005891346355
)
;
    }
}


// ************************************************************************* //
