/*--------------------------------*- C++ -*----------------------------------*\
  =========                 |
  \\      /  F ield         | OpenFOAM: The Open Source CFD Toolbox
   \\    /   O peration     | Website:  https://openfoam.org
    \\  /    A nd           | Version:  8
     \\/     M anipulation  |
\*---------------------------------------------------------------------------*/
FoamFile
{
    version     2.0;
    format      ascii;
    class       volScalarField;
    location    "1.9/wallFilmRegion";
    object      kappa;
}
// * * * * * * * * * * * * * * * * * * * * * * * * * * * * * * * * * * * * * //

dimensions      [1 1 -3 -1 0 0 0];

internalField   nonuniform List<scalar> 
1342
(
0.6088099995
0.6088099785
0.6088098743
0.6088098891
0.6088099068
0.6088099406
0.608809958
0.608809996
0.6088099966
0.6088099958
0.6088099985
0.6088099994
0.6088099995
0.6088099994
0.6088099992
0.6088099976
0.6088099931
0.6088099783
0.6088099995
0.6088099362
0.6088098925
0.6088099082
0.6088099263
0.608809961
0.6088099788
0.6088099934
0.6088099949
0.6088099973
0.6088099992
0.6088099996
0.6088099997
0.6088099998
0.6088099998
0.6088099996
0.6088099985
0.6088099953
0.6088099992
0.6088099997
0.6088099996
0.6088099054
0.6088099202
0.6088099383
0.6088099911
0.6088099987
0.6088099996
0.6088099998
0.6088099998
0.6088099999
0.6088099999
0.6088099998
0.6088099993
0.6088099893
0.6088099881
0.6088099811
0.6088099918
0.6088099918
0.6088099954
0.6088099984
0.6088099955
0.6088099999
0.6088099808
0.6088099708
0.608809982
0.6088099977
0.6088099899
0.6088099849
0.6088099974
0.608809999
0.6088099991
0.6088099995
0.6088099998
0.6088099966
0.6088099894
0.6088099827
0.6088099828
0.6088099938
0.6088099906
0.6088099989
0.6088099997
0.6088099999
0.6088099999
0.6088099999
0.6088099999
0.6088099984
0.6088099957
0.608809991
0.6088098636
0.6088099374
0.6088099764
0.6088099978
0.6088099994
0.6088099997
0.6088099998
0.6088099999
0.6088099999
0.6088082604
0.6088086561
0.6088099954
0.6088099992
0.6088099996
0.6088099995
0.6088099997
0.6088099998
0.6088099998
0.6088099991
0.6088098808
0.6088098863
0.6088098939
0.6088098979
0.6088099022
0.6088099111
0.608809993
0.6088099919
0.6088099936
0.6088099938
0.6088099931
0.6088099934
0.6088099954
0.6088099947
0.6088099969
0.6088099969
0.6088099971
0.6088099971
0.608809997
0.608809997
0.6088099969
0.6088099973
0.6088099967
0.6088099969
0.6088099977
0.6088099971
0.6088099974
0.6088099981
0.6088099977
0.6088099979
0.6088099986
0.6088099981
0.6088099984
0.6088099994
0.6088099988
0.6088099992
0.6088099854
0.6088099855
0.6088099861
0.6088099963
0.6088099896
0.6088099966
0.6088100142
0.6088100007
0.6088100251
0.6088100012
0.6088100171
0.6088100105
0.6088099976
0.6088100057
0.6088100055
0.6088099975
0.6088100026
0.6088100013
0.608809996
0.608809997
0.6088099943
0.6088099969
0.6088099943
0.608809995
0.6088099978
0.6088099961
0.6088099973
0.6088099983
0.6088099981
0.6088099985
0.608809999
0.6088099988
0.6088099991
0.6088099997
0.6088099994
0.6088099997
0.6088099998
0.6088099997
0.6088099998
0.6088099945
0.6088099938
0.6088099944
0.6088099965
0.6088099952
0.608809996
0.6088100342
0.6088099991
0.6088100378
0.6088100359
0.6088100462
0.6088100563
0.6088100516
0.6088100648
0.6088101886
0.6088100113
0.608810053
0.6088100271
0.6088099927
0.6088100229
0.6088100011
0.6088099903
0.6088099875
0.6088099852
0.6088099935
0.6088099848
0.6088099847
0.6088099988
0.6088099859
0.6088100039
0.6088099994
0.6088100016
0.6088100006
0.6088099998
0.6088100004
0.6088100008
0.6088099998
0.60881001
0.6088099998
0.6088099945
0.6088099944
0.6088099948
0.6088099956
0.6088099952
0.6088099955
0.6088100361
0.6088099967
0.6088100406
0.6088100698
0.6088100224
0.6088100479
0.6088100999
0.6088100595
0.60881008
0.6088100292
0.6088100395
0.608810026
0.6088100141
0.6088100196
0.6088100273
0.6088099859
0.6088100391
0.608810045
0.6088099846
0.6088100347
0.6088100313
0.6088099851
0.6088100316
0.6088100351
0.6088099914
0.60881004
0.6088100452
0.608810099
0.6088100507
0.6088100972
0.6088099998
0.6088100601
0.6088100016
0.6088099678
0.6088099999
0.6088099246
0.608809995
0.608809995
0.6088099952
0.6088099954
0.6088099953
0.6088099954
0.6088101102
0.6088099956
0.6088099963
0.6088100445
0.6088100297
0.6088100431
0.6088100695
0.6088099996
0.608809998
0.6088100053
0.6088099989
0.6088100013
0.608810017
0.6088100041
0.6088100098
0.6088100491
0.6088100196
0.6088100476
0.6088100383
0.608810039
0.6088100384
0.6088100486
0.6088100421
0.6088100502
0.6088100748
0.6088100636
0.6088100805
0.6088101069
0.6088100957
0.608810115
0.608810002
0.6088100183
0.6088100006
0.6088099467
0.6088099999
0.6088099589
0.6088099952
0.6088099952
0.6088099952
0.6088099955
0.6088099953
0.6088099954
0.6088099963
0.6088099959
0.6088099966
0.6088099966
0.6088099976
0.6088099983
0.6088099983
0.6088099987
0.6088099991
0.6088100004
0.6088099996
0.6088100005
0.6088100063
0.6088100024
0.6088100062
0.6088100494
0.608810012
0.6088100508
0.6088100404
0.6088100475
0.6088100476
0.6088100525
0.6088100497
0.6088100578
0.6088100898
0.6088100729
0.6088101028
0.608810126
0.6088101188
0.6088101346
0.6088099999
0.6088099988
0.6088099981
0.6088099953
0.6088099922
0.6088099944
0.6088099893
0.608809988
0.6088099947
0.6088099881
0.6088099896
0.6088099966
0.6088099919
0.6088099943
0.6088099982
0.6088099963
0.6088099976
0.6088099986
0.608809998
0.6088099982
0.6088099993
0.6088099984
0.6088099986
0.6088100174
0.608809999
0.6088100167
0.6088100587
0.6088100157
0.6088100135
0.6088100671
0.6088100093
0.6088100067
0.6088100987
0.6088100054
0.6088100049
0.6088101072
0.6088100652
0.6088099964
0.60881014
0.6088100897
0.6088101368
0.6088099932
0.6088099981
0.608809995
0.6088099829
0.6088099747
0.6088099798
0.6088099762
0.608809979
0.6088099838
0.6088099816
0.6088099837
0.6088099894
0.6088099856
0.6088099875
0.6088099956
0.6088099894
0.6088099923
0.6088099976
0.6088099943
0.6088099958
0.6088099981
0.6088099968
0.6088099975
0.6088099986
0.6088099978
0.608809998
0.6088099989
0.6088099981
0.6088099983
0.6088099992
0.6088099987
0.6088099996
0.6088100022
0.6088100008
0.6088099635
0.6088099309
0.6088099404
0.608809935
0.6088099804
0.6088099808
0.6088099918
0.6088099862
0.6088099922
0.6088099903
0.6088099911
0.6088099896
0.6088099882
0.608809988
0.6088099865
0.608809987
0.6088099854
0.6088099849
0.6088099877
0.608809985
0.6088099857
0.6088099899
0.6088099869
0.6088099883
0.6088099926
0.6088099899
0.6088099913
0.6088099966
0.6088099929
0.608809996
0.6088099994
0.6088099997
0.6088099997
0.6088099998
0.6088099942
0.6088099928
0.6088099816
0.6088099928
0.6088099886
0.6088099847
0.6088099833
0.6088099842
0.6088099876
0.6088099911
0.6088099824
0.6088099881
0.608809984
0.6088099843
0.6088099843
0.6088099843
0.6088099938
0.6088099968
0.6088099926
0.6088099987
0.6088099996
0.6088099995
0.6088099997
0.6088099998
0.6088099997
0.6088099836
0.6088099933
0.6088099831
0.6088099864
0.6088099823
0.6088099898
0.6088099884
0.6088099918
0.6088099931
0.6088099968
0.6088099976
0.608809997
0.6088099985
0.6088099989
0.6088099979
0.6088099991
0.6088099998
0.6088099971
0.6088099999
0.6088099959
0.6088099995
0.6088099802
0.6088099847
0.6088099986
0.6088099988
0.6088099992
0.6088099998
0.6088099998
0.6088099997
0.6088099999
0.6088099999
0.6088099997
0.6088099999
0.6088099921
0.6088099904
0.6088099887
0.6088099985
0.6088099997
0.6088099999
0.6088099964
0.6088099947
0.608809994
0.6088099869
0.6088099951
0.6088099929
0.6088099963
0.6088099929
0.6088099976
0.6088099925
0.6088099983
0.6088099929
0.6088099988
0.6088099942
0.6088099991
0.6088099959
0.6088099993
0.6088099976
0.6088099993
0.6088099993
0.608809999
0.6088099912
0.6088099929
0.6088099946
0.6088099964
0.608809997
0.6088099971
0.6088099975
0.6088099979
0.6088099984
0.6088099994
0.6088099995
0.6088099998
0.6088099997
0.6088099998
0.6088099838
0.6088099922
0.608810001
0.6088100067
0.6088099983
0.6088099975
0.6088099963
0.6088099964
0.6088099974
0.6088099981
0.6088099986
0.6088099994
0.6088099997
0.6088099998
0.6088099998
0.6088099998
0.6088099937
0.6088099956
0.6088100004
0.6088100356
0.6088100378
0.6088100755
0.6088100158
0.6088099904
0.6088099911
0.608809997
0.6088099991
0.6088099997
0.6088099998
0.6088099998
0.608809994
0.6088099951
0.6088099977
0.6088100262
0.6088100668
0.608810075
0.608810025
0.6088099911
0.608809985
0.6088099846
0.6088099869
0.6088099986
0.6088101054
0.6088099998
0.6088099947
0.6088099952
0.608809996
0.608810028
0.6088100552
0.6088100003
0.6088100099
0.6088100322
0.6088100397
0.6088100414
0.6088100604
0.6088100888
0.6088100286
0.6088099999
0.6088099952
0.6088099953
0.6088099958
0.6088099965
0.6088099971
0.6088099995
0.6088100011
0.6088100108
0.6088100407
0.6088100441
0.6088100674
0.6088101058
0.6088100202
0.6088099999
0.6088099946
0.6088099944
0.6088099955
0.6088099976
0.6088099984
0.6088099989
0.6088100002
0.6088100183
0.6088100597
0.6088100817
0.6088101018
0.6088101237
0.608809998
0.6088099629
0.6088099895
0.6088099799
0.6088099815
0.6088099865
0.6088099924
0.608809997
0.6088099979
0.6088099983
0.6088099988
0.608809999
0.6088099998
0.6088099488
0.608809997
0.6088099949
0.608809981
0.6088099855
0.6088099879
0.6088099906
0.6088099948
0.608809996
0.6088099973
0.6088099978
0.608809998
0.6088099945
0.6088099472
0.6088099716
0.6088099369
0.6088099758
0.6088099855
0.6088099913
0.6088099892
0.6088099874
0.6088099871
0.6088099887
0.6088099912
0.6088099942
0.6088099984
0.6088099992
0.6088099987
0.6088099997
0.6088099998
0.6088099997
0.6088099997
0.6088099834
0.6088099898
0.6088099872
0.6088099908
0.6088099902
0.6088099863
0.6088099844
0.6088099837
0.6088099834
0.6088099856
0.6088099877
0.6088099901
0.6088099941
0.6088099919
0.6088099572
0.6088099635
0.6088099721
0.6088099971
0.6088099996
0.6088099981
0.6088099999
0.6088099168
0.6088099226
0.6088099526
0.6088099994
0.6088099995
0.6088099998
0.6088099999
0.6088099999
0.6088099999
0.6088099999
0.6088099999
0.6088099999
0.6088099998
0.6088099998
0.6088099996
0.6088099832
0.6088099883
0.6088099308
0.6088099667
0.6088099755
0.6088099741
0.6088099999
0.6088099999
0.6088099999
0.6088099999
0.6088099998
0.6088099996
0.6088099983
0.6088099984
0.6088099983
0.6088099997
0.6088099999
0.6088099999
0.60881
0.6088099999
0.60881
0.6088099999
0.6088099999
0.6088099995
0.6088099937
0.608809999
0.6088099997
0.6088099998
0.6088099999
0.6088099999
0.6088099936
0.6088097911
0.6088098549
0.6088099969
0.6088099992
0.6088099997
0.6088099998
0.6088099999
0.6088099999
0.608809638
0.6088098525
0.6088099294
0.6088099979
0.6088099993
0.6088099997
0.6088099998
0.6088099999
0.6088099999
0.6088095792
0.6088099017
0.6088099719
0.6088099935
0.6088099853
0.6088099936
0.6088099809
0.6088099945
0.6088099922
0.6088099936
0.6088099943
0.6088099854
0.6088099916
0.6088099956
0.608809993
0.608809995
0.6088099957
0.6088099917
0.6088099912
0.6088099971
0.6088099927
0.6088099965
0.608809997
0.6088099904
0.6088099897
0.608809998
0.6088099926
0.6088099973
0.6088099974
0.6088099891
0.6088099888
0.6088099986
0.6088099934
0.6088099976
0.6088099978
0.608809989
0.6088099895
0.608809999
0.608809995
0.608809998
0.6088099982
0.6088099904
0.6088099914
0.6088099992
0.6088099967
0.6088099985
0.6088099988
0.6088099926
0.6088099938
0.6088099993
0.6088099985
0.6088099992
0.6088099993
0.6088099952
0.6088099971
0.6088099993
0.6088099994
0.6088099985
0.6088099995
0.6088099996
0.6088099995
0.6088099997
0.6088099997
0.6088099998
0.6088099998
0.6088099998
0.6088099997
0.6088099929
0.608809999
0.6088099997
0.6088098943
0.6088099448
0.6088099329
0.6088098799
0.6088099714
0.608809995
0.608809915
0.6088099233
0.6088099929
0.6088099201
0.6088099283
0.6088099351
0.6088099356
0.6088099622
0.6088099492
0.608809996
0.608809918
0.6088099616
0.6088099272
0.6088099501
0.6088099694
0.6088099584
0.6088099553
0.608809966
0.6088099746
0.6088099774
0.6088099846
0.6088099954
0.6088099932
0.6088099836
0.6088099869
0.6088099886
0.6088099964
0.6088099942
0.6088099948
0.6088099869
0.6088099898
0.6088099905
0.6088099965
0.6088099953
0.6088099957
0.6088099891
0.6088099907
0.6088099909
0.6088099967
0.6088099963
0.608809998
0.6088099921
0.6088099929
0.6088099961
0.6088099991
0.608809999
0.6088099994
0.6088099953
0.6088099976
0.6088099972
0.6088099995
0.6088099996
0.6088099996
0.6088099968
0.6088099971
0.6088099973
0.6088099995
0.6088099996
0.6088099997
0.6088099976
0.6088099975
0.6088099977
0.6088099994
0.6088099997
0.6088099997
0.6088099979
0.6088099978
0.6088099979
0.6088099989
0.6088099997
0.6088099997
0.6088099979
0.6088099978
0.6088099974
0.608809996
0.6088099993
0.6088099986
0.6088099635
0.6088099951
0.6088099772
0.6088099878
0.6088099974
0.6088099956
0.6088099745
0.6088099496
0.6088099577
0.6088099891
0.6088099928
0.6088099789
0.6088099862
0.6088099997
0.6088099997
0.6088099998
0.6088099998
0.6088099998
0.6088098929
0.6088099476
0.6088099714
0.6088099168
0.6088098999
0.6088098989
0.6088099061
0.6088099172
0.6088099142
0.6088099231
0.6088099346
0.6088099412
0.6088099321
0.6088099404
0.608809957
0.6088099539
0.6088099476
0.6088099713
0.6088099784
0.6088099739
0.6088099689
0.6088099922
0.6088099942
0.6088099959
0.6088099968
0.6088099985
0.6088099981
0.608809999
0.6088099995
0.6088099994
0.6088099996
0.6088099997
0.6088099997
0.6088099997
0.6088099997
0.6088099998
0.6088099998
0.6088099998
0.6088099998
0.6088099998
0.6088099998
0.6088099998
0.6088099998
0.6088099992
0.6088099998
0.6088099995
0.6088099972
0.608809999
0.6088099981
0.6088099928
0.6088099962
0.6088099942
0.6088099867
0.6088099916
0.6088099931
0.6088099872
0.6088099853
0.6088099907
0.6088099998
0.6088099998
0.6088099997
0.6088099999
0.6088099998
0.6088099998
0.608809997
0.6088099962
0.6088099493
0.6088099807
0.6088099692
0.6088099109
0.6088099127
0.6088099195
0.6088099231
0.6088099286
0.608809933
0.6088099273
0.6088099313
0.6088099441
0.6088099425
0.6088099544
0.6088099606
0.6088099713
0.608809974
0.6088099874
0.6088099822
0.6088099882
0.6088099764
0.608809984
0.6088099984
0.6088099977
0.6088099993
0.6088099991
0.6088099995
0.6088099997
0.6088099998
0.6088099997
0.6088099998
0.6088099999
0.6088099998
0.6088099998
0.6088099999
0.6088099999
0.6088099999
0.6088099999
0.6088099999
0.6088099998
0.6088099998
0.6088099999
0.6088099998
0.6088099997
0.6088099997
0.6088099984
0.6088099994
0.6088099988
0.6088099954
0.6088099976
0.6088099962
0.6088099931
0.6088099842
0.6088099898
0.608809993
0.6088099963
0.6088099969
0.6088099967
0.6088099994
0.6088099991
0.608809996
0.6088099916
0.6088099918
0.6088099923
0.608809999
0.6088099993
0.6088099979
0.6088099861
0.6088099884
0.608809991
0.6088099984
0.6088099779
0.6088099799
0.6088099429
0.6088099314
0.6088099386
0.6088099502
0.6088099473
0.608809958
0.6088099441
0.6088099575
0.6088099659
0.6088099568
0.6088099888
0.6088099752
0.6088099817
0.6088099996
0.6088099997
0.6088099998
0.6088099998
0.6088099999
0.6088099999
0.6088099999
0.6088099999
0.6088099999
0.6088099999
0.6088099999
0.6088099999
0.6088099998
0.6088099997
0.6088099997
0.6088099998
0.6088099996
0.6088099996
0.6088099921
0.6088099962
0.6088099956
0.6088099983
0.6088099892
0.6088099885
0.6088099936
0.608809999
0.6088099991
0.6088099997
0.6088099999
0.6088099999
0.6088099999
0.6088099999
0.6088099999
0.6088099999
0.6088099998
0.6088099998
0.6088099998
0.608809999
0.6088099991
0.6088099851
0.6088099898
0.6088099906
0.6088099944
0.6088099995
0.6088099997
0.6088099997
0.6088099999
0.6088099975
0.6088099938
0.6088099893
0.6088099856
0.6088099877
0.6088099959
0.6088099938
0.6088099995
0.6088099994
0.6088099999
0.6088099999
0.6088099999
0.6088099999
0.6088099999
0.6088099999
0.6088099999
0.6088099999
0.6088099999
0.6088099999
0.6088099999
0.6088099999
0.6088099958
0.6088099988
0.6088099866
0.6088099937
0.6088099861
0.6088099909
0.6088099831
0.6088099828
0.608809993
0.6088099855
0.6088099925
0.6088099834
0.6088099871
0.608809933
0.608809925
0.6088099381
0.6088099496
0.6088099596
0.6088099531
0.6088099655
0.6088099683
0.608809987
0.608809978
0.6088099841
0.6088099909
0.6088099859
0.6088099947
0.6088099994
0.6088099978
0.6088099997
0.6088099988
0.6088099994
0.6088099997
0.6088099998
0.6088099999
0.6088099998
0.6088099998
0.6088099999
0.6088099999
0.6088099999
0.6088099999
0.6088099999
0.6088099999
0.6088099999
0.6088099998
0.6088099999
0.6088099996
0.6088099999
0.6088077508
0.6088081869
0.6088099996
0.6088083815
0.6088085231
0.6088099974
0.6088099954
0.6088099961
0.6088099937
0.6088099883
0.6088099932
0.6088099993
0.6088099991
0.6088099999
0.6088099999
0.6088099999
0.6088099999
0.6088099998
0.6088099995
0.6088099997
0.6088099991
0.6088099992
0.6088099912
0.6088099921
0.6088099994
0.6088099985
0.6088099995
0.6088099999
0.6088099998
0.6088099999
0.6088099999
0.6088099999
0.6088099999
0.60881
0.60881
0.60881
0.6088099999
0.60881
0.6088099999
0.6088099999
0.6088099999
0.6088099999
0.6088099999
0.6088099999
0.6088099999
0.6088099985
0.6088099999
0.6088099993
0.6088099985
0.6088099902
0.6088099904
0.6088099967
0.6088099927
0.608809998
0.6088099994
0.608809999
0.6088099994
0.6088099997
0.6088099997
0.6088099997
0.6088099998
0.6088099998
0.6088099998
0.6088099999
0.6088099999
0.6088099999
0.6088099999
0.6088099999
0.6088099999
0.6088097231
0.6088099952
0.6088097494
0.6088098325
0.6088098271
0.6088098754
0.6088098713
0.6088099035
0.6088098982
0.6088099134
0.6088099915
0.6088099942
0.6088099988
0.6088099982
0.6088099989
0.6088099995
0.6088099993
0.6088099996
0.6088099998
0.6088099997
0.6088099998
0.6088099998
0.6088099998
0.6088099998
0.6088099999
0.6088099999
0.6088099999
0.6088099999
0.6088099999
0.6088099999
0.6088097765
0.6088096395
0.6088097946
0.6088099033
0.6088098782
0.6088099312
0.6088099245
0.6088099532
0.6088099495
0.6088099587
0.6088099697
0.608809994
0.6088099944
0.6088099943
0.6088099988
0.608809998
0.6088099989
0.6088099988
0.6088099996
0.6088099994
0.6088099997
0.6088099997
0.6088099998
0.6088099997
0.6088099998
0.6088099999
0.6088099998
0.6088099999
0.6088099999
0.6088099999
0.6088099999
0.6088099999
0.6088099999
0.6088099999
0.6088099999
0.608809798
0.6088093537
0.6088097576
0.6088085561
0.6088099559
0.6088099145
0.6088099754
0.6088099866
0.608808692
)
;

boundaryField
{
    walls
    {
        type            zeroGradient;
    }
    wallFilmFace_top
    {
        type            zeroGradient;
    }
    region0_to_wallFilmRegion_wallFilmFace
    {
        type            zeroGradient;
    }
    mirrorFace_top
    {
        type            zeroGradient;
    }
    region0_to_wallFilmRegion_mirrorFace
    {
        type            zeroGradient;
    }
    procBoundary3to2
    {
        type            processor;
        value           nonuniform List<scalar> 
64
(
0.6088099944
0.6088099905
0.6088099925
0.6088099949
0.6088099955
0.6088099768
0.6088099774
0.608809976
0.6088099899
0.6088099871
0.6088099834
0.6088099859
0.6088099859
0.6088099824
0.6088099855
0.6088099921
0.6088099937
0.608809994
0.6088099945
0.6088099951
0.6088099958
0.6088099961
0.6088099955
0.6088099955
0.6088099971
0.6088099963
0.6088099963
0.6088099942
0.608809978
0.608809978
0.6088099709
0.6088099756
0.6088099756
0.6088099758
0.6088099762
0.6088099932
0.6088099855
0.6088099931
0.608809973
0.6088099772
0.6088099979
0.6088099786
0.6088099817
0.6088099859
0.6088099883
0.6088099895
0.6088099931
0.6088099772
0.608809981
0.6088099917
0.6088099912
0.6088099935
0.6088099949
0.6088099966
0.6088099773
0.6088099983
0.6088099986
0.6088099771
0.6088099982
0.6088099902
0.6088099842
0.6088099873
0.6088099893
0.6088099897
)
;
    }
}


// ************************************************************************* //
