/*--------------------------------*- C++ -*----------------------------------*\
  =========                 |
  \\      /  F ield         | OpenFOAM: The Open Source CFD Toolbox
   \\    /   O peration     | Website:  https://openfoam.org
    \\  /    A nd           | Version:  8
     \\/     M anipulation  |
\*---------------------------------------------------------------------------*/
FoamFile
{
    version     2.0;
    format      ascii;
    class       volScalarField;
    location    "0.5";
    object      epsilon;
}
// * * * * * * * * * * * * * * * * * * * * * * * * * * * * * * * * * * * * * //

dimensions      [0 2 -3 0 0 0 0];

internalField   nonuniform List<scalar> 
67410
(
7.088418611e-06
6.654807061e-06
6.764849626e-06
8.248651761e-06
2.520885559e-05
0.0001454726308
0.0006508110107
0.001855684638
0.003505596202
0.01271388089
0.02765094139
0.03224095719
0.03476149092
0.03556796745
0.03521070427
0.03411016201
0.03415760935
0.04296161149
0.07450737234
0.1273463403
0.180242788
0.2217936996
0.2516755906
0.2719574399
0.2786773942
0.1897045639
6.973020286e-06
6.633237484e-06
6.988511444e-06
9.991810503e-06
3.78716526e-05
0.0002083677692
0.0008276121078
0.002086594931
0.003567562492
0.02109803288
0.02729259329
0.03148985851
0.03414826415
0.03561077441
0.03614230333
0.03668620309
0.0407213829
0.05669818891
0.09288268668
0.1431725601
0.1933664661
0.2365086515
0.2718897698
0.301796538
0.3140738417
0.2119003525
7.250926706e-06
7.682937636e-06
1.041356614e-05
1.888903368e-05
6.11870095e-05
0.0002740987891
0.0009562664693
0.002166804393
0.003477295579
0.01976191724
0.02607771622
0.03124140733
0.03521160565
0.03822966669
0.040746202
0.04400606136
0.05137659978
0.06868194186
0.09917079458
0.1387603244
0.1811331067
0.2222802903
0.2652179634
0.3070544094
0.3140568358
0.2084722756
1.172666034e-05
2.135664337e-05
4.928622059e-05
9.806417743e-05
0.0001678555116
0.0003078375769
0.0007734648009
0.001764675655
0.003019939795
0.004255918946
0.02524925363
0.03296145076
0.03960285702
0.04554132994
0.05095644251
0.0560376106
0.06195349609
0.07138889279
0.08684237507
0.1090661678
0.1376823923
0.1720551504
0.2155308347
0.2588836701
0.2550508196
0.195767711
5.766799695e-05
0.0001328067405
0.0003125292317
0.000561710208
0.0007901500396
0.0008787873695
0.00102592117
0.001762690896
0.003047042305
0.004467676443
0.02919784621
0.04001275445
0.05006388554
0.05943958198
0.06716704409
0.07171681206
0.07290373078
0.07318990711
0.07525175816
0.08039464654
0.09056873846
0.1077337338
0.1342964466
0.1652350074
0.1845670034
0.1988616838
0.0003477495503
0.0006724213166
0.001299781862
0.001982528705
0.00251681416
0.002808308086
0.00311747062
0.003955020923
0.02184793119
0.02819921957
0.03882212114
0.0512186944
0.06432610285
0.07712480653
0.08689840162
0.09020710728
0.08614974682
0.07935984092
0.07427244843
0.0699553246
0.06768256155
0.06997063259
0.07972554797
0.1020573859
0.1550393292
0.2064742932
0.001442401026
0.002173514204
0.003363315226
0.004477648911
0.02560276578
0.03276814568
0.04250825164
0.05384029661
0.05426231083
0.04726539131
0.05071424808
0.06352248324
0.08061232587
0.09825485883
0.1115925218
0.1148996885
0.105373539
0.09077935739
0.08164090202
0.0738319484
0.06732286417
0.06574774144
0.07160047599
0.0926680471
0.1513578655
0.2061600399
0.003860360636
0.02009677017
0.03141396042
0.04395574548
0.05901004868
0.07820337462
0.1027726962
0.1224439029
0.1106908539
0.07743610517
0.06500382268
0.07857106587
0.1016679641
0.1252029673
0.1432060978
0.1488120918
0.1352205714
0.1094106007
0.09470383672
0.08474328308
0.07676145214
0.07406366597
0.07794745266
0.09511241052
0.1498297169
0.1963095494
0.033606116
0.04371699184
0.06182751477
0.0830585224
0.1087345067
0.1404288989
0.177223329
0.2038992642
0.1853916275
0.1237613669
0.08584231051
0.1000914099
0.1293468392
0.1562238021
0.1776287964
0.1884947346
0.1780107539
0.139798671
0.1144107651
0.1027966931
0.09562504534
0.0941125247
0.09911405502
0.1127575758
0.1577323963
0.1888534828
0.06439475455
0.0775935794
0.1051563012
0.1351699102
0.1672652618
0.2042599229
0.2466062533
0.2811817952
0.2679474765
0.1861411676
0.1154906762
0.1288436685
0.1608380932
0.1863999718
0.2123139115
0.2304219323
0.2299842911
0.1875279387
0.1418263227
0.1238680636
0.1201680085
0.1216101495
0.1307972795
0.1454134354
0.1791048814
0.201801766
0.1019679757
0.1225272421
0.159349937
0.1913001176
0.2202122528
0.2552642088
0.3001579768
0.3459778063
0.3494606375
0.2585653213
0.1518163036
0.1621703006
0.1933434915
0.2208601323
0.2548575916
0.2830809924
0.2936663299
0.2551673775
0.1818293526
0.1459301732
0.1457758491
0.1519690212
0.1669005903
0.1859227469
0.2123469211
0.2326614537
0.1435966919
0.1742399554
0.2150347547
0.2400076147
0.2637635135
0.3011176068
0.3521519533
0.4095081846
0.4298354339
0.3344049263
0.1902195223
0.1975700416
0.2305109916
0.2651829137
0.3128225474
0.357127683
0.3780118248
0.3309089083
0.2419822508
0.1707372014
0.168616239
0.18134605
0.2020095885
0.2258898183
0.2499048383
0.2713357323
0.1839863485
0.224779471
0.2669553486
0.2889573056
0.3167530027
0.3583289568
0.4118015791
0.4763895189
0.5114763197
0.4085835274
0.22609083
0.2323287579
0.2720590974
0.3184742581
0.3860623908
0.4522599231
0.4816615636
0.4094818384
0.3156831477
0.2061369876
0.1894524209
0.2099007026
0.2365611386
0.2640345963
0.2866176649
0.311978356
0.2166293328
0.2693062358
0.3185693232
0.3513091078
0.3892723132
0.431301504
0.475563501
0.5383183205
0.5786216271
0.47070548
0.2539532327
0.2610753863
0.3104012875
0.3697024788
0.4574130416
0.5410987814
0.5742694243
0.4858616055
0.3670015543
0.2555138807
0.2094191064
0.2359183867
0.2704413396
0.2996724388
0.3178056624
0.3457542375
0.2340307
0.3010882177
0.3691111337
0.4236482619
0.4771036169
0.5135166072
0.5312971833
0.5755108809
0.6022332521
0.4759989363
0.2636919689
0.2737590354
0.3321731979
0.3972574042
0.4864792921
0.5650596882
0.5900951271
0.5178773446
0.4016786991
0.2974829552
0.2294101473
0.2553485074
0.2961962116
0.3274415755
0.3392647903
0.3622388442
0.2190402376
0.2960412667
0.3902023554
0.47496541
0.5465529651
0.5767590177
0.5591852341
0.5492174421
0.537597573
0.3736966731
0.235764044
0.2407619638
0.2801691722
0.3267912201
0.387633577
0.4507196828
0.4864551508
0.472911377
0.4211466164
0.3364108158
0.258447346
0.2572385655
0.2943988212
0.3353447405
0.345300059
0.3551054446
0.1462065895
0.2069814677
0.3206284057
0.428383732
0.5119544814
0.5249530921
0.4586531763
0.3794526706
0.3087919904
0.2343607575
0.2209744798
0.2366434621
0.2532584743
0.2694122248
0.2917151882
0.3262368073
0.3688733236
0.4006914377
0.4200834184
0.3864658893
0.3043311384
0.2463961193
0.2758896346
0.3093054773
0.3270482145
0.3295976169
0.1254466105
0.1348947386
0.1779767976
0.2662202272
0.3337601954
0.3263479316
0.2800207474
0.2531090267
0.2196459712
0.2070369176
0.22216526
0.2359526236
0.2433209955
0.2495075347
0.2656974425
0.2931180489
0.3266991413
0.3590498488
0.41382246
0.4394347125
0.3529577093
0.233589947
0.2467042839
0.2708194817
0.2940743655
0.2978318623
0.1154180726
0.1125538101
0.1164458618
0.1311963945
0.1572952608
0.1464857313
0.1277015632
0.1399353293
0.140925927
0.1628468813
0.190100857
0.2120378025
0.2248926676
0.2314514653
0.2359908879
0.2513734359
0.2771411605
0.3038504726
0.3650046033
0.4206198762
0.3390491864
0.2044640567
0.2148111333
0.2364920893
0.2644327034
0.258029551
0.08705373372
0.0755723052
0.06882781674
0.06303179837
0.06305153948
0.06933943108
0.08199519239
0.09662187983
0.1007960037
0.09814641196
0.1112745347
0.1269984283
0.1372672062
0.1440058245
0.1509556057
0.1606874461
0.184116445
0.2207307335
0.2991572435
0.3500465706
0.2858584252
0.1687225277
0.1643663137
0.1873449115
0.2082355242
0.183731332
0.06795774944
0.05763191493
0.06122037147
0.0691161593
0.08332959018
0.1092509734
0.1453794558
0.1733886472
0.1647502384
0.1225099299
0.1011964616
0.1079225086
0.1191958454
0.1117117212
0.08871635799
0.09150055906
0.1085772888
0.15429049
0.2300323022
0.2780689019
0.2328725344
0.1490581135
0.1404403425
0.1522984787
0.1588583943
0.1313774781
0.05272572583
0.05860991847
0.07251981815
0.09146924324
0.1270506041
0.1871024956
0.2585531657
0.3002452704
0.2721738374
0.2070840057
0.1353557224
0.1295118175
0.1734974257
0.2093890101
0.07939569449
0.07701910813
0.08205568852
0.1160380686
0.1809017451
0.2328834972
0.1907633696
0.1324958922
0.1234189861
0.1286972304
0.1249994282
0.1054840267
0.04977239735
0.06308495418
0.08582608547
0.1250418703
0.1983347789
0.3098467862
0.4132380251
0.4419185163
0.3838185796
0.3233423788
0.2051352795
0.1463857731
0.1941691374
0.3282195794
0.174131384
0.08331229296
0.07858906798
0.1075706183
0.1617283703
0.1992530151
0.1516677451
0.1143310847
0.1092172493
0.1138455529
0.106439941
0.09761082624
0.05644183517
0.06575255553
0.09815948265
0.1624612876
0.2735565298
0.4098320402
0.4817052565
0.4887836847
0.475848591
0.5459654872
0.3561247847
0.1896387876
0.1831297464
0.3144745508
0.2770594585
0.1841173182
0.1098559076
0.1038827596
0.1421144067
0.1628599134
0.1127452429
0.09178995015
0.09619894701
0.1070361613
0.09976847384
0.09671121663
0.07000319157
0.07092498295
0.09817063716
0.1533518849
0.2350825936
0.3138830962
0.3812232162
0.4805846915
0.6739029572
1.138458192
0.6940121158
0.3136026173
0.1661956047
0.1470374927
0.1665712887
0.1460827034
0.1099451577
0.09411397135
0.1139476449
0.119583402
0.07502120746
0.06378715307
0.07505193493
0.09468647061
0.0973071252
0.09670873194
0.08799634153
0.09044628104
0.09231839086
0.1094954808
0.1583903459
0.2144661959
0.2461360043
0.2913613706
0.4302133459
0.1936757306
0.1084669807
0.08251686746
0.08584576995
0.08869689675
0.09022462455
0.07862177542
0.0702670879
0.07713547034
0.07206721186
0.04153376102
0.03460430289
0.04697181281
0.06627480732
0.07741440636
0.1526385584
0.1563512959
0.1616072701
0.1428364694
0.1267551369
0.17260872
0.3196070022
0.5711651808
0.9715244716
1.384635084
1.110024738
0.5897826759
0.2212589424
0.1058681073
0.07960893783
0.07116636736
0.06035809651
0.05069958632
0.04501083516
0.03401690129
0.004290738832
0.003568470177
0.0211944595
0.03205394885
0.04394870612
0.2406461097
0.2714427917
0.3000018271
0.2825463828
0.2180934421
0.1446746041
0.1601203725
0.2698400902
0.4558174267
0.7073541894
0.5618414363
0.263617775
0.1266464949
0.08192382327
0.06987037457
0.06298367313
0.05453255233
0.0436914708
0.0300462196
0.003997360004
0.002109692296
0.001415584307
0.002281269193
0.002834673794
0.003862352649
0.3336836819
0.381431812
0.425938449
0.4282283293
0.3828397663
0.2736160669
0.1480370935
0.1451285036
0.2197176449
0.3295410141
0.2309425729
0.1358935105
0.09141871614
0.07458809405
0.06761599946
0.06233492031
0.05523139898
0.04316313762
0.02573586704
0.00295755644
0.001126521627
0.0004351218815
0.0006724755555
0.0007567770026
0.001135718879
0.001471843778
0.4021809607
0.4505552941
0.4951705367
0.5109083631
0.5121460958
0.4634138561
0.3126249977
0.1342430506
0.1297462736
0.1651308163
0.1265755007
0.0981299441
0.08017643429
0.07142504633
0.06652020015
0.0618513391
0.05416443913
0.04055856514
0.02286176139
0.002687743429
0.001020801637
0.0002746049686
0.0001451166728
0.0001177747651
0.0001739925363
0.0002276169488
7.603965016e-06
8.059372646e-06
8.377659577e-06
8.854571095e-06
1.503856802e-05
6.564141316e-05
0.0003220969321
0.001101591307
0.002485022034
0.003975757056
0.005098753429
0.005809383657
0.02712419473
0.02937646705
0.03039917432
0.02994764494
0.02893260044
0.03107999449
0.04550162382
0.07935727609
0.1237484189
0.1686728021
0.209577236
0.2343119659
0.2319744684
0.1778750046
8.680542071e-06
6.682465179e-06
7.226524439e-06
8.712495675e-06
1.960277044e-05
9.239073689e-05
0.0004306396925
0.001500208663
0.004008379958
0.009400946288
0.01359039199
0.01647119444
0.01958767527
0.02213662563
0.0239685232
0.02526867034
0.02738722187
0.03366754977
0.04949587388
0.07690680838
0.1147079621
0.1624906991
0.2071874303
0.2351975299
0.2435313848
0.1947011743
8.935033836e-06
7.703682139e-06
9.529436561e-06
1.276696562e-05
2.900283371e-05
0.0001227618195
0.000505189935
0.001540194635
0.003660430563
0.00806461256
0.01214370711
0.01586238045
0.02013222401
0.02424464441
0.02763000322
0.03055395466
0.03419925702
0.0412603968
0.05563118373
0.079780538
0.1161440804
0.1650542346
0.2119973578
0.2556745523
0.269135225
0.2006744082
1.035099658e-05
1.322787259e-05
2.253804886e-05
3.65265264e-05
6.106495906e-05
0.0001329817285
0.0004158816474
0.001223295771
0.002892770994
0.006079555462
0.01293754332
0.01893997861
0.02505745825
0.03081743057
0.03580287188
0.03983600298
0.04323274309
0.04729196865
0.05444111124
0.06781895682
0.09374989276
0.1386184641
0.1986956367
0.2528732378
0.2593909551
0.1852804674
2.709063815e-05
5.794172914e-05
0.0001200616465
0.0002040135547
0.000297610041
0.0003711388069
0.0005753240327
0.00138444357
0.0033724788
0.007576505436
0.01687633465
0.02528901858
0.03325530757
0.04071880674
0.04701952794
0.05121203825
0.05286343968
0.05260659548
0.05199908033
0.05449565516
0.06941228113
0.1046859196
0.1583974146
0.2047114143
0.2013406533
0.1689603185
0.0001543131718
0.0003395973345
0.0006425543199
0.0009921848884
0.001387762802
0.001745148273
0.002488486117
0.004537253295
0.008468611799
0.01459927145
0.02351096509
0.03283320821
0.04191384143
0.05030835033
0.05672270729
0.05951691029
0.0581848967
0.05381849119
0.04775732055
0.04180966415
0.04431707674
0.06127196388
0.09264532317
0.1233095117
0.141897505
0.1647188366
0.0007662086077
0.001610564534
0.002700661548
0.00375614944
0.006026411076
0.008499136359
0.01310901401
0.02054815867
0.02502709657
0.02599666865
0.03081589609
0.03863638362
0.04748118659
0.05582298479
0.06157675159
0.06257648472
0.05889397311
0.05210532367
0.04365753878
0.03480139835
0.03250056102
0.03693976813
0.05047209728
0.07621635976
0.1209941876
0.1666365223
0.002551421618
0.006281971842
0.01024249271
0.01324617369
0.0166203826
0.02293397248
0.03480508284
0.04936470248
0.05202989213
0.04386495109
0.03948552745
0.04288801256
0.05044021249
0.05863350798
0.06470274162
0.06561463248
0.062559053
0.05673290021
0.0477464986
0.03689940582
0.03387115493
0.03693208535
0.04537895937
0.06606860802
0.1115884806
0.1641641575
0.005737794114
0.01932667824
0.02231654609
0.02464237954
0.02902603537
0.03991222482
0.05932261435
0.08310735585
0.08772225821
0.07352402358
0.05534545878
0.04880122023
0.05221699112
0.06088981951
0.07109155559
0.07410586343
0.07259017221
0.07133111238
0.06326585214
0.04918288747
0.04475174675
0.04884780483
0.05783430688
0.071829364
0.1085878928
0.1586067235
0.04516172567
0.03657413459
0.03703622276
0.0369926279
0.0404843521
0.05398110946
0.0800789989
0.1183662697
0.1320518836
0.1199626405
0.08572813535
0.05934398613
0.05349650779
0.06689250448
0.08427359883
0.09329651497
0.09344819992
0.09334995318
0.087500743
0.07128855746
0.0619093878
0.06697767595
0.07945559245
0.09318456531
0.1196465858
0.1542606985
0.07714466022
0.05803139128
0.05435737533
0.04924879433
0.05427409506
0.07632345308
0.1139657384
0.1665132712
0.1911743519
0.1881427666
0.1375174226
0.07665159082
0.05903395218
0.07655038193
0.1074294806
0.1310544279
0.1342190951
0.1225907274
0.1169475619
0.09957815736
0.08427716021
0.08749748659
0.1026384728
0.1190962587
0.1387159633
0.1637939378
0.1104552604
0.08279460216
0.07523058609
0.07185437014
0.0886936183
0.1200521072
0.1636233573
0.2183826643
0.263219558
0.2813929925
0.217801749
0.1038952198
0.07188663207
0.1014272197
0.1547583766
0.1994377236
0.2067616898
0.1760293642
0.1489064252
0.1299858928
0.1125359465
0.1097845729
0.124135881
0.1420681495
0.1564947583
0.1838364696
0.1415289192
0.1117058107
0.1135401735
0.1214979048
0.145096554
0.1854704732
0.2303644391
0.2786553211
0.3365507234
0.3892796256
0.330940812
0.1453510146
0.0980927922
0.146629184
0.2266470613
0.2947244848
0.3084604567
0.264043433
0.1859687609
0.1607622775
0.1455646139
0.1385428314
0.1487894488
0.1656128554
0.1763252855
0.2098475186
0.1677172463
0.1465302517
0.1776247156
0.1919795832
0.2286221928
0.2705511139
0.3089980175
0.3440710045
0.3993844361
0.4832710142
0.4636382993
0.2008644173
0.1380293032
0.2002001196
0.3013589364
0.3854128774
0.4064328415
0.3665020444
0.2498785108
0.1899031812
0.1762136726
0.1757800286
0.1799858891
0.192482463
0.1951040053
0.2313900012
0.1815723809
0.1709971202
0.2342123291
0.271056225
0.3213919981
0.355896504
0.3811295277
0.3998255754
0.4420266716
0.5409890638
0.5705159032
0.2639645076
0.1830141021
0.2394885757
0.339589499
0.4239052381
0.449131838
0.424687331
0.3376266463
0.2178077418
0.201446694
0.2168204599
0.2206774096
0.2230207118
0.2121178621
0.2383337641
0.1714665704
0.1643457538
0.2418291932
0.3149582041
0.3777400773
0.4054052674
0.4290126959
0.4488103229
0.4800362764
0.582918631
0.6041821265
0.3160319864
0.2039119127
0.2331149995
0.3183502865
0.398220708
0.4227307793
0.393119445
0.3684818824
0.2523743655
0.2203780262
0.2323341971
0.2491122832
0.2509762503
0.2243878234
0.2289773005
0.1448368158
0.1423525062
0.1963867279
0.2858095833
0.3745903502
0.4168594109
0.4476324543
0.4619369582
0.4506932503
0.4510890655
0.3715743332
0.2405304837
0.1774720082
0.1671069389
0.2012742185
0.2632922087
0.3163806747
0.3217714239
0.3332456167
0.3394809575
0.2414740398
0.2200354454
0.2276024454
0.2395859317
0.2229520279
0.2121873908
0.1320383628
0.1106329082
0.1283226525
0.1571713338
0.1941114411
0.2068998844
0.2033942371
0.2125801626
0.2265565426
0.2426962104
0.2407756554
0.1920502764
0.1548477982
0.1435703844
0.1623488174
0.2027147361
0.2466292275
0.2693053878
0.306403089
0.3925313322
0.2719819046
0.1945963197
0.1791850337
0.1917558709
0.2071716056
0.1998732773
0.1151215681
0.08524156816
0.08868375888
0.09913089522
0.1108345959
0.1118976668
0.1028307324
0.1203237406
0.1298975438
0.1498647344
0.1715569663
0.1725969788
0.1572430012
0.1458240732
0.1446043581
0.1740717752
0.2108688853
0.2281415676
0.2703435108
0.3745023987
0.2594631006
0.1528419269
0.117793114
0.1543241072
0.1918720931
0.1834131216
0.08553602204
0.06189624072
0.05849398712
0.05700163726
0.05422439378
0.05264318282
0.0559665377
0.06861258498
0.07798129267
0.08709501583
0.1052946194
0.1256574954
0.1329208739
0.1161844952
0.0956036809
0.1113157616
0.1478109935
0.1807379478
0.2355005778
0.3256245973
0.2214046405
0.1209700828
0.09585430091
0.1264081252
0.1624902542
0.150610341
0.06769850072
0.04734650116
0.04752207275
0.05134018547
0.05741466995
0.06963039716
0.08224813052
0.09504450563
0.09115621884
0.08166597704
0.08524043689
0.09692760841
0.1150970328
0.09560810576
0.06463522936
0.06174377246
0.084870082
0.1227929047
0.1746251397
0.2303373346
0.1722357994
0.09680795996
0.07837404297
0.09947173615
0.1300777838
0.1104582126
0.05128314336
0.0442711307
0.05429239801
0.07014189111
0.09676303115
0.1429602836
0.1869537587
0.242959015
0.1767386434
0.1327445608
0.122299129
0.1112488996
0.1698894944
0.1971573118
0.08119094223
0.06365777107
0.06375428062
0.0796136021
0.1189698626
0.1557835397
0.1327692199
0.07504437307
0.06143255704
0.06945024761
0.07900542657
0.06552046618
0.0474148296
0.04729702879
0.06669787469
0.1029941902
0.1776119892
0.2989525563
0.4569276576
0.5449439963
0.4143878011
0.3681599739
0.2774185676
0.1584554224
0.183632319
0.3865430749
0.1600757149
0.07694691178
0.0672484857
0.06588024077
0.08637774298
0.115383217
0.1002632406
0.05450338728
0.04229010227
0.04386571476
0.04601454465
0.04617579637
0.05852940969
0.04894824278
0.0694315312
0.1229198517
0.2542240552
0.4686258329
0.5503992964
0.6203084351
0.783067288
1.087542518
0.9070372094
0.2942082857
0.2070541713
0.3541061012
0.3716907487
0.1522430035
0.07752096029
0.06514673471
0.07566308175
0.08937359836
0.06796133612
0.03702292502
0.02423583987
0.02746425562
0.03052567524
0.04190979599
0.0760800477
0.05774867027
0.0762712029
0.1350971991
0.2058423582
0.2793167248
0.4083912675
0.708299172
1.428755437
2.371298414
1.756360378
0.6398948906
0.2547503216
0.1708733289
0.213900899
0.1566146375
0.07984036676
0.05906998262
0.06427462434
0.06399893649
0.03912995842
0.02330462947
0.01939948958
0.02521107964
0.02841304005
0.09940283964
0.07212471536
0.07244021126
0.0874681707
0.1181860703
0.1242877079
0.1309521334
0.2187524636
0.3971101442
0.6278479909
0.5743444395
0.2984787426
0.1367332615
0.09647162691
0.07400019693
0.03901735855
0.04332882607
0.04110701605
0.03952656964
0.03418550314
0.01784601715
0.01122236673
0.01157818199
0.01967378085
0.02423423165
0.1374974598
0.1110076172
0.1109637726
0.1009294588
0.09363580146
0.1183326276
0.2138259182
0.4729909529
1.007251526
1.354844904
1.266579469
1.112911305
0.2734161717
0.1046264921
0.05065410355
0.03535817904
0.03326482342
0.02872894663
0.02122389831
0.01348441608
0.004937240318
0.002535752367
0.003410391577
0.007084432391
0.01309421733
0.1978729939
0.1691143925
0.1758084851
0.1579437955
0.1153427155
0.08726409395
0.09638111463
0.1546406753
0.3335682416
0.6892265869
0.7928756129
0.4218805553
0.1845763824
0.06989184348
0.03826456519
0.02982706017
0.02758212832
0.02216852864
0.01239326756
0.004204109198
0.001424244807
0.0006363563076
0.0009909132798
0.001288719017
0.002457014243
0.270059121
0.2262010717
0.2446493489
0.2519099097
0.2182312945
0.1434098071
0.09946048941
0.1002733252
0.1338946267
0.1973047368
0.2808867544
0.1382120387
0.08057370631
0.04642307945
0.03290548143
0.02929841566
0.02664488419
0.01957530043
0.008945047778
0.002209168302
0.0005632097719
0.0001693882326
0.000238247332
0.0002322261003
0.0003962844486
0.0005178628233
0.338692571
0.2614199982
0.2677553039
0.3005695578
0.3220774916
0.2695698444
0.1670844666
0.1151860782
0.1076425615
0.1090656869
0.1099093681
0.07087327722
0.04683992423
0.02890391144
0.02099002503
0.02233613213
0.02191773717
0.01589905182
0.006678456471
0.001788077197
0.0004923437686
0.0001158331659
5.355824835e-05
3.813922332e-05
5.054292969e-05
6.179536642e-05
7.573645563e-06
8.684832471e-06
9.813304945e-06
1.011177837e-05
1.158740194e-05
2.709320742e-05
0.0001236130237
0.0004960425219
0.001366442279
0.002593972063
0.003718219913
0.004507294966
0.005033891471
0.005481950951
0.005774579103
0.005809596266
0.005613850327
0.005490461488
0.02673717405
0.04282005573
0.07196641236
0.1054372951
0.1368732005
0.1632721228
0.1755328644
0.151659109
9.218514708e-06
6.176587995e-06
7.723543144e-06
8.99055452e-06
1.261305307e-05
3.593535782e-05
0.0001576479078
0.0006083667892
0.001803595564
0.004126092582
0.006678559886
0.008721739896
0.0111452194
0.01394413051
0.0162459547
0.01732827003
0.01770121647
0.01911987091
0.02433235291
0.03597937945
0.05443077106
0.08278138328
0.1261711252
0.1879610083
0.2246395197
0.192810358
9.958639302e-06
7.816244078e-06
1.314462265e-05
1.662122839e-05
2.202409355e-05
5.219599095e-05
0.0001951629373
0.0006497899419
0.001673901563
0.003484093603
0.005674815256
0.008316870613
0.01246713159
0.01722474565
0.02060644087
0.02206514271
0.02261934639
0.02378046777
0.02808688961
0.03876044462
0.05943694724
0.1007060513
0.1811951268
0.2603005308
0.2982137462
0.2534807282
1.032370266e-05
1.048895548e-05
1.986632526e-05
2.642561548e-05
3.340941672e-05
5.702711662e-05
0.0001662537799
0.0005242353441
0.001364914857
0.003020286909
0.006108607978
0.01035915699
0.01597937057
0.02142762584
0.02512433678
0.02709640867
0.02788822511
0.02797098955
0.02909761604
0.03633303158
0.05943482088
0.1172447101
0.2107620118
0.2844397196
0.3378934576
0.2694976146
1.427276412e-05
2.393527771e-05
4.798988761e-05
7.11506912e-05
9.675343521e-05
0.0001226946412
0.0002070207799
0.0005533352788
0.001522237332
0.003737160951
0.008288112647
0.01411735829
0.02033774645
0.02603138898
0.03037778222
0.03303956238
0.03360815727
0.03187308421
0.0298146578
0.03555260614
0.06462118947
0.1264478217
0.1980116419
0.2707178372
0.3220642214
0.2164585984
5.207680159e-05
0.0001119173456
0.0002046113197
0.0003008681158
0.0004111635739
0.0005134704776
0.0007616182415
0.00158160999
0.003260324981
0.006278687049
0.01173994227
0.01807129651
0.02426604049
0.02991774549
0.03453120323
0.03731572067
0.03721888894
0.03362134383
0.02828183828
0.02889598833
0.04954056805
0.09516761735
0.1486815958
0.2072279186
0.2183094606
0.1571976184
0.0002843641187
0.0005741742505
0.0008816739053
0.001170283145
0.001560090839
0.002134846818
0.003573713544
0.006670047598
0.009733242342
0.01155343948
0.01533897342
0.02030321036
0.02543177935
0.03024599379
0.03424775976
0.03642585622
0.03564018522
0.0312771812
0.02469036014
0.01965988924
0.02177675484
0.03591320788
0.06308511725
0.09843519833
0.1278997829
0.1450411119
0.001183343279
0.002388499671
0.003109425129
0.003668603128
0.004431444573
0.006180581256
0.0106188694
0.01814117765
0.02237721468
0.02046868996
0.01912587211
0.02015784951
0.02293698268
0.02632169547
0.02980854865
0.03238804037
0.03265717002
0.02942532076
0.02432146552
0.02052484735
0.02121358939
0.02536094644
0.0360194964
0.06381490268
0.1074868306
0.1477595235
0.003330965042
0.007553731025
0.007598347237
0.007193978104
0.007788652053
0.01107306607
0.01944345724
0.03352407602
0.04157069403
0.03734242912
0.02804643982
0.01987157996
0.01831628179
0.02048101316
0.0255314717
0.0325239007
0.03740950941
0.03687972398
0.03371624296
0.03084359496
0.02950590293
0.03269514314
0.03996595253
0.05498704456
0.1010277098
0.1533258892
0.006633552579
0.01616543791
0.01338422698
0.01060916766
0.01060979117
0.01511783875
0.02747228919
0.05164624637
0.07093403761
0.07005938512
0.05230757443
0.02407540874
0.01419606341
0.0162332725
0.02707946288
0.04544313598
0.05787938578
0.05817734265
0.05361579479
0.04752910259
0.04411182672
0.04865732895
0.05755487111
0.06608946117
0.100984344
0.1564062733
0.05030321716
0.02852597279
0.02034249248
0.01426059618
0.01487319595
0.02315646603
0.04305171693
0.0805806956
0.1209313928
0.1305398808
0.1054644309
0.03999335888
0.01409121082
0.01996433755
0.04236483311
0.07973118456
0.1014344863
0.09833825711
0.08585668649
0.07381241151
0.06525778208
0.0681075575
0.07883391049
0.08375294255
0.1117984446
0.1519557531
0.07875324738
0.04256496766
0.02961487966
0.02170025165
0.03109667908
0.05426269264
0.08841934241
0.1354469846
0.1961104225
0.223538111
0.199267791
0.07688994443
0.02132396745
0.03436926218
0.0808025161
0.1464432015
0.1773983573
0.1665388194
0.1366866661
0.1141416041
0.09410688793
0.09000165542
0.09902199027
0.1022610676
0.1187577534
0.1587491236
0.103200739
0.05844158253
0.04671800111
0.0459042455
0.08306822973
0.1211987745
0.1609170954
0.2034385868
0.2670584147
0.322627022
0.3333152079
0.1436677349
0.03952352927
0.06867067898
0.1549227982
0.2486533384
0.2856441291
0.2690615757
0.2167354997
0.1712227061
0.1338268254
0.1192723084
0.1210710529
0.1215594307
0.1295414821
0.171086698
0.1212406234
0.07775223519
0.07909810879
0.1124453628
0.1765937778
0.2187137522
0.245592094
0.271142639
0.319593032
0.3924534348
0.4654364845
0.2485135555
0.07637525771
0.1271082607
0.2454107743
0.3465865697
0.3849861651
0.3792986604
0.3225774205
0.2481605946
0.1802379691
0.1595309609
0.1491858804
0.1430032149
0.1384710145
0.178462952
0.1310287494
0.09739377193
0.1271308253
0.2078889835
0.2828721886
0.308887829
0.3130372741
0.3198741006
0.3466407439
0.4154850041
0.52364295
0.3815953219
0.1349181842
0.1773156009
0.2921645944
0.383970603
0.4140981612
0.4196918768
0.4067769519
0.3481295468
0.2191936522
0.2054226033
0.1888980871
0.1708842599
0.1486372367
0.1754518891
0.1308296708
0.1117504475
0.1676117901
0.2638752693
0.3398940232
0.3609136565
0.3682776541
0.3737298637
0.3833831602
0.4321445653
0.5195065463
0.4713964506
0.1937350016
0.1644939651
0.276329949
0.3611353995
0.3811495363
0.3723487692
0.4064729263
0.4502024151
0.2535511072
0.2160460554
0.2292952359
0.2045308695
0.1624447963
0.1696187241
0.1258641999
0.114534422
0.1589627219
0.2432812289
0.3394705521
0.398369064
0.4346732234
0.4467749326
0.4383758918
0.46591665
0.5022020462
0.3854418453
0.1710868284
0.09663659085
0.1620025798
0.2414714732
0.2957448438
0.2977328004
0.3375596851
0.4452651698
0.3085005254
0.189656282
0.1965949046
0.2177153494
0.1750667596
0.1675228173
0.1195271345
0.09841742816
0.1114816554
0.1502507411
0.2135992463
0.2830616513
0.3302082684
0.3317647827
0.2853964917
0.2897364103
0.2772306136
0.2083835753
0.112924582
0.07283102065
0.1235470022
0.1696512531
0.2186122027
0.2327027588
0.2764945125
0.3953796246
0.3928798224
0.1756566544
0.1521878068
0.1872277963
0.1749663302
0.1644973783
0.1014543167
0.07929256631
0.08004466186
0.09299078706
0.1068517468
0.1036057124
0.08600201084
0.0938349193
0.1048413813
0.1272970459
0.1430548581
0.1308965253
0.08915344645
0.05497582391
0.09546627686
0.138791634
0.1799376486
0.1851803183
0.2257912462
0.3299365692
0.4074775406
0.1566674388
0.1319426757
0.1671100663
0.1655280787
0.157123088
0.07318013166
0.05940449037
0.05299222615
0.04943647393
0.04816427206
0.0430841206
0.03923311695
0.04447074375
0.05281829796
0.06374464116
0.07708650559
0.08910614582
0.07948980815
0.05433648232
0.05304379478
0.08678830295
0.1317214434
0.1513612564
0.1994817538
0.2817405348
0.325869515
0.1328521671
0.1067441617
0.1282358623
0.1374368782
0.1385877503
0.06023457312
0.03811551854
0.03656572852
0.0336032667
0.03085942102
0.03861035376
0.05022937487
0.05258231018
0.05314110186
0.05030845196
0.05399325929
0.06301228372
0.07358909656
0.06103623864
0.03970843362
0.04902918591
0.07985731169
0.1114915777
0.1577569433
0.2263257685
0.2161109579
0.1025856117
0.08458010096
0.101425116
0.119815815
0.1040142412
0.04468167717
0.03159886497
0.03675463069
0.04490271804
0.052563916
0.06123576001
0.07044579941
0.0724674359
0.06173793999
0.05371635206
0.06070721251
0.06505961529
0.1093612716
0.1038288101
0.05982173139
0.0465225718
0.06355458557
0.07023878724
0.1041040035
0.1586997807
0.1358274348
0.07579362599
0.06568728755
0.06883136624
0.07023093831
0.04775701607
0.04185988063
0.03254741239
0.04272539528
0.06572925538
0.08153469623
0.0927127933
0.1050604108
0.1394862882
0.1500537786
0.2062396157
0.2401570165
0.136677978
0.1734514766
0.2681917236
0.1288128939
0.05954358603
0.04307806363
0.04060671339
0.0599716306
0.09280958713
0.08244032215
0.05142457513
0.04615268044
0.04078518495
0.03696171934
0.02557153961
0.05549563157
0.03717875457
0.04165756424
0.06517291668
0.1078456134
0.124366691
0.1388406585
0.3306317223
0.717182438
1.612190748