/*--------------------------------*- C++ -*----------------------------------*\
  =========                 |
  \\      /  F ield         | OpenFOAM: The Open Source CFD Toolbox
   \\    /   O peration     | Website:  https://openfoam.org
    \\  /    A nd           | Version:  8
     \\/     M anipulation  |
\*---------------------------------------------------------------------------*/
FoamFile
{
    version     2.0;
    format      ascii;
    class       volScalarField;
    location    "0.5";
    object      nut;
}
// * * * * * * * * * * * * * * * * * * * * * * * * * * * * * * * * * * * * * //

dimensions      [0 2 -1 0 0 0 0];

internalField   nonuniform List<scalar> 
67410
(
3.295958924e-07
4.137899468e-07
4.20697596e-07
5.139538038e-07
1.578047e-06
9.108149274e-06
4.067441902e-05
0.0001157491932
0.0002183263763
0.0001221485286
8.215635941e-05
8.644447176e-05
8.86261527e-05
8.929796151e-05
8.899535391e-05
8.807173751e-05
8.818729954e-05
9.537221303e-05
0.0001146337915
0.0001368790038
0.0001535044567
0.000164379241
0.000171382372
0.0001758236273
0.0001772354985
0.0001559987123
3.575696155e-07
4.713108775e-07
4.968059508e-07
7.121719067e-07
2.707641951e-06
1.488720495e-05
5.90270453e-05
0.0001485666502
0.0002537101964
7.844187212e-05
8.544107797e-05
8.959835851e-05
9.204527519e-05
9.334060664e-05
9.381348417e-05
9.432019552e-05
9.774926611e-05
0.0001092369172
0.0001287066135
0.0001485134865
0.0001640247304
0.0001753244898
0.000183613
0.0001900783143
0.0001925633693
0.0001689658331
3.720716121e-07
5.470043341e-07
7.433825501e-07
1.351161125e-06
4.374918981e-06
1.956258309e-05
6.812904822e-05
0.0001541624079
0.0002472074329
7.67473055e-05
8.416875071e-05
8.938987966e-05
9.303053038e-05
9.562851883e-05
9.770508522e-05
0.0001002782862
0.0001056259575
0.0001163452575
0.0001314071529
0.0001468547022
0.0001603977726
0.0001716604237
0.0001820287247
0.0001910891607
0.0001924268318
0.0001680107014
6.052526093e-07
1.531310291e-06
3.536486734e-06
7.031047951e-06
1.201852971e-05
2.199314837e-05
5.512947943e-05
0.000125608867
0.0002148291489
0.0003026749903
8.332923764e-05
9.106968401e-05
9.682319576e-05
0.0001014512659
0.0001053274855
0.0001087063218
0.0001123754289
0.0001177677128
0.0001256509222
0.0001354850372
0.0001463489294
0.0001575764461
0.0001698155571
0.0001804346918
0.0001794709616
0.0001646184722
2.992628203e-06
9.533054565e-06
2.23990749e-05
4.020301869e-05
5.650014439e-05
6.284423493e-05
7.340751526e-05
0.000125932898
0.0002172249817
0.0003181410761
8.753534727e-05
9.720741638e-05
0.0001047436923
0.0001109082818
0.0001154985796
0.0001180063083
0.000118599992
0.0001187093795
0.0001197784447
0.0001224074053
0.0001273174567
0.0001348459923
0.000145068668
0.0001553905814
0.0001613105752
0.0001655364298
1.802276394e-05
4.816275525e-05
9.293494123e-05
0.0001415968303
0.0001796672778
0.0002006068912
0.0002229561686
0.0002826921552
7.965793838e-05
8.660788139e-05
9.626318779e-05
0.0001055571512
0.0001138905374
0.0001209849898
0.0001258622133
0.0001273868115
0.00012538635
0.0001219530318
0.0001192647056
0.0001168966896
0.0001156104829
0.0001168971156
0.0001220931246
0.0001325741326
0.0001523901678
0.0001676113946
7.455611126e-05
0.0001552838924
0.0002400249662
0.0003193901497
8.398127508e-05
9.121850907e-05
9.94998367e-05
0.0001075723368
0.0001077512339
0.0001028351097
0.0001052248506
0.000113437058
0.0001228258996
0.0001311796102
0.0001368162599
0.0001380973163
0.000134116354
0.0001275668455
0.0001231013979
0.0001190341825
0.0001154303796
0.0001145348384
0.0001178491777
0.0001284241477
0.0001511680451
0.0001675006631
0.0001990277322
7.748032576e-05
8.987058725e-05
0.0001004997584
0.000110867639
0.0001217598426
0.0001333015588
0.000141199287
0.0001364663836
0.000121167912
0.000114333602
0.0001218242533
0.0001327311442
0.0001421986551
0.0001486358051
0.0001504962925
0.000145746624
0.0001357942056
0.0001293670968
0.0001246486488
0.0001206095805
0.0001191923966
0.0001212547464
0.0001295611212
0.0001506532128
0.0001647815122
8.278729893e-05
0.0001003194865
0.0001125795917
0.0001241831743
0.0001357898466
0.0001477963847
0.000159611774
0.0001671378978
0.0001618810237
0.0001415524539
0.000125457581
0.000132086659
0.0001437789068
0.0001529873537
0.0001595939652
0.0001627436594
0.0001596940747
0.0001473838909
0.0001378009886
0.000132938792
0.0001297720518
0.0001290889497
0.000131343124
0.0001371077055
0.0001532574004
0.0001627040601
0.0001027327709
0.0001214055355
0.0001342993033
0.0001459275067
0.0001565658329
0.0001672582774
0.0001780087939
0.0001858793167
0.0001828782302
0.00016202396
0.0001384532791
0.0001436337912
0.000154490113
0.0001621583403
0.0001692837159
0.0001739341346
0.0001738523994
0.0001625364327
0.0001480472451
0.0001414521519
0.0001400215993
0.000140578882
0.0001440298096
0.000149188829
0.0001598957098
0.000166350527
0.000119666468
0.0001412769709
0.0001540987947
0.0001636512253
0.0001714116273
0.0001800058657
0.0001899429699
0.0001990879285
0.000199704273
0.0001806224786
0.000151566055
0.0001549827642
0.0001641593579
0.0001715189876
0.00017984559
0.0001862299529
0.0001885452797
0.0001800381293
0.0001608378552
0.0001493917808
0.0001493121558
0.0001513956308
0.0001561894323
0.000161892303
0.0001692191182
0.0001744344054
0.0001340470568
0.0001587201242
0.0001701155225
0.0001763505002
0.0001819490578
0.0001901385255
0.0002002832184
0.0002105419318
0.0002138985366
0.0001966543388
0.000163285593
0.0001654320375
0.0001739952258
0.0001822401015
0.0001925023903
0.0002011672939
0.0002050220716
0.0001962154292
0.000176874757
0.0001574215466
0.0001567152469
0.0001605634742
0.0001664306572
0.0001727257703
0.0001786326571
0.0001835910353
0.0001454934557
0.0001726388284
0.0001827022184
0.0001875345809
0.0001933530498
0.0002014538068
0.0002109708633
0.0002213865154
0.0002265978374
0.0002101172229
0.0001728703674
0.0001745390424
0.0001838163975
0.000193652672
0.0002064241662
0.0002175621875
0.0002221724976
0.00021056879
0.0001931635837
0.0001676238768
0.0001629060125
0.0001685627098
0.0001754062105
0.0001819279889
0.0001869565168
0.0001923084955
0.0001535432177
0.0001832492443
0.0001937088008
0.0002000905172
0.0002070506648
0.000214240039
0.0002213054385
0.0002305524712
0.0002360517188
0.0002201809233
0.0001796341521
0.000181407795
0.0001920323504
0.0002034854693
0.0002183758505
0.0002308838352
0.0002354921546
0.0002228533901
0.0002030483722
0.0001800212662
0.0001684224263
0.0001752288851
0.0001833876601
0.0001897498882
0.0001934817124
0.0001989833933
0.0001574763234
0.0001901097267
0.0002033786003
0.0002128948039
0.0002214808168
0.0002269766167
0.0002295944013
0.0002357228322
0.0002391797562
0.0002209591972
0.0001818836381
0.0001842784601
0.0001964106103
0.0002084066737
0.0002228809359
0.0002342101989
0.0002376113282
0.0002276305085
0.0002092638083
0.0001893537516
0.0001736095199
0.0001798894448
0.0001890093983
0.0001954192262
0.0001977209934
0.0002020660786
0.0001539964145
0.0001890054013
0.0002071329999
0.0002210877941
0.0002316338081
0.0002358268714
0.0002334992288
0.0002321115082
0.0002302641599
0.0002038533394
0.0001752727078
0.0001765844454
0.000185689511
0.0001954237237
0.0002068081981
0.0002173836967
0.0002229365606
0.0002208862283
0.0002125786007
0.0001972342081
0.0001806328158
0.0001803145198
0.0001886016034
0.0001969616263
0.0001988671549
0.0002007067758
0.0001345941389
0.0001678756633
0.0001941117224
0.0002136406237
0.0002266063469
0.0002284863049
0.0002185170744
0.0002051273597
0.0001914637746
0.0001748173875
0.0001715334977
0.0001754475207
0.0001794275434
0.0001831573234
0.0001880861265
0.0001952374883
0.0002033792156
0.0002090375046
0.0002123515215
0.0002065160157
0.0001907037371
0.0001777346723
0.000184547442
0.0001917128079
0.0001952880576
0.0001957685992
0.0001277975365
0.0001454540175
0.0001595947159
0.0001824466125
0.0001965877858
0.0001950969026
0.0001854818605
0.0001792990787
0.000171044309
0.0001677942358
0.0001717577761
0.0001751907031
0.0001769776782
0.0001784630591
0.0001822368591
0.000188288479
0.0001952125936
0.0002014521129
0.0002112128982
0.0002154871219
0.0002003171699
0.0001745890677
0.0001777841155
0.0001833937713
0.0001884799977
0.0001892486112
0.0001242643643
0.0001368420376
0.0001384239627
0.0001440682059
0.0001529684442
0.0001493474216
0.0001428284542
0.0001471745197
0.000147575389
0.0001548500263
0.0001629978359
0.0001690056396
0.0001723423434
0.0001739983467
0.0001751204926
0.0001788423909
0.0001847561599
0.0001905175584
0.0002025292822
0.0002123524696
0.0001976595394
0.0001670333986
0.0001697682968
0.0001752911061
0.0001818990053
0.0001803932832
0.0001131219389
0.0001198281392
0.000116177951
0.0001129156757
0.0001130786068
0.0001169201584
0.0001237975079
0.0001307275749
0.0001324250013
0.0001310790413
0.00013647062
0.0001425541759
0.0001462895459
0.0001486384244
0.000150985063
0.0001541555725
0.0001612957594
0.0001713159796
0.0001895679117
0.0001997924183
0.0001868010622
0.0001566757792
0.0001553043048
0.0001621911975
0.000167933524
0.0001610801739
0.0001041581117
0.0001095708472
0.0001118903966
0.0001166425823
0.0001243888827
0.0001363759065
0.0001500083665
0.0001588901632
0.0001560621473
0.0001415912379
0.000132488748
0.0001352125543
0.0001397620735
0.0001367180842
0.0001265684455
0.0001278864811
0.0001353760347
0.0001520862174
0.0001737034067
0.0001850559843
0.0001745057767
0.0001503495606
0.0001473741295
0.00015138653
0.0001534901819
0.0001440675906
9.579237845e-05
0.0001102796446
0.0001185014124
0.0001282917082
0.0001434288695
0.0001632161745
0.0001815129657
0.000190417738
0.0001841894203
0.0001687993103
0.0001462221364
0.0001436753913
0.0001582609072
0.000168459036
0.000121937682
0.0001207202831
0.0001233048438
0.0001383172735
0.0001603367543
0.0001744393298
0.0001633324359
0.0001445904471
0.0001411695083
0.0001431303888
0.0001417278411
0.0001339069714
9.407867221e-05
0.0001131043578
0.0001255392105
0.0001426316455
0.0001664223563
0.0001927991419
0.0002116639682
0.0002159941861
0.0002062558605
0.0001962266131
0.0001683108146
0.0001498782773
0.0001640907721
0.0001953583151
0.0001586498609
0.0001239951507
0.0001215108633
0.0001348502619
0.0001544396669
0.0001656376965
0.0001513891784
0.0001377058121
0.0001355508176
0.0001373938156
0.0001343351286
0.000130484293
9.814299411e-05
0.0001147936387
0.0001314691492
0.0001556898584
0.0001849781533
0.0002110799703
0.0002222483904
0.0002232466926
0.0002223878485
0.0002351026962
0.0002030453237
0.0001639926924
0.0001610005839
0.0001923114419
0.0001847679779
0.0001614317102
0.0001359655259
0.0001333444009
0.0001479635857
0.0001549494554
0.000137236069
0.0001280627998
0.0001299742467
0.0001346041817
0.0001314553943
0.0001300854611
0.0001054617808
0.000117736967
0.0001314595374
0.0001526434563
0.0001757444796
0.0001931625293
0.0002061146336
0.0002233841221
0.0002518945436
0.0003004665271
0.0002540539186
0.0001944511566
0.0001567171691
0.0001497266504
0.0001559391577
0.0001494314972
0.0001360674571
0.0001291358124
0.0001375593827
0.0001399214957
0.0001199124307
0.0001135285302
0.000119737585
0.0001293012957
0.0001304150128
0.0001175477049
0.0001264561688
0.000127563448
0.00012849681
0.0001362633164
0.0001541229876
0.0001701879123
0.0001781287933
0.0001886394151
0.000214373925
0.000165102864
0.0001360510264
0.0001238691566
0.0001251642174
0.0001264850277
0.0001272969052
0.0001217352793
0.0001172495549
0.0001209358102
0.000118358841
9.856201653e-05
9.268614614e-05
0.0001024678583
0.0001149207314
0.0001209446162
0.0001369249623
0.0001532017339
0.0001547310892
0.000148414907
0.0001431673056
0.0001596870395
0.0001958505017
0.0002365378316
0.0002809666362
0.0003147769829
0.000293015873
0.0002388396306
0.0001730388557
0.0001350721438
0.0001223285097
0.0001176871672
0.0001114965354
0.0001052199343
0.0001011930279
9.229964519e-05
0.0003062223425
0.0002544425523
7.8607099e-05
9.034252748e-05
0.0001002785627
0.0001592694515
0.0001839617291
0.0001899915015
0.0001860098832
0.0001704427535
0.0001491021954
0.0001555002088
0.0001851367535
0.0002197923624
0.000253617889
0.0002352574004
0.0001835356933
0.0001436353555
0.0001237350985
0.000117041225
0.0001130038937
0.0001077070945
0.0001000771993
8.845091057e-05
0.0002853093425
0.0001508664003
0.0001011829292
0.0001627718825
0.0002022881263
0.0002754118648
0.0001774073986
0.000205805478
0.00021334526
0.0002135796869
0.000205581812
0.0001835954202
0.0001500854924
0.0001502249284
0.0001727826405
0.0001973816677
0.0001753746733
0.0001467909601
0.0001282641291
0.0001195963044
0.0001156475353
0.0001125303181
0.0001080917595
9.962703919e-05
8.397269612e-05
0.0002110467799
8.06076854e-05
3.117107594e-05
4.810484695e-05
5.415213932e-05
8.123028034e-05
0.0001052047182
0.0001886206046
0.0002173807255
0.0002242170568
0.0002265049348
0.0002266154571
0.0002190395895
0.0001919032762
0.0001453385802
0.000144326719
0.0001567481862
0.0001430298328
0.0001311486158
0.0001224618397
0.0001177669141
0.0001149737668
0.0001122154527
0.0001073919364
9.759802945e-05
8.071712204e-05
0.0001916111986
7.288200563e-05
1.963454235e-05
1.039027756e-05
8.445086993e-06
1.247822807e-05
1.633103324e-05
2.946331808e-07
4.423952889e-07
4.59913865e-07
4.864047376e-07
8.293340899e-07
3.629889019e-06
1.779132805e-05
6.072704181e-05
0.000136736924
0.0002184745788
0.0002799836648
0.0003188909039
7.82414268e-05
8.034044323e-05
8.125416473e-05
8.085151975e-05
7.996138143e-05
8.201256073e-05
9.328022883e-05
0.0001122285861
0.0001299855139
0.0001439962672
0.0001547052193
0.0001605082799
0.0001599649111
0.0001464725615
3.364036894e-07
2.60561379e-06
3.5172814e-06
3.36098749e-06
3.023885805e-06
6.414710533e-06
2.214555707e-05
5.617852153e-05
8.420372665e-05
7.274477647e-05
7.29784576e-05
8.128102566e-05
9.091402409e-05
0.0001044787814
0.00011176406
0.0001098962138
0.0001032054704
0.0001000746639
0.0001064922382
0.0001201355714
0.0001391434464
0.0001691724071
0.0002101981037
0.000246036848
0.0002622911371
0.0002293427235
3.463315003e-07
3.175870593e-06
4.857700375e-06
4.68049483e-06
4.220426431e-06
8.864060136e-06
2.822949609e-05
6.478113841e-05
8.949704265e-05
7.154336931e-05
6.523886698e-05
7.547934251e-05
9.316019974e-05
0.0001101167186
0.0001186541046
0.0001179319989
0.0001128089419
0.0001099673478
0.0001143046645
0.0001253277643
0.0001416929847
0.0001733353274
0.000218966148
0.0002686921717
0.0002866210932
0.0002386002162
4.021700759e-07
2.896926583e-06
4.280346465e-06
4.878237958e-06
5.826091653e-06
9.670991932e-06
2.495044559e-05
5.836933342e-05
9.147896223e-05
9.374287468e-05
7.045071811e-05
8.078787408e-05
9.761637114e-05
0.0001123074767
0.0001204015821
0.0001220600512
0.0001202670904
0.0001183480512
0.0001185805473
0.0001206515194
0.0001290245652
0.0001591013379
0.0002101859004
0.0002626450079
0.0002733868764
0.0002266501097
1.060815964e-06
4.119623374e-06
7.886719993e-06
1.249969136e-05
1.704024021e-05
1.929929946e-05
2.434565043e-05
4.598854886e-05
8.019463768e-05
9.397082807e-05
8.071618733e-05
9.040337803e-05
0.0001040507565
0.0001156271995
0.0001231754047
0.0001263879122
0.0001261455204
0.0001236362596
0.0001189740178
0.0001114987857
0.0001104562355
0.0001326741612
0.0001765131092
0.0002198061881
0.0002272181793
0.0002155296494
6.053073414e-06
1.388907379e-05
2.644790419e-05
4.033669161e-05
4.92920674e-05
4.868569803e-05
4.460207409e-05
5.497848488e-05
7.18581785e-05
7.921356126e-05
8.752514302e-05
9.906387938e-05
0.0001105412429
0.0001202298072
0.0001266297406
0.0001285473086
0.0001262658247
0.0001210253983
0.0001123661589
9.951086694e-05
9.045766882e-05
9.897716876e-05
0.0001277580376
0.0001641411617
0.0001909270694
0.0002140829973
2.998864459e-05
4.120784783e-05
5.965787532e-05
7.51958738e-05
6.581781066e-05
6.080379852e-05
5.976932129e-05
6.805201769e-05
7.83305489e-05
8.533173185e-05
9.417300074e-05
0.0001041895154
0.0001139912462
0.0001224201762
0.0001272035233
0.0001262847808
0.0001210445918
0.0001135232304
0.0001027004777
8.839521071e-05
7.840786833e-05
7.938960876e-05
9.745475052e-05
0.0001359628351
0.0001829685702
0.0002176390045
9.958170102e-05
6.913026447e-05
6.499610584e-05
6.532928606e-05
6.621970465e-05
7.004294456e-05
8.00643522e-05
9.440324541e-05
0.0001001292911
9.873167681e-05
0.0001008549583
0.0001065171737
0.0001143762824
0.0001229246927
0.0001275253104
0.0001252298392
0.0001201585961
0.0001143117784
0.0001046514748
9.077740999e-05
8.180893731e-05
8.200553985e-05
9.344054144e-05
0.0001276134603
0.0001859321718
0.0002233005977
0.0002234227953
7.397400423e-05
7.269247419e-05
7.15057076e-05
7.223296763e-05
8.134598415e-05
0.0001003786999
0.0001229227007
0.0001278070745
0.000119699929
0.0001112288811
0.0001091088418
0.0001136885829
0.0001239376709
0.0001299564737
0.0001290441458
0.0001282357674
0.0001277728641
0.000122135595
0.0001118158699
0.0001068139334
0.0001098198184
0.0001206228152
0.000142402516
0.0001957337163
0.0002412451425
8.285967992e-05
9.026790234e-05
8.442529154e-05
7.861420814e-05
7.8850527e-05
9.409741528e-05
0.0001245813949
0.0001620276998
0.0001704856538
0.0001558618474
0.0001323365407
0.0001153404065
0.0001133468513
0.0001235260824
0.0001308110038
0.000136180228
0.0001439277181
0.0001492741179
0.0001473934317
0.0001436384758
0.0001452095072
0.0001539679356
0.0001702307911
0.0001877781976
0.0002219638206
0.0002658595953
9.894981117e-05
0.0001067130757
9.684162053e-05
8.820580022e-05
9.558613566e-05
0.000123783701
0.0001682414717
0.000220320695
0.0002382390609
0.0002176786178
0.0001718119473
0.0001280597656
0.0001143545448
0.00011931339
0.0001340157316
0.0001542215987
0.0001711715415
0.0001771790513
0.0001734964556
0.0001740987599
0.0001875840724
0.0002060493777
0.0002299025781
0.0002499069176
0.0002738531709
0.0002977448713
0.0001114444853
0.0001241848271
0.0001140389492
0.0001120353861
0.000134021395
0.0001754460262
0.0002297714692
0.0002868418953
0.0003192021124
0.0003084619537
0.0002337910255
0.0001497402132
0.0001177025888
0.0001250553764
0.0001577148511
0.0001971381365
0.0002201642969
0.0002182302592
0.000201177524
0.0001972950849
0.0002216286151
0.0002563406839
0.0002867967872
0.0003101803133
0.0003291199749
0.0003425439722
0.0001209800781
0.0001466142643
0.0001467248304
0.000156481896
0.0001902300897
0.0002465450972
0.0003068448174
0.000361973336
0.0004020615301
0.0004099729697
0.0003154508595
0.0001823926529
0.0001298661704
0.0001498528402
0.0002057220375
0.0002630953201
0.0002909921903
0.0002813980429
0.0002409199485
0.0002146518065
0.0002406705914
0.0002999663776
0.000335855435
0.0003607383881
0.0003746117229
0.0003872801357
0.0001279696899
0.0001775555118
0.0001955752645
0.0002138242925
0.0002635346397
0.00032513977
0.0003831591535
0.0004330488878
0.0004717138852
0.0004908446017
0.0004012804957
0.0002240147559
0.0001553388432
0.0001872373601
0.0002600331153
0.000328061684
0.0003619105021
0.0003556076569
0.000305383844
0.0002318997074
0.0002477206796
0.0003305099295
0.0003755344911
0.0003992433577
0.0004059006126
0.0004188464778
0.0001313404037
0.0002071088157
0.0002398334079
0.0002725734024
0.0003314425135
0.0003869783412
0.0004361427988
0.0004810334503
0.0005167590176
0.0005391800571
0.0004655021686
0.0002675602406
0.000190427866
0.0002199988865
0.000291941458
0.0003607443186
0.0004004215708
0.0004068947604
0.0003728849747
0.0002562384816
0.0002449961293
0.0003222818294
0.0004036957397
0.0004243846926
0.0004204909627
0.0004275403067
0.0001287966739
0.0002195638415
0.0002561464959
0.00030275245
0.0003619063688
0.0004083144066
0.0004546245764
0.000505387123
0.0005421144092
0.0005588053573
0.000478032099
0.0003014089848
0.0002186800565
0.0002310780636
0.0002887097643
0.0003516239661
0.0003943948972
0.0004108446178
0.0004061381463
0.0003004217315
0.0002407258437
0.0002935178711
0.0003976339064
0.0004286477927
0.0004152994013
0.0004106048737
0.0001217019636
0.000217587945
0.0002477633595
0.0002861770941
0.0003407230931
0.0003840762574
0.0004321347748
0.0004873099462
0.0004976153665
0.0004637941634
0.0003859002108
0.0002783705699
0.0002146554122
0.0002111532472
0.0002435377629
0.0002942921709
0.00034282919
0.0003738651083
0.0003967032802
0.0003870986799
0.0002487186977
0.0002591045699
0.000338147724
0.0003918408446
0.0003843544287
0.000371059182
0.000117964287
0.0002154837044
0.0002267001311
0.0002240464648
0.0002291756621
0.000230796829
0.000236368596
0.0002568915204
0.000283635366
0.0002982076521
0.0002873941208
0.0002356229587
0.0001898430026
0.0001763483518
0.0001930824139
0.0002304761203
0.0002762804912
0.0003173739594
0.0003560844073
0.0003937397864
0.0002686201084
0.0002226354904
0.0002658402191
0.0003201711437
0.0003289107543
0.0003146714919
0.0001126780003
0.0002004709097
0.0002038079299
0.0001858970771
0.0001666394587
0.0001522660648
0.0001486856399
0.0001635739376
0.0001771058088
0.0001921613047
0.0002015275109
0.0001917050723
0.0001702854408
0.0001574282875
0.0001558807052
0.0001802574383
0.0002196816937
0.0002576095341
0.0002994222675
0.0003513605304
0.0002590477891
0.0001893362838
0.0002083107209
0.0002587904323
0.0002695864773
0.0002467513584
0.0001020753546
0.0001485720931
0.0001471046131
0.0001360757307
0.0001225252566
0.0001156992841
0.0001169785618
0.000125623448
0.0001336316581
0.000139348153
0.0001479855245
0.0001555407194
0.0001493429735
0.0001273049681
0.0001077527369
0.0001160539973
0.0001493823071
0.0001925772233
0.0002434176841
0.0002963973003
0.0002297015712
0.0001724359407
0.0001869124602
0.0002091363433
0.0001950586593
0.0001677839628
9.442862002e-05
0.0001134361659
0.0001164111537
0.0001204249957
0.0001234520858
0.0001344492036
0.0001442520192
0.0001506432214
0.0001403594776
0.0001226724807
0.000122583897
0.0001328448499
0.000139093903
0.0001129563086
7.506774763e-05
6.534316622e-05
8.413606023e-05
0.0001265963381
0.0001788901164
0.0002291553813
0.0001945658881
0.0001596279505
0.0001735973028
0.0001683375171
0.0001426728607
0.0001085480239
8.61339411e-05
0.0001083164567
0.0001254679951
0.0001545374524
0.0001920869087
0.0002400387171
0.0002575917911
0.0002413618226
0.0001486796911
9.111186396e-05
9.791742988e-05
0.0001207523246
0.0001609752363
0.0001604617772
0.0001111459249
7.500419244e-05
6.844144657e-05
8.400742208e-05
0.0001265374017
0.0001772552933
0.0001648726106
0.0001399057623
0.0001520400675
0.0001400218014
0.0001065893077
7.73758015e-05
8.400722462e-05
0.0001112834958
0.0001420580109
0.0002019168249
0.0002943659639
0.0003774194388
0.0003837725899
0.0002751172712
0.0001450950998
0.0001016761228
9.647625362e-05
0.0001111134996
0.0001571834448
0.0002038322709
0.0001499100055
0.0001107572482
8.619745028e-05
8.587634594e-05
0.0001101661998
0.0001437312358
0.0001381526078
0.0001094814306
0.0001104789833
0.0001026286211
8.264551536e-05
7.541431118e-05
9.013019813e-05
0.000112994161
0.0001389864837
0.0002020169317
0.0003186836893
0.0003804268282
0.0002822545642
0.0001929092345
0.0001712947963
0.0002015733958
0.0001910725844
0.0001238295397
0.0001508642822
0.0001945201198
0.0001872940917
0.0001385097859
0.000112397548
0.0001003616746
0.0001086285623
0.0001217478784
0.0001103365313
8.139310034e-05
6.83649607e-05
7.089424647e-05
7.18233559e-05
8.410148627e-05
9.836103178e-05
0.0001222428396
0.00014441943
0.0001937484545
0.0002114573223
0.0001583462152
0.0001382026661
0.0001760509657
0.0002693591461
0.0003691090459
0.0003252509171
0.0001825493688
0.0001285518906
0.0001216310427
0.0001268605727
0.0001050492845
9.792368881e-05
0.0001018369677
0.0001052479138
0.0001036488417
8.469018414e-05
6.592084408e-05
5.815329583e-05
6.457503461e-05
7.098705485e-05
0.0001075938899
0.0001308985144
0.0001361151743
0.0001575041497
0.0001814391778
0.0001598596209
9.391446758e-05
7.848099109e-05
0.0001134250511
0.0001684243398
0.0001754999024
0.0001409591835
9.687138085e-05
7.679320207e-05
6.090971542e-05
6.117304756e-05
8.395382791e-05
9.125547495e-05
8.532673971e-05
7.837913043e-05
6.398457668e-05
5.904304029e-05
5.46951257e-05
6.096110697e-05
6.543248327e-05
0.0001199523254
0.000148868069
0.0001502143919
0.000145239872
0.0001329487461
0.000113916595
0.0001005508862
0.0001306605951
0.0002240683602
0.0002932772239
0.0002850578632
0.0002462136436
0.0001217489803
8.15839489e-05
6.216849661e-05
6.76726416e-05
8.035033875e-05
8.21969855e-05
7.028293522e-05
5.977468046e-05
6.284623358e-05
6.39758479e-05
7.165097293e-05
5.185024071e-05
5.325610382e-05
0.0001354393058
0.0001699557398
0.0001711258164
0.0001585730024
0.0001357270092
0.0001195074416
0.0001150378905
0.0001215052761
0.0001557905337
0.0002479480465
0.0002531613185
0.0001904901064
0.0001388739124
8.650864415e-05
6.919855761e-05
7.233223559e-05
7.716301171e-05
7.496808622e-05
6.5826154e-05
6.576896385e-05
4.269363402e-05
3.073134343e-05
4.678333783e-05
4.275835113e-05
4.908003973e-05
0.0001501410218
0.0001975336687
0.0002076824498
0.0002008609074
0.000178202298
0.0001475213044
0.0001332991087
0.0001363318341
0.0001439628974
0.0001606954566
0.0001673591334
0.0001511723906
0.0001135351483
8.403562587e-05
7.64347479e-05
7.877795709e-05
7.793673126e-05
7.134944281e-05
6.715883472e-05
6.09644908e-05
2.628140209e-05
1.129844182e-05
1.562937303e-05
1.380804081e-05
1.696160363e-05
1.980766507e-05
0.0001617892897
0.0002352626525
0.0002492158403
0.0002360546887
0.0002174345941
0.0001892885152
0.0001608574919
0.0001523606715
0.0001573639126
0.0001625325746
0.0001478597203
0.0001363505345
0.0001043836464
8.066098284e-05
6.803183005e-05
7.018672539e-05
7.336315569e-05
6.998774697e-05
7.620646618e-05
6.741070002e-05
2.820314262e-05
8.89855564e-06
5.564583939e-06
4.96743532e-06
4.932052047e-06
5.06418365e-06
2.934632925e-07
4.768241727e-07
5.389221815e-07
5.553868005e-07
6.373683071e-07
1.496894187e-06
6.835544069e-06
2.738635404e-05
7.529278777e-05
0.0001426938943
0.0002043171912
0.0002475379872
0.0002763925219
0.0003009531112
0.0003169755647
0.0003188764627
0.0003081926269
0.0003016951061
7.811844293e-05
9.148010813e-05
0.0001086578698
0.0001232673629
0.0001343746975
0.0001424537499
0.0001458748111
0.0001389716307
3.573087046e-07
6.301547424e-06
1.401106823e-05
1.536969264e-05
1.104004757e-05
6.054695441e-06
9.120630304e-06
2.201981833e-05
3.931893347e-05
4.634763536e-05
4.961208433e-05
5.872814167e-05
7.225535936e-05
9.046551432e-05
0.0001041540076
0.0001058409797
9.676333482e-05
8.612074351e-05
8.287637264e-05
8.590633762e-05
9.297687059e-05
0.0001093573438
0.0001503546654
0.0002180051727
0.0002666843664
0.0002586492085
3.860499124e-07
1.139670932e-05
3.765079941e-05
4.531571773e-05
3.122333781e-05
1.294510805e-05
1.34957429e-05
2.720400179e-05
4.209055531e-05
4.283283576e-05
4.067096267e-05
5.150063662e-05
7.430355774e-05
0.0001014096161
0.0001185663439
0.0001195967557
0.0001086886559
9.426475426e-05
8.543032656e-05
8.669180605e-05
9.473028379e-05
0.0001209463565
0.0001940473748
0.0002825073071
0.0003284303473
0.0002965130246
4.003889006e-07
1.12147738e-05
3.794137148e-05
4.420737894e-05
3.205590052e-05
1.626533165e-05
1.40220277e-05
2.610199529e-05
4.246011019e-05
4.763459765e-05
4.524744242e-05
5.911878407e-05
8.527781778e-05
0.0001112237714
0.0001252190867
0.0001257332218
0.0001172241795
0.0001041866001
9.177117753e-05
8.684803713e-05
9.377916553e-05
0.0001331684072
0.0002168703813
0.0002983291594
0.0003421005719
0.0002945968406
5.560932166e-07
7.061221469e-06
1.949403801e-05
2.09365485e-05
1.774763724e-05
1.477598158e-05
1.35902444e-05
2.147199012e-05
3.89186176e-05
5.223022914e-05
5.694014014e-05
6.986435121e-05
9.065742501e-05
0.0001093220525
0.0001199771486
0.000122190275
0.0001177108388
0.0001077375302
9.439634682e-05
8.425821273e-05
9.208730568e-05
0.0001362891395
0.0002012989722
0.0002698730854
0.0003053785473
0.0002610390907
2.042848758e-06
6.460089191e-06
1.399290824e-05
1.83349628e-05
2.073943714e-05
2.059059151e-05
1.85495354e-05
2.342658444e-05
3.887100746e-05
5.275205622e-05
6.373504534e-05
7.673466946e-05
9.087407055e-05
0.0001031959484
0.0001113603812
0.0001144174032
0.000111846226
0.0001032756551
8.953563103e-05
7.594823282e-05
7.69254052e-05
0.0001098742305
0.0001589714582
0.0002132874091
0.0002358406319
0.0002354454726
1.115110094e-05
1.449069951e-05
2.34091914e-05
2.98510585e-05
3.220995024e-05
3.120641299e-05
3.023906098e-05
3.686758233e-05
4.88658287e-05
5.831699198e-05
6.774723394e-05
7.776167881e-05
8.749585328e-05
9.589124143e-05
0.0001018147716
0.0001036201617
0.0001001358886
9.105127032e-05
7.687730632e-05
6.200591238e-05
5.485595547e-05
6.83467837e-05
0.0001044724558
0.0001550071653
0.0001992703511
0.0002323996333
4.62847704e-05
3.055075061e-05
3.407088782e-05
3.491092074e-05
3.464507771e-05
3.585287294e-05
4.161638226e-05
5.408064856e-05
6.39460423e-05
6.66578221e-05
7.023352259e-05
7.410141952e-05
7.912752716e-05
8.495279138e-05
9.000904132e-05
9.168316906e-05
8.905922921e-05
8.203889385e-05
7.009731182e-05
5.686303487e-05
5.066724245e-05
5.379542638e-05
7.195107984e-05
0.0001186770441
0.0001841774234
0.0002365161407
0.0001299320188
4.548624608e-05
4.079148814e-05
3.715445047e-05
3.478205604e-05
3.869738986e-05
5.208490579e-05
7.279247624e-05
8.377889442e-05
8.111777546e-05
7.574424277e-05
6.924362357e-05
6.667509141e-05
7.138639391e-05
7.887844022e-05
8.497724852e-05
8.932427377e-05
9.090996036e-05
8.769266314e-05
8.018651041e-05
7.365472781e-05
7.563781369e-05
8.719528538e-05
0.0001101715336
0.0001740331494
0.00024250545
0.0002582073888
6.294613135e-05
4.878978499e-05
3.885375622e-05
3.45418549e-05
4.188004339e-05
6.344252563e-05
9.658007944e-05
0.0001162763849
0.0001123606316
9.567361247e-05
7.048707202e-05
5.626151948e-05
6.116884067e-05
7.300695142e-05
8.932707604e-05
0.0001057828404
0.0001182325659
0.0001249657551
0.0001207919686
0.000116181503
0.00012260047
0.0001369276662
0.0001469310018
0.0001836185752
0.0002468830762
8.586224218e-05
7.701898761e-05
5.696778396e-05
4.101810588e-05
3.990946788e-05
5.730914551e-05
9.153472679e-05
0.0001399415006
0.0001771517962
0.000176956516
0.0001471485362
8.831632166e-05
5.558436363e-05
6.108734485e-05
7.804271009e-05
0.0001103254404
0.0001394715735
0.0001585214272
0.0001713587401
0.0001695548549
0.0001705627681
0.0001849766042
0.0002049178055
0.0002106137187
0.0002363255301
0.0002652583402
9.959304387e-05
9.123326891e-05
6.724476425e-05
5.033107156e-05
6.477927864e-05
0.0001069127354