/*--------------------------------*- C++ -*----------------------------------*\
  =========                 |
  \\      /  F ield         | OpenFOAM: The Open Source CFD Toolbox
   \\    /   O peration     | Website:  https://openfoam.org
    \\  /    A nd           | Version:  8
     \\/     M anipulation  |
\*---------------------------------------------------------------------------*/
FoamFile
{
    version     2.0;
    format      ascii;
    class       surfaceScalarField;
    location    "0.5";
    object      phi;
}
// * * * * * * * * * * * * * * * * * * * * * * * * * * * * * * * * * * * * * //

dimensions      [1 0 -1 0 0 0 0];

internalField   nonuniform List<scalar> 
197783
(
-1.299093247e-06
-2.133844748e-06
3.433059777e-06
-2.726604177e-06
-2.195783356e-06
3.623419812e-06
-4.399636527e-06
-2.130261855e-06
3.803427082e-06
-6.497452038e-06
-2.004714981e-06
4.102674051e-06
-9.290976838e-06
-1.813052201e-06
4.606734178e-06
-1.3087031e-05
-1.654537625e-06
5.450765472e-06
-1.779794674e-05
-2.028753526e-06
6.739863562e-06
-2.260539943e-05
-3.488563529e-06
8.296235353e-06
-2.674442722e-05
-5.607910216e-06
9.747181666e-06
-2.983161972e-05
-7.69947867e-06
1.078693621e-05
-3.104238058e-05
-9.702221588e-06
1.09132662e-05
-3.040290773e-05
-1.107321272e-05
1.043403885e-05
-2.854328441e-05
-1.196876374e-05
1.010945245e-05
-2.61509793e-05
-1.254212646e-05
1.015014354e-05
-2.390151787e-05
-1.300440054e-05
1.075526705e-05
-2.325429151e-05
-1.318325042e-05
1.253635139e-05
-2.672440066e-05
-1.289784121e-05
1.636827171e-05
-3.578341281e-05
-1.319120364e-05
2.225053991e-05
-4.63609526e-05
-1.641332147e-05
2.699120574e-05
-5.176001934e-05
-2.125161841e-05
2.665104021e-05
-5.027171891e-05
-2.44890115e-05
2.300105956e-05
-4.30210736e-05
-2.625165346e-05
1.900134297e-05
-3.079173624e-05
-2.765891141e-05
1.54298918e-05
-1.431649701e-05
-2.903473379e-05
1.255978968e-05
3.336238354e-06
-3.032583837e-05
1.267336471e-05
-3.113281968e-05
2.290391694e-05
-1.307514805e-06
-4.513720037e-06
3.687518325e-06
-2.749923928e-06
-4.669773054e-06
3.91653075e-06
-4.395125331e-06
-4.625734756e-06
4.140813476e-06
-6.379178614e-06
-4.493247087e-06
4.472735125e-06
-8.896034894e-06
-4.277462428e-06
4.981429849e-06
-1.22511578e-05
-4.01856435e-06
5.71932999e-06
-1.649687021e-05
-4.350228406e-06
6.567389197e-06
-2.106078458e-05
-6.112908162e-06
7.188484899e-06
-2.514402682e-05
-9.058188249e-06
7.533767801e-06
-2.79009254e-05
-1.234033444e-05
7.39802103e-06
-2.909610617e-05
-1.508181736e-05
6.575058983e-06
-2.913647477e-05
-1.697612508e-05
5.943576727e-06
-2.836459895e-05
-1.842078138e-05
5.680449087e-06
-2.702818955e-05
-1.974944318e-05
5.871223115e-06
-2.586692903e-05
-2.098917335e-05
6.823832907e-06
-2.628851783e-05
-2.191220564e-05
9.15086651e-06
-2.980424449e-05
-2.244682509e-05
1.306503747e-05
-3.637729649e-05
-2.364319243e-05
1.702538381e-05
-4.334560717e-05
-2.678526933e-05
1.734061903e-05
-4.731001534e-05
-3.044436005e-05
1.315750817e-05
-4.670301574e-05
-3.266174149e-05
7.566071712e-06
-4.127829377e-05
-3.370710453e-05
2.03104837e-06
-3.07407994e-05
-3.450022167e-05
-3.695885797e-06
-1.663722529e-05
-3.569698757e-05
-7.441041469e-06
-1.847708904e-06
-4.036280495e-05
-4.752307694e-06
-4.596729884e-05
1.11375527e-05
-1.24937092e-06
-7.34226659e-06
4.078058194e-06
-2.677432718e-06
-7.605487481e-06
4.363920542e-06
-4.285099971e-06
-7.704648113e-06
4.686731902e-06
-6.213506145e-06
-7.662352751e-06
5.097673405e-06
-8.636825397e-06
-7.486071391e-06
5.63210312e-06
-1.190517744e-05
-7.013063364e-06
6.263042768e-06
-1.59568996e-05
-7.062360511e-06
6.764066508e-06
-2.006015205e-05
-8.863567615e-06
6.854145347e-06
-2.377554635e-05
-1.204814181e-05
6.705600171e-06
-2.681341546e-05
-1.558801143e-05
6.285815207e-06
-2.888275009e-05
-1.900095551e-05
5.988756351e-06
-2.989172969e-05
-2.199458629e-05
6.027736742e-06
-3.001815229e-05
-2.465150389e-05
6.357451874e-06
-2.951829372e-05
-2.721550692e-05
6.966521198e-06
-2.921493837e-05
-2.948729763e-05
8.19509354e-06
-3.040693505e-05
-3.100494501e-05
1.028507037e-05
-3.399712883e-05
-3.166272187e-05
1.280643776e-05
-3.92936309e-05
-3.235025197e-05
1.40039215e-05
-4.421500719e-05
-3.385417034e-05
1.199063909e-05
-4.671551087e-05
-3.539601463e-05
7.452507792e-06
-4.571017587e-05
-3.599131207e-05
2.324564826e-06
-4.027095115e-05
-3.535518124e-05
-3.790840015e-06
-2.95584357e-05
-3.440404259e-05
-1.080840358e-05
-1.540350795e-05
-3.518133761e-05
-1.467030572e-05
-4.875909849e-06
-4.259637616e-05
-8.293797042e-06
-5.178872324e-05
9.800664759e-06
-1.201680246e-06
-1.092699393e-05
4.786566091e-06
-2.670509057e-06
-1.130480228e-05
5.168305653e-06
-4.191846393e-06
-1.182020277e-05
5.637060791e-06
-5.842618792e-06
-1.217380205e-05
6.162400751e-06
-7.681358385e-06
-1.234998038e-05
6.70284077e-06
-1.019320026e-05
-1.172934593e-05
7.228332197e-06
-1.36882942e-05
-1.117794794e-05
7.61090715e-06
-1.762730065e-05
-1.265153598e-05
7.727219539e-06
-2.159763003e-05
-1.583119443e-05
7.753645096e-06
-2.577016844e-05
-1.946274035e-05
8.047547483e-06
-2.934562792e-05
-2.404829911e-05
8.623098583e-06
-3.178204641e-05
-2.862898861e-05
9.071130138e-06
-3.308179072e-05
-3.30222463e-05
9.670809081e-06
-3.352036649e-05
-3.709158493e-05
1.031498891e-05
-3.380862017e-05
-4.020773862e-05
1.100904212e-05
-3.484784289e-05
-4.165357929e-05
1.168821506e-05
-3.709821106e-05
-4.140056852e-05
1.198857952e-05
-4.010750266e-05
-4.06195647e-05
1.127896858e-05
-4.287884296e-05
-4.019553516e-05
9.113060049e-06
-4.431052363e-05
-3.969099699e-05
5.727001779e-06
-4.314800254e-05
-3.860090228e-05
1.447387839e-06
-3.801696987e-05
-3.62992485e-05
-4.186666069e-06
-2.814718838e-05
-3.37350665e-05
-1.053847484e-05
-1.608934769e-05
-3.430941047e-05
-1.292950953e-05
-1.260525718e-05
-4.306609267e-05
-3.014151238e-06
-5.387364926e-05
1.192999483e-05
-1.341691102e-06
-1.563619467e-05
6.051072359e-06
-3.180553831e-06
-1.604921054e-05
6.583455653e-06
-4.94210021e-06
-1.728837494e-05
7.229910913e-06
-6.567967717e-06
-1.834146728e-05
7.793736771e-06
-8.005600236e-06
-1.912287858e-05
8.210747994e-06
-9.695161781e-06
-1.873069273e-05
8.691139347e-06
-1.220125794e-05
-1.800008568e-05
9.328480477e-06
-1.561066264e-05
-1.91895611e-05
9.947695022e-06
-2.014806832e-05
-2.184968429e-05
1.05561805e-05
-2.56913383e-05
-2.529405668e-05
1.137488977e-05
-3.070505282e-05
-3.109428959e-05
1.206002622e-05
-3.441021366e-05
-3.72980897e-05
1.2374599e-05
-3.671496326e-05
-4.332563121e-05
1.260848539e-05
-3.784034849e-05
-4.85524017e-05
1.258656394e-05
-3.826973137e-05
-5.193427414e-05
1.21562872e-05
-3.872566922e-05
-5.257044353e-05
1.137317235e-05
-3.973039876e-05
-5.056062277e-05
1.016515015e-05
-4.091399608e-05
-4.785087864e-05
8.415268651e-06
-4.155316279e-05
-4.591532017e-05
6.359295724e-06
-4.120176629e-05
-4.414384768e-05
4.101781665e-06
-3.896450094e-05
-4.227115937e-05
1.43330103e-06
-3.366748599e-05
-3.971985742e-05
-1.87611459e-06
-2.495496841e-05
-3.728809474e-05
-5.159214933e-06
-1.656868553e-05
-3.82367055e-05
-4.458739302e-06
-1.960557494e-05
-4.651506499e-05
6.486088042e-06
-5.484265299e-05
1.317207146e-05
-2.111092697e-06
-2.176782935e-05
8.242933881e-06
-4.8915607e-06
-2.201814512e-05
8.749616944e-06
-7.431633225e-06
-2.401682379e-05
9.268746478e-06
-9.440626034e-06
-2.580154694e-05
9.469310302e-06
-1.08053689e-05
-2.737211267e-05
9.61422585e-06
-1.195252462e-05
-2.783093555e-05
1.024765945e-05
-1.339679282e-05
-2.807121954e-05
1.151567904e-05
-1.581816977e-05
-2.956185285e-05
1.279396485e-05
-2.038975772e-05
-3.097034787e-05
1.369256474e-05
-2.655152284e-05
-3.32242152e-05
1.409225449e-05
-3.221484885e-05
-3.932810134e-05
1.389748483e-05
-3.658203616e-05
-4.65263045e-05
1.359576245e-05
-3.945984374e-05
-5.354642249e-05
1.309896908e-05
-4.07422416e-05
-5.943734936e-05
1.216772149e-05
-4.078534267e-05
-6.284896796e-05
1.095817118e-05
-4.05503308e-05
-6.26450994e-05
9.840014892e-06
-4.103677532e-05
-5.870348918e-05
8.629671944e-06
-4.16665399e-05
-5.381860934e-05
6.597843504e-06
-4.106041069e-05
-5.055904679e-05
4.03793081e-06
-3.884331359e-05
-4.787300904e-05
1.512380704e-06
-3.463645543e-05
-4.588209568e-05
-5.956230166e-07
-2.808904428e-05
-4.420528461e-05
-2.061701987e-06
-1.985830155e-05
-4.326088378e-05
-2.257687309e-06
-1.447789585e-05
-4.524128772e-05
1.624421478e-06
-2.143212446e-05
-5.158012763e-05
1.201952022e-05
-5.548649139e-05
1.393071075e-05
-4.347981748e-06
-2.908766494e-05
1.166805664e-05
-8.671077368e-06
-2.90283477e-05
1.133355003e-05
-1.215828729e-05
-3.166517853e-05
1.113582718e-05
-1.44519008e-05
-3.415518051e-05
1.064751841e-05
-1.555518364e-05
-3.66442305e-05
1.037568011e-05
-1.609106809e-05
-3.846002183e-05
1.116526242e-05
-1.657059519e-05
-4.038135281e-05
1.278997031e-05
-1.795200869e-05
-4.235100637e-05
1.417089563e-05
-2.181814942e-05
-4.20174306e-05
1.491356495e-05
-2.781715689e-05
-4.22102996e-05
1.498544431e-05
-3.385047954e-05
-4.742867726e-05
1.413426231e-05
-3.861265285e-05
-5.470728333e-05
1.294352583e-05
-4.155477275e-05
-6.202995796e-05
1.142603664e-05
-4.228295887e-05
-6.812486667e-05
9.416088463e-06
-4.127060552e-05
-7.155512907e-05
7.69419033e-06
-4.003055395e-05
-7.108096568e-05
7.196188419e-06
-4.042759616e-05
-6.584422183e-05
7.53813406e-06
-4.184066003e-05
-5.882921715e-05
6.424013153e-06
-4.154679265e-05
-5.405422732e-05
3.201638187e-06
-3.866398096e-05
-4.997989592e-05
-7.756168263e-07
-3.315806595e-05
-4.741447595e-05
-3.973243321e-06
-2.4994826e-05
-4.610980364e-05
-6.25844459e-06
-1.539057858e-05
-4.619717599e-05
-6.66769099e-06
-9.518146813e-06
-4.891171166e-05
-2.201760978e-06
-1.677618809e-05
-5.433475915e-05
1.00128915e-05
-5.604939568e-05
1.453945745e-05
-8.167448014e-06
-3.714774623e-05
1.622780684e-05
-1.451409871e-05
-3.678674159e-05
1.410533254e-05
-1.870530741e-05
-3.97165024e-05
1.224282677e-05
-2.071012916e-05
-4.280082689e-05
1.065076618e-05
-2.099719991e-05
-4.604994151e-05
9.693087352e-06
-2.064097812e-05
-4.890544402e-05
1.008952022e-05
-2.01535461e-05
-5.179203751e-05
1.092359164e-05
-2.040831506e-05
-5.376937742e-05
1.167349529e-05
-2.320540383e-05
-5.245681683e-05
1.323683899e-05
-2.936302055e-05
-5.112265302e-05
1.507034025e-05
-3.644371148e-05
-5.46180336e-05
1.427042504e-05
-4.172666904e-05
-6.109702617e-05
1.16730874e-05
-4.4140769e-05
-6.781702132e-05
8.20155854e-06
-4.346964266e-05
-7.322909342e-05
4.433498896e-06
-4.06030259e-05
-7.650505129e-05
2.08369837e-06
-3.753927473e-05
-7.658361197e-05
2.439277197e-06
-3.731746962e-05
-7.149538316e-05
5.429720468e-06
-4.019452628e-05
-6.319444244e-05
7.242620401e-06
-4.172678426e-05
-5.668654405e-05
4.164893111e-06
-3.970807069e-05
-5.049349451e-05
-1.504814383e-06
-3.416957852e-05
-4.677332898e-05
-6.179354285e-06
-2.517503936e-05
-4.518309427e-05
-9.920977703e-06
-1.35318145e-05
-4.539785065e-05
-1.244228889e-05
-4.260309884e-06
-4.80950013e-05
-1.00879619e-05
-6.874485087e-06
-5.418731107e-05
2.466837689e-06
-5.606194729e-05
1.176061278e-05
-1.316402939e-05
-4.533966262e-05
2.13562566e-05
-2.179124249e-05
-4.429059995e-05
1.613138895e-05
-2.610340048e-05
-4.743841217e-05
1.203438438e-05
-2.734234659e-05
-5.076510242e-05
9.203542312e-06
-2.663878804e-05
-5.407252364e-05
7.319354585e-06
-2.530143318e-05
-5.687771268e-05
6.635259664e-06
-2.37491785e-05
-5.948588699e-05
6.141956797e-06
-2.279091884e-05
-6.115954758e-05
6.43228512e-06
-2.441216027e-05
-6.015264122e-05
9.317447062e-06
-3.116406862e-05
-5.87293143e-05
1.43589565e-05
-4.033295106e-05
-6.027727499e-05
1.482851789e-05
-4.640438395e-05
-6.494890793e-05
9.923719465e-06
-4.764588108e-05
-6.983522099e-05
3.260109789e-06
-4.488379513e-05
-7.373053288e-05
-2.260236084e-06
-3.939515643e-05
-7.712523901e-05
-4.868050271e-06
-3.338951349e-05
-7.827588994e-05
-4.31297487e-06
-3.106625976e-05
-7.445668067e-05
6.384168389e-07
-3.509504849e-05
-6.693939917e-05
7.774085456e-06
-3.995542752e-05
-5.892418725e-05
7.098335148e-06
-4.035418613e-05
-5.007996256e-05
-1.448344861e-08
-3.61118637e-05
-4.482576367e-05
-6.18961214e-06
-2.757213557e-05
-4.238053871e-05
-1.134202578e-05
-1.518791425e-05
-4.226151958e-05
-1.552032727e-05
-3.286627649e-06
-4.356407708e-05
-1.643210954e-05
2.761098536e-06
-4.951044919e-05
-1.072425154e-05
-4.507945881e-05
-8.13680669e-06
-1.906486409e-05
-5.214057021e-05
2.586610655e-05
-2.940191942e-05
-5.078130366e-05
1.68280979e-05
-3.361405418e-05
-5.382657229e-05
1.060063375e-05
-3.401531615e-05
-5.66363868e-05
6.272893603e-06
-3.216134232e-05
-5.906776824e-05
3.141628935e-06
-2.955820953e-05
-6.09364594e-05
1.455983074e-06
-2.664934184e-05
-6.264798726e-05
2.536118442e-07
-2.42683579e-05
-6.399035785e-05
4.502149408e-07
-2.468997765e-05
-6.396478343e-05
4.234156022e-06
-3.250576917e-05
-6.352061075e-05
1.260748941e-05
-4.478699846e-05
-6.326417016e-05
1.526853688e-05
-5.200982165e-05
-6.530894172e-05
7.583281604e-06
-5.193756821e-05
-6.759872745e-05
-2.308320478e-06
-4.687402692e-05
-7.025570206e-05
-8.537958081e-06
-3.838186036e-05
-7.406828086e-05
-1.154872137e-05
-2.820036078e-05
-7.645445984e-05
-1.200253663e-05
-2.164553264e-05
-7.434753021e-05
-6.66359873e-06
-2.527400178e-05
-6.93629775e-05
6.052392672e-06
-3.44219527e-05
-6.08679231e-05
1.109199829e-05
-3.901561789e-05
-4.941844329e-05
3.932432247e-06
-3.716663784e-05
-4.206420993e-05
-4.610266758e-06
-2.973580597e-05
-3.836011254e-05
-1.145100735e-05
-1.742666197e-05
-3.788359749e-05
-1.668681955e-05
-7.243396197e-07
-3.928678542e-05
-2.097932922e-05
1.167150261e-05
-4.476196887e-05
-1.714392669e-05
-4.473532253e-05
-2.605896114e-06
-2.512304389e-05
-5.60238018e-05
2.900662954e-05
-3.68172718e-05
-5.499039393e-05
1.590367895e-05
-4.068038184e-05
-5.726480908e-05
7.301712323e-06
-3.99789528e-05
-5.887764115e-05
1.54019864e-06
-3.662567753e-05
-6.027029233e-05
-2.150371918e-06
-3.23808205e-05
-6.129807785e-05
-3.88285352e-06
-2.801724301e-05
-6.21099378e-05
-4.901234053e-06
-2.41394093e-05
-6.278611517e-05
-5.081676528e-06
-2.344193402e-05
-6.315470171e-05
-1.507152546e-06
-3.259957831e-05
-6.396273461e-05
9.600181292e-06
-4.860895061e-05
-6.226418057e-05
1.500981314e-05
-5.764452113e-05
-6.164690717e-05
5.373977641e-06
-5.70994746e-05
-6.168138062e-05
-6.461957921e-06
-5.023100591e-05
-6.38902561e-05
-1.323349247e-05
-3.878189815e-05
-6.81726303e-05
-1.734434581e-05
-2.390892933e-05
-7.148957531e-05
-1.983745113e-05
-1.065625253e-05
-7.162814199e-05
-1.597168654e-05
-1.123491312e-05
-6.88692743e-05
8.52990812e-08
-2.444106145e-05
-6.140589719e-05
1.374443751e-05
-3.481470329e-05
-4.841907836e-05
9.37455625e-06
-3.671281829e-05
-3.863840318e-05
-1.527436817e-06
-3.115639066e-05
-3.374560454e-05
-1.017070448e-05
-1.996867958e-05
-3.301673329e-05
-1.605436193e-05
-2.381322741e-06
-3.462932372e-05
-2.224461163e-05
1.423560639e-05
-3.878584618e-05
-2.259285454e-05
-4.220238417e-05
-9.833247869e-06
-3.050920242e-05
-5.558977376e-05
3.007554799e-05
-4.317371065e-05
-5.518238808e-05
1.285688588e-05
-4.646702483e-05
-5.653441132e-05
2.563303543e-06
-4.458276325e-05
-5.718330105e-05
-3.578214114e-06
-3.946196104e-05
-5.784748018e-05
-7.543225754e-06
-3.362650149e-05
-5.806973993e-05
-9.063402714e-06
-2.816164063e-05
-5.790567599e-05
-9.668718982e-06
-2.291110941e-05
-5.751898547e-05
-1.051724742e-05
-2.096576051e-05
-5.748627848e-05
-7.613353811e-06
-3.115453562e-05
-5.882904747e-05
5.05551378e-06
-5.096933923e-05
-5.633067171e-05
1.388174357e-05
-6.292678132e-05
-5.388832548e-05
4.199319055e-06
-6.298785319e-05
-5.28165776e-05
-8.80328414e-06
-5.519297556e-05
-5.487976611e-05
-1.680493298e-05
-4.10770345e-05
-5.924040062e-05
-2.304774257e-05
-2.181868662e-05
-6.30172706e-05
-2.773023088e-05
-2.391557853e-06
-6.553927423e-05
-2.551561023e-05
3.055581796e-06
-6.55863682e-05
-8.729691273e-06
-1.072068484e-05
-5.928814116e-05
1.165883857e-05
-2.758840542e-05
-4.654958739e-05
1.499850638e-05
-3.490656736e-05
-3.436297074e-05
3.042972694e-06
-3.187011112e-05
-2.817085768e-05
-8.610991984e-06
-2.209129464e-05
-2.72616744e-05
-1.553369493e-05
-5.374310016e-06
-2.938280634e-05
-2.196334967e-05
1.312821704e-05
-3.317994535e-05
-2.410830479e-05
-3.834258354e-05
-1.466148788e-05
-3.466796178e-05
-4.966787364e-05
2.874645398e-05
-4.795901284e-05
-5.051102714e-05
8.62008928e-06
-5.09479288e-05
-5.148156869e-05
-2.063531116e-06
-4.756810195e-05
-5.162399688e-05
-8.938738859e-06
-4.04228759e-05
-5.153511976e-05
-1.345718781e-05
-3.319596812e-05
-5.07447933e-05
-1.455144607e-05
-2.735894242e-05
-4.933817227e-05
-1.4404109e-05
-2.159634799e-05
-4.770702205e-05
-1.557412504e-05
-1.852695301e-05
-4.70100302e-05
-1.354520504e-05
-2.878524159e-05
-4.766794436e-05
-9.023717034e-07
-5.182197281e-05
-4.519451402e-05
1.190104347e-05
-6.74093457e-05
-4.216299926e-05
3.862524529e-06
-6.908548153e-05
-4.087242001e-05
-1.026756145e-05
-6.100444093e-05
-4.223517131e-05
-2.072518567e-05
-4.502154152e-05
-4.594222092e-05
-2.928062871e-05
-2.239022117e-05
-5.019520859e-05
-3.545293426e-05
1.189219064e-06
-5.479535871e-05
-3.432294953e-05
1.319866842e-05
-5.939714136e-05
-1.819831982e-05
3.916563104e-06
-5.429090526e-05
4.285201688e-06
-1.789768492e-05
-4.318719343e-05
1.845213488e-05
-3.223930781e-05
-2.943893214e-05
9.417818187e-06
-3.252818721e-05
-2.156883517e-05
-6.312947446e-06
-2.431288936e-05
-1.989073238e-05
-1.558608254e-05
-8.842158561e-06
-2.27372736e-05
-2.211614328e-05
1.041909497e-05
-2.704199182e-05
-2.539912284e-05
-3.404417618e-05
-1.775241506e-05
-3.732460205e-05
-3.824970772e-05
2.590684118e-05
-5.099200072e-05
-4.142775777e-05
4.584533613e-06
-5.362236945e-05
-4.212077599e-05
-6.730027094e-06
-4.857841784e-05
-4.147634931e-05
-1.519119877e-05
-3.942078512e-05
-4.04168392e-05
-2.027549852e-05
-3.067477387e-05
-3.839263893e-05
-2.109773732e-05
-2.511019186e-05
-3.547253782e-05
-1.942977224e-05
-2.032866577e-05
-3.280764837e-05
-1.968044087e-05
-1.731546181e-05
-3.208877503e-05
-1.793399395e-05
-2.741220804e-05
-3.199897881e-05
-5.571750148e-06
-5.218912247e-05
-2.99842639e-05
9.567160109e-06
-7.088402604e-05
-2.746985903e-05
4.002263733e-06
-7.426626511e-05
-2.57401128e-05
-1.174958965e-05
-6.637097998e-05
-2.538694381e-05
-2.474304184e-05
-4.987697369e-05
-2.789163852e-05
-3.454411169e-05
-2.611725414e-05
-3.274627007e-05
-4.120818413e-05
2.648496419e-07
-3.997684112e-05
-4.120019662e-05
1.756531875e-05
-4.948149917e-05
-2.72157403e-05
1.481734922e-05
-4.735812329e-05
-4.184486852e-06
-7.420355346e-06
-3.785954834e-05
1.691034426e-05
-2.926853328e-05
-2.478796823e-05
1.71974432e-05
-3.375642106e-05
-1.58516985e-05
-1.22906487e-06
-2.737951557e-05
-1.215317939e-05
-1.411431765e-05
-1.321033151e-05
-1.513224511e-05
-2.17741129e-05
6.583557692e-06
-2.021526521e-05
-2.662055523e-05
-2.912042191e-05
-2.079813667e-05
-3.788520188e-05
-2.280354839e-05
2.243945012e-05
-5.160067532e-05
-2.877570155e-05
1.063820364e-06
-5.378878949e-05
-2.856097904e-05
-1.137128102e-05
-4.753606324e-05
-2.640340421e-05
-2.132525449e-05
-3.660245336e-05
-2.40945656e-05
-2.725544408e-05
-2.575806315e-05
-2.111292072e-05
-2.81236529e-05
-2.076521859e-05
-1.629196266e-05
-2.417294661e-05
-1.954908237e-05
-1.212433579e-05
-2.189896241e-05
-1.908237034e-05
-1.368981798e-05
-1.886517278e-05
-3.011740691e-05
-1.43746795e-05
-6.5887617e-06
-5.390962702e-05
-1.435039783e-05
8.158885519e-06
-7.323397849e-05
-1.404143534e-05
5.89646329e-06
-7.775232941e-05
-1.137686855e-05
-9.844383156e-06
-7.096684053e-05
-8.353933579e-06
-2.381800862e-05
-5.57866437e-05
-9.289189488e-06
-3.378216151e-05
-3.316594165e-05
-1.50237244e-05
-4.034277237e-05
-5.693047796e-06
-2.518627778e-05
-4.226302162e-05
1.578326321e-05
-3.725281364e-05
-3.370461973e-05
2.041680655e-05
-3.89221636e-05
-1.30691827e-05
2.096435094e-06
-3.175600126e-05
1.221710408e-05
-2.440424905e-05
-2.21539745e-05
2.386691735e-05
-3.517737985e-05
-1.322686793e-05
8.148475481e-06
-3.15989832e-05
-6.893756755e-06
-8.837690706e-06
-1.859613905e-05
-8.933775049e-06
-1.920122978e-05
2.05810402e-06
-1.451102317e-05
-2.635844105e-05
-2.431041115e-05
-2.336146087e-05
-3.292189186e-05
-9.166019815e-06
1.928475988e-05
-4.704347134e-05
-1.395644667e-05
-6.972837447e-07
-5.077813774e-05
-1.077932922e-05
-1.40465862e-05
-4.493871807e-05
-7.377747772e-06
-2.486465164e-05
-3.330740422e-05
-4.202493218e-06
-3.152292687e-05
-2.061162252e-05
-1.437176417e-06
-3.237104576e-05
-1.599662566e-05
4.36123582e-06
-2.526768757e-05
-2.012261059e-05
9.098556715e-06
-1.70963761e-05
-2.662833267e-05
4.327643014e-06
-1.151119507e-05
-4.102724618e-05
1.503418046e-07
-1.255602201e-07
-6.115270306e-05
-4.24210431e-06
1.001774845e-05
-7.740151964e-05
-7.716941827e-06
9.924898428e-06
-8.23205618e-05
-7.08722181e-06
6.299410496e-07
-7.686696932e-05
-4.99366328e-06
-8.813343049e-06
-6.313787091e-05
-5.197316492e-06
-1.782047814e-05
-4.172379606e-05
-9.564385697e-06
-2.68729432e-05
-1.45469544e-05
-1.803831632e-05
-3.432436608e-05
1.063387332e-05
-2.680948028e-05
-3.562377852e-05
2.376663164e-05
-3.04153736e-05
-2.163922702e-05
1.315765273e-05
-2.611418687e-05
4.967435395e-06
-1.474555807e-05
-1.895810835e-05
2.470756827e-05
-3.475872992e-05
-1.112517142e-05
1.791164454e-05
-3.587760348e-05
-5.590455892e-06
-1.843094515e-07
-2.400703508e-05
-6.386261108e-06
-1.44180109e-05
-2.143744802e-06
-1.143884926e-05
-2.493543334e-05
-1.992612692e-05
-2.596215601e-05
-2.038603333e-05
-7.83125235e-06
1.905163158e-05
-3.391109011e-05
-7.45345671e-06
7.02244721e-06
-3.928723563e-05
-1.182244801e-06
-4.220533004e-06
-3.785705002e-05
5.963705411e-06
-1.477120784e-05
-3.17886325e-05
1.110348128e-05
-2.137392546e-05
-2.536149823e-05
1.264933809e-05
-2.051314382e-05
-2.52701091e-05
1.552036782e-05
-1.12499656e-05
-3.284002786e-05
1.709093617e-05
-4.218495434e-07
-4.612017545e-05
1.00383134e-05
7.570142733e-06
-6.12923036e-05
3.011237154e-06
1.231193977e-05
-7.395227894e-05
-3.128222587e-06
1.154680646e-05
-8.247961368e-05
-6.711446836e-06
7.522521234e-06
-8.453635577e-05
-7.393836501e-06
2.363990701e-06
-7.956003147e-05
-7.013281814e-06
-2.956121233e-06
-6.758577606e-05
-7.876154655e-06
-9.294880769e-06
-4.832923169e-05
-1.062891211e-05
-1.819152837e-05
-2.266409445e-05
-1.530135669e-05
-2.840165357e-05
5.032936957e-06
-1.89910396e-05
-3.551508279e-05
2.45948406e-05
-2.073541357e-05
-2.924153572e-05
2.332496244e-05
-1.74034579e-05
-7.440583918e-06
-3.982096092e-06
-1.07531335e-05
1.910230122e-05
-3.180478503e-05
-6.056435489e-06
2.275411468e-05
-3.72496987e-05
-5.368261584e-06
5.222826547e-06
-2.762265292e-05
-6.188731017e-06
-9.824515827e-06
-4.669015474e-06
-1.047753782e-05
-2.391493006e-05
-1.592832907e-05
-2.900324928e-05
-1.318396451e-05
-9.160685943e-06
1.451375866e-05
-2.017706105e-05
-9.28430374e-06
8.824310623e-06
-2.535320395e-05
-4.711957971e-06
8.706251739e-06
-2.814503914e-05
2.767759982e-06
5.988225953e-06
-2.82679436e-05
7.725333379e-06
3.501554501e-06
-2.87483018e-05
6.941143954e-06
6.189121674e-06
-3.420973663e-05
6.591669505e-06
1.439079664e-05
-4.470690757e-05
6.917652706e-06
2.067123205e-05
-5.759280936e-05
3.250815528e-07
2.260003961e-05
-6.932668819e-05
-4.535121833e-06
1.92812044e-05
-7.694657095e-05
-8.072979506e-06
1.256560735e-05
-8.125273792e-05
-7.920470881e-06
5.51608725e-06
-8.126337988e-05
-5.660591885e-06
-1.721806128e-06
-7.666741317e-05
-2.603318404e-06
-9.005233853e-06
-6.704176917e-05
-1.427158786e-06
-1.607403202e-05
-5.083614586e-05
-3.113567003e-06
-2.372043409e-05
-2.737001569e-05
-6.085145364e-06
-3.268186931e-05
1.029478432e-06
-7.345158913e-06
-4.004496561e-05
2.367191426e-05
-6.360075415e-06
-3.701743424e-05
2.79172201e-05
-2.219309457e-06
-1.942918489e-05
2.297931382e-06
4.004340542e-06
1.086202651e-05
-2.946954455e-05
2.017772876e-06
2.369341955e-05
-3.734293319e-05
-3.919202633e-06
6.424428292e-06
-2.897946741e-05
-5.615269687e-06
-8.936877903e-06
-5.284435506e-06
-8.96635162e-06
-2.520621061e-05
-1.068956981e-05
-3.249511289e-05
-1.368118675e-05
-3.725583029e-06
8.246439795e-06
-1.939487897e-05
-6.61472632e-06
3.04448024e-06
-2.213129641e-05
-8.288739642e-06
6.313595381e-06
-2.334491571e-05
-1.002696667e-05
1.400880864e-05
-2.451162712e-05
-1.228711442e-05
2.117973057e-05
-2.920104213e-05
-1.728187542e-05
2.891315257e-05
-3.699218344e-05
-2.108915888e-05
3.547288408e-05
-4.425724349e-05
-2.254862222e-05
3.673248842e-05
-5.47430042e-05
-2.447059997e-05
3.528282136e-05
-6.701025181e-05
-2.145370089e-05
2.91873445e-05
-7.565534373e-05
-2.000713604e-05
2.058075522e-05
-8.038177704e-05
-1.513288193e-05
1.194017343e-05
-8.009190402e-05
-9.735923128e-06
3.786570029e-06
-7.511332765e-05
-2.351580471e-06
-5.229409415e-06
-6.697519591e-05
5.506430908e-06
-1.507098842e-05
-5.268118474e-05
8.401537578e-06
-2.580851216e-05
-3.060048629e-05
9.223905935e-06
-3.738924058e-05
-2.838427058e-06
1.057827913e-05
-4.568507056e-05
2.019086461e-05
1.409330134e-05
-4.348232261e-05
2.758378498e-05
1.761254888e-05
-2.72245095e-05
3.095087289e-06
2.131184347e-05
7.181400142e-06
-2.842756798e-05
1.371666504e-05
1.982390741e-05
-3.521515021e-05
4.221091328e-06
-1.352621882e-06
-2.706404907e-05
2.583995135e-06
-1.635032568e-05
-3.472442294e-06
-4.588786915e-07
-3.209907368e-05
-3.68223179e-07
-3.838290975e-05
-1.494972311e-05
-2.149586764e-06
1.337408364e-05
-2.139980072e-05
-9.200877447e-06
9.036600795e-06
-2.618123177e-05
-1.519162858e-05
1.168474146e-05
-3.259870409e-05
-2.257426338e-05
1.896529357e-05
-4.083822368e-05
-3.165656652e-05
2.760967961e-05
-4.87090059e-05
-4.234177026e-05
3.293166028e-05
-5.105313457e-05
-5.248903437e-05
3.374537039e-05
-4.59722772e-05
-5.944634295e-05
3.181873902e-05
-4.329418302e-05
-5.881190438e-05
3.166565199e-05
-4.7635097e-05
-5.245570601e-05
3.53456897e-05
-5.733759574e-05
-4.121125092e-05
3.090928536e-05
-6.461276308e-05
-2.996842026e-05
2.211288072e-05
-6.671507405e-05
-2.073407141e-05
1.310212562e-05
-6.347780562e-05
-8.561869891e-06
2.974256192e-06
-5.825964733e-05
1.004874299e-05
-9.759550515e-06
-4.633027872e-05
1.832517611e-05
-2.185230034e-05
-2.595393681e-05
2.310944929e-05
-3.426132427e-05
-5.676201941e-07
2.82095499e-05
-4.301714105e-05
1.972543039e-05
3.400123653e-05
-4.020064006e-05
2.406020538e-05
3.68269961e-05
-2.354895608e-05
-9.503771601e-07
3.651438839e-05
9.80823399e-06
-2.718740805e-05
2.76825951e-05
1.22712304e-05
-3.010999596e-05
1.962207622e-05
-1.247831859e-05
-2.267831226e-05
1.974713009e-05
-2.459478762e-05
-1.040687204e-07
1.6991063e-05
-4.00241817e-05
1.496288279e-05
-4.187479198e-05
-1.495042463e-05
-9.598967418e-06
2.240016266e-05
-2.644469113e-05
-1.804190196e-05
2.033568307e-05
-3.846634454e-05
-2.441457819e-05
2.124508294e-05
-5.126480713e-05
-3.293110291e-05
2.315594347e-05
-6.291543246e-05
-4.406777332e-05
2.406273694e-05
-6.863994261e-05
-5.747705385e-05
2.086112905e-05
-6.480161685e-05
-7.000112493e-05
1.367580147e-05
-5.222293499e-05
-8.000767608e-05
7.985766539e-06
-3.595238555e-05
-8.477154904e-05
9.693636724e-06
-2.398756631e-05
-9.135395291e-05
2.693908617e-05
-3.103264952e-05
-6.831459761e-05
3.4153683e-05
-3.797611315e-05
-5.488155776e-05
3.186045046e-05
-4.185270841e-05
-4.251875791e-05
2.566394318e-05
-4.133453378e-05
-2.581129329e-05
1.673301424e-05
-4.268137209e-05
1.348317571e-05
-2.086421961e-06
-3.336231128e-05
2.683299827e-05
-1.782605822e-05
-1.512465254e-05
3.448468619e-05
-2.961229395e-05
6.014438126e-06
4.054961574e-05
-3.347870583e-05
2.09419437e-05
4.583588648e-05
-2.67618223e-05
1.833548329e-05
4.984894056e-05
-1.041523005e-05
-6.133727139e-06
4.760630182e-05
1.337748195e-05
-2.540263328e-05
3.93348658e-05
7.616754885e-06
-2.508697397e-05
3.325207017e-05
-1.394558558e-05
-1.737613835e-05
3.467231274e-05
-2.263599776e-05
3.305559746e-06
3.393279992e-05
-3.76234461e-05
2.992028707e-05
-3.737649924e-05
-1.69098655e-05
-2.15953874e-05
2.890665447e-05
-3.544713742e-05
-2.480616954e-05
2.530196465e-05
-5.390588799e-05
-2.969036381e-05
2.373507641e-05
-7.054121598e-05
-3.694620162e-05
2.065116447e-05
-8.170818243e-05
-4.655839035e-05
1.365867894e-05
-8.279453457e-05
-5.790170348e-05
1.512758587e-06
-7.418813557e-05
-7.154724558e-05
-7.057323306e-06
-5.831113393e-05
-8.59636264e-05
-9.915969194e-06
-3.25893078e-05
-0.0001003197222
-1.016506516e-05
-4.805075825e-06
-0.0001257124082
6.58773785e-06
-7.055994133e-06
-8.767739483e-05
2.162478988e-05
-1.304742702e-05
-7.339057892e-05
2.450741406e-05
-1.425374292e-05
-5.994582286e-05
1.863767626e-05
-1.541058089e-05
-4.383466945e-05
1.918271911e-05
-2.213956352e-05
1.026072328e-08
2.020334462e-05
-2.04576059e-05
2.707661494e-05
-1.92462789e-06
-8.943737072e-06
4.038725377e-05
-1.741579244e-05
7.069451436e-06
4.720793502e-05
-2.26710513e-05
1.934323822e-05
5.291424268e-05
-1.935181184e-05
1.333011933e-05
5.626045055e-05
-3.981426864e-07
-8.277675403e-06
5.359426571e-05
1.562000134e-05
-2.053460286e-05
4.615213181e-05
5.439769758e-06
-1.752102634e-05
4.101766634e-05
-1.077911955e-05
-9.944883792e-06
4.271004905e-05
-1.561387179e-05
6.520030616e-06
4.107501771e-05
-2.360716666e-05
3.733662749e-05
-2.379607648e-05
-2.225455907e-05
-3.193192412e-05
3.259148663e-05
-4.759519155e-05
-2.721388789e-05
2.774880463e-05
-7.072822419e-05
-2.965806641e-05
2.310130187e-05
-8.899697274e-05
-3.359523433e-05
1.491857791e-05
-9.746557469e-05
-3.92576226e-05
1.169083986e-06
-9.680333474e-05
-4.795395486e-05
-1.06078594e-05
-8.912579078e-05
-6.233249049e-05
-1.688853879e-05
-7.472908053e-05
-8.095491245e-05
-1.939850234e-05
-4.110132255e-05
-0.0001059632772
-2.797051223e-05
1.215327415e-05
-0.00015034833
-2.858184308e-05
1.755891614e-05
-8.915566602e-05
-3.903271416e-06
5.900568177e-06
-7.31212739e-05
1.140116009e-05
4.551554589e-06
-5.786661559e-05
-7.238756584e-07
1.634577059e-05
-4.700507768e-05
-8.620500936e-06
1.207313761e-05
-2.092067298e-05
2.520545496e-05
1.105102267e-06
1.29613936e-05
2.508434021e-05
5.168044692e-06
3.430792121e-05
2.017070314e-06
1.178521866e-05
4.58083398e-05
-5.217117978e-06
1.617822886e-05
5.296028455e-05
-4.438726281e-06
8.107574941e-06
5.699871774e-05
7.332626383e-06
-8.532809883e-06
5.368573968e-05
1.654906104e-05
-1.525807435e-05
4.741745526e-05
5.460034218e-06
-1.121926327e-05
4.310058746e-05
-6.121694317e-06
-5.168156198e-06
4.609574877e-05