/*--------------------------------*- C++ -*----------------------------------*\
  =========                 |
  \\      /  F ield         | OpenFOAM: The Open Source CFD Toolbox
   \\    /   O peration     | Website:  https://openfoam.org
    \\  /    A nd           | Version:  8
     \\/     M anipulation  |
\*---------------------------------------------------------------------------*/
FoamFile
{
    version     2.0;
    format      ascii;
    class       volVectorField;
    location    "0.5";
    object      U;
}
// * * * * * * * * * * * * * * * * * * * * * * * * * * * * * * * * * * * * * //

dimensions      [0 1 -1 0 0 0 0];

internalField   nonuniform List<vector> 
67410
(
(-0.005221291341 -0.009366719257 0.01729671692)
(-0.01598766711 -0.009637626319 0.01833818226)
(-0.02839937113 -0.009176254607 0.01953381152)
(-0.04325666238 -0.008276102069 0.02160482715)
(-0.06236023055 -0.006870962161 0.02541371998)
(-0.08843473707 -0.006219587692 0.03243687731)
(-0.1239088362 -0.01080570048 0.04360593798)
(-0.1651643211 -0.02358013075 0.05656801448)
(-0.2028905337 -0.03749018341 0.06854231685)
(-0.2329625262 -0.04792122715 0.07518392117)
(-0.2514068909 -0.06210949172 0.06789071177)
(-0.2524601706 -0.0748199138 0.05666184764)
(-0.2414390105 -0.08312372468 0.04936514851)
(-0.2230413881 -0.08645804866 0.04987639101)
(-0.202523213 -0.08845106356 0.05726696207)
(-0.1867161201 -0.08756922802 0.07585471015)
(-0.190626847 -0.08127726826 0.114639158)
(-0.2425293334 -0.07839410775 0.1708943278)
(-0.3411624325 -0.1066148175 0.1982221764)
(-0.4148321106 -0.1571919099 0.1638889102)
(-0.4271535406 -0.1936101997 0.1038909449)
(-0.3887026433 -0.2138007145 0.05478825974)
(-0.3078461261 -0.2294462628 0.02701224063)
(-0.188462474 -0.2427780746 0.01138256625)
(-0.04665508159 -0.2401360558 0.01936106807)
(0.1023210815 -0.2170249457 0.1472849823)
(-0.005312000331 -0.02868407373 0.01874286103)
(-0.01606419262 -0.02952343053 0.02007709216)
(-0.02858411404 -0.02885320125 0.02161410786)
(-0.0429525664 -0.02758075859 0.02407201851)
(-0.06056315376 -0.02567896303 0.02818604952)
(-0.0836577029 -0.02363921628 0.03455437393)
(-0.1151036097 -0.02594039151 0.04159952236)
(-0.1536082917 -0.03955256714 0.04558983399)
(-0.1897143699 -0.06366795387 0.04697529034)
(-0.2184256429 -0.09059993496 0.03787886482)
(-0.234688344 -0.1125958363 0.02076302052)
(-0.2387075658 -0.1249447497 0.01177026205)
(-0.2352419749 -0.1331558627 0.01259690907)
(-0.2258062198 -0.1403562827 0.02097686267)
(-0.2135630107 -0.1468025907 0.03658286709)
(-0.2067688946 -0.1510302017 0.0629450336)
(-0.2192331857 -0.1525203617 0.1000120266)
(-0.2639151473 -0.1613631208 0.1248584487)
(-0.3288997889 -0.1921256841 0.09621883349)
(-0.3784713028 -0.2300195407 0.01850799787)
(-0.3925039474 -0.2534579387 -0.06087219935)
(-0.3678719691 -0.2665109361 -0.1055541404)
(-0.300508644 -0.2773440411 -0.1176603694)
(-0.1938852414 -0.2893282949 -0.1276662164)
(-0.08134580029 -0.3163493645 -0.1156796965)
(0.0526280404 -0.3521649078 0.05247252399)
(-0.005000066114 -0.05138524678 0.02132111071)
(-0.01548947704 -0.05315095114 0.02316035803)
(-0.02790056578 -0.05295565138 0.02548891034)
(-0.04191792093 -0.05171883408 0.02873946382)
(-0.05882453349 -0.04963857463 0.03325513332)
(-0.0811736958 -0.04698596532 0.03863717214)
(-0.1121811488 -0.05043699899 0.04201416649)
(-0.1477297847 -0.0677360462 0.04073134286)
(-0.1789758767 -0.09544597248 0.03806315231)
(-0.2072531323 -0.1264474805 0.02853736432)
(-0.2286238054 -0.1526901197 0.02084660405)
(-0.2409099769 -0.173272621 0.02123384166)
(-0.2451612805 -0.1900152862 0.03024236053)
(-0.242536136 -0.2059229101 0.04433536429)
(-0.2369583623 -0.2211834352 0.06247877921)
(-0.2375380141 -0.233259117 0.08372644606)
(-0.2559536453 -0.2413409877 0.09990841396)
(-0.2964311788 -0.2534402428 0.08985247463)
(-0.3437095026 -0.2771616024 0.03860623099)
(-0.3767795759 -0.3023658697 -0.03464472802)
(-0.3858215857 -0.3168461642 -0.09453215569)
(-0.3589257447 -0.3206923338 -0.12037073)
(-0.2904194694 -0.3220592474 -0.1369148106)
(-0.186501466 -0.3306422717 -0.1546293567)
(-0.06613243664 -0.3850042398 -0.1116199866)
(-0.01487095756 -0.4514062814 0.05927056257)
(-0.004568292691 -0.07898837709 0.0263779874)
(-0.01524432786 -0.0817256746 0.02935010515)
(-0.02787600669 -0.08361471042 0.03333030944)
(-0.04056715296 -0.0840218058 0.0379250961)
(-0.05418217526 -0.08294406443 0.04255616447)
(-0.07034585959 -0.07732401148 0.04686589156)
(-0.09512114726 -0.07504262806 0.04951695652)
(-0.1275538713 -0.08990620206 0.04928104986)
(-0.1595439146 -0.1189248727 0.04921749896)
(-0.1923122522 -0.1510314097 0.05314032466)
(-0.2257568132 -0.1848349917 0.05653831259)
(-0.2512236779 -0.2167965239 0.06045791144)
(-0.2657108419 -0.2470440346 0.06976940364)
(-0.2716309163 -0.2767342498 0.07965243302)
(-0.2728369787 -0.3024214325 0.08726243091)
(-0.2765343586 -0.3183158156 0.08989189222)
(-0.289932316 -0.3227681202 0.08251048093)
(-0.3136729431 -0.3233280761 0.05877852232)
(-0.3395079038 -0.326654372 0.01853042513)
(-0.3590564804 -0.3290731758 -0.02806811061)
(-0.3640012674 -0.3248910572 -0.06642719559)
(-0.3383758923 -0.3096387645 -0.08837305945)
(-0.2743101576 -0.2921034941 -0.1092462021)
(-0.1827921675 -0.2982413636 -0.1179284879)
(-0.07583591331 -0.3731722795 -0.03686252208)
(-0.132564762 -0.4693187767 0.08567925549)
(-0.004738388257 -0.1146633054 0.03651069826)
(-0.01751556142 -0.1181469306 0.04159624684)
(-0.03367491828 -0.1250504105 0.04788810286)
(-0.04716648201 -0.1306650722 0.05299165265)
(-0.05964783499 -0.134942052 0.05609980829)
(-0.07049733488 -0.1295486855 0.05990449313)
(-0.08638917358 -0.1217847622 0.0656643633)
(-0.1113231122 -0.1328042967 0.07119461421)
(-0.1432743358 -0.1601934688 0.07830571944)
(-0.1850507627 -0.1924491279 0.08930648386)
(-0.2314523771 -0.2396867116 0.0924571286)
(-0.2680028094 -0.2889716018 0.09244549949)
(-0.2917517907 -0.3367880627 0.09355644802)
(-0.3049438825 -0.3796368335 0.09191088831)
(-0.3099836778 -0.4097354025 0.08580832944)
(-0.311999962 -0.4199431469 0.07532748108)
(-0.3178338875 -0.4110082793 0.05837045011)
(-0.3288052942 -0.3960087199 0.03261931878)
(-0.3372818205 -0.3843588984 0.003552987348)
(-0.3397027018 -0.3721874213 -0.02161613362)
(-0.3315479402 -0.356120133 -0.03891971819)
(-0.3017366749 -0.3303630162 -0.04769347453)
(-0.2416793643 -0.3032245294 -0.05085117253)
(-0.1655100006 -0.3075876137 -0.03316501383)
(-0.1011886578 -0.3900577899 0.05413705548)
(-0.2197496339 -0.4837633761 0.0841873969)
(-0.00853278028 -0.1620182638 0.0559615116)
(-0.02660111677 -0.1652268915 0.06163542964)
(-0.05209522688 -0.1804574269 0.06652596444)
(-0.06973892758 -0.1939515253 0.06719405623)
(-0.08369541883 -0.2036502894 0.06797547595)
(-0.092045959 -0.2017890711 0.07436525281)
(-0.1012705611 -0.196251378 0.08718281373)
(-0.1158276966 -0.20630911 0.09974374434)
(-0.142160959 -0.2262617248 0.1089767631)
(-0.189143687 -0.2551595062 0.1118401647)
(-0.2419271787 -0.3118678743 0.1048154878)
(-0.2828541954 -0.373765893 0.09779066403)
(-0.3125588729 -0.4333310035 0.09049023805)
(-0.3292427803 -0.4834104819 0.07941360789)
(-0.3329943846 -0.5132153104 0.06684250401)
(-0.3293567512 -0.5139936032 0.05813340056)
(-0.329666835 -0.4871076536 0.04883131085)
(-0.3381887632 -0.4539957437 0.02632082011)
(-0.3400411508 -0.4314525947 -0.003543085454)
(-0.3288311704 -0.4126435586 -0.02742686907)
(-0.3030491492 -0.3965193224 -0.03945342671)
(-0.2595557498 -0.378165369 -0.04127012024)
(-0.1949500225 -0.3627354156 -0.03257011278)
(-0.1291655883 -0.3740456229 0.005116964271)
(-0.104465366 -0.4372109099 0.09264925739)
(-0.241399247 -0.4905837389 0.08153889052)
(-0.02213519921 -0.2231100392 0.08756594785)
(-0.0503333908 -0.2249041021 0.0856539556)
(-0.08911267075 -0.2455870958 0.08249820747)
(-0.1100177349 -0.263618162 0.07633807995)
(-0.1242763871 -0.2811051533 0.07237038629)
(-0.1287993312 -0.2908179046 0.07956167577)
(-0.1318628286 -0.300808191 0.09298155448)
(-0.1369158594 -0.3174114936 0.1023157294)
(-0.1550898834 -0.3225540256 0.1110544041)
(-0.1988160471 -0.3345964895 0.11587746)
(-0.253454508 -0.3871659907 0.105803304)
(-0.2983100197 -0.4531238598 0.09178946751)
(-0.3307542181 -0.5182263947 0.07363241112)
(-0.3455440477 -0.5724751493 0.04856644453)
(-0.3418520677 -0.6027028288 0.02902633804)
(-0.3278419986 -0.5977050188 0.03069361726)
(-0.3217981558 -0.5545732758 0.04711416076)
(-0.336078865 -0.5014612061 0.0423755174)
(-0.3451823861 -0.4667073768 0.01004127893)
(-0.331887633 -0.4380808749 -0.02350981179)
(-0.2962491853 -0.4188688206 -0.04503998016)
(-0.2413598872 -0.4074646852 -0.05788105639)
(-0.1632473469 -0.4070302255 -0.06069548773)
(-0.08911931854 -0.432933479 -0.03118078925)
(-0.06721840487 -0.4791746276 0.06793490672)
(-0.198802629 -0.4966280364 0.0889909674)
(-0.044991111 -0.2934090581 0.1296470269)
(-0.090829677 -0.2908672439 0.1094517571)
(-0.1426311008 -0.3156349384 0.08671641574)
(-0.1634810967 -0.3412673118 0.06860880753)
(-0.1723971298 -0.368284708 0.05788096685)
(-0.169377476 -0.3914928202 0.05837827576)
(-0.1654211791 -0.4164464362 0.05788026749)
(-0.161941021 -0.4354225981 0.05777107277)
(-0.1691667386 -0.4246954354 0.0814378429)
(-0.2065957092 -0.4162219597 0.1155870643)
(-0.2705963288 -0.4556729435 0.1118785689)
(-0.3239529574 -0.5185834116 0.08397942035)
(-0.3562562866 -0.5832223705 0.04074351704)
(-0.362384097 -0.6370508108 -0.01065905068)
(-0.3447092223 -0.6679615262 -0.04200726509)
(-0.3140726243 -0.6640198572 -0.02964413007)
(-0.2940898065 -0.6128482043 0.02469980527)
(-0.3126994788 -0.5418241004 0.06382403007)
(-0.3418279537 -0.4922188182 0.03797933294)
(-0.3388385658 -0.4476529977 -0.01023256927)
(-0.3061888014 -0.4203693008 -0.04712763509)
(-0.2475630799 -0.4079590413 -0.07348379713)
(-0.1593292664 -0.4093883125 -0.09174937394)
(-0.06063040269 -0.4345825483 -0.082163746)
(-0.01217150556 -0.4885002709 0.01181426856)
(-0.0930934668 -0.5102173865 0.08731982288)
(-0.07330574177 -0.3672960235 0.1720417546)
(-0.14542993 -0.3608714907 0.1179879279)
(-0.2056451744 -0.3888460826 0.07411645758)
(-0.2211786319 -0.4186296468 0.04435660185)
(-0.2222834511 -0.4498867584 0.02406816788)
(-0.211278037 -0.4780308931 0.01032697198)
(-0.1994330331 -0.5048678561 -0.007319195164)
(-0.186993347 -0.521175867 -0.0118849746)
(-0.1823257091 -0.5083370126 0.0322396267)
(-0.2121400127 -0.4927911765 0.1094305272)
(-0.2945713795 -0.51491119 0.1195720691)
(-0.3638011334 -0.5663685834 0.0637594377)
(-0.3929516317 -0.6208949169 -0.01935150194)
(-0.3831284002 -0.6648704104 -0.09790664232)
(-0.3462868147 -0.6932545041 -0.1358382754)
(-0.2932514055 -0.6984339859 -0.1207177352)
(-0.2482699089 -0.6556986793 -0.04110165209)
(-0.254511255 -0.5777763111 0.06780408755)
(-0.3157867417 -0.5126374155 0.07411900757)
(-0.3374562613 -0.446937762 0.01415348442)
(-0.319357728 -0.4080467029 -0.03746644815)
(-0.2660624354 -0.3909898834 -0.07547811589)
(-0.1799874866 -0.3914039027 -0.1050465653)
(-0.06214078544 -0.4084465959 -0.1191230642)
(0.007233028089 -0.4649740322 -0.06088139375)
(0.04116377355 -0.4475011602 0.05383019236)
(-0.1143902718 -0.437738651 0.2010442212)
(-0.2032332635 -0.4259965805 0.1107906487)
(-0.26979302 -0.4544662731 0.04594818143)
(-0.2796395611 -0.4836287095 0.0003826935601)
(-0.2721144312 -0.511611899 -0.03114446488)
(-0.2510591808 -0.5340293226 -0.05247282372)
(-0.2285679511 -0.5538993925 -0.0740366336)
(-0.205338179 -0.5674205904 -0.07595742357)
(-0.1880626361 -0.5619802243 -0.0206503502)
(-0.2099607527 -0.5516610595 0.09284597346)
(-0.3191891572 -0.556630886 0.1167115899)
(-0.4127134912 -0.5873843274 0.02140679848)
(-0.4367803613 -0.6200262178 -0.09918728911)
(-0.4072277711 -0.6453374152 -0.1822509914)
(-0.3518374441 -0.6770249814 -0.2160324259)
(-0.2702634914 -0.694279612 -0.2094854074)
(-0.1935107489 -0.6693816355 -0.1422609518)
(-0.1541056959 -0.6083273188 0.0295993988)
(-0.2527399031 -0.5319890797 0.1092268651)
(-0.3125191795 -0.44162864 0.05085220323)
(-0.3233699419 -0.3864232842 -0.01767954528)
(-0.27990048 -0.3594443743 -0.0698250039)
(-0.1989754417 -0.3566166033 -0.1077849879)
(-0.07975561348 -0.3676777957 -0.142267408)
(0.0670391542 -0.4180675442 -0.1238841266)
(0.1276202918 -0.3867626577 -0.01583151914)
(-0.1600403637 -0.4883726747 0.2137506611)
(-0.2593987786 -0.4770606562 0.08131553045)
(-0.3318597887 -0.5018687844 -0.01159567864)
(-0.333709933 -0.5236432267 -0.06761688365)
(-0.3145141561 -0.5405217284 -0.09470209378)
(-0.280017423 -0.5514508308 -0.1040272744)
(-0.2449062129 -0.5614299336 -0.1128725559)
(-0.2110240155 -0.571244893 -0.1113939392)
(-0.1816380867 -0.5759081918 -0.06219773475)
(-0.1953442338 -0.577687821 0.06847279424)
(-0.3354574861 -0.5674797956 0.1004919084)
(-0.4610810768 -0.5723763061 -0.03356151793)
(-0.4809589866 -0.5791022419 -0.170346252)
(-0.4429846237 -0.5989787916 -0.2394416695)
(-0.3694491301 -0.6357906151 -0.2662854395)
(-0.254765318 -0.662059668 -0.2734167826)
(-0.1427811293 -0.6552231832 -0.2434159677)
(-0.029471929 -0.6234620258 -0.06047727293)
(-0.1468748476 -0.5449920374 0.1184104976)
(-0.2568267591 -0.4349167513 0.09713922883)
(-0.3125672209 -0.3597186062 0.01047507595)
(-0.2849798479 -0.321544699 -0.05860858276)
(-0.2161453246 -0.316089585 -0.1037281892)
(-0.1046486819 -0.3288385688 -0.1495522489)
(0.06445992132 -0.3695890454 -0.1638922518)
(0.1652408421 -0.3880903464 -0.07079663391)
(-0.2013613013 -0.5055871512 0.2026601929)
(-0.3088421138 -0.4989572231 0.02053111175)
(-0.3843635765 -0.5155715915 -0.08949150673)
(-0.3763574338 -0.5245505543 -0.1325716075)
(-0.34399653 -0.53138302 -0.1398089439)
(-0.2955134821 -0.536777852 -0.1320143023)
(-0.2497804109 -0.5397904219 -0.1268762809)
(-0.2078734181 -0.5413937884 -0.1287677681)
(-0.1662297271 -0.5438966513 -0.09207311884)
(-0.1699000471 -0.5568456608 0.04321010592)
(-0.336914058 -0.5362042665 0.08170183708)
(-0.5008328477 -0.5201783476 -0.07831101509)
(-0.5278192853 -0.512952063 -0.2145872501)
(-0.4897494904 -0.5322350644 -0.2682766689)
(-0.4010847472 -0.5711771357 -0.2946103238)
(-0.2573920368 -0.6024289128 -0.3162662337)
(-0.1056439813 -0.6150548827 -0.3139987788)
(0.06326785015 -0.6055558221 -0.1601815978)
(-0.00888770292 -0.5413583095 0.06589929427)
(-0.1686318197 -0.4223367479 0.1418384182)
(-0.2861108789 -0.3261672734 0.04622990642)
(-0.2832412539 -0.2771139082 -0.04557361212)
(-0.2292824505 -0.2702327278 -0.1017509616)
(-0.1255539932 -0.2861341898 -0.149246998)
(0.03938601416 -0.3195446545 -0.1760080435)
(0.16983016 -0.3573878447 -0.09951912291)
(-0.2346087816 -0.4774308564 0.1667596168)
(-0.3462870632 -0.4788507855 -0.05248859347)
(-0.4241232497 -0.4890119037 -0.1535811744)
(-0.407287164 -0.4904078971 -0.173261333)
(-0.3596895459 -0.4930697667 -0.1707809641)
(-0.2964177599 -0.4908659849 -0.1537037384)
(-0.2425883058 -0.484042663 -0.1361755953)
(-0.2010952547 -0.47447755 -0.1430692146)
(-0.1523669991 -0.4704871096 -0.1186585514)
(-0.1434948326 -0.4808614549 0.02094937745)
(-0.3251588539 -0.4583887551 0.07256914278)
(-0.5290551888 -0.4324053931 -0.09655860811)
(-0.5742915147 -0.4219173465 -0.2284542955)
(-0.5403676769 -0.4382292703 -0.2795275395)
(-0.4417303852 -0.4740116475 -0.3159359604)
(-0.2792125685 -0.5084914307 -0.3497500154)
(-0.09077751449 -0.5394392182 -0.3542910113)
(0.1066715458 -0.5598985955 -0.2177690785)
(0.116354384 -0.5135542019 -0.03820739146)
(-0.04928662146 -0.3995173554 0.1563277641)
(-0.2484756656 -0.2834187233 0.0956349453)
(-0.280472963 -0.2216170139 -0.02383206027)
(-0.2424876724 -0.2116778124 -0.1003965332)
(-0.1472571403 -0.233387649 -0.1503237319)
(0.00583301771 -0.2684450008 -0.1840300004)
(0.1597157321 -0.3215024027 -0.1171157566)
(-0.255758772 -0.3987513561 0.1228035735)
(-0.3708984348 -0.415873262 -0.1082276639)
(-0.4472596306 -0.4227638124 -0.1866065514)
(-0.4227822297 -0.4213476075 -0.2038852854)
(-0.3599000705 -0.4162829766 -0.2077760663)
(-0.2816536977 -0.4033688154 -0.188211004)
(-0.2180611162 -0.3837912047 -0.1530672568)
(-0.1887491475 -0.3636330132 -0.156351677)
(-0.1446322179 -0.3560004927 -0.1382161083)
(-0.1312894109 -0.3579560681 0.003184396015)
(-0.3144433267 -0.3382579032 0.07852016901)
(-0.5480323159 -0.3121653543 -0.08113943612)
(-0.6131216532 -0.2988529207 -0.2140110542)
(-0.5838587829 -0.3033348205 -0.2803276764)
(-0.4834283477 -0.3311638147 -0.3311668711)
(-0.3151691886 -0.3713176062 -0.3700363588)
(-0.1129125118 -0.422320648 -0.375495299)
(0.1155404931 -0.4859317778 -0.2534452673)
(0.170794759 -0.4547944137 -0.09963181778)
(0.07983805047 -0.3641696336 0.1087326722)
(-0.2035649517 -0.2361955857 0.1573583335)
(-0.281154659 -0.1624406028 0.01943597027)
(-0.2619234064 -0.1416213381 -0.08393623854)
(-0.175836459 -0.1683073216 -0.1448619157)
(-0.03613086639 -0.2096542724 -0.1896834108)
(0.1406939007 -0.2804190999 -0.1361652463)
(-0.2593260423 -0.275145064 0.08913392682)
(-0.3770073718 -0.3139342704 -0.134715447)
(-0.4499836015 -0.3167347512 -0.2063230058)
(-0.4194665611 -0.3058941065 -0.2389941915)
(-0.3455086467 -0.2918307035 -0.2573143732)
(-0.2512167682 -0.2689279217 -0.2402075891)
(-0.1709380357 -0.2383900976 -0.1787910273)
(-0.1688079483 -0.2140790901 -0.1607068626)
(-0.1490365888 -0.2104728817 -0.133412323)
(-0.15547491 -0.2096818626 0.01239785349)
(-0.3312249765 -0.1935871339 0.1024357778)
(-0.560157699 -0.1781437335 -0.02436709052)
(-0.6396184565 -0.1624585726 -0.1561610881)
(-0.6160015066 -0.1522136277 -0.2451482685)
(-0.5257743048 -0.1679198644 -0.3052572723)
(-0.3677025209 -0.2113079337 -0.3400950025)
(-0.168956108 -0.2845120417 -0.3478064574)
(0.07096597998 -0.3838862187 -0.2730348019)
(0.1766143853 -0.3821320424 -0.133652309)
(0.1652027018 -0.3088541757 0.03689515285)
(-0.1286004871 -0.2016236912 0.2018404396)
(-0.2785726713 -0.1214008289 0.0835214129)
(-0.2908299269 -0.0748616409 -0.03556358255)
(-0.2138729523 -0.1007870888 -0.1203955813)
(-0.08508419107 -0.1497238081 -0.183336199)
(0.1180483028 -0.2370019487 -0.1589227104)
(-0.2165920595 -0.1340875152 0.08661300819)
(-0.3361311475 -0.2030210478 -0.1193696693)
(-0.419633525 -0.1961780229 -0.2171314643)
(-0.3984173356 -0.1615651393 -0.2727780435)
(-0.3233695549 -0.1312170285 -0.304606855)
(-0.2222331091 -0.1035363723 -0.2922806401)
(-0.1173098326 -0.05464000923 -0.1929453693)
(-0.1454971205 -0.006214047081 -0.1008352496)
(-0.1788014726 -0.0367647945 -0.0508837753)
(-0.2472898818 -0.04589797042 0.08963568256)
(-0.41702719 -0.0573609088 0.1301210483)
(-0.5906852299 -0.06646886232 0.04915663945)
(-0.6750894644 -0.03596466303 -0.01715238351)
(-0.661470137 0.001512247846 -0.06908114641)
(-0.5796560606 -0.001773912047 -0.1203693014)
(-0.4339478092 -0.06186734078 -0.1791236858)
(-0.235228678 -0.1686268061 -0.2389906193)
(-0.006489218438 -0.2780742751 -0.2732426277)
(0.1713822339 -0.3063960408 -0.1779939265)
(0.2103326728 -0.2607265121 -0.0377635711)
(0.01357666651 -0.1898936254 0.1762870803)
(-0.2600578061 -0.1098320138 0.148157916)
(-0.3151757678 -0.04852680854 0.02176273607)
(-0.257107851 -0.05962865559 -0.08317787913)
(-0.128914618 -0.1095223185 -0.1713705641)
(0.09567263487 -0.1949160051 -0.1908410745)
(-0.1145939634 -0.03286782661 0.1494811083)
(-0.2254247801 -0.04055733322 0.03833502421)
(-0.3220059342 0.003184592962 -0.09175797102)
(-0.3209183586 0.02463090104 -0.1813921477)
(-0.2869003091 0.05139070063 -0.2180996755)
(-0.2328367866 0.07500901902 -0.1822019382)
(-0.1833469932 0.1276618925 -0.057176241)
(-0.222516504 0.1643273421 0.05451623065)
(-0.309231702 0.1110890216 0.1091437432)
(-0.4376597998 0.04777324886 0.1272841896)
(-0.5606948966 -0.02157726911 0.06537791508)
(-0.65095733 -0.07394297182 0.0009906273789)
(-0.6958489732 -0.09194095059 -0.02960864604)
(-0.6804551994 -0.0911676654 -0.04605897503)
(-0.6086174566 -0.09246313749 -0.07092144891)
(-0.480221775 -0.1116218159 -0.1219133483)
(-0.2931413021 -0.1567814466 -0.1974114397)
(-0.07821528606 -0.2025929465 -0.2737952459)
(0.1557983231 -0.2293098736 -0.2344967517)
(0.231778456 -0.2003037589 -0.103889749)
(0.16084414 -0.145383769 0.0940859465)
(-0.2244915589 -0.08543117668 0.1739565764)
(-0.3067388993 -0.05147315537 0.03769766061)
(-0.2868721699 -0.05410130136 -0.06477366783)
(-0.1579974231 -0.09535982361 -0.1722248654)
(0.0856780352 -0.1594905955 -0.2302766054)
(-0.08741612635 -0.1031657475 0.1178182715)
(-0.1331848653 -0.09343751492 0.0959359256)
(-0.1899944804 -0.02313578686 0.08407029905)
(-0.2245507554 0.08474595105 0.00278644939)
(-0.2342862135 0.1452558732 -0.05736657214)
(-0.2256179594 0.1476056458 -0.01082743219)
(-0.2404240759 0.1459653821 0.1044327441)
(-0.3107727714 0.1350683031 0.1693554313)
(-0.4128499118 0.06437223174 0.1793495588)
(-0.5254490214 0.004447772462 0.1221797423)
(-0.6048989384 -0.03518308259 0.02584184774)
(-0.6539771714 -0.04811396882 -0.05105610688)
(-0.6728155483 -0.04234425626 -0.09184240634)
(-0.6498366993 -0.03391242962 -0.1189726797)
(-0.5930231175 -0.04347900361 -0.1533190218)
(-0.4897488828 -0.07202110011 -0.1989754894)
(-0.3226468321 -0.1096051708 -0.2588036167)
(-0.1250982272 -0.1308604258 -0.3230395884)
(0.1405940327 -0.1355043522 -0.3018444205)
(0.2307575702 -0.1050742731 -0.1731614691)
(0.2337727414 -0.0481415535 0.009801837347)
(-0.1931457445 -0.02137199483 0.1638578615)
(-0.3008758298 -0.04171140775 0.01715477012)
(-0.2958805391 -0.05516641509 -0.08562561567)
(-0.1687781893 -0.08927229777 -0.1957480438)
(0.08701740256 -0.1198825771 -0.2706891507)
(-0.09542014189 -0.06041470857 0.04418042686)
(-0.1331741728 -0.07256660842 0.02220670593)
(-0.1777001858 -0.06071917635 0.06016473506)
(-0.1839627853 -0.03341880576 0.1205171828)
(-0.1925969448 -0.001934178275 0.155571163)
(-0.2065940059 -0.01767764281 0.2147298042)
(-0.2695405352 -0.02247650892 0.2784868869)
(-0.3265718588 -0.006003470129 0.2911481525)
(-0.3918386391 -0.0571280544 0.2703271234)
(-0.5010099348 -0.08209635821 0.1963449862)
(-0.589944708 -0.1049065426 0.09652620036)
(-0.6456842821 -0.09048318904 0.009303558615)
(-0.6649473677 -0.05861076708 -0.04772003297)
(-0.6404734458 -0.01407304041 -0.09086542411)
(-0.5851667795 0.0167822713 -0.1491791908)
(-0.4970881132 0.01635853303 -0.2204529863)
(-0.343706286 0.004623885206 -0.3021230781)
(-0.1554250126 0.004962465883 -0.3738694114)
(0.1083744891 0.02699313929 -0.3579476987)
(0.20736673 0.0679007777 -0.219671843)
(0.2465358673 0.1196788617 -0.01645782426)
(-0.1917905731 0.05640273125 0.114597227)
(-0.2853281733 -0.03012540626 -0.05620269967)
(-0.2771681167 -0.0467879117 -0.1573300403)
(-0.1542567608 -0.07147645297 -0.2604199502)
(0.1012595929 -0.06927749397 -0.3288969607)
(-0.1031494132 -0.004725422267 0.08706199584)
(-0.1462628592 -0.04365729137 0.06884674098)
(-0.196810486 -0.08459410447 0.111815819)
(-0.230733784 -0.1426087527 0.1854327692)
(-0.2954113141 -0.2140543333 0.2484203329)
(-0.370827525 -0.2896020839 0.263422274)
(-0.4240116119 -0.3555778165 0.2281719842)
(-0.4014782277 -0.3988050124 0.1703588796)
(-0.3491078576 -0.3792106424 0.1646977203)
(-0.3472043573 -0.2964472564 0.2397286428)
(-0.4316155729 -0.2421903716 0.1961286874)
(-0.5044614091 -0.1710672801 0.09926301106)
(-0.546284136 -0.1084135326 0.01889197242)
(-0.5377983248 -0.02596010789 -0.04283044201)
(-0.5047745547 0.08061297836 -0.1115311331)
(-0.4371543199 0.1303736754 -0.1856905535)
(-0.3011495827 0.1561226092 -0.2714668981)
(-0.1221234062 0.1800051753 -0.3445303768)
(0.112513941 0.2204822429 -0.3223625163)
(0.1969681014 0.2443800132 -0.1753977133)
(0.2001992745 0.261638967 0.02371966454)
(-0.213866495 0.1853709727 0.04403053071)
(-0.2396841012 0.1074929692 -0.1258002986)
(-0.2411273113 0.09563132674 -0.2216453033)
(-0.118435647 0.06473424929 -0.3320642233)
(0.1172860058 0.06387275531 -0.3716421137)
(-0.08919957029 -0.03256842064 0.1551010129)
(-0.1598913103 -0.1177173948 0.1506727854)
(-0.2648452287 -0.1830561773 0.1790173836)
(-0.3619819097 -0.2603346821 0.2071688371)
(-0.4720045182 -0.3556736 0.1966324531)
(-0.5543347187 -0.4727315078 0.1068445383)
(-0.5636001746 -0.5888816136 -0.05028712257)
(-0.484601004 -0.6710157117 -0.1857921755)
(-0.3758357232 -0.6794218317 -0.1748700184)
(-0.1873221636 -0.6464967878 0.1080115664)
(-0.2216738005 -0.4951259422 0.2368878651)
(-0.276050751 -0.3690985149 0.1991586111)
(-0.3468759695 -0.2584137246 0.1212047043)
(-0.3202583978 -0.1210590963 0.04753598307)
(-0.366925261 0.09694929726 -0.05446838958)
(-0.3229166944 0.1975295892 -0.1535555764)
(-0.2075028966 0.2538102505 -0.2424674621)
(-0.04160853552 0.3119148349 -0.2779521269)
(0.1366347235 0.3702657933 -0.2317997096)
(0.1946100664 0.3981083927 -0.1019401752)
(0.1120352033 0.3815377057 0.06912541826)
(-0.2136962257 0.3036115383 0.01617909936)
(-0.2051098235 0.2427973089 -0.1280292699)
(-0.1999915578 0.250985465 -0.2075238029)
(-0.07376760615 0.2342227808 -0.3157523176)
(0.1285035453 0.1969014161 -0.3435419266)
(-0.07544951209 -0.1379202005 0.2135172929)
(-0.2054884781 -0.2037684712 0.1909696589)
(-0.367458301 -0.2542640016 0.1949155656)
(-0.511872872 -0.329159381 0.1727806055)
(-0.6364976753 -0.4284506488 0.06793485708)
(-0.6946643368 -0.5447488884 -0.1411856267)
(-0.6541479984 -0.6581418691 -0.3625618424)
(-0.541419165 -0.7612339403 -0.4802142789)
(-0.4259966369 -0.8497502053 -0.4602145429)
(-0.07269372815 -1.003130392 -0.1418502836)
(-0.02100089385 -0.7343773757 0.1466077282)
(-0.07713207805 -0.6167271437 0.1575131886)
(-0.1497991309 -0.5072267985 0.03980987937)
(-0.07040533354 -0.3364066411 -0.03938368151)
(-0.1824500362 0.149645883 0.08561294488)
(-0.1892883076 0.2696242258 -0.04925737947)
(-0.1349976656 0.3467020384 -0.1714063813)
(-0.01195532813 0.3987981603 -0.2055354311)
(0.1258481402 0.4450453407 -0.1744226761)
(0.1812512641 0.4850210071 -0.05091697551)
(0.04336963587 0.4593431702 0.1019612514)
(-0.1821171176 0.3893905171 0.01463760914)
(-0.1527354582 0.3399034702 -0.1094767444)
(-0.1302635637 0.3553148322 -0.169162477)
(-0.02765050456 0.354400899 -0.2414943921)
(0.1343507237 0.3223049599 -0.270457776)
(-0.08529765404 -0.2437294983 0.245161592)
(-0.283711522 -0.2338209413 0.199817032)
(-0.4883679152 -0.2674685528 0.1623669234)
(-0.6631018106 -0.3173708526 0.06519825731)
(-0.7881513717 -0.386192882 -0.1388319711)
(-0.8078340994 -0.4724791046 -0.3778241951)
(-0.764454917 -0.6011158874 -0.5293480461)
(-0.6734196014 -0.7643968995 -0.5731151078)
(-0.5551024084 -0.9577301948 -0.5508491515)
(-0.07155135979 -1.372237539 -0.3790768184)
(0.2378030334 -0.8426729216 -0.03082817572)
(0.08359734204 -0.6919173875 0.09558023259)
(-0.001826537949 -0.5658934768 -0.0857607852)
(0.08099886961 -0.4598494327 -0.2789335623)
(0.192953797 -0.1497452923 0.05287047062)
(-0.001233900097 0.2243260049 0.1397803686)
(0.01787065982 0.3771825353 -0.07670479475)
(0.06411741584 0.4331305001 -0.11588062)
(0.1259061549 0.4850210544 -0.09553687725)
(0.139799554 0.5142158085 0.009696364177)
(-0.003348092924 0.4870158423 0.1248850214)
(-0.139454503 0.4269120393 0.02720378547)
(-0.1066044601 0.3820097484 -0.0847316585)
(-0.07788701114 0.4001404363 -0.1374801102)
(-0.004040383374 0.3787918085 -0.1958280291)
(0.1260408398 0.3463884192 -0.2270810218)
(-0.1060075237 -0.3288520703 0.2435501266)
(-0.3248457241 -0.257892149 0.1890696229)
(-0.564539104 -0.2721086431 0.1096283692)
(-0.7795867818 -0.2968676657 -0.0595629827)
(-0.9178622828 -0.3315259842 -0.31084711)
(-0.9485151572 -0.3981968991 -0.4961450331)
(-0.9488479475 -0.5237860243 -0.5771726507)
(-0.9267525254 -0.6822788841 -0.6016422914)
(-0.9607932388 -0.8853226893 -0.6545938778)
(-0.2596386283 -1.026015935 -1.175482156)
(0.6781027315 -0.7677833154 -0.3266929925)
(0.3034963981 -0.595825453 -0.03508595301)
(0.1586252823 -0.4551787852 -0.1413987193)
(0.1726231414 -0.3612188955 -0.3964777414)
(0.3586621238 -0.2327670179 -0.2898474522)
(0.3760001466 0.0007648340464 -0.06609820323)
(0.2482174686 0.2438467789 0.02523651991)
(0.176355055 0.39341161 -0.002878687572)
(0.1474779017 0.4668633346 -0.00774734211)
(0.1108468138 0.5038922401 0.0717535588)
(-0.01815779568 0.4692285826 0.1337762113)
(-0.09200190994 0.4170182259 0.04972434491)
(-0.06534788375 0.3859480655 -0.04896073844)
(-0.03280570597 0.4188917595 -0.09153367581)
(0.006743081714 0.374233998 -0.1553082556)
(0.1023230764 0.3518554737 -0.1972779232)
(-0.1377278216 -0.3456886734 0.2421275787)
(-0.3725862502 -0.1939526818 0.1882881715)
(-0.6373845814 -0.1256706413 0.1238844348)
(-0.8971826329 -0.0707399329 -0.009927132973)
(-1.113188751 -0.04059491216 -0.2371134749)
(-1.206779352 -0.02771636618 -0.4281153738)
(-1.250668164 -0.006916183374 -0.5517344)
(-1.261931327 -0.01942426332 -0.6389817858)
(-1.118530061 -0.0606436446 -0.8100767209)
(-0.3452161286 0.005193209588 -1.346025531)
(0.7483400355 -0.1798298732 -0.6667113292)
(0.6280549074 -0.1001258972 -0.2145721264)
(0.4147340819 -0.03908047859 -0.1227622639)
(0.316430696 -0.03618740855 -0.3667820492)
(0.4154329838 -0.007679943321 -0.4194420996)
(0.524438258 0.1150252865 -0.2392421728)
(0.4039615895 0.2604601801 -0.02824288902)
(0.2579348677 0.3782195511 0.07053249706)
(0.1566158291 0.4390597827 0.08223969242)
(0.08687103634 0.4667327558 0.1248694956)
(-0.01073895792 0.4128588407 0.1373284075)
(-0.04870873633 0.3618104156 0.07242183963)
(-0.02777387052 0.3244809312 0.0101444687)
(0.01412593843 0.4004580679 -0.01640701619)
(0.01571546688 0.3635919922 -0.08071815232)
(-0.1459039142 -0.4094393454 0.2653400468)
(-0.2940429365 -0.2366972367 0.2078467191)
(-0.4355521706 -0.1582036455 0.1795697007)
(-0.5448164556 -0.09297396256 0.1753030304)
(-0.6860986285 0.0008262621128 0.1228120458)
(-0.8535174217 0.1525592237 -0.04128710998)
(-0.9551646442 0.284824242 -0.2360439638)
(-0.9173294938 0.2684661843 -0.3397026577)
(-0.7476001524 0.09459304689 -0.451349073)
(-0.373979484 0.1026746543 -0.7409630273)
(0.2504091896 0.05274612162 -0.2032874837)
(0.187551303 0.1762069166 -0.04706552382)
(0.3163021748 0.2680353962 -0.1403533212)
(0.3705850945 0.326081197 -0.2492897707)
(0.4226623751 0.3059306976 -0.2645054429)
(0.4687351662 0.2697714636 -0.1550739123)
(0.386834406 0.3076563671 0.009940307646)
(0.2605054698 0.3585810375 0.1231475774)
(0.1500146942 0.3864559939 0.1398839157)
(0.08033977481 0.3918316445 0.1492020368)