/*--------------------------------*- C++ -*----------------------------------*\
  =========                 |
  \\      /  F ield         | OpenFOAM: The Open Source CFD Toolbox
   \\    /   O peration     | Website:  https://openfoam.org
    \\  /    A nd           | Version:  8
     \\/     M anipulation  |
\*---------------------------------------------------------------------------*/
FoamFile
{
    version     2.0;
    format      ascii;
    class       volScalarField;
    location    "0.2/wallFilmRegion";
    object      kappa;
}
// * * * * * * * * * * * * * * * * * * * * * * * * * * * * * * * * * * * * * //

dimensions      [1 1 -3 -1 0 0 0];

internalField   nonuniform List<scalar> 
1342
(
0.6088099147
0.6088099764
0.6088099738
0.6088099947
0.6088099805
0.6088099925
0.608809996
0.6088099988
0.6088099993
0.6088099989
0.6088099976
0.6088099958
0.6088099937
0.6088099918
0.6088099907
0.608809991
0.6088099928
0.608809995
0.6088098203
0.6088098233
0.6088098197
0.6088099139
0.6088099275
0.6088099532
0.6088099694
0.6088099903
0.6088099956
0.6088099976
0.6088099977
0.6088099965
0.608809994
0.6088099904
0.608809986
0.6088099812
0.6088099769
0.6088099754
0.6088091254
0.6088097072
0.608809733
0.608809706
0.6088099186
0.6088099233
0.6088099603
0.6088099864
0.6088099931
0.608809995
0.6088099941
0.6088099912
0.6088099869
0.6088099815
0.6088099758
0.6088088801
0.6088088571
0.6088087669
0.6088087263
0.6088086966
0.6088093073
0.6088089885
0.6088087936
0.6088090549
0.6088094902
0.6088099409
0.6088099489
0.6088099677
0.6088085379
0.6088084829
0.6088085107
0.6088085793
0.6088084409
0.6088088903
0.6088087234
0.6088084156
0.6088084512
0.6088087611
0.6088099491
0.6088099597
0.6088083934
0.6088083408
0.6088077221
0.6088081582
0.608808248
0.608808234
0.6088082153
0.6088082246
0.6088083784
0.6088083057
0.6088083056
0.608808293
0.6088099534
0.6088088357
0.6088095021
0.6088098275
0.6088099384
0.6088099719
0.6088099799
0.6088099789
0.6088099743
0.6088099676
0.6088097829
0.6088099191
0.6088099052
0.6088099265
0.6088099196
0.6088099003
0.6088099818
0.6088099791
0.6088098734
0.6088098693
0.6088099893
0.6088099096
0.6088099421
0.6088099933
0.6088099925
0.6088099922
0.6088099928
0.6088099915
0.6088099911
0.6088099905
0.6088099911
0.6088099912
0.6088099899
0.6088099912
0.6088099913
0.6088099902
0.6088099915
0.608809992
0.6088099909
0.608809993
0.6088099944
0.6088099918
0.6088099942
0.6088099938
0.6088099932
0.6088099938
0.6088099936
0.6088099946
0.6088099941
0.6088099943
0.6088099958
0.608809995
0.608809996
0.6088102203
0.60881
0.60881
0.6088103461
0.60881
0.60881
0.608810162
0.60881
0.60881
0.6088100085
0.608810341
0.6088103747
0.608809995
0.6088103759
0.6088103722
0.6088100519
0.6088103535
0.60881
0.6088103569
0.60881
0.60881
0.6088101915
0.60881
0.60881
0.608809994
0.60881
0.6088100724
0.6088099946
0.6088101897
0.6088100949
0.6088099971
0.6088100014
0.6088100053
0.6088099984
0.6088099988
0.6088099989
0.6088099982
0.6088099987
0.6088099937
0.60881
0.60881
0.60881
0.60881
0.60881
0.60881
0.60881
0.60881
0.60881
0.60881
0.60881
0.60881
0.60881
0.60881
0.60881
0.60881
0.60881
0.60881
0.60881
0.60881
0.60881
0.60881
0.60881
0.60881
0.60881
0.60881
0.60881
0.60881
0.60881
0.60881
0.6088102833
0.60881
0.60881
0.6088099993
0.6088103333
0.6088100096
0.6088099909
0.6088099989
0.6088099983
0.60881
0.60881
0.60881
0.60881
0.60881
0.60881
0.60881
0.60881
0.60881
0.60881
0.60881
0.60881
0.60881
0.60881
0.60881
0.60881
0.60881
0.60881
0.60881
0.60881
0.60881
0.60881
0.60881
0.60881
0.60881
0.60881
0.60881
0.60881
0.60881
0.60881
0.60881
0.60881
0.60881
0.6088103239
0.60881
0.60881
0.6088099978
0.6088099977
0.6088099977
0.6088099732
0.6088099809
0.6088099769
0.60881
0.60881
0.60881
0.60881
0.60881
0.60881
0.60881
0.60881
0.60881
0.60881
0.60881
0.60881
0.60881
0.60881
0.60881
0.60881
0.60881
0.60881
0.60881
0.60881
0.60881
0.60881
0.60881
0.60881
0.60881
0.60881
0.60881
0.60881
0.60881
0.60881
0.60881
0.60881
0.60881
0.60881
0.60881
0.60881
0.6088099834
0.6088100425
0.6088099835
0.6088099845
0.6088099847
0.6088099831
0.60881
0.60881
0.60881
0.60881
0.60881
0.60881
0.60881
0.60881
0.60881
0.60881
0.60881
0.60881
0.60881
0.60881
0.60881
0.60881
0.60881
0.60881
0.60881
0.60881
0.60881
0.60881
0.60881
0.60881
0.60881
0.60881
0.60881
0.60881
0.60881
0.60881
0.60881
0.60881
0.60881
0.608810271
0.6088099944
0.6088099902
0.6088099859
0.6088099878
0.6088099898
0.6088101359
0.6088100836
0.60881
0.6088101545
0.60881
0.60881
0.60881
0.60881
0.60881
0.60881
0.60881
0.60881
0.60881
0.60881
0.60881
0.60881
0.60881
0.60881
0.60881
0.60881
0.60881
0.60881
0.60881
0.60881
0.60881
0.60881
0.60881
0.6088102102
0.6088102804
0.60881
0.6088101867
0.6088103167
0.608810019
0.6088099833
0.6088099878
0.6088099881
0.6088099881
0.60880999
0.6088099938
0.6088099942
0.6088099959
0.6088100727
0.6088101094
0.60881
0.6088101355
0.6088100323
0.6088101684
0.6088099984
0.6088099943
0.6088101652
0.6088099936
0.6088099934
0.6088102746
0.6088099929
0.608809992
0.6088102491
0.6088099909
0.6088099899
0.608810249
0.6088099879
0.6088099776
0.6088100243
0.6088099697
0.6088099635
0.6088099646
0.6088099578
0.608809952
0.6088099479
0.6088099484
0.6088099492
0.6088099784
0.608809953
0.6088099772
0.6088099873
0.6088099888
0.608809992
0.6088098334
0.6088096402
0.6088098428
0.6088096532
0.608809647
0.608809806
0.608809618
0.6088096057
0.6088099892
0.6088095766
0.6088099892
0.6088099893
0.6088099894
0.6088099894
0.6088099895
0.6088099895
0.6088099896
0.6088099896
0.6088099897
0.6088099898
0.6088099146
0.6088091639
0.6088098493
0.6088093978
0.6088095883
0.6088093577
0.6088095822
0.6088096843
0.6088097807
0.6088098069
0.6088098524
0.6088098066
0.6088093699
0.6088094276
0.6088093296
0.6088092569
0.6088099895
0.6088099897
0.6088099899
0.6088097338
0.6088090969
0.6088091102
0.6088089683
0.6088099894
0.6088099896
0.6088099897
0.608809592
0.6088093527
0.6088093948
0.6088088119
0.6088093229
0.6088089155
0.6088096304
0.6088092784
0.6088095171
0.6088088493
0.608808893
0.608808822
0.6088086491
0.6088086174
0.6088087382
0.6088085645
0.6088087296
0.6088086722
0.6088085438
0.6088085172
0.60880999
0.6088091926
0.6088099901
0.6088092032
0.6088086811
0.6088088593
0.6088085824
0.6088091418
0.6088087425
0.6088088571
0.6088091397
0.6088085649
0.6088083451
0.608808656
0.6088087657
0.6088083648
0.6088083186
0.6088099902
0.6088085008
0.6088099903
0.6088085229
0.6088084197
0.6088084202
0.6088084362
0.6088085371
0.6088084183
0.6088083659
0.6088082786
0.6088082585
0.6088083953
0.6088099972
0.6088101048
0.6088099973
0.6088100929
0.6088099971
0.6088099893
0.6088099924
0.608809989
0.6088099915
0.608809989
0.608809992
0.608809989
0.6088099948
0.6088099505
0.6088099972
0.6088099901
0.6088098554
0.6088099918
0.6088097549
0.6088099927
0.6088099932
0.6088099914
0.60880999
0.60880999
0.6088099906
0.6088099914
0.6088099925
0.6088099942
0.608809995
0.6088099968
0.6088099399
0.6088099979
0.6088099253
0.6088101623
0.6088101704
0.6088103103
0.60881005
0.6088099991
0.60881
0.6088103406
0.6088103468
0.6088102146
0.6088099944
0.6088099965
0.6088099979
0.6088099985
0.6088099803
0.6088099821
0.6088099974
0.60881
0.60881
0.60881
0.60881
0.60881
0.60881
0.60881
0.60881
0.60881
0.60881
0.6088102471
0.6088100027
0.6088099989
0.6088099784
0.60881
0.60881
0.60881
0.60881
0.60881
0.60881
0.60881
0.60881
0.60881
0.60881
0.60881
0.60881
0.6088099981
0.608809983
0.60881
0.60881
0.60881
0.60881
0.60881
0.60881
0.60881
0.60881
0.60881
0.60881
0.60881
0.60881
0.6088099995
0.6088099827
0.60881
0.60881
0.60881
0.60881
0.60881
0.60881
0.60881
0.60881
0.60881
0.60881
0.60881
0.6088102596
0.6088099864
0.6088099874
0.60881
0.60881
0.60881
0.60881
0.60881
0.60881
0.60881
0.60881
0.60881
0.60881
0.6088100473
0.6088099874
0.6088099913
0.6088099953
0.6088100011
0.6088100481
0.6088100105
0.6088102147
0.6088102378
0.6088102852
0.6088101468
0.6088101531
0.6088099866
0.608809951
0.6088099483
0.6088099832
0.6088099918
0.608809996
0.6088099979
0.608809994
0.608809993
0.6088099914
0.6088099883
0.6088099811
0.6088099679
0.6088099569
0.6088099556
0.6088099703
0.608809991
0.6088099958
0.6088099959
0.6088097667
0.6088098243
0.6088098015
0.6088098115
0.6088099893
0.6088099894
0.6088099896
0.6088094006
0.6088097371
0.6088095079
0.608809673
0.6088094462
0.6088098646
0.6088098682
0.6088098431
0.6088098464
0.6088099683
0.608809972
0.6088093877
0.6088093557
0.608809092
0.608809333
0.6088090498
0.6088099895
0.6088099896
0.6088099898
0.6088099899
0.6088090125
0.6088089527
0.6088094722
0.6088099342
0.6088099391
0.608809945
0.6088099687
0.6088088006
0.6088089853
0.6088092606
0.6088094289
0.6088091187
0.6088099281
0.6088099104
0.6088098609
0.608809965
0.6088099844
0.6088099779
0.6088099903
0.6088099902
0.6088099893
0.608809987
0.6088099819
0.6088099819
0.6088099756
0.6088083986
0.6088085538
0.6088087174
0.6088099349
0.6088099427
0.6088099391
0.608809883
0.6088097679
0.608809968
0.6088099821
0.6088099856
0.6088099806
0.6088099686
0.6088099689
0.6088084459
0.6088083424
0.6088082174
0.6088083625
0.6088082077
0.6088083019
0.6088082008
0.6088081779
0.6088081663
0.6088081654
0.6088086545
0.6088085195
0.6088087369
0.6088084458
0.6088082987
0.6088082308
0.6088081982
0.6088081804
0.6088081826
0.6088085979
0.6088084574
0.6088085322
0.6088083755
0.6088082712
0.6088082185
0.6088081797
0.608808188
0.6088081869
0.608808121
0.6088082636
0.6088082454
0.608808198
0.6088081627
0.6088081502
0.6088081556
0.608808169
0.6088081833
0.6088099972
0.6088101094
0.6088099958
0.6088099826
0.6088099973
0.6088100975
0.608809996
0.6088099961
0.608809999
0.6088099666
0.6088099972
0.6088100865
0.6088099913
0.608809991
0.6088099822
0.6088099816
0.6088099958
0.608809989
0.608809991
0.6088099911
0.6088099562
0.6088099892
0.6088099916
0.608809989
0.6088099912
0.6088099917
0.6088099892
0.6088099892
0.6088099913
0.608809989
0.6088099924
0.6088099928
0.6088099893
0.6088099893
0.608809992
0.608809989
0.6088099929
0.6088099931
0.6088099894
0.6088099894
0.6088099949
0.608809993
0.6088099934
0.6088099941
0.6088096348
0.6088099679
0.6088099968
0.6088096631
0.6088099958
0.6088099957
0.6088099148
0.6088094674
0.6088099964
0.6088099978
0.6088096053
0.6088099958
0.6088099978
0.6088099971
0.6088099981
0.6088099982
0.6088099981
0.6088099222
0.6088099866
0.608809879
0.6088098861
0.6088099779
0.6088099871
0.608809975
0.6088099727
0.6088098904
0.608809879
0.6088099836
0.608809992
0.6088099813
0.6088099835
0.6088099916
0.6088099401
0.6088099425
0.6088099483
0.6088099893
0.6088099958
0.6088099583
0.6088099935
0.6088099948
0.6088099961
0.6088099956
0.6088099948
0.6088099964
0.6088099965
0.6088099681
0.6088099759
0.6088099821
0.6088100269
0.6088099957
0.608809999
0.6088099969
0.6088099955
0.608809995
0.6088099943
0.608809999
0.6088099949
0.6088099935
0.6088099934
0.6088099939
0.6088099936
0.6088099992
0.6088099983
0.6088099986
0.6088099924
0.6088099931
0.6088099923
0.6088099984
0.6088099987
0.6088099985
0.6088099901
0.6088099911
0.6088099896
0.6088099968
0.608809998
0.6088099973
0.6088099858
0.6088099876
0.6088099851
0.6088099947
0.6088099963
0.608809995
0.6088099745
0.6088099819
0.6088099782
0.6088099927
0.6088099935
0.6088099918
0.6088099618
0.6088099744
0.608809971
0.6088099911
0.6088099899
0.608809988
0.6088099543
0.6088099687
0.6088099679
0.6088099906
0.608809986
0.6088099841
0.6088099611
0.608809969
0.6088099731
0.6088099917
0.6088099824
0.6088099812
0.6088099845
0.6088099804
0.6088099861
0.608809994
0.6088099805
0.6088099807
0.6088099955
0.6088099945
0.6088099902
0.6088099809
0.608809982
0.6088099811
0.6088099821
0.6088098713
0.6088098538
0.6088098544
0.6088097844
0.6088097536
0.6088098108
0.6088097786
0.6088097799
0.6088097606
0.6088098213
0.6088097727
0.6088097739
0.6088099262
0.6088099166
0.6088099217
0.6088099315
0.6088099369
0.6088099232
0.6088099275
0.6088099392
0.6088099443
0.608809933
0.608809961
0.6088099543
0.608809953
0.6088099469
0.6088099948
0.6088099814
0.6088099969
0.6088099915
0.6088099978
0.6088099942
0.6088099956
0.6088099972
0.6088099963
0.6088099964
0.6088099954
0.6088099961
0.6088099954
0.6088099923
0.6088099943
0.6088099928
0.6088099883
0.6088099909
0.6088099888
0.6088099836
0.6088099865
0.6088099839
0.608809979
0.6088099812
0.6088099785
0.6088099755
0.6088099757
0.6088099736
0.608809972
0.6088099698
0.6088099673
0.6088099609
0.6088099663
0.60880916
0.6088090568
0.6088099898
0.60880999
0.6088095769
0.6088091605
0.6088094823
0.6088095585
0.6088095751
0.6088093713
0.608809674
0.6088097052
0.608809697
0.6088096099
0.6088096183
0.608809723
0.6088096893
0.608809599
0.6088094299
0.6088099211
0.6088099218
0.6088099203
0.6088099143
0.6088099269
0.608809924
0.6088099305
0.6088099351
0.6088099419
0.6088099432
0.6088099546
0.6088099523
0.6088099582
0.6088099458
0.6088099519
0.6088099587
0.6088099791
0.6088099906
0.6088099737
0.6088099827
0.6088099881
0.6088099913
0.6088099945
0.608809993
0.6088099936
0.6088099948
0.6088099929
0.6088099934
0.6088099925
0.6088099911
0.6088099893
0.6088099892
0.6088099845
0.6088099843
0.6088099871
0.6088099817
0.6088099786
0.6088099787
0.6088099716
0.6088099755
0.6088099721
0.6088099658
0.6088099688
0.6088099659
0.6088099609
0.6088086925
0.6088086884
0.6088086763
0.6088086619
0.6088086196
0.6088085782
0.6088089251
0.608808997
0.6088086871
0.6088085609
0.6088084881
0.6088084611
0.608808499
0.6088084028
0.6088086973
0.6088085602
0.6088086461
0.6088090585
0.6088094109
0.6088094228
0.6088091158
0.6088087101
0.6088091163
0.6088091011
0.6088086998
0.6088099242
0.6088099284
0.6088099244
0.6088099314
0.6088099361
0.6088099299
0.6088099541
0.6088099434
0.6088099481
0.6088096791
0.6088099147
0.6088098054
0.6088099472
0.6088099665
0.6088099559
0.6088099714
0.6088099878
0.60880998
0.6088099864
0.6088099884
0.6088099866
0.6088099867
0.6088099845
0.6088099814
0.6088099786
0.6088099756
0.6088099754
0.6088099586
0.6088099643
0.6088099631
0.6088099692
0.6088099554
0.6088099538
0.6088099599
0.608809855
0.6088097746
0.6088099443
0.6088099773
0.6088099884
0.6088099844
0.6088099907
0.6088099892
0.6088099889
0.6088099847
0.6088099788
0.6088099789
0.6088099726
0.6088099722
0.6088084894
0.6088084458
0.6088083909
0.6088083664
0.6088087801
0.6088086003
0.6088084514
0.6088083035
0.6088082987
0.6088083214
0.6088083422
0.6088084388
0.608808497
0.6088083689
0.6088084964
0.6088082934
0.6088084119
0.6088078746
0.6088086486
0.6088083893
0.6088082461
0.6088083323
0.6088082332
0.6088099901
0.6088082635
0.6088099898
0.6088082141
0.6088082492
0.6088082466
0.608808242
0.6088082476
0.6088084128
0.6088082599
0.608808494
0.6088082824
0.6088084357
0.6088086728
0.6088083013
0.6088084681
0.6088083085
0.608808723
0.6088084687
0.6088084463
0.6088083018
0.6088082904
0.6088084263
0.6088084247
0.6088082903
0.6088099414
0.6088099345
0.608809962
0.6088099427
0.6088099503
0.6088099578
0.6088099593
0.608808566
0.6088093657
0.6088089478
0.608809609
0.6088093132
0.6088095845
0.6088097584
0.6088098986
0.6088099191
0.6088098605
0.6088099181
0.6088099498
0.6088099774
0.608809967
0.6088099776
0.6088099759
0.6088099801
0.6088099801
0.6088099839
0.6088099815
0.6088099827
0.6088099811
0.6088099796
0.6088099773
0.6088099751
0.6088099746
0.6088099719
0.6088099667
0.6088099631
0.6088099633
0.6088099646
0.608809955
0.6088099599
0.6088094888
0.6088090458
0.608809929
0.6088098636
0.6088099505
0.6088099845
0.6088099839
0.6088099838
0.608809978
0.608809972
0.6088099718
0.6088084858
0.6088085489
0.6088084024
0.6088085584
0.6088085084
0.6088083151
0.6088084373
0.608808378
0.6088081937
0.6088085847
0.608808457
0.60880821
0.6088083707
0.6088083096
0.6088081883
0.6088082651
0.6088082331
0.6088099818
0.608808211
0.6088099616
0.6088081635
0.6088081852
0.6088081761
0.6088081737
0.6088081715
0.6088081739
0.6088081823
0.6088086316
0.6088086584
0.6088086058
0.6088086831
0.6088086702
0.6088084456
0.6088085618
0.6088084853
0.6088085694
0.6088086569
0.6088085311
0.6088083587
0.608808429
0.6088083519
0.6088082577
0.6088082962
0.6088082573
0.6088082113
0.6088082313
0.6088082132
0.6088081876
0.6088082016
0.6088081923
0.6088081787
0.6088081857
0.6088081831
0.6088081911
0.6088081833
0.6088081882
0.608808291
0.6088085966
0.608808557
0.6088085643
0.6088084782
0.6088084156
0.6088085659
0.6088083205
0.6088083612
0.6088084485
0.6088083834
0.6088083353
0.608808316
0.60880829
0.6088082518
0.6088082392
0.6088082225
0.6088082021
0.6088082048
0.6088081898
0.6088081831
0.6088081913
0.6088081814
0.6088081817
0.6088081872
0.6088081832
0.6088081861
0.6088081905
0.6088081899
0.6088081956
0.6088099449
0.6088099595
0.6088081556
0.6088082216
0.608808496
0.6088082311
0.6088083562
0.6088086535
0.6088092052
0.6088082638
0.6088089907
0.6088093172
0.6088097041
0.6088082217
0.6088095733
0.6088097443
0.6088081776
0.6088098477
0.6088099071
0.6088099603
0.6088081538
0.6088099403
0.6088099585
0.6088081509
0.6088099679
0.6088099724
0.6088081622
0.6088099739
0.6088099735
0.6088099769
0.6088081763
0.608809972
0.60880997
0.608809966
0.6088099707
)
;

boundaryField
{
    walls
    {
        type            zeroGradient;
    }
    wallFilmFace_top
    {
        type            zeroGradient;
    }
    region0_to_wallFilmRegion_wallFilmFace
    {
        type            zeroGradient;
    }
    mirrorFace_top
    {
        type            zeroGradient;
    }
    region0_to_wallFilmRegion_mirrorFace
    {
        type            zeroGradient;
    }
    procBoundary3to2
    {
        type            processor;
        value           nonuniform List<scalar> 
64
(
0.6088099992
0.6088099969
0.6088099821
0.6088099867
0.6088099658
0.6088087437
0.608808518
0.6088084388
0.6088083001
0.6088099927
0.6088099935
0.6088099936
0.6088099936
0.6088101355
0.60881
0.60881
0.60881
0.60881
0.60881
0.6088103403
0.6088103532
0.6088103244
0.6088102472
0.6088102472
0.608810001
0.6088100009
0.6088100009
0.6088099936
0.6088100015
0.6088100015
0.6088099687
0.6088095309
0.6088095309
0.6088092589
0.6088090024
0.608809997
0.6088100847
0.6088099955
0.6088100063
0.6088099455
0.6088097657
0.6088085279
0.6088084602
0.6088085658
0.6088082792
0.6088083458
0.6088099955
0.6088099455
0.608809996
0.608809998
0.608809991
0.6088099551
0.6088099867
0.6088099316
0.6088086093
0.608809641
0.6088092344
0.6088084705
0.6088087068
0.608808282
0.6088085479
0.608808455
0.6088082134
0.6088082971
)
;
    }
}


// ************************************************************************* //
