/*--------------------------------*- C++ -*----------------------------------*\
  =========                 |
  \\      /  F ield         | OpenFOAM: The Open Source CFD Toolbox
   \\    /   O peration     | Website:  https://openfoam.org
    \\  /    A nd           | Version:  8
     \\/     M anipulation  |
\*---------------------------------------------------------------------------*/
FoamFile
{
    version     2.0;
    format      ascii;
    class       volScalarField;
    location    "0.2/wallFilmRegion";
    object      mu;
}
// * * * * * * * * * * * * * * * * * * * * * * * * * * * * * * * * * * * * * //

dimensions      [1 -1 -1 0 0 0 0];

internalField   nonuniform List<scalar> 
1342
(
0.0008861486011
0.00088614774
0.0008861477754
0.0008861474841
0.0008861476823
0.000886147515
0.000886147466
0.0008861474267
0.0008861474195
0.0008861474259
0.0008861474431
0.0008861474693
0.0008861474982
0.0008861475248
0.0008861475404
0.0008861475363
0.0008861475115
0.0008861474797
0.0008861499197
0.000886149877
0.0008861499276
0.0008861486121
0.0008861484228
0.0008861480632
0.0008861478377
0.0008861475453
0.0008861474724
0.0008861474443
0.0008861474428
0.0008861474594
0.0008861474938
0.0008861475441
0.0008861476057
0.0008861476722
0.0008861477328
0.000886147754
0.0008861596204
0.0008861514974
0.0008861511382
0.0008861515142
0.0008861485472
0.0008861484804
0.0008861479646
0.0008861476002
0.0008861475062
0.0008861474808
0.0008861474932
0.000886147533
0.0008861475937
0.0008861476692
0.0008861477475
0.0008861630444
0.0008861633655
0.0008861646251
0.0008861651924
0.0008861656071
0.0008861570805
0.0008861615309
0.0008861642529
0.0008861606046
0.0008861545269
0.0008861482357
0.0008861481234
0.0008861478613
0.0008861678226
0.0008861685896
0.0008861682019
0.0008861672434
0.0008861691761
0.0008861629022
0.0008861652323
0.00088616953
0.0008861690326
0.0008861647054
0.000886148121
0.0008861479733
0.0008861698392
0.0008861705742
0.0008861792118
0.0008861731232
0.0008861718696
0.0008861720643
0.0008861723259
0.0008861721961
0.0008861700487
0.0008861710642
0.0008861710657
0.0008861712414
0.000886148061
0.0008861636651
0.0008861543608
0.0008861498189
0.0008861482702
0.0008861478027
0.0008861476906
0.0008861477048
0.0008861477694
0.0008861478629
0.0008861504407
0.0008861485392
0.0008861487342
0.0008861484366
0.0008861485331
0.000886148802
0.0008861476641
0.0008861477025
0.0008861491775
0.0008861492351
0.0008861475594
0.0008861486729
0.0008861482185
0.0008861475039
0.0008861475145
0.0008861475193
0.000886147511
0.0008861475294
0.0008861475339
0.000886147543
0.0008861475343
0.0008861475339
0.0008861475519
0.0008861475337
0.0008861475324
0.000886147547
0.000886147529
0.0008861475225
0.0008861475368
0.0008861475076
0.0008861474891
0.0008861475241
0.0008861474912
0.0008861474971
0.0008861475053
0.000886147497
0.0008861474998
0.0008861474859
0.0008861474932
0.0008861474893
0.0008861474697
0.0008861474806
0.0008861474666
0.0008861443347
0.0008861474103
0.0008861474103
0.000886142579
0.0008861474103
0.0008861474103
0.000886145149
0.0008861474103
0.0008861474103
0.0008861472916
0.0008861426505
0.0008861421798
0.0008861474803
0.0008861421633
0.0008861422143
0.0008861466858
0.0008861424757
0.0008861474103
0.0008861424284
0.0008861474103
0.0008861474103
0.0008861447366
0.0008861474103
0.0008861474103
0.0008861474939
0.0008861474103
0.0008861464001
0.0008861474863
0.0008861447615
0.0008861460855
0.0008861474505
0.0008861473907
0.0008861473367
0.0008861474324
0.0008861474267
0.0008861474263
0.0008861474348
0.0008861474283
0.0008861474986
0.0008861474103
0.0008861474103
0.0008861474103
0.0008861474103
0.0008861474103
0.0008861474103
0.0008861474103
0.0008861474103
0.0008861474103
0.0008861474103
0.0008861474103
0.0008861474103
0.0008861474103
0.0008861474103
0.0008861474103
0.0008861474103
0.0008861474103
0.0008861474103
0.0008861474103
0.0008861474103
0.0008861474103
0.0008861474103
0.0008861474103
0.0008861474103
0.0008861474103
0.0008861474103
0.0008861474103
0.0008861474103
0.0008861474103
0.0008861474103
0.0008861434559
0.0008861474103
0.0008861474103
0.0008861474207
0.0008861427573
0.0008861472768
0.000886147538
0.000886147426
0.0008861474337
0.0008861474103
0.0008861474103
0.0008861474103
0.0008861474103
0.0008861474103
0.0008861474103
0.0008861474103
0.0008861474103
0.0008861474103
0.0008861474103
0.0008861474103
0.0008861474103
0.0008861474103
0.0008861474103
0.0008861474103
0.0008861474103
0.0008861474103
0.0008861474103
0.0008861474103
0.0008861474103
0.0008861474103
0.0008861474103
0.0008861474103
0.0008861474103
0.0008861474103
0.0008861474103
0.0008861474103
0.0008861474103
0.0008861474103
0.0008861474103
0.0008861474103
0.0008861474103
0.0008861474103
0.0008861428887
0.0008861474103
0.0008861474103
0.0008861474415
0.0008861474424
0.000886147442
0.0008861477847
0.0008861476765
0.0008861477329
0.0008861474103
0.0008861474103
0.0008861474103
0.0008861474103
0.0008861474103
0.0008861474103
0.0008861474103
0.0008861474103
0.0008861474103
0.0008861474103
0.0008861474103
0.0008861474103
0.0008861474103
0.0008861474103
0.0008861474103
0.0008861474103
0.0008861474103
0.0008861474103
0.0008861474103
0.0008861474103
0.0008861474103
0.0008861474103
0.0008861474103
0.0008861474103
0.0008861474103
0.0008861474103
0.0008861474103
0.0008861474103
0.0008861474103
0.0008861474103
0.0008861474103
0.0008861474103
0.0008861474103
0.0008861474103
0.0008861474103
0.0008861474103
0.0008861476422
0.0008861468177
0.0008861476409
0.0008861476274
0.0008861476244
0.0008861476464
0.0008861474103
0.0008861474103
0.0008861474103
0.0008861474103
0.0008861474103
0.0008861474103
0.0008861474103
0.0008861474103
0.0008861474103
0.0008861474103
0.0008861474103
0.0008861474103
0.0008861474103
0.0008861474103
0.0008861474103
0.0008861474103
0.0008861474103
0.0008861474103
0.0008861474103
0.0008861474103
0.0008861474103
0.0008861474103
0.0008861474103
0.0008861474103
0.0008861474103
0.0008861474103
0.0008861474103
0.0008861474103
0.0008861474103
0.0008861474103
0.0008861474103
0.0008861474103
0.0008861474103
0.0008861436276
0.0008861474887
0.0008861475473
0.0008861476077
0.0008861475804
0.0008861475522
0.000886145513
0.0008861462433
0.0008861474103
0.0008861452529
0.0008861474103
0.0008861474103
0.0008861474103
0.0008861474103
0.0008861474103
0.0008861474103
0.0008861474103
0.0008861474103
0.0008861474103
0.0008861474103
0.0008861474103
0.0008861474103
0.0008861474103
0.0008861474103
0.0008861474103
0.0008861474103
0.0008861474103
0.0008861474103
0.0008861474103
0.0008861474103
0.0008861474103
0.0008861474103
0.0008861474103
0.0008861444764
0.000886143496
0.0008861474103
0.0008861448038
0.0008861429895
0.0008861471445
0.000886147643
0.00088614758
0.0008861475758
0.0008861475763
0.0008861475497
0.0008861474966
0.0008861474913
0.0008861474674
0.0008861463951
0.0008861458833
0.0008861474103
0.000886145519
0.0008861469598
0.0008861450593
0.000886147433
0.0008861474903
0.000886145104
0.0008861475004
0.0008861475022
0.0008861435774
0.0008861475099
0.0008861475216
0.0008861439325
0.0008861475375
0.0008861475509
0.0008861439342
0.000886147579
0.0008861477226
0.0008861470708
0.0008861478327
0.0008861479201
0.0008861479052
0.0008861479996
0.0008861480808
0.0008861481381
0.0008861481307
0.0008861481202
0.0008861477122
0.0008861480659
0.0008861477286
0.000886147588
0.0008861475674
0.0008861475218
0.0008861497358
0.0008861524338
0.0008861496045
0.000886152252
0.0008861523379
0.0008861501182
0.000886152743
0.0008861529147
0.0008861475606
0.0008861533218
0.0008861475613
0.0008861475591
0.0008861475583
0.0008861475576
0.0008861475569
0.0008861475565
0.0008861475549
0.0008861475553
0.0008861475536
0.000886147553
0.0008861486026
0.0008861590827
0.0008861495147
0.0008861558177
0.0008861531572
0.0008861563769
0.0008861532428
0.0008861518178
0.0008861504719
0.0008861501059
0.0008861494716
0.0008861501102
0.0008861562063
0.0008861554008
0.0008861567689
0.0008861577843
0.0008861475565
0.0008861475535
0.0008861475515
0.000886151126
0.0008861600185
0.000886159833
0.0008861618131
0.0008861475581
0.0008861475559
0.0008861475543
0.000886153106
0.0008861564474
0.0008861558591
0.0008861639966
0.0008861568633
0.0008861625501
0.0008861525695
0.0008861574847
0.000886154152
0.0008861634743
0.0008861628647
0.0008861638561
0.00088616627
0.0008861667123
0.000886165026
0.0008861674509
0.0008861651458
0.000886165947
0.0008861677403
0.0008861681115
0.0008861475499
0.000886158682
0.0008861475488
0.0008861585342
0.0008861658226
0.0008861633349
0.0008861672008
0.0008861593919
0.0008861649657
0.0008861633658
0.00088615942
0.0008861674457
0.0008861705137
0.0008861661737
0.0008861646415
0.0008861702382
0.0008861708832
0.0008861475469
0.0008861683407
0.0008861475461
0.0008861680309
0.0008861694717
0.0008861694658
0.0008861692415
0.0008861678335
0.0008861694913
0.0008861702228
0.0008861714424
0.0008861717224
0.000886169813
0.0008861474488
0.0008861459476
0.000886147448
0.0008861461135
0.000886147451
0.00088614756
0.000886147516
0.0008861475633
0.0008861475292
0.0008861475639
0.0008861475215
0.0008861475635
0.0008861474827
0.0008861481016
0.0008861474493
0.0008861475481
0.0008861494289
0.0008861475254
0.000886150832
0.0008861475117
0.0008861475047
0.0008861475301
0.0008861475501
0.0008861475504
0.0008861475423
0.0008861475307
0.0008861475157
0.0008861474909
0.0008861474801
0.0008861474556
0.0008861482495
0.000886147439
0.0008861484534
0.0008861451449
0.0008861450318
0.0008861430779
0.0008861467121
0.0008861474224
0.0008861474099
0.0008861426551
0.0008861425682
0.0008861444141
0.0008861474879
0.0008861474599
0.0008861474401
0.0008861474317
0.0008861476851
0.0008861476596
0.0008861474472
0.0008861474103
0.0008861474103
0.0008861474103
0.0008861474103
0.0008861474103
0.0008861474103
0.0008861474103
0.0008861474103
0.0008861474103
0.0008861474103
0.0008861439613
0.0008861473732
0.0008861474261
0.0008861477113
0.0008861474103
0.0008861474103
0.0008861474103
0.0008861474103
0.0008861474103
0.0008861474103
0.0008861474103
0.0008861474103
0.0008861474103
0.0008861474103
0.0008861474103
0.0008861474103
0.0008861474369
0.0008861476471
0.0008861474103
0.0008861474103
0.0008861474103
0.0008861474103
0.0008861474103
0.0008861474103
0.0008861474103
0.0008861474103
0.0008861474103
0.0008861474103
0.0008861474103
0.0008861474103
0.0008861474178
0.0008861476522
0.0008861474103
0.0008861474103
0.0008861474103
0.0008861474103
0.0008861474103
0.0008861474103
0.0008861474103
0.0008861474103
0.0008861474103
0.0008861474103
0.0008861474103
0.0008861437861
0.0008861476002
0.0008861475865
0.0008861474103
0.0008861474103
0.0008861474103
0.0008861474103
0.0008861474103
0.0008861474103
0.0008861474103
0.0008861474103
0.0008861474103
0.0008861474103
0.0008861467495
0.0008861475869
0.0008861475313
0.0008861474759
0.0008861473949
0.0008861467383
0.000886147264
0.0008861444134
0.0008861440905
0.0008861434286
0.0008861453604
0.0008861452736
0.0008861475974
0.0008861480949
0.0008861481314
0.0008861476451
0.0008861475242
0.0008861474658
0.0008861474396
0.0008861474942
0.0008861475076
0.0008861475308
0.0008861475732
0.0008861476744
0.0008861478583
0.0008861480125
0.0008861480298
0.000886147825
0.0008861475357
0.0008861474688
0.0008861474676
0.0008861506676
0.0008861498634
0.0008861501815
0.0008861500416
0.0008861475595
0.0008861475583
0.0008861475555
0.0008861557786
0.0008861510799
0.00088615428
0.0008861519755
0.0008861551413
0.0008861493003
0.0008861492504
0.0008861496009
0.0008861495549
0.0008861478534
0.0008861478006
0.0008861559589
0.0008861564045
0.0008861600867
0.0008861567221
0.0008861606754
0.0008861475575
0.0008861475551
0.0008861475524
0.0008861475518
0.0008861611956
0.0008861620311
0.0008861547787
0.0008861483294
0.0008861482611
0.0008861481777
0.0008861478473
0.0008861641544
0.0008861615758
0.0008861577331
0.0008861553829
0.0008861597134
0.0008861484135
0.0008861486618
0.000886149352
0.0008861478994
0.0008861476279
0.0008861477188
0.0008861475462
0.000886147547
0.0008861475601
0.0008861475912
0.0008861476627
0.0008861476636
0.000886147751
0.0008861697672
0.0008861676
0.0008861653157
0.0008861483186
0.0008861482107
0.00088614826
0.0008861490442
0.0008861506512
0.0008861478572
0.0008861476604
0.0008861476115
0.0008861476806
0.0008861478484
0.000886147844
0.0008861691059
0.000886170552
0.0008861722969
0.0008861702708
0.0008861724316
0.0008861711171
0.0008861725286
0.0008861728479
0.0008861730097
0.0008861730229
0.0008861661948
0.0008861680792
0.0008861650439
0.0008861691083
0.0008861711614
0.0008861721087
0.0008861725639
0.0008861728137
0.0008861727824
0.0008861669846
0.0008861689461
0.0008861679019
0.0008861700894
0.0008861715459
0.0008861722816
0.0008861728224
0.0008861727064
0.000886172722
0.0008861736428
0.0008861716512
0.0008861719052
0.0008861725676
0.0008861730596
0.000886173235
0.0008861731597
0.0008861729717
0.0008861727732
0.0008861474499
0.0008861458832
0.0008861474693
0.0008861476531
0.0008861474482
0.0008861460489
0.0008861474665
0.0008861474644
0.0008861474246
0.0008861478771
0.0008861474493
0.0008861462031
0.0008861475311
0.0008861475365
0.0008861476588
0.0008861476678
0.0008861474695
0.0008861475634
0.0008861475359
0.0008861475348
0.0008861480224
0.0008861475611
0.000886147527
0.0008861475636
0.0008861475331
0.0008861475268
0.0008861475608
0.0008861475606
0.0008861475315
0.0008861475638
0.000886147517
0.000886147511
0.0008861475602
0.0008861475593
0.0008861475216
0.0008861475643
0.0008861475088
0.0008861475065
0.0008861475581
0.0008861475582
0.000886147482
0.0008861475077
0.000886147503
0.000886147492
0.0008861525086
0.0008861478587
0.0008861474554
0.0008861521136
0.0008861474693
0.0008861474704
0.0008861486002
0.0008861548456
0.00088614746
0.0008861474413
0.00088615292
0.0008861474691
0.0008861474407
0.0008861474506
0.0008861474375
0.0008861474356
0.000886147437
0.0008861484965
0.0008861475977
0.0008861490998
0.0008861490009
0.0008861477187
0.0008861475906
0.0008861477588
0.000886147792
0.0008861489401
0.0008861490992
0.0008861476395
0.0008861475222
0.000886147671
0.0008861476407
0.0008861475276
0.0008861482465
0.0008861482137
0.0008861481316
0.0008861475599
0.0008861474688
0.0008861479922
0.0008861475005
0.0008861474829
0.0008861474654
0.0008861474713
0.0008861474829
0.0008861474606
0.0008861474595
0.0008861478552
0.0008861477466
0.0008861476602
0.0008861470352
0.0008861474709
0.000886147424
0.000886147454
0.0008861474734
0.00088614748
0.0008861474893
0.0008861474249
0.0008861474819
0.0008861475004
0.0008861475018
0.0008861474951
0.0008861474994
0.000886147421
0.0008861474339
0.0008861474293
0.0008861475167
0.0008861475067
0.0008861475183
0.0008861474332
0.0008861474288
0.0008861474316
0.000886147549
0.0008861475345
0.0008861475557
0.0008861474554
0.000886147438
0.0008861474481
0.0008861476084
0.0008861475831
0.0008861476183
0.0008861474838
0.0008861474621
0.0008861474798
0.0008861477666
0.0008861476629
0.0008861477149
0.0008861475122
0.000886147501
0.000886147525
0.0008861479442
0.0008861477679
0.0008861478146
0.0008861475346
0.0008861475511
0.0008861475785
0.000886148048
0.000886147847
0.0008861478583
0.0008861475411
0.0008861476061
0.0008861476325
0.000886147954
0.0008861478424
0.0008861477863
0.0008861475263
0.0008861476557
0.0008861476731
0.0008861476261
0.0008861476845
0.0008861476041
0.0008861474941
0.0008861476826
0.0008861476797
0.0008861474738
0.0008861474875
0.000886147547
0.0008861476771
0.0008861476616
0.0008861476745
0.0008861476599
0.0008861492075
0.0008861494517
0.0008861494433
0.0008861504196
0.0008861508498
0.0008861500517
0.0008861505013
0.0008861504833
0.000886150752
0.0008861499046
0.0008861505836
0.0008861505674
0.0008861484408
0.0008861485749
0.0008861485032
0.000886148366
0.0008861482908
0.0008861484831
0.0008861484227
0.0008861482597
0.000886148188
0.0008861483452
0.0008861479546
0.0008861480477
0.000886148066
0.0008861481522
0.0008861474836
0.0008861476694
0.0008861474537
0.0008861475289
0.0008861474412
0.0008861474919
0.0008861474719
0.0008861474489
0.0008861474622
0.00088614746
0.0008861474744
0.0008861474643
0.0008861474744
0.0008861475172
0.0008861474901
0.0008861475111
0.0008861475738
0.0008861475367
0.0008861475664
0.0008861476388
0.0008861475995
0.0008861476353
0.000886147704
0.0008861476731
0.0008861477111
0.0008861477531
0.0008861477499
0.0008861477784
0.0008861478013
0.0008861478324
0.0008861478669
0.0008861479563
0.0008861478805
0.0008861591376
0.000886160578
0.0008861475528
0.0008861475506
0.0008861533172
0.0008861591296
0.0008861546375
0.0008861535738
0.0008861533422
0.0008861561878
0.0008861519614
0.0008861515258
0.0008861516408
0.0008861528566
0.0008861527384
0.000886151277
0.0008861517481
0.0008861530078
0.0008861553686
0.0008861485114
0.0008861485026
0.0008861485233
0.0008861486071
0.0008861484302
0.0008861484707
0.000886148381
0.0008861483159
0.000886148222
0.0008861482029
0.0008861480441
0.0008861480763
0.0008861479938
0.0008861481668
0.0008861480822
0.000886147987
0.000886147702
0.000886147541
0.0008861477769
0.0008861476521
0.0008861475763
0.000886147532
0.0008861474877
0.0008861475087
0.0008861475002
0.0008861474831
0.0008861475101
0.000886147503
0.0008861475148
0.0008861475341
0.0008861475598
0.0008861475611
0.0008861476267
0.00088614763
0.000886147591
0.0008861476661
0.0008861477095
0.0008861477079
0.0008861478074
0.0008861477527
0.0008861478004
0.000886147888
0.0008861478464
0.0008861478858
0.0008861479563
0.0008861656632
0.0008861657205
0.0008861658898
0.0008861660913
0.0008861666813
0.0008861672596
0.0008861624168
0.0008861614125
0.0008861657395
0.0008861675006
0.0008861685175
0.0008861688948
0.0008861683645
0.0008861697082
0.0008861655971
0.0008861675101
0.0008861663119
0.0008861605536
0.0008861556342
0.0008861554685
0.0008861597538
0.0008861654184
0.0008861597467
0.0008861599593
0.0008861655614
0.0008861484691
0.0008861484094
0.0008861484658
0.000886148368
0.0008861483023
0.0008861483883
0.0008861480516
0.0008861482002
0.0008861481352
0.0008861518899
0.0008861486014
0.0008861501267
0.0008861481478
0.0008861478776
0.0008861480254
0.0008861478095
0.0008861475807
0.000886147689
0.0008861476006
0.0008861475729
0.000886147598
0.0008861475958
0.0008861476266
0.0008861476696
0.0008861477092
0.0008861477503
0.0008861477542
0.0008861479885
0.0008861479085
0.0008861479251
0.0008861478402
0.0008861480324
0.0008861480546
0.0008861479697
0.0008861494339
0.0008861505577
0.0008861481875
0.0008861477279
0.0008861475726
0.0008861476283
0.0008861475396
0.0008861475609
0.0008861475649
0.0008861476242
0.0008861477058
0.0008861477054
0.0008861477933
0.0008861477979
0.0008861684989
0.0008861691076
0.0008861698739
0.0008861702169
0.0008861644409
0.0008861669503
0.0008861690297
0.0008861710952
0.000886171162
0.000886170845
0.0008861705543
0.0008861692054
0.0008861683928
0.0008861701812
0.0008861684021
0.0008861712358
0.0008861695818
0.0008861770821
0.0008861662771
0.000886169896
0.0008861718957
0.0008861706924
0.0008861720757
0.0008861475485
0.0008861716533
0.0008861475526
0.0008861723431
0.0008861718523
0.0008861718892
0.0008861719533
0.0008861718748
0.0008861695688
0.0008861717031
0.0008861684343
0.0008861713895
0.0008861692495
0.0008861659388
0.0008861711254
0.0008861687968
0.0008861710244
0.0008861652384
0.0008861687886
0.0008861691005
0.0008861711176
0.0008861712771
0.0008861693797
0.0008861694029
0.0008861712791
0.0008861482278
0.0008861483251
0.0008861479405
0.0008861482105
0.0008861481045
0.0008861479998
0.000886147979
0.0008861674294
0.0008861562661
0.0008861620995
0.0008861528685
0.000886156999
0.0008861532111
0.0008861507836
0.0008861488262
0.0008861485401
0.0008861493572
0.0008861485537
0.0008861481106
0.0008861477257
0.0008861478709
0.0008861477224
0.0008861477461
0.0008861476877
0.0008861476883
0.0008861476355
0.0008861476687
0.0008861476524
0.0008861476743
0.0008861476957
0.0008861477274
0.0008861477579
0.0008861477652
0.0008861478024
0.0008861478753
0.0008861479254
0.0008861479221
0.0008861479044
0.0008861480386
0.0008861479696
0.0008861545468
0.0008861607315
0.0008861484011
0.0008861493141
0.0008861481014
0.0008861476267
0.0008861476353
0.0008861476363
0.0008861477168
0.0008861478012
0.0008861478037
0.0008861685492
0.0008861676683
0.0008861697131
0.0008861675363
0.0008861682334
0.000886170933
0.0008861692262
0.000886170055
0.0008861726279
0.0008861671689
0.0008861689515
0.0008861724003
0.0008861701558
0.0008861710095
0.0008861727022
0.00088617163
0.0008861720779
0.0008861476646
0.0008861723863
0.0008861479462
0.0008861730496
0.0008861727467
0.0008861728733
0.0008861729068
0.0008861729372
0.0008861729044
0.0008861727868
0.0008861665144
0.0008861661401
0.000886166874
0.0008861657952
0.0008861659754
0.0008861691101
0.0008861674885
0.0008861685566
0.0008861673824
0.0008861661612
0.0008861679174
0.0008861703241
0.0008861693423
0.0008861704192
0.0008861717333
0.0008861711961
0.0008861717394
0.0008861723818
0.0008861721018
0.0008861723547
0.000886172712
0.0008861725174
0.000886172647
0.0008861728362
0.0008861727388
0.0008861727748
0.0008861726634
0.0008861727732
0.0008861727037
0.0008861712689
0.0008861670028
0.0008861675558
0.0008861674531
0.0008861686562
0.0008861695291
0.0008861674311
0.0008861708578
0.0008861702886
0.0008861690696
0.0008861699797
0.0008861706506
0.0008861709204
0.000886171283
0.0008861718156
0.0008861719916
0.0008861722248
0.0008861725096
0.0008861724722
0.0008861726824
0.0008861727754
0.0008861726615
0.0008861727989
0.0008861727954
0.0008861727179
0.0008861727738
0.0008861727332
0.0008861726715
0.0008861726798
0.0008861726004
0.0008861481795
0.0008861479757
0.0008861731596
0.000886172238
0.0008861684066
0.0008861721047
0.0008861703588
0.0008861662076
0.0008861585058
0.0008861716493
0.0008861615
0.0008861569428
0.0008861515407
0.0008861722363
0.0008861533672
0.0008861509802
0.0008861728515
0.000886149536
0.0008861487069
0.0008861479651
0.0008861731845
0.0008861482434
0.0008861479904
0.0008861732243
0.0008861478579
0.0008861477955
0.0008861730676
0.0008861477753
0.0008861477807
0.0008861477334
0.0008861728707
0.0008861478017
0.0008861478292
0.0008861478844
0.0008861478188
)
;

boundaryField
{
    walls
    {
        type            zeroGradient;
    }
    wallFilmFace_top
    {
        type            zeroGradient;
    }
    region0_to_wallFilmRegion_wallFilmFace
    {
        type            zeroGradient;
    }
    mirrorFace_top
    {
        type            zeroGradient;
    }
    region0_to_wallFilmRegion_mirrorFace
    {
        type            zeroGradient;
    }
    procBoundary3to2
    {
        type            processor;
        value           nonuniform List<scalar> 
64
(
0.0008861474211
0.0008861474533
0.0008861476596
0.0008861475964
0.000886147888
0.0008861649496
0.0008861681
0.0008861692054
0.0008861711414
0.0008861475129
0.0008861475005
0.0008861475001
0.0008861475001
0.0008861455188
0.0008861474103
0.0008861474103
0.0008861474103
0.0008861474103
0.0008861474103
0.0008861426595
0.00088614248
0.0008861428821
0.0008861439593
0.0008861439593
0.0008861473966
0.0008861473974
0.0008861473974
0.0008861474997
0.0008861473901
0.0008861473901
0.0008861478477
0.0008861539593
0.0008861539593
0.0008861577563
0.0008861613369
0.0008861474524
0.0008861462283
0.0008861474738
0.0008861473231
0.0008861481708
0.000886150681
0.0008861679612
0.0008861689065
0.0008861674326
0.0008861714338
0.0008861705044
0.0008861474738
0.0008861481708
0.0008861474657
0.0008861474376
0.0008861475362
0.0008861480368
0.0008861475964
0.000886148365
0.0008861668248
0.0008861524223
0.0008861580985
0.0008861687632
0.0008861654645
0.0008861713943
0.000886167683
0.0008861689792
0.000886172352
0.0008861711841
)
;
    }
}


// ************************************************************************* //
