/*--------------------------------*- C++ -*----------------------------------*\
  =========                 |
  \\      /  F ield         | OpenFOAM: The Open Source CFD Toolbox
   \\    /   O peration     | Website:  https://openfoam.org
    \\  /    A nd           | Version:  8
     \\/     M anipulation  |
\*---------------------------------------------------------------------------*/
FoamFile
{
    version     2.0;
    format      ascii;
    class       surfaceScalarField;
    location    "0.2/wallFilmRegion";
    object      phi;
}
// * * * * * * * * * * * * * * * * * * * * * * * * * * * * * * * * * * * * * //

dimensions      [1 0 -1 0 0 0 0];

internalField   nonuniform List<scalar> 
2727
(
-2.982920839e-09
-1.040375087e-09
6.703020907e-09
8.001850809e-09
0.0004659301145
-7.007202924e-05
2.045468845e-06
-4.665124022e-08
2.43953235e-06
-2.716418037e-08
4.18109576e-06
-4.107315218e-06
1.651407554e-05
-0.001016492743
-1.059975323e-06
0.000483661725
0.002493240938
0.002168300956
-0.003132842834
-0.002578327405
0.002047141149
0.0002681933907
-0.001622359591
0.0006738887039
-0.001144589486
-0.000987073861
0.001285833996
0.0001512890123
-0.0003332419038
2.683072243e-05
5.949391492e-05
-1.989170881e-05
-1.416712399e-05
2.133084527e-05
0.000103727795
5.64809077e-06
-2.762021099e-05
-4.113765355e-05
0.0002112079776
8.42424392e-05
-7.637983941e-05
-0.0001329286772
0.0002799294368
0.0001887354926
-0.0001362324153
-0.0002508195157
0.0003280359913
0.0003158103765
-0.0002157616764
-0.0003820579938
0.0003634611971
0.0004422708731
-0.0003099293851
-0.0004887094467
0.0003648459972
0.0005186446798
-0.0003915928067
-0.0005326270617
0.0003423863145
0.0005342375631
-0.0004252998511
-0.0005291567372
0.0003156582714
0.0005235661036
-0.0003998219719
-0.0005215049468
0.0003182378018
0.0005244648034
-0.000343585616
-0.0005553566448
0.0007479585646
0.0001163462683
-0.000243786611
6.929303449e-10
-4.741317098e-10
7.123073051e-11
-5.554814272e-11
-8.358086968e-10
6.971111902e-09
1.066637142e-09
-2.996451225e-09
8.059575945e-09
-2.206171343e-09
1.9581299e-09
-3.056298703e-09
3.106158996e-06
-1.265746872e-09
1.148226145e-07
-8.774856366e-06
0.003402898565
0.0009478513722
-0.001524967048
-0.003898602688
0.001522783542
-0.0004330534076
0.0009329821658
-0.0009340337226
-0.001381668148
-0.0008611038116
0.0003877626351
0.0005537251168
-0.0001916790857
8.158720382e-06
1.903266056e-06
-4.956122015e-07
1.115427383e-05
2.487898433e-07
1.929139422e-06
3.465031199e-05
-6.192894054e-06
1.350302479e-05
-1.442062236e-05
7.004160155e-05
-2.490488654e-05
4.226951983e-05
-3.304859929e-05
0.0001259606457
-6.808307356e-05
0.0001050882096
-6.594577598e-05
0.0002107646111
-0.0001560058365
0.0002228342168
-0.000122179748
0.0003178767493
-0.0003058533189
0.0004023893947
-0.0002090451953
0.000417210732
-0.0005061838756
0.0006073804994
-0.0003217173922
0.0004674131378
-0.0006941309504
0.0007545342429
-0.0004331632753
0.0004526769414
-0.0007817294683
0.0007630390954
-0.00049513427
0.0003165476058
-0.0007756631118
0.0004856936
-0.0001522297445
7.500866317e-11
2.821306661e-11
-1.028356686e-09
1.185491222e-09
1.527154864e-11
-1.259227356e-10
3.928615639e-10
-4.068986579e-11
-6.709711903e-11
8.88493236e-10
-6.628034206e-11
-2.314674509e-10
-1.454134563e-10
6.428070021e-11
1.088998927e-09
-2.733877986e-10
-4.937176979e-10
2.035194627e-10
2.339868895e-05
-1.483366374e-10
1.491721057e-06
-5.997565534e-05
0.004108618506
0.000746667011
-0.002089528209
-0.002851656572
0.000958973886
0.000149745385
0.001798121908
-0.001207126732
-0.001563344397
6.568709309e-06
-1.317193589e-06
3.046717495e-06
-3.542312554e-06
1.636969082e-05
-6.114985306e-06
-9.247143359e-06
1.125140958e-05
3.535026398e-05
-1.949428235e-05
-2.104484191e-05
3.225624154e-05
7.011932837e-05
-5.140479676e-05
7.927886748e-05
-4.381854237e-05
0.0001291245548
-0.0001187192311
-8.454548366e-05
0.0001729143198
0.0002185139326
-0.0002448761541
0.0003368392323
-0.0001505334249
0.0003318216254
-0.0004491149563
-0.0002430259929
0.000577780927
0.0005262081847
-0.0006966617704
0.0006133768399
-0.0002540425244
2.012702009e-19
2.42488209e-20
-1.139593507e-22
-8.640099924e-20
-6.241647939e-23
1.962455788e-21
-6.105543219e-21
1.475801636e-20
-4.362098241e-20
3.700411161e-16
-1.530782799e-15
1.307441854e-15
-9.311957493e-13
-2.675686524e-15
1.339607323e-13
-2.668583538e-14
3.385273366e-11
-1.6694657e-10
1.833691265e-10
-9.923535102e-14
-2.159020549e-10
-2.053441033e-08
-7.778715265e-08
1.188720597e-07
-5.334520292e-09
6.264162785e-09
3.190817128e-08
-2.604883542e-08
2.571154646e-08
-5.255622751e-09
-5.082368492e-11
-1.643408978e-08
6.107805484e-11
1.996865435e-11
1.530719307e-11
-5.132669815e-11
4.24268951e-11
-4.170314126e-11
-6.434196064e-11
6.386562333e-11
1.245630697e-10
4.825834789e-12
6.414439518e-11
-4.040575312e-11
0.002614710265
-0.001665869068
0.001021210111
-0.001618400181
0.001456587236
0.001767368696
0.0001987968897
-0.0003787787933
-0.001096747529
-0.001303117218
0.0001991847732
0.001660796538
-0.0004666062883
-0.0004755594866
-0.0004172799495
9.654564478e-22
3.443743751e-21
-3.546510939e-24
-1.240086329e-22
2.128779543e-22
-2.695549172e-24
6.597613057e-23
-1.118895291e-23
2.0487041e-15
1.321244951e-15
-2.980196195e-15
-6.664187961e-20
-1.036423224e-14
3.680819405e-14
3.490984096e-14
-5.555814922e-14
1.283671437e-13
-1.816486979e-13
-8.196585825e-14
1.568306584e-13
3.004016927e-08
-1.153493059e-08
-7.470284293e-09
-2.637410502e-13
-6.070384946e-09
4.617376631e-09
-4.109501154e-09
1.368837707e-08
-2.765066937e-09
3.650778713e-10
4.047027252e-09
-7.573250338e-10
1.027803755e-10
-1.042082659e-10
7.347419827e-11
-6.617088158e-12
-2.879720562e-11
3.255761256e-11
8.48200244e-12
-1.966891757e-11
1.318676896e-11
-1.507481978e-11
0.0004295586645
-0.0007248870846
0.001073852359
0.0003314842398
-0.0006143049226
0.000654912458
0.0008501383549
0.0002130037048
-0.001208588092
-0.0001237902376
3.148226845e-24
7.945998148e-25
-3.70059559e-27
-1.385120229e-24
1.219444997e-24
-2.685235102e-27
3.28839897e-25
-7.521147503e-25
4.756088876e-15
-6.361795769e-20
2.712626752e-15
-6.89471768e-15
-1.383471367e-13
9.25021945e-14
-2.427576783e-14
7.91679846e-14
2.817310996e-13
-3.960697963e-13
-1.764366213e-13
3.20672437e-13
6.122242027e-10
-5.194477886e-13
-5.177591859e-11
-1.869705027e-10
2.486496285e-10
-8.176851844e-12
3.746113288e-11
-3.60184791e-11
7.657600016e-11
-3.928253311e-11
1.165621626e-11
-3.542231011e-11
1.222761305e-12
3.692477741e-12
1.060469456e-11
1.088615047e-11
-1.07093652e-11
-9.764555208e-12
8.896031194e-12
-1.330680824e-11
1.181397637e-11
-4.28268671e-12
-1.07983197e-11
7.730109002e-13
4.916910526e-11
-3.524262159e-11
2.725677863e-12
2.729255113e-11
-9.69005411e-12
-2.1338917e-11
6.260126671e-12
0.0001246111558
5.715347526e-06
-7.139780209e-06
-8.18761151e-05
1.078272806e-08
-1.317347402e-08
-8.943876804e-10
3.8874965e-08
4.956437559e-08
-1.023054953e-07
-5.63753251e-09
2.481741823e-07
1.207599502e-06
1.969953224e-07
-5.635558453e-07
-2.780136852e-08
-2.454764486e-06
6.749546271e-07
-1.099531711e-07
4.752659768e-06
1.556835995e-05
1.996205258e-06
-8.788966595e-06
-3.587694331e-07
-2.646489098e-05
4.327699978e-05
5.138527131e-06
-9.880260052e-07
-6.818296431e-05
1.162177958e-05
-2.314131414e-06
0.0001036175984
2.344024277e-05
-0.0001517080503
-5.23468682e-06
0.0002135789164
9.068749053e-05
0.000251907448
-1.490756399e-05
-0.0002326870782
-1.031453413e-10
1.431348609e-08
-1.134102569e-08
6.517544709e-10
-1.832762599e-09
-9.596933014e-09
1.227078647e-08
2.44274135e-08
-8.202450826e-11
-5.347037275e-11
-1.109978811e-09
1.086858788e-10
2.723599144e-09
-1.473868248e-09
3.945157556e-11
7.701392271e-09
8.32885637e-10
-3.27712663e-09
0.001348399753
0.0009483146965
-4.166174371e-08
0.0004372196746
-1.79767448e-08
4.251568219e-06
6.559519915e-09
-1.061268948e-08
3.810466629e-09
-6.105357736e-09
-0.0005810527997
0.00146828075
4.331002784e-08
-0.0008120503486
-0.0006989141371
4.941921779e-07
1.164892495e-05
-2.359981496e-06
-1.172299189e-05
-3.131945543e-08
-8.060345112e-07
4.860658306e-09
6.509441626e-09
3.52039058e-10
6.351839034e-07
-7.430862573e-06
1.682018947e-05
-8.78398056e-06
6.794671865e-08
-5.599338035e-07
8.755375146e-10
3.753229757e-07
5.456133605e-09
6.540684285e-07
-1.854712778e-05
2.064021007e-05
2.482574736e-06
1.34875572e-06
-5.143855271e-07
2.180738466e-08
3.438789252e-06
7.494148445e-08
1.306238154e-06
-2.503126813e-05
3.302676987e-05
4.90639687e-06
6.650081571e-06
-9.068443948e-07
1.618401658e-07
1.143320025e-05
3.982664779e-07
1.619213601e-06
-4.48652057e-05
6.368054596e-05
5.654706282e-06
1.001607651e-05
-1.558908676e-06
3.49350476e-07
2.320649789e-06
6.123443859e-08
-2.217565456e-08
-9.511528166e-05
0.0001453258403
4.660878604e-07
1.917965052e-07
-1.251567287e-06
-5.821050689e-13
8.971297309e-08
-3.964795478e-13
-1.449400178e-06
-0.0002361372493
0.0003999039582
1.101099706e-05
2.863537217e-07
3.423264808e-07
-1.252883268e-12
1.087894098e-06
-1.995014308e-11
5.172470546e-05
-0.0007490067666
0.001239120131
-0.0001905827832
4.901217816e-06
5.866702835e-07
-4.092193271e-11
0.0001272299168
5.739530247e-06
0.0002976597256
-0.001990129803
0.001915136441
-0.0006124147705
0.0003410287801
-0.0001833293372
2.05306802e-06
0.0003884495606
1.379980449e-05
8.193765421e-05
-0.000716394594
0.0004157091172
-4.899284078e-05
0.0002492195445
-0.0001443861233
1.922221822e-05
2.128548317e-05
0.0001681996209
4.378561559e-19
2.169060683e-19
-2.199200781e-18
-1.882900257e-32
-4.037093313e-19
7.128888241e-32
-9.887845549e-31
1.483909706e-31
3.976698081e-20
1.768150502e-19
6.987019773e-20
-5.255476594e-33
-9.788818086e-18
1.088780397e-29
-1.942283073e-31
7.934180946e-32
1.407581133e-16
-6.727639061e-18
1.336863152e-15
-1.294276259e-28
-9.912166386e-19
3.103059103e-30
-1.733084508e-26
4.238352766e-28
1.921935909e-13
-2.201131288e-13
6.911699578e-12
-5.575551841e-25
-6.436450247e-15
1.898547684e-26
-2.429801028e-24
5.819546138e-25
2.129553651e-11
-1.059642988e-10
2.262300872e-10
2.033634446e-25
-1.545910424e-12
4.683024697e-24
3.614379756e-23
6.819861824e-23
2.386033494e-15
-9.248658454e-12
4.45856414e-15
1.39544595e-24
-1.666656824e-12
2.343429166e-24
1.569963163e-28
1.415725834e-27
-7.483284622e-32
-2.213675277e-19
2.582438345e-19
-2.556051924e-35
1.654667725e-31
2.359359862e-34
-1.475173777e-35
3.04228502e-34
-1.317828116e-29
-3.795958274e-18
1.231221813e-16
3.358019294e-37
3.941421783e-31
4.719501996e-34
-6.231171873e-35
6.255574141e-34
2.498645215e-08
-2.466085613e-10
5.002657442e-07
1.667858856e-31
2.647907397e-29
8.803676216e-34
9.046128226e-18
-1.782562352e-32
1.629511918e-08
-4.329831701e-07
1.560177449e-06
1.174645114e-18
3.082426204e-13
-7.261635084e-32
3.406889607e-14
-5.261407803e-32
6.305065655e-07
-6.57318733e-06
1.327362128e-05
5.803815443e-12
-7.39812637e-07
6.858439166e-13
5.525476278e-08
4.305106766e-13
2.056428406e-05
-3.77461424e-05
6.121689049e-05
-5.02233128e-05
7.718528075e-06
-7.797948836e-06
5.518371563e-07
2.460749788e-05
4.780583972e-06
7.86217681e-05
-0.0001380471865
0.0004119365873
-0.0003784222417
6.932023006e-05
-7.367173654e-05
3.474327879e-05
-9.099011191e-05
0.000536936642
2.073608429e-44
-1.487746443e-43
-6.356464329e-43
-8.598415149e-58
-3.776254644e-42
4.069009919e-42
-2.937969687e-55
2.136268584e-57
2.833457357e-44
7.293071706e-45
-4.454479032e-43
-3.132195783e-57
-2.80632295e-42
4.99142081e-55
-2.212787132e-55
6.247007685e-57
2.377702295e-40
6.408295902e-41
-3.54507929e-39
-2.871943883e-53
-1.559211046e-42
4.463682719e-55
-1.849681821e-51
7.230271102e-53
8.340811877e-37
1.383322756e-37
-1.426280714e-36
-6.838667847e-50
-1.928851561e-38
5.283429259e-51
-4.772577826e-49
2.405587807e-49
9.970287673e-35
2.18534893e-35
-4.106556991e-37
-5.704902286e-48
-6.88419937e-36
2.049909046e-48
-5.258315608e-50
3.038192834e-47
2.7599414e-40
6.082688482e-41
-2.898052258e-47
-2.124403359e-54
-1.704539912e-36
3.751232462e-49
-2.350150283e-59
2.557404672e-53
1.37938054e-45
-1.005170879e-46
9.972552977e-47
6.902371126e-59
-1.043525525e-45
1.368588372e-57
2.376591754e-58
1.810261025e-57
3.82564127e-45
3.453057249e-47
1.607532823e-46
7.935998778e-58
-2.368002367e-45
3.386371676e-57
2.293759907e-57
6.348897107e-57
1.182434996e-34
-7.504053198e-46
3.355483603e-35
3.287187945e-57
-3.997764057e-45
6.414060056e-57
1.016973377e-46
1.416773909e-46
6.502005294e-35
-3.114687547e-35
3.941612987e-35
1.116031574e-46
-8.031158566e-35
1.134226393e-46
8.914656086e-47
6.445580437e-47
2.642213268e-25
-4.507738375e-25
6.673618368e-18
8.252357647e-38
-3.961401897e-25
9.108312319e-38
1.784492225e-37
6.814573511e-38
1.810905995e-07
-8.674557838e-08
5.365748909e-06
2.938575738e-17
-4.292726474e-11
7.368086248e-23
1.336369135e-07
8.606377327e-14
-3.305269903e-06
-2.892772794e-05
5.193846345e-05
1.764116532e-05
-1.928963912e-05
8.775890529e-06
1.140941373e-05
1.87862111e-05
3.918870013e-61
1.239304255e-61
-4.94984773e-68
-1.105107099e-61
-9.682390064e-42
7.976057477e-43
-4.384226697e-75
1.130922071e-61
1.312554279e-69
4.994441183e-70
-4.994049505e-68
-1.420499761e-82
-8.560312207e-68
3.263047271e-75
-1.428843846e-80
1.769976704e-82
1.872002433e-65
6.439257132e-66
-3.999056936e-64
-1.718961869e-78
-1.130998199e-67
1.731069722e-80
-8.725108879e-77
2.881868847e-78
5.79523344e-62
1.475607684e-62
-9.929001848e-62
-2.624340099e-75
-1.255814018e-63
1.86060111e-76
-1.207033597e-74
8.709340473e-75
7.446355952e-60
8.293043968e-61
1.049660545e-61
-7.80623167e-75
-5.011152929e-61
7.934323903e-74
1.646491086e-73
1.174525916e-72
1.852346757e-66
-1.168993427e-62
6.051259052e-67
2.379827656e-75
-6.954956539e-62
8.808480166e-75
3.55607603e-80
8.569971051e-80
1.401173535e-69
-4.745478825e-70
7.418504105e-70
2.13921576e-82
-1.058429669e-69
4.118167649e-82
3.419428858e-82
5.129478324e-82
5.59047181e-69
-1.5594852e-69
3.441650268e-69
8.218460107e-82
-2.789896828e-69
1.07307473e-81
2.030337913e-81
2.170579399e-81
6.67091424e-59
-3.939474155e-69
5.630731701e-59
2.398474067e-81
-5.613344672e-69
2.225213201e-81
1.708779222e-71
1.303170599e-71
2.305822978e-59
-6.533328428e-59
3.326979597e-59
2.128468039e-71
-6.076617111e-59
1.318853832e-71
6.850182442e-72
3.281102927e-72
7.973559188e-51
-2.441877824e-50
2.216842506e-50
2.067832983e-63
-1.060859008e-50
6.492175761e-64
2.386315589e-63
4.458235554e-64
3.814096111e-26
3.146015394e-24
2.069677503e-14
-7.81658312e-33
-5.256911158e-35
-2.594420741e-50
9.995769687e-23
3.359372953e-34
1.02920287e-05
-1.805194231e-05
3.134189021e-05
3.016729518e-06
-7.135245797e-06
1.51297457e-06
2.991370605e-06
-2.224673694e-07
-6.907409508e-05
-6.609226487e-05
0.0002157847781
0.0001051212891
0.000163389073
-0.0005137677469
-0.0001301333208
1.555687972e-54
-1.045878523e-40
-2.35985925e-75
2.648027911e-34
-6.68194802e-41
1.830428455e-35
-1.915699484e-75
5.522436249e-47
2.514870682e-89
3.074202558e-89
-2.031365261e-93
-2.675242686e-89
-1.163237759e-75
4.319392947e-76
-2.13336144e-92
8.22560496e-90
2.552642346e-91
2.446785378e-91
-1.212241691e-89
-4.034005694e-91
-1.582474065e-93
5.650862522e-93
-8.255978862e-93
1.349643352e-91
7.619034881e-88
3.749013768e-88
-1.988432326e-87
-4.895681343e-93
-1.6324616e-89
4.401975485e-93
-9.416860967e-93
4.115030639e-93
1.080845169e-85
6.569303194e-87
1.724058067e-86
-3.053783525e-92
-7.641120856e-87
1.671863913e-92
-2.681426681e-94
8.513590169e-92
2.349410289e-93
-2.497143208e-88
1.526226372e-93
8.02166324e-94
-7.163483309e-88
4.592319753e-93
4.395826235e-93
5.519842955e-93
8.516288886e-95
-6.438879929e-95
9.882209313e-95
6.572226891e-93
-8.268492342e-95
6.981956467e-93
7.692123773e-88
1.939359695e-88
3.4650235e-94
-2.454760716e-94
5.862793537e-94
8.825013092e-87
-2.013149746e-94
2.708051043e-87
9.250962399e-85
-1.126502412e-72
9.596611358e-85
-6.853439021e-94
2.313252786e-84
2.166362186e-79
-3.741374903e-94
1.526320283e-81
2.993549676e-75
-2.433715002e-62
1.632499385e-85
-3.009580671e-84
6.812384517e-85
2.84504848e-72
-1.014861827e-84
-3.865696077e-60
2.788094408e-71
-3.311060859e-59
6.014676443e-68
-7.919422051e-73
6.052100804e-66
3.186194778e-59
-1.020435526e-73
-1.931749327e-47
2.222982876e-51
-1.469012109e-38
-3.105701558e-35
-1.286130184e-48
1.441339885e-27
-3.640080552e-36
2.972906223e-38
-3.584402156e-25
6.16466243e-30
6.240334734e-34
-2.268444808e-05
-3.648756212e-08
3.188832776e-06
6.851119038e-09
-3.468422074e-11
-5.362425492e-08
3.338125588e-05
-0.0001100353458
-0.003716104628
-0.0001869339497
0.0003376544166
0.001294543537
-0.002335585648
-0.006776697473
1.759883774e-45
-2.248431454e-32
-3.064368038e-69
2.921849578e-30
-2.909614554e-34
-2.347652064e-29
-1.101146231e-67
1.600207966e-44
-1.990405003e-64
6.146772259e-78
-1.560054649e-74
-1.126557504e-63
9.367823503e-69
-5.902629448e-55
-8.205295505e-61
-2.669816762e-50
-8.129090147e-61
9.438458128e-74
-2.927115486e-74
-2.133465793e-60
2.2635777e-61
-7.176304004e-48
-8.411362907e-61
-1.013340939e-47
-3.430899714e-62
1.848364116e-75
-4.758728874e-80
-6.636086454e-62
3.587348683e-61
-5.801600149e-48
-5.995163407e-68
-6.463950886e-49
-1.792940342e-67
1.597277382e-79
-2.274840947e-81
-2.786155696e-67
2.246645651e-68
1.755836019e-68
-9.919143754e-69
9.1017767e-68
-6.763645864e-63
-1.410688711e-81
6.218757105e-77
-4.456091759e-63
4.814135634e-69
2.110734107e-69
-6.429753007e-62
-2.075151877e-49
-4.44062573e-60
-4.987975138e-75
4.376360828e-73
-5.08141481e-61
1.18102643e-61
-1.462033532e-48
3.778618604e-61
-1.76209198e-47
-7.329650143e-59
-2.394044005e-72
2.052896341e-71
4.117917948e-60
1.203649029e-59
-3.905349617e-47
2.963265379e-59
-1.30952324e-46
-1.807391999e-48
-1.582891912e-64
1.83632443e-61
2.05937579e-51
3.008076778e-51
-5.300452443e-38
1.283201288e-48
-1.381949506e-35
-2.812706831e-46
-3.520310357e-59
1.953863551e-58
5.953387163e-47
6.320886391e-47
-8.452731623e-35
2.59186633e-46
-3.445605786e-34
-5.608078697e-34
-4.917823988e-47
-2.756987727e-25
-1.424197425e-34
4.907873456e-35
3.768868649e-32
1.579323158e-27
1.131131887e-29
-1.008589035e-09
-3.566370623e-23
6.445101425e-12
4.918068281e-10
1.344435045e-12
-9.189576328e-07
1.181479689e-06
-3.565917977e-06
-0.0003355733488
-3.439617438e-06
9.420174162e-05
4.514487259e-05
1.157263999e-05
-0.0001112460663
-0.0009449433943
0.0003982295981
1.071188747e-15
8.301712784e-17
9.043076319e-16
3.39085649e-15
-1.505899499e-44
-7.276024817e-29
-3.017960185e-54
-1.423979395e-44
8.515768375e-28
-3.081075343e-27
-1.817482807e-40
-5.628575108e-33
-1.390872322e-36
8.563298191e-50
-1.523811043e-47
-2.126078289e-36
9.25396971e-41
-4.687315271e-27
-6.611076048e-35
-2.287717783e-23
-3.499138273e-35
1.697752243e-47
-9.376294095e-48
-2.851748513e-35
6.008728342e-35
7.826207095e-34
-1.878320914e-35
3.311742074e-33
-6.728031272e-36
1.127466037e-48
-3.211243361e-56
-2.695828816e-36
3.115822357e-35
5.920096676e-34
-4.287265838e-45
3.781830075e-35
-3.399792333e-44
1.070653417e-55
-4.276784191e-57
-2.630076996e-44
1.261879648e-44
4.269841934e-44
-1.740841093e-45
3.011440722e-43
-3.840407541e-36
1.061236347e-49
-1.601832671e-49
-2.158576305e-36
1.618710176e-45
1.973492158e-45
-3.369993285e-36
1.448748363e-37
-2.524067522e-35
-4.666253857e-49
5.756709382e-48
-5.208616963e-36
8.516156171e-36
1.127504486e-33
-7.077420875e-36
7.732815638e-32
-6.780571321e-35
-1.665029103e-47
4.580809327e-47
-1.013685061e-35
4.061964589e-35
9.95287625e-31
-1.182534566e-25
5.124027748e-30
-1.741758228e-23
-2.294651102e-38
5.664031067e-36
-4.776722274e-23
3.825448712e-25
-1.404718728e-12
1.010442239e-21
-1.990385665e-10
1.656029997e-34
1.783117889e-34
2.044691059e-31
6.324717852e-20
-9.493912691e-33
-4.180074282e-09
5.160764807e-13
-8.454964073e-11
-1.733795499e-07
-1.873646932e-15
7.666266876e-09
4.806188238e-07
5.443512595e-08
-8.845286644e-06
6.349072432e-06
-1.594232441e-05
-5.58503116e-05
-7.683875346e-06
2.698077662e-05
8.492340509e-05
2.446351778e-05
-0.0001723484109
0.0001884207623
-0.000310220689
-0.001976300669
-0.0002174142665
0.001005415665
0.0008342168368
0.0004853661386
-0.001266477225
0.002661467244
-0.003591888695
1.981989039e-15
-1.844714142e-08
8.128492851e-16
-6.192263024e-18
-1.528859283e-12
1.304722125e-29
3.399718282e-33
-2.953574642e-27
-9.922503857e-17
-4.539189099e-25
-2.808538012e-08
-1.070331634e-12
-2.015539086e-07
-8.614819061e-11
1.231880778e-23
-1.282067032e-21
-1.266255747e-09
4.557821642e-14
-2.263555617e-06
-6.367225831e-08
-9.618182571e-06
-9.133629809e-09
1.610188237e-20
-3.395427546e-21
-2.213157851e-07
4.051424115e-09
-1.447596577e-05
-1.43402993e-07
-1.158714372e-05
-1.136201303e-09
-1.844089276e-21
5.858481895e-22
-4.719258062e-08
2.98532696e-09
-8.647436512e-06
-1.297367317e-08
-6.981608273e-06
-3.151867903e-11
-6.543916539e-23
-2.222481304e-25
-1.823224811e-09
3.07208846e-10
-5.510631519e-06
-1.448229218e-10
-4.020007953e-06
-4.736522511e-10
8.507975726e-23
4.925540964e-22
-2.664680678e-09
4.024010783e-12
-3.491415433e-06
-8.951481653e-08
-9.784316881e-06
-5.055714737e-08
3.340268451e-17
-3.185228866e-15
-6.519124275e-07
1.263990457e-08
-1.656761847e-05
-2.247495944e-06
-1.228543992e-05
-2.734898493e-07
1.443838879e-13
-2.01102982e-11
-5.848623573e-06
1.11112089e-07
-1.284679867e-05
-1.548966624e-05
-1.215983063e-05
-3.086368651e-06
1.1688958e-09
-1.933672994e-08
-2.868974694e-05
1.112877403e-06
-1.921633808e-05
-2.297633185e-05
-2.361671923e-05
-1.07497816e-06
4.256702447e-09
5.696407927e-07
-3.300711291e-06
3.110680013e-06
-1.822888343e-05
1.443755244e-05
-2.628282553e-05
-0.0001205193959
-3.693672094e-05
0.0001002643404
0.0001884473509
5.845048462e-05
-0.0002741274247
0.0004688951883
-0.0004451295681
-6.594178985e-16
3.741655365e-16
-2.041290155e-17
2.188883862e-15
-5.388120959e-18
-2.150452014e-16
-2.68258616e-18
2.358675291e-18
-4.140996383e-18
2.32345944e-17
-2.295087175e-19
4.155835386e-17
-1.377610714e-17
-4.09593398e-19
-4.482492833e-19
-4.018474895e-17
-4.027682993e-18
2.412753503e-17
1.997155615e-16
1.312972463e-18
1.849341978e-17
-4.921216225e-18
5.853950166e-18
-1.086131181e-17
-3.696760633e-05
6.539002957e-14
-0.0002461367899
0.0001192506201
-1.181887627e-15
1.299334463e-15
-1.040220868e-15
-9.701161038e-05
-4.229446067e-11
-0.001099875647
0.001234943377
-0.0008306914711
0.001110872139
-0.001239621482
0.0008552452562
-0.0004686094282
-0.0009424407178
-0.001012611056
-0.0002936408913
0.000404778461
-0.000166479708
0.0002239394934
-0.0005801045796
0.0005748764426
-0.0005667907313
-0.0003301986726
-0.0003862620857
-6.143467175e-05
4.693575031e-05
-3.614632893e-09
2.512992257e-05
-0.0001340033342
0.0001540627495
-0.0002915287128
-4.690146489e-09
-0.0001781214637
-1.041297495e-06
-1.793868232e-09
1.584740712e-07
2.167875923e-06
1.945374474e-09
8.789061328e-09
-1.235305813e-08
4.692491399e-08
-4.829547008e-07
-4.903216347e-08
3.1003981e-09
9.400887754e-10
5.759209633e-08
-5.014241224e-10
2.742685464e-07
-1.640421703e-07
-3.682713743e-08
-4.806401342e-09
3.891840936e-11
-6.186760349e-10
7.779138022e-10
2.040533726e-11
-3.221138993e-11
-2.770606315e-10
-2.239601607e-10
7.499573132e-10
-9.283288405e-11
-1.863307212e-10
5.385169991e-10
-1.200121108e-10
1.875715167e-11
-2.089757599e-10
-3.616412009e-09
-9.361137793e-11
7.935295173e-09
-3.873036262e-10
3.343810958e-10
-6.674499643e-10
-6.059389753e-10
-8.479401492e-17
-1.58471013e-18
3.147630382e-20
-1.746326697e-20
-1.537178504e-19
-4.246028237e-19
1.692147695e-18
-4.124326726e-18
-6.814094001e-13
-2.206442554e-16
-1.156697209e-10
-0.0007331775414
0.0009540873363
-0.0009153063206
0.0007548620602
-0.0006125827056
-0.0004039876285
0.0003860358314
-6.36664676e-09
-0.0005309921889
-2.587952186e-07
-2.534666671e-09
2.841920985e-08
-1.06407615e-18
-2.207565915e-18
5.559643199e-18
-1.676873083e-20
-3.763787854e-12
-7.681408619e-15
-4.31823556e-16
-0.0004671585404
0.0001417703611
-0.001223818331
2.301826576e-10
0.0004396484196
-0.001349938485
7.855415941e-08
-1.057964833e-07
-6.307324703e-09
-5.048178609e-08
-2.610220528e-09
1.909879881e-08
1.248858363e-08
-7.945704644e-11
9.729089126e-08
5.033199696e-12
-2.22167073e-09
-8.572045473e-11
-3.826308274e-10
-7.329316239e-10
-1.262975423e-10
-5.084859316e-11
-8.753997553e-11
1.734367515e-10
-4.56256876e-11
-2.490427605e-11
-5.339342462e-11
-2.835904995e-11
1.270395084e-12
-9.23568299e-19
2.067720578e-21
-8.709749963e-22
-1.690122024e-19
2.061828667e-19
1.526206575e-21
-5.414273528e-23
6.694106188e-20
-1.378643937e-19
-9.239489874e-15
8.103051163e-16
-5.612346779e-14
-1.344664027e-13
2.985087568e-11
9.489675345e-14
-4.876047979e-14
1.591428618e-13
-1.745341288e-13
-0.001981592693
0.002316687417
-2.739707331e-08
-0.001360263705
1.008385639e-08
-5.685991769e-08
-2.773639696e-10
-1.727736976e-09
-5.303397828e-11
1.679771914e-10
-6.394221198e-11
2.584007562e-10
-9.712175996e-11
-2.349674815e-11
-2.903474326e-11
-1.075697408e-11
7.826301542e-11
-7.957116019e-12
-2.048533633e-11
-1.189183473e-11
-2.058662831e-13
2.96987806e-11
-1.936427775e-11
-1.896142661e-11
1.305309944e-11
2.579477044e-11
-2.001621156e-11
2.9235655e-20
-8.333270439e-22
8.106398595e-20
1.369293634e-19
-4.23575887e-24
-1.499523915e-19
1.295267736e-14
-1.992123266e-14
2.360399615e-15
2.817248591e-13
-1.505099323e-13
4.700638711e-13
2.50671456e-13
-3.939692232e-13
-0.0007224030525
-2.523904037e-09
1.452654241e-09
-0.0002252259145
1.501456376e-08
-2.789513581e-09
1.172259431e-09
4.635286729e-10
-9.349018772e-11
4.459264684e-12
2.069192167e-11
-1.333771426e-11
1.055990693e-11
-1.38694349e-11
2.654267291e-12
-2.952110134e-11
4.038624184e-11
1.382343639e-11
-1.596010302e-11
1.609585501e-26
3.277740541e-27
2.430854793e-27
-5.34517218e-30
1.683366598e-19
-4.15493636e-25
1.464726343e-19
-2.18455042e-19
-9.297254096e-13
5.487785069e-13
1.467108087e-12
-9.673679979e-13
1.764934865e-11
-7.20550216e-12
6.897317536e-12
-1.004600455e-11
6.419322365e-12
2.766657854e-11
-1.997182912e-11
-1.368408222e-11
-7.203118493e-12
0.000431615166
-0.0003600169438
5.99229552e-05
7.101619987e-12
-5.73272122e-12
-4.855091759e-16
-7.575043495e-12
0.0003069920361
-0.0002080261399
1.041750489e-05
4.267827159e-12
-1.318730812e-12
-4.183666829e-16
-5.632233229e-06
0.0001236382722
-9.486359268e-05
-1.828393305e-05
-1.371238776e-12
-3.835953868e-05
-9.571998343e-15
-0.0009871429208
0.0004296919937
-0.001466488477
-3.452423549e-05
0.0009290201997
-0.0016050383
-0.001167887245
-0.000515203599
0.001690942468
-0.0009112829837
6.939088646e-06
0.001076373352
-0.0004393516051
-0.0005276595155
-5.105433312e-05
0.001106719151
-0.0002781677938
0.0002639035201
0.0001227385615
-2.074993219e-05
-5.964253307e-05
-1.206905324e-07
0.0002769701162
-0.0003654917894
6.797454197e-05
5.842842414e-08
3.427633378e-08
-1.049502046e-08
-6.071033406e-05
-0.0006207017365
-5.901365595e-05
0.0009564856996
-0.0002051443768
-1.398155395e-08
-2.616887607e-06
9.994437796e-09
4.504352157e-09
3.318757766e-08
-3.606376397e-08
6.343280973e-06
1.933964342e-08
2.923365939e-08
-2.290013403e-08
-1.190368777e-05
9.622173264e-07
4.328675197e-06
5.837444393e-06
3.03997702e-06
-1.086587358e-05
-2.873351711e-05
-0.0006747548725
-0.000534663432
-1.082552354e-05
0.0002653479899
0.0001025022845
3.155087542e-08
1.58361564e-09
1.529784014e-08
2.830390183e-08
-6.874527309e-09
-0.0001653663367
0.0002479849153
-1.141613379e-09
-4.760408867e-05
-0.0001406502018
-3.212924294e-05
2.720355734e-06
4.171579749e-06
0.0001941777849
-9.261906312e-09
0.0004677462242
0.0004666168355
-0.0003250607863
-4.164759402e-05
5.976696654e-05
0.0008340402948
-0.003049403015
0.005631205978
-0.001858867765
-0.003505653613
0.0004488097622
-0.0006812837891
-0.0007706126992
0.002333572909
-0.002478287786
4.076276854e-08
-7.572152645e-07
-2.022078169e-05
2.000626049e-05
-0.0001548195685
-0.0001115410783
0.0003167754792
-0.0002819051253
-0.0001662505986
0.0002050325439
-0.0001472443476
-0.0001325181342
9.664711654e-05
-5.289145535e-05
-0.00012083463
3.043583637e-05
-6.83853324e-05
-0.0001124490549
0.0001568460192
-0.0002173015997
-0.0001395073063
0.0002457470188
-0.0002529890172
-8.137223726e-05
0.0002104067666
-0.0001360242131
-0.0001023637426
5.058761666e-05
3.674414707e-05
-0.0001154813662
-0.0001689154515
0.001085433304
-0.001287733823
0.0001687086879
0.001041454553
-0.0008194381686
-0.0002883815284
0.002095645113
-0.0003906643243
-0.001200098421
1.434420625e-16
8.998157945e-17
1.478866407e-14
0.00108971271
0.000545997805
8.622703789e-05
7.944484826e-09
5.703663545e-07
-5.509686972e-10
-1.39385611e-08
1.906669956e-08
-8.216216758e-09
-1.903775353e-11
6.349544314e-10
-6.334202986e-11
-2.926736568e-10
-2.468970117e-10
5.143981426e-11
-9.49924412e-10
2.234143544e-09
-2.113092405e-10
6.663556216e-10
2.197043262e-10
-0.0006730702695
0.0007840307133
-0.001282339651
0.0003777852499
-0.0007226023272
-0.0004892010168
-1.793213936e-18
-1.717629596e-21
3.011909327e-19
-1.111723608e-15
-1.185908299e-18
-0.0004526575161
0.001605591613
-0.001932119506
-1.812294556e-08
1.444063381e-08
-0.001579683928
0.0027639605
0.001713304316
-0.002750045325
-0.002121501728
0.003462773288
-0.0006452602861
-0.002154716037
0.000266854141
0.001790131948
-0.001516707279
-0.002610440889
0.0005634339782
-0.001130145986
0.00119315223
-0.0004480197189
4.16440187e-10
-9.018792123e-10
3.409681962e-11
3.800658141e-11
-1.91654382e-11
6.572453021e-12
-1.956645598e-11
5.992539087e-11
4.108802848e-12
-1.339041673e-10
2.02467232e-10
3.197413825e-11
-3.538832052e-11
-7.998844697e-11
-1.618053629e-11
2.267870729e-11
0.002819953801
0.0005570230968
-0.001454832368
-0.001661163982
-6.158871683e-07
1.019703942e-06
-2.488178553e-07
6.042974404e-07
-2.093787948e-07
6.885042364e-07
-2.796087961e-07
2.96913542e-06
-1.854123462e-06
-1.29989465e-06
2.587558354e-06
-4.988162163e-06
7.678391838e-06
-4.86152429e-06
8.715016947e-06
-5.857409731e-06
-2.06855791e-06
1.070398042e-05
1.798483208e-05
-1.215403379e-05
-1.499977248e-05
2.491657924e-05
-2.69354967e-05
3.849492518e-05
-4.00327857e-05
6.241729611e-05
-1.345039145e-05
8.224377608e-05
-5.190735059e-05
7.549592249e-05
-5.445081536e-05
-9.462471174e-05
0.0001396532615
-0.0001007284573
0.0001356067878
-0.0002009744404
0.0002827409625
-0.0002761135708
-5.797133315e-05
0.000392626877
0.0002155831748
-0.0001600035238
-0.0003945515027
0.000523348565
1.156594118e-11
1.255672954e-11