/*--------------------------------*- C++ -*----------------------------------*\
  =========                 |
  \\      /  F ield         | OpenFOAM: The Open Source CFD Toolbox
   \\    /   O peration     | Website:  https://openfoam.org
    \\  /    A nd           | Version:  8
     \\/     M anipulation  |
\*---------------------------------------------------------------------------*/
FoamFile
{
    version     2.0;
    format      ascii;
    class       volScalarField;
    location    "0.2/wallFilmRegion";
    object      rho;
}
// * * * * * * * * * * * * * * * * * * * * * * * * * * * * * * * * * * * * * //

dimensions      [1 -3 0 0 0 0 0];

internalField   nonuniform List<scalar> 
1342
(
994.5114846
994.5114729
994.5114734
994.5114694
994.5114721
994.5114698
994.5114692
994.5114686
994.5114685
994.5114686
994.5114689
994.5114692
994.5114696
994.51147
994.5114702
994.5114701
994.5114698
994.5114694
994.5115026
994.511502
994.5115027
994.5114848
994.5114822
994.5114773
994.5114742
994.5114703
994.5114693
994.5114689
994.5114689
994.5114691
994.5114696
994.5114702
994.5114711
994.511472
994.5114728
994.5114731
994.5116347
994.5115241
994.5115192
994.5115243
994.5114839
994.511483
994.511476
994.511471
994.5114697
994.5114694
994.5114696
994.5114701
994.5114709
994.5114719
994.511473
994.5116813
994.5116857
994.5117029
994.5117106
994.5117162
994.5116001
994.5116607
994.5116978
994.5116481
994.5115653
994.5114797
994.5114781
994.5114746
994.5117464
994.5117569
994.5117516
994.5117385
994.5117648
994.5116794
994.5117111
994.5117697
994.5117629
994.511704
994.5114781
994.5114761
994.5117739
994.5117839
994.5119015
994.5118186
994.5118015
994.5118042
994.5118077
994.511806
994.5117767
994.5117906
994.5117906
994.511793
994.5114773
994.5116898
994.5115631
994.5115012
994.5114801
994.5114738
994.5114722
994.5114724
994.5114733
994.5114746
994.5115097
994.5114838
994.5114865
994.5114824
994.5114837
994.5114874
994.5114719
994.5114724
994.5114925
994.5114933
994.5114705
994.5114856
994.5114794
994.5114697
994.5114698
994.5114699
994.5114698
994.51147
994.5114701
994.5114702
994.5114701
994.5114701
994.5114703
994.5114701
994.5114701
994.5114703
994.51147
994.5114699
994.5114701
994.5114697
994.5114695
994.51147
994.5114695
994.5114696
994.5114697
994.5114696
994.5114696
994.5114695
994.5114695
994.5114695
994.5114692
994.5114694
994.5114692
994.5114265
994.5114684
994.5114684
994.5114026
994.5114684
994.5114684
994.5114376
994.5114684
994.5114684
994.5114668
994.5114036
994.5113972
994.5114694
994.511397
994.5113977
994.5114586
994.5114012
994.5114684
994.5114006
994.5114684
994.5114684
994.511432
994.5114684
994.5114684
994.5114696
994.5114684
994.5114547
994.5114695
994.5114323
994.5114504
994.511469
994.5114682
994.5114674
994.5114687
994.5114686
994.5114686
994.5114688
994.5114687
994.5114696
994.5114684
994.5114684
994.5114684
994.5114684
994.5114684
994.5114684
994.5114684
994.5114684
994.5114684
994.5114684
994.5114684
994.5114684
994.5114684
994.5114684
994.5114684
994.5114684
994.5114684
994.5114684
994.5114684
994.5114684
994.5114684
994.5114684
994.5114684
994.5114684
994.5114684
994.5114684
994.5114684
994.5114684
994.5114684
994.5114684
994.5114146
994.5114684
994.5114684
994.5114686
994.5114051
994.5114666
994.5114702
994.5114686
994.5114687
994.5114684
994.5114684
994.5114684
994.5114684
994.5114684
994.5114684
994.5114684
994.5114684
994.5114684
994.5114684
994.5114684
994.5114684
994.5114684
994.5114684
994.5114684
994.5114684
994.5114684
994.5114684
994.5114684
994.5114684
994.5114684
994.5114684
994.5114684
994.5114684
994.5114684
994.5114684
994.5114684
994.5114684
994.5114684
994.5114684
994.5114684
994.5114684
994.5114684
994.5114068
994.5114684
994.5114684
994.5114688
994.5114689
994.5114689
994.5114735
994.511472
994.5114728
994.5114684
994.5114684
994.5114684
994.5114684
994.5114684
994.5114684
994.5114684
994.5114684
994.5114684
994.5114684
994.5114684
994.5114684
994.5114684
994.5114684
994.5114684
994.5114684
994.5114684
994.5114684
994.5114684
994.5114684
994.5114684
994.5114684
994.5114684
994.5114684
994.5114684
994.5114684
994.5114684
994.5114684
994.5114684
994.5114684
994.5114684
994.5114684
994.5114684
994.5114684
994.5114684
994.5114684
994.5114716
994.5114604
994.5114716
994.5114714
994.5114713
994.5114716
994.5114684
994.5114684
994.5114684
994.5114684
994.5114684
994.5114684
994.5114684
994.5114684
994.5114684
994.5114684
994.5114684
994.5114684
994.5114684
994.5114684
994.5114684
994.5114684
994.5114684
994.5114684
994.5114684
994.5114684
994.5114684
994.5114684
994.5114684
994.5114684
994.5114684
994.5114684
994.5114684
994.5114684
994.5114684
994.5114684
994.5114684
994.5114684
994.5114684
994.5114169
994.5114695
994.5114703
994.5114711
994.5114707
994.5114704
994.5114426
994.5114525
994.5114684
994.511439
994.5114684
994.5114684
994.5114684
994.5114684
994.5114684
994.5114684
994.5114684
994.5114684
994.5114684
994.5114684
994.5114684
994.5114684
994.5114684
994.5114684
994.5114684
994.5114684
994.5114684
994.5114684
994.5114684
994.5114684
994.5114684
994.5114684
994.5114684
994.5114285
994.5114151
994.5114684
994.5114329
994.5114082
994.5114648
994.5114716
994.5114707
994.5114707
994.5114707
994.5114703
994.5114696
994.5114695
994.5114692
994.5114546
994.5114476
994.5114684
994.5114427
994.5114623
994.5114364
994.5114687
994.5114695
994.511437
994.5114696
994.5114697
994.5114162
994.5114698
994.5114699
994.5114211
994.5114702
994.5114703
994.5114211
994.5114707
994.5114727
994.5114638
994.5114742
994.5114754
994.5114752
994.5114764
994.5114776
994.5114783
994.5114782
994.5114781
994.5114725
994.5114773
994.5114728
994.5114708
994.5114706
994.5114699
994.5115001
994.5115368
994.5114983
994.5115344
994.5115355
994.5115053
994.511541
994.5115434
994.5114705
994.5115489
994.5114705
994.5114704
994.5114704
994.5114704
994.5114704
994.5114704
994.5114704
994.5114704
994.5114704
994.5114704
994.5114847
994.5116274
994.5114971
994.5115829
994.5115467
994.5115905
994.5115479
994.5115284
994.5115101
994.5115051
994.5114965
994.5115052
994.5115882
994.5115772
994.5115959
994.5116097
994.5114704
994.5114704
994.5114703
994.511519
994.5116401
994.5116376
994.5116646
994.5114704
994.5114704
994.5114704
994.511546
994.5115915
994.5115835
994.5116943
994.5115972
994.5116746
994.5115387
994.5116056
994.5115602
994.5116872
994.5116789
994.5116924
994.5117253
994.5117313
994.5117083
994.5117413
994.51171
994.5117209
994.5117453
994.5117503
994.5114703
994.5116219
994.5114703
994.5116199
994.5117192
994.5116853
994.5117379
994.5116316
994.5117075
994.5116857
994.511632
994.5117413
994.5117831
994.511724
994.5117031
994.5117793
994.5117881
994.5114703
994.5117535
994.5114703
994.5117492
994.5117689
994.5117688
994.5117657
994.5117466
994.5117691
994.5117791
994.5117957
994.5117995
994.5117735
994.5114689
994.5114485
994.5114689
994.5114508
994.511469
994.5114705
994.5114699
994.5114705
994.51147
994.5114705
994.5114699
994.5114705
994.5114694
994.5114778
994.511469
994.5114703
994.5114959
994.51147
994.511515
994.5114698
994.5114697
994.5114701
994.5114703
994.5114703
994.5114702
994.5114701
994.5114699
994.5114695
994.5114694
994.511469
994.5114798
994.5114688
994.5114826
994.5114376
994.511436
994.5114094
994.5114589
994.5114686
994.5114684
994.5114037
994.5114025
994.5114276
994.5114695
994.5114691
994.5114688
994.5114687
994.5114722
994.5114718
994.5114689
994.5114684
994.5114684
994.5114684
994.5114684
994.5114684
994.5114684
994.5114684
994.5114684
994.5114684
994.5114684
994.5114214
994.5114679
994.5114686
994.5114725
994.5114684
994.5114684
994.5114684
994.5114684
994.5114684
994.5114684
994.5114684
994.5114684
994.5114684
994.5114684
994.5114684
994.5114684
994.5114688
994.5114716
994.5114684
994.5114684
994.5114684
994.5114684
994.5114684
994.5114684
994.5114684
994.5114684
994.5114684
994.5114684
994.5114684
994.5114684
994.5114685
994.5114717
994.5114684
994.5114684
994.5114684
994.5114684
994.5114684
994.5114684
994.5114684
994.5114684
994.5114684
994.5114684
994.5114684
994.5114191
994.511471
994.5114708
994.5114684
994.5114684
994.5114684
994.5114684
994.5114684
994.5114684
994.5114684
994.5114684
994.5114684
994.5114684
994.5114594
994.5114708
994.5114701
994.5114693
994.5114682
994.5114593
994.5114664
994.5114276
994.5114232
994.5114142
994.5114405
994.5114393
994.511471
994.5114777
994.5114782
994.5114716
994.51147
994.5114692
994.5114688
994.5114696
994.5114697
994.5114701
994.5114706
994.511472
994.5114745
994.5114766
994.5114769
994.5114741
994.5114701
994.5114692
994.5114692
994.5115128
994.5115018
994.5115062
994.5115043
994.5114705
994.5114704
994.5114704
994.5115824
994.5115184
994.511562
994.5115306
994.5115737
994.5114942
994.5114935
994.5114983
994.5114976
994.5114745
994.5114737
994.5115848
994.5115909
994.5116411
994.5115952
994.5116491
994.5114704
994.5114704
994.5114704
994.5114703
994.5116562
994.5116675
994.5115688
994.5114809
994.51148
994.5114789
994.5114744
994.5116965
994.5116613
994.511609
994.511577
994.511636
994.5114821
994.5114855
994.5114949
994.5114751
994.5114714
994.5114726
994.5114703
994.5114703
994.5114705
994.5114709
994.5114719
994.5114719
994.5114731
994.5117729
994.5117434
994.5117123
994.5114808
994.5114793
994.51148
994.5114907
994.5115126
994.5114745
994.5114718
994.5114712
994.5114721
994.5114744
994.5114743
994.5117639
994.5117836
994.5118073
994.5117798
994.5118092
994.5117913
994.5118105
994.5118148
994.511817
994.5118172
994.5117242
994.5117499
994.5117086
994.5117639
994.5117919
994.5118048
994.511811
994.5118144
994.511814
994.511735
994.5117617
994.5117475
994.5117773
994.5117971
994.5118071
994.5118145
994.5118129
994.5118131
994.5118257
994.5117985
994.511802
994.511811
994.5118177
994.5118201
994.5118191
994.5118165
994.5118138
994.511469
994.5114476
994.5114692
994.5114717
994.5114689
994.5114499
994.5114692
994.5114692
994.5114686
994.5114748
994.511469
994.511452
994.5114701
994.5114701
994.5114718
994.5114719
994.5114692
994.5114705
994.5114701
994.5114701
994.5114768
994.5114705
994.51147
994.5114705
994.5114701
994.51147
994.5114705
994.5114705
994.5114701
994.5114705
994.5114699
994.5114698
994.5114705
994.5114704
994.5114699
994.5114705
994.5114698
994.5114697
994.5114704
994.5114704
994.5114694
994.5114697
994.5114697
994.5114695
994.5115379
994.5114745
994.511469
994.5115325
994.5114692
994.5114692
994.5114846
994.5115697
994.5114691
994.5114688
994.5115435
994.5114692
994.5114688
994.511469
994.5114688
994.5114688
994.5114688
994.5114832
994.511471
994.5114914
994.5114901
994.5114726
994.5114709
994.5114732
994.5114736
994.5114893
994.5114914
994.5114715
994.5114699
994.511472
994.5114716
994.51147
994.5114798
994.5114794
994.5114782
994.5114705
994.5114692
994.5114763
994.5114696
994.5114694
994.5114692
994.5114693
994.5114694
994.5114691
994.5114691
994.5114745
994.511473
994.5114718
994.5114633
994.5114692
994.5114686
994.511469
994.5114693
994.5114694
994.5114695
994.5114686
994.5114694
994.5114696
994.5114697
994.5114696
994.5114696
994.5114686
994.5114687
994.5114687
994.5114699
994.5114697
994.5114699
994.5114687
994.5114687
994.5114687
994.5114703
994.5114701
994.5114704
994.511469
994.5114688
994.5114689
994.5114711
994.5114708
994.5114713
994.5114694
994.5114691
994.5114694
994.5114733
994.5114719
994.5114726
994.5114698
994.5114697
994.51147
994.5114757
994.5114733
994.5114739
994.5114701
994.5114703
994.5114707
994.5114771
994.5114744
994.5114745
994.5114702
994.5114711
994.5114714
994.5114758
994.5114743
994.5114735
994.51147
994.5114718
994.511472
994.5114714
994.5114722
994.5114711
994.5114696
994.5114721
994.5114721
994.5114693
994.5114695
994.5114703
994.5114721
994.5114718
994.511472
994.5114718
994.5114929
994.5114962
994.5114961
994.5115094
994.5115153
994.5115044
994.5115105
994.5115103
994.5115139
994.5115024
994.5115116
994.5115114
994.5114825
994.5114843
994.5114833
994.5114814
994.5114804
994.511483
994.5114822
994.51148
994.511479
994.5114812
994.5114758
994.5114771
994.5114774
994.5114785
994.5114694
994.5114719
994.511469
994.51147
994.5114688
994.5114695
994.5114693
994.5114689
994.5114691
994.5114691
994.5114693
994.5114692
994.5114693
994.5114699
994.5114695
994.5114698
994.5114706
994.5114701
994.5114705
994.5114715
994.511471
994.5114715
994.5114724
994.511472
994.5114725
994.5114731
994.511473
994.5114734
994.5114737
994.5114742
994.5114746
994.5114759
994.5114748
994.5116281
994.5116477
994.5114704
994.5114703
994.5115489
994.511628
994.5115668
994.5115524
994.5115492
994.511588
994.5115304
994.5115245
994.511526
994.5115426
994.511541
994.5115211
994.5115275
994.5115447
994.5115768
994.5114834
994.5114833
994.5114836
994.5114847
994.5114823
994.5114829
994.5114816
994.5114808
994.5114795
994.5114792
994.5114771
994.5114775
994.5114764
994.5114787
994.5114776
994.5114763
994.5114724
994.5114702
994.5114734
994.5114717
994.5114707
994.5114701
994.5114695
994.5114698
994.5114696
994.5114694
994.5114698
994.5114697
994.5114698
994.5114701
994.5114705
994.5114705
994.5114714
994.5114714
994.5114709
994.5114719
994.5114725
994.5114725
994.5114738
994.5114731
994.5114737
994.5114749
994.5114744
994.5114749
994.5114759
994.511717
994.5117178
994.5117201
994.5117228
994.5117309
994.5117387
994.5116728
994.5116591
994.511718
994.511742
994.5117559
994.511761
994.5117538
994.5117721
994.5117161
994.5117422
994.5117258
994.5116474
994.5115804
994.5115782
994.5116365
994.5117137
994.5116364
994.5116393
994.5117156
994.5114828
994.511482
994.5114828
994.5114815
994.5114806
994.5114817
994.5114772
994.5114792
994.5114783
994.5115294
994.5114846
994.5115054
994.5114785
994.5114748
994.5114768
994.5114739
994.5114707
994.5114722
994.511471
994.5114706
994.511471
994.5114709
994.5114714
994.511472
994.5114725
994.5114731
994.5114731
994.5114763
994.5114752
994.5114754
994.5114743
994.5114769
994.5114772
994.511476
994.511496
994.5115113
994.511479
994.5114727
994.5114706
994.5114714
994.5114702
994.5114705
994.5114705
994.5114713
994.5114724
994.5114724
994.5114736
994.5114737
994.5117556
994.5117639
994.5117743
994.511779
994.5117004
994.5117345
994.5117628
994.511791
994.5117919
994.5117876
994.5117836
994.5117652
994.5117542
994.5117785
994.5117543
994.5117929
994.5117704
994.5118725
994.5117254
994.5117746
994.5118019
994.5117855
994.5118043
994.5114703
994.5117986
994.5114704
994.511808
994.5118013
994.5118018
994.5118027
994.5118016
994.5117702
994.5117993
994.5117547
994.511795
994.5117658
994.5117208
994.5117914
994.5117597
994.51179
994.5117112
994.5117596
994.5117638
994.5117913
994.5117935
994.5117676
994.5117679
994.5117935
994.5114796
994.5114809
994.5114756
994.5114793
994.5114779
994.5114764
994.5114762
994.5117411
994.511589
994.5116685
994.5115428
994.511599
994.5115474
994.5115144
994.5114877
994.5114838
994.5114949
994.511484
994.511478
994.5114727
994.5114747
994.5114727
994.511473
994.5114722
994.5114722
994.5114715
994.5114719
994.5114717
994.511472
994.5114723
994.5114727
994.5114732
994.5114733
994.5114738
994.5114748
994.5114754
994.5114754
994.5114752
994.511477
994.511476
994.5115656
994.5116498
994.5114819
994.5114943
994.5114778
994.5114714
994.5114715
994.5114715
994.5114726
994.5114737
994.5114738
994.5117563
994.5117443
994.5117722
994.5117425
994.511752
994.5117888
994.5117655
994.5117768
994.5118119
994.5117375
994.5117618
994.5118088
994.5117782
994.5117898
994.5118129
994.5117983
994.5118044
994.5114719
994.5118086
994.5114757
994.5118176
994.5118135
994.5118152
994.5118156
994.5118161
994.5118156
994.511814
994.5117286
994.5117235
994.5117335
994.5117188
994.5117213
994.5117639
994.5117419
994.5117564
994.5117404
994.5117238
994.5117477
994.5117805
994.5117671
994.5117818
994.5117997
994.5117924
994.5117998
994.5118085
994.5118047
994.5118081
994.511813
994.5118103
994.5118121
994.5118147
994.5118134
994.5118139
994.5118123
994.5118138
994.5118129
994.5117933
994.5117352
994.5117428
994.5117414
994.5117578
994.5117696
994.5117411
994.5117877
994.51178
994.5117634
994.5117758
994.5117849
994.5117886
994.5117935
994.5118008
994.5118032
994.5118064
994.5118102
994.5118097
994.5118126
994.5118139
994.5118123
994.5118142
994.5118141
994.5118131
994.5118138
994.5118133
994.5118124
994.5118126
994.5118115
994.5114789
994.5114761
994.5118191
994.5118065
994.5117544
994.5118047
994.5117809
994.5117244
994.5116195
994.5117985
994.5116603
994.5115982
994.5115247
994.5118065
994.5115495
994.511517
994.5118149
994.5114974
994.5114861
994.511476
994.5118194
994.5114798
994.5114763
994.51182
994.5114745
994.5114737
994.5118178
994.5114734
994.5114735
994.5114728
994.5118152
994.5114738
994.5114741
994.5114749
994.511474
)
;

boundaryField
{
    walls
    {
        type            zeroGradient;
    }
    wallFilmFace_top
    {
        type            zeroGradient;
    }
    region0_to_wallFilmRegion_wallFilmFace
    {
        type            zeroGradient;
    }
    mirrorFace_top
    {
        type            zeroGradient;
    }
    region0_to_wallFilmRegion_mirrorFace
    {
        type            zeroGradient;
    }
    procBoundary3to2
    {
        type            processor;
        value           nonuniform List<scalar> 
64
(
994.5114686
994.511469
994.5114718
994.511471
994.5114749
994.5117073
994.5117502
994.5117652
994.5117916
994.5114698
994.5114696
994.5114696
994.5114696
994.5114427
994.5114684
994.5114684
994.5114684
994.5114684
994.5114684
994.5114037
994.5114013
994.5114068
994.5114214
994.5114214
994.5114682
994.5114682
994.5114682
994.5114696
994.5114681
994.5114681
994.5114744
994.5115576
994.5115576
994.5116093
994.5116581
994.511469
994.5114523
994.5114693
994.5114672
994.5114788
994.511513
994.5117483
994.5117612
994.5117411
994.5117956
994.5117829
994.5114693
994.5114788
994.5114692
994.5114688
994.5114701
994.511477
994.511471
994.5114814
994.5117328
994.5115367
994.511614
994.5117592
994.5117143
994.5117951
994.5117445
994.5117622
994.5118081
994.5117922
)
;
    }
}


// ************************************************************************* //
