/*--------------------------------*- C++ -*----------------------------------*\
  =========                 |
  \\      /  F ield         | OpenFOAM: The Open Source CFD Toolbox
   \\    /   O peration     | Website:  https://openfoam.org
    \\  /    A nd           | Version:  8
     \\/     M anipulation  |
\*---------------------------------------------------------------------------*/
FoamFile
{
    version     2.0;
    format      ascii;
    class       volScalarField;
    location    "0.2/wallFilmRegion";
    object      sigma;
}
// * * * * * * * * * * * * * * * * * * * * * * * * * * * * * * * * * * * * * //

dimensions      [1 0 -2 0 0 0 0];

internalField   nonuniform List<scalar> 
1342
(
0.07244714719
0.07244713825
0.07244713861
0.07244713559
0.07244713765
0.07244713591
0.0724471354
0.07244713499
0.07244713492
0.07244713498
0.07244713516
0.07244713544
0.07244713574
0.07244713601
0.07244713617
0.07244713613
0.07244713587
0.07244713554
0.07244716088
0.07244716044
0.07244716096
0.0724471473
0.07244714534
0.0724471416
0.07244713926
0.07244713623
0.07244713547
0.07244713518
0.07244713516
0.07244713533
0.07244713569
0.07244713621
0.07244713685
0.07244713754
0.07244713817
0.07244713839
0.07244726161
0.07244717726
0.07244717353
0.07244717744
0.07244714663
0.07244714593
0.07244714058
0.07244713679
0.07244713582
0.07244713556
0.07244713568
0.0724471361
0.07244713673
0.07244713751
0.07244713832
0.07244729716
0.07244730049
0.07244731357
0.07244731946
0.07244732377
0.07244723523
0.07244728144
0.07244730971
0.07244727183
0.07244720872
0.07244714339
0.07244714223
0.07244713951
0.07244734677
0.07244735474
0.07244735071
0.07244734076
0.07244736083
0.07244729568
0.07244731988
0.0724473645
0.07244735934
0.07244731441
0.0724471422
0.07244714067
0.07244736771
0.07244737534
0.07244746503
0.07244740181
0.07244738879
0.07244739081
0.07244739353
0.07244739218
0.07244736989
0.07244738043
0.07244738045
0.07244738227
0.07244714158
0.0724473036
0.07244720699
0.07244715983
0.07244714375
0.0724471389
0.07244713773
0.07244713788
0.07244713855
0.07244713952
0.07244716629
0.07244714655
0.07244714857
0.07244714548
0.07244714648
0.07244714927
0.07244713746
0.07244713786
0.07244715317
0.07244715377
0.07244713637
0.07244714793
0.07244714321
0.07244713579
0.07244713591
0.07244713596
0.07244713587
0.07244713606
0.07244713611
0.0724471362
0.07244713611
0.07244713611
0.07244713629
0.0724471361
0.07244713609
0.07244713624
0.07244713606
0.07244713599
0.07244713614
0.07244713583
0.07244713564
0.07244713601
0.07244713566
0.07244713572
0.07244713581
0.07244713572
0.07244713575
0.07244713561
0.07244713568
0.07244713564
0.07244713544
0.07244713555
0.07244713541
0.07244710289
0.07244713482
0.07244713482
0.07244708466
0.07244713482
0.07244713482
0.07244711134
0.07244713482
0.07244713482
0.07244713359
0.0724470854
0.07244708051
0.07244713555
0.07244708034
0.07244708087
0.0724471273
0.07244708358
0.07244713482
0.07244708309
0.07244713482
0.07244713482
0.07244710706
0.07244713482
0.07244713482
0.07244713569
0.07244713482
0.07244712433
0.07244713561
0.07244710732
0.07244712107
0.07244713524
0.07244713462
0.07244713406
0.07244713505
0.07244713499
0.07244713499
0.07244713508
0.07244713501
0.07244713574
0.07244713482
0.07244713482
0.07244713482
0.07244713482
0.07244713482
0.07244713482
0.07244713482
0.07244713482
0.07244713482
0.07244713482
0.07244713482
0.07244713482
0.07244713482
0.07244713482
0.07244713482
0.07244713482
0.07244713482
0.07244713482
0.07244713482
0.07244713482
0.07244713482
0.07244713482
0.07244713482
0.07244713482
0.07244713482
0.07244713482
0.07244713482
0.07244713482
0.07244713482
0.07244713482
0.07244709376
0.07244713482
0.07244713482
0.07244713493
0.07244708651
0.07244713344
0.07244713615
0.07244713499
0.07244713507
0.07244713482
0.07244713482
0.07244713482
0.07244713482
0.07244713482
0.07244713482
0.07244713482
0.07244713482
0.07244713482
0.07244713482
0.07244713482
0.07244713482
0.07244713482
0.07244713482
0.07244713482
0.07244713482
0.07244713482
0.07244713482
0.07244713482
0.07244713482
0.07244713482
0.07244713482
0.07244713482
0.07244713482
0.07244713482
0.07244713482
0.07244713482
0.07244713482
0.07244713482
0.07244713482
0.07244713482
0.07244713482
0.07244713482
0.07244708787
0.07244713482
0.07244713482
0.07244713515
0.07244713516
0.07244713515
0.07244713871
0.07244713759
0.07244713817
0.07244713482
0.07244713482
0.07244713482
0.07244713482
0.07244713482
0.07244713482
0.07244713482
0.07244713482
0.07244713482
0.07244713482
0.07244713482
0.07244713482
0.07244713482
0.07244713482
0.07244713482
0.07244713482
0.07244713482
0.07244713482
0.07244713482
0.07244713482
0.07244713482
0.07244713482
0.07244713482
0.07244713482
0.07244713482
0.07244713482
0.07244713482
0.07244713482
0.07244713482
0.07244713482
0.07244713482
0.07244713482
0.07244713482
0.07244713482
0.07244713482
0.07244713482
0.07244713723
0.07244712867
0.07244713722
0.07244713708
0.07244713705
0.07244713727
0.07244713482
0.07244713482
0.07244713482
0.07244713482
0.07244713482
0.07244713482
0.07244713482
0.07244713482
0.07244713482
0.07244713482
0.07244713482
0.07244713482
0.07244713482
0.07244713482
0.07244713482
0.07244713482
0.07244713482
0.07244713482
0.07244713482
0.07244713482
0.07244713482
0.07244713482
0.07244713482
0.07244713482
0.07244713482
0.07244713482
0.07244713482
0.07244713482
0.07244713482
0.07244713482
0.07244713482
0.07244713482
0.07244713482
0.07244709555
0.07244713564
0.07244713625
0.07244713687
0.07244713659
0.0724471363
0.07244711512
0.07244712271
0.07244713482
0.07244711242
0.07244713482
0.07244713482
0.07244713482
0.07244713482
0.07244713482
0.07244713482
0.07244713482
0.07244713482
0.07244713482
0.07244713482
0.07244713482
0.07244713482
0.07244713482
0.07244713482
0.07244713482
0.07244713482
0.07244713482
0.07244713482
0.07244713482
0.07244713482
0.07244713482
0.07244713482
0.07244713482
0.07244710436
0.07244709418
0.07244713482
0.07244710776
0.07244708892
0.07244713206
0.07244713724
0.07244713659
0.07244713654
0.07244713655
0.07244713627
0.07244713572
0.07244713566
0.07244713542
0.07244712428
0.07244711897
0.07244713482
0.07244711518
0.07244713015
0.07244711041
0.07244713506
0.07244713565
0.07244711088
0.07244713576
0.07244713578
0.07244709502
0.07244713586
0.07244713598
0.07244709871
0.07244713614
0.07244713628
0.07244709873
0.07244713657
0.07244713807
0.0724471313
0.07244713921
0.07244714012
0.07244713996
0.07244714094
0.07244714179
0.07244714238
0.0724471423
0.07244714219
0.07244713796
0.07244714163
0.07244713813
0.07244713667
0.07244713645
0.07244713598
0.07244715897
0.07244718698
0.07244715761
0.0724471851
0.07244718599
0.07244716294
0.07244719019
0.07244719198
0.07244713638
0.0724471962
0.07244713639
0.07244713637
0.07244713636
0.07244713635
0.07244713635
0.07244713634
0.07244713632
0.07244713633
0.07244713631
0.0724471363
0.0724471472
0.07244725602
0.07244715667
0.07244722212
0.0724471945
0.07244722793
0.07244719539
0.07244718059
0.07244716661
0.07244716281
0.07244715623
0.07244716286
0.07244722616
0.07244721779
0.072447232
0.07244724254
0.07244713634
0.07244713631
0.07244713629
0.07244717341
0.07244726574
0.07244726381
0.07244728437
0.07244713636
0.07244713634
0.07244713632
0.07244719396
0.07244722866
0.07244722255
0.07244730705
0.07244723298
0.07244729203
0.07244718839
0.07244723943
0.07244720483
0.07244730162
0.07244729529
0.07244730559
0.07244733065
0.07244733524
0.07244731773
0.07244734291
0.07244731898
0.0724473273
0.07244734592
0.07244734977
0.07244713627
0.07244725186
0.07244713626
0.07244725033
0.07244732601
0.07244730017
0.07244734032
0.07244725923
0.07244731711
0.0724473005
0.07244725952
0.07244734286
0.07244737471
0.07244732965
0.07244731374
0.07244737185
0.07244737855
0.07244713624
0.07244735215
0.07244713623
0.07244734893
0.07244736389
0.07244736383
0.0724473615
0.07244734688
0.0724473641
0.07244737169
0.07244738436
0.07244738726
0.07244736744
0.07244713522
0.07244711964
0.07244713522
0.07244712136
0.07244713525
0.07244713638
0.07244713592
0.07244713641
0.07244713606
0.07244713642
0.07244713598
0.07244713641
0.07244713558
0.072447142
0.07244713523
0.07244713625
0.07244715578
0.07244713602
0.07244717035
0.07244713588
0.0724471358
0.07244713607
0.07244713627
0.07244713628
0.07244713619
0.07244713607
0.07244713592
0.07244713566
0.07244713555
0.07244713529
0.07244714354
0.07244713512
0.07244714565
0.0724471113
0.07244711013
0.07244708984
0.07244712757
0.07244713495
0.07244713482
0.07244708545
0.07244708455
0.07244710371
0.07244713563
0.07244713534
0.07244713513
0.07244713505
0.07244713768
0.07244713741
0.07244713521
0.07244713482
0.07244713482
0.07244713482
0.07244713482
0.07244713482
0.07244713482
0.07244713482
0.07244713482
0.07244713482
0.07244713482
0.07244709901
0.07244713444
0.07244713499
0.07244713795
0.07244713482
0.07244713482
0.07244713482
0.07244713482
0.07244713482
0.07244713482
0.07244713482
0.07244713482
0.07244713482
0.07244713482
0.07244713482
0.07244713482
0.0724471351
0.07244713728
0.07244713482
0.07244713482
0.07244713482
0.07244713482
0.07244713482
0.07244713482
0.07244713482
0.07244713482
0.07244713482
0.07244713482
0.07244713482
0.07244713482
0.0724471349
0.07244713733
0.07244713482
0.07244713482
0.07244713482
0.07244713482
0.07244713482
0.07244713482
0.07244713482
0.07244713482
0.07244713482
0.07244713482
0.07244713482
0.07244709719
0.0724471368
0.07244713665
0.07244713482
0.07244713482
0.07244713482
0.07244713482
0.07244713482
0.07244713482
0.07244713482
0.07244713482
0.07244713482
0.07244713482
0.07244712796
0.07244713666
0.07244713608
0.0724471355
0.07244713466
0.07244712785
0.0724471333
0.0724471037
0.07244710035
0.07244709348
0.07244711354
0.07244711264
0.07244713677
0.07244714193
0.07244714231
0.07244713726
0.07244713601
0.0724471354
0.07244713513
0.07244713569
0.07244713583
0.07244713607
0.07244713651
0.07244713757
0.07244713948
0.07244714108
0.07244714126
0.07244713913
0.07244713612
0.07244713543
0.07244713542
0.07244716865
0.0724471603
0.0724471636
0.07244716215
0.07244713637
0.07244713636
0.07244713633
0.07244722172
0.07244717293
0.07244720615
0.07244718223
0.0724472151
0.07244715445
0.07244715393
0.07244715757
0.07244715709
0.07244713942
0.07244713888
0.07244722359
0.07244722821
0.07244726645
0.07244723151
0.07244727256
0.07244713635
0.07244713633
0.0724471363
0.07244713629
0.07244727796
0.07244728664
0.07244721133
0.07244714437
0.07244714366
0.07244714279
0.07244713936
0.07244730868
0.07244728191
0.07244724201
0.07244721761
0.07244726257
0.07244714524
0.07244714782
0.07244715499
0.0724471399
0.07244713708
0.07244713803
0.07244713623
0.07244713624
0.07244713638
0.0724471367
0.07244713744
0.07244713745
0.07244713836
0.07244736696
0.07244734446
0.07244732074
0.07244714425
0.07244714313
0.07244714365
0.07244715179
0.07244716847
0.07244713946
0.07244713742
0.07244713691
0.07244713763
0.07244713937
0.07244713933
0.0724473601
0.07244737511
0.07244739323
0.07244737219
0.07244739463
0.07244738098
0.07244739563
0.07244739895
0.07244740063
0.07244740077
0.07244732987
0.07244734944
0.07244731792
0.07244736012
0.07244738144
0.07244739128
0.072447396
0.07244739859
0.07244739827
0.07244733807
0.07244735844
0.0724473476
0.07244737031
0.07244738543
0.07244739307
0.07244739869
0.07244739748
0.07244739764
0.0724474072
0.07244738653
0.07244738916
0.07244739604
0.07244740115
0.07244740297
0.07244740219
0.07244740024
0.07244739817
0.07244713523
0.07244711897
0.07244713544
0.07244713734
0.07244713522
0.07244712069
0.07244713541
0.07244713538
0.07244713497
0.07244713967
0.07244713523
0.07244712229
0.07244713608
0.07244713613
0.0724471374
0.0724471375
0.07244713544
0.07244713641
0.07244713613
0.07244713612
0.07244714118
0.07244713639
0.07244713603
0.07244713641
0.0724471361
0.07244713603
0.07244713639
0.07244713638
0.07244713608
0.07244713642
0.07244713593
0.07244713587
0.07244713638
0.07244713637
0.07244713598
0.07244713642
0.07244713585
0.07244713582
0.07244713636
0.07244713636
0.07244713557
0.07244713583
0.07244713579
0.07244713567
0.07244718776
0.07244713948
0.07244713529
0.07244718366
0.07244713544
0.07244713545
0.07244714718
0.07244721203
0.07244713534
0.07244713515
0.07244719203
0.07244713543
0.07244713514
0.07244713524
0.07244713511
0.07244713509
0.0724471351
0.0724471461
0.07244713677
0.07244715237
0.07244715134
0.07244713803
0.0724471367
0.07244713844
0.07244713879
0.07244715071
0.07244715236
0.0724471372
0.07244713599
0.07244713753
0.07244713722
0.07244713604
0.07244714351
0.07244714316
0.07244714231
0.07244713638
0.07244713543
0.07244714087
0.07244713576
0.07244713558
0.07244713539
0.07244713546
0.07244713558
0.07244713535
0.07244713533
0.07244713944
0.07244713832
0.07244713742
0.07244713093
0.07244713545
0.07244713497
0.07244713528
0.07244713548
0.07244713555
0.07244713564
0.07244713497
0.07244713557
0.07244713576
0.07244713577
0.0724471357
0.07244713575
0.07244713493
0.07244713507
0.07244713502
0.07244713593
0.07244713582
0.07244713594
0.07244713506
0.07244713502
0.07244713504
0.07244713626
0.07244713611
0.07244713633
0.07244713529
0.07244713511
0.07244713522
0.07244713688
0.07244713662
0.07244713698
0.07244713559
0.07244713536
0.07244713554
0.07244713852
0.07244713745
0.07244713799
0.07244713588
0.07244713576
0.07244713601
0.07244714037
0.07244713854
0.07244713902
0.07244713611
0.07244713629
0.07244713657
0.07244714144
0.07244713936
0.07244713947
0.07244713618
0.07244713686
0.07244713713
0.07244714047
0.07244713931
0.07244713873
0.07244713603
0.07244713737
0.07244713755
0.07244713706
0.07244713767
0.07244713684
0.07244713569
0.07244713765
0.07244713762
0.07244713548
0.07244713562
0.07244713624
0.07244713759
0.07244713743
0.07244713757
0.07244713741
0.07244715348
0.07244715602
0.07244715593
0.07244716607
0.07244717054
0.07244716225
0.07244716692
0.07244716673
0.07244716952
0.07244716072
0.07244716777
0.07244716761
0.07244714552
0.07244714692
0.07244714617
0.07244714475
0.07244714397
0.07244714596
0.07244714534
0.07244714364
0.0724471429
0.07244714453
0.07244714047
0.07244714144
0.07244714163
0.07244714253
0.07244713558
0.07244713751
0.07244713527
0.07244713605
0.07244713514
0.07244713567
0.07244713546
0.07244713522
0.07244713536
0.07244713534
0.07244713549
0.07244713538
0.07244713549
0.07244713593
0.07244713565
0.07244713587
0.07244713652
0.07244713614
0.07244713644
0.0724471372
0.07244713679
0.07244713716
0.07244713787
0.07244713755
0.07244713795
0.07244713838
0.07244713835
0.07244713865
0.07244713888
0.07244713921
0.07244713956
0.07244714049
0.07244713971
0.07244725659
0.07244727155
0.0724471363
0.07244713628
0.07244719616
0.07244725651
0.07244720987
0.07244719882
0.07244719642
0.07244722596
0.07244718208
0.07244717756
0.07244717875
0.07244719137
0.07244719015
0.07244717497
0.07244717986
0.07244719295
0.07244721746
0.07244714626
0.07244714616
0.07244714638
0.07244714725
0.07244714541
0.07244714583
0.0724471449
0.07244714423
0.07244714325
0.07244714305
0.0724471414
0.07244714174
0.07244714088
0.07244714268
0.0724471418
0.07244714081
0.07244713785
0.07244713618
0.07244713863
0.07244713733
0.07244713655
0.07244713609
0.07244713563
0.07244713585
0.07244713576
0.07244713558
0.07244713586
0.07244713579
0.07244713591
0.07244713611
0.07244713638
0.07244713639
0.07244713707
0.0724471371
0.0724471367
0.07244713748
0.07244713793
0.07244713791
0.07244713895
0.07244713838
0.07244713887
0.07244713978
0.07244713935
0.07244713976
0.07244714049
0.07244732435
0.07244732495
0.0724473267
0.0724473288
0.07244733492
0.07244734093
0.07244729064
0.07244728021
0.07244732514
0.07244734343
0.07244735399
0.0724473579
0.0724473524
0.07244736635
0.07244732366
0.07244734353
0.07244733109
0.0724472713
0.07244722022
0.0724472185
0.07244726299
0.07244732181
0.07244726292
0.07244726512
0.07244732329
0.07244714582
0.0724471452
0.07244714578
0.07244714477
0.07244714408
0.07244714498
0.07244714148
0.07244714302
0.07244714235
0.07244718134
0.07244714719
0.07244716303
0.07244714248
0.07244713968
0.07244714121
0.07244713897
0.07244713659
0.07244713772
0.0724471368
0.07244713651
0.07244713677
0.07244713675
0.07244713707
0.07244713752
0.07244713793
0.07244713835
0.07244713839
0.07244714083
0.07244714
0.07244714017
0.07244713929
0.07244714128
0.07244714151
0.07244714063
0.07244715584
0.0724471675
0.07244714289
0.07244713812
0.07244713651
0.07244713709
0.07244713617
0.07244713639
0.07244713643
0.07244713704
0.07244713789
0.07244713789
0.0724471388
0.07244713885
0.07244735379
0.07244736011
0.07244736807
0.07244737163
0.07244731166
0.07244733771
0.07244735931
0.07244738075
0.07244738145
0.07244737815
0.07244737514
0.07244736113
0.07244735269
0.07244737126
0.07244735279
0.07244738221
0.07244736504
0.07244744291
0.07244733072
0.0724473683
0.07244738906
0.07244737657
0.07244739093
0.07244713626
0.07244738655
0.0724471363
0.07244739371
0.07244738861
0.072447389
0.07244738966
0.07244738885
0.0724473649
0.07244738706
0.07244735312
0.07244738381
0.07244736159
0.07244732721
0.07244738107
0.07244735689
0.07244738002
0.07244731994
0.0724473568
0.07244736004
0.07244738098
0.07244738264
0.07244736294
0.07244736318
0.07244738266
0.07244714331
0.07244714432
0.07244714033
0.07244714313
0.07244714203
0.07244714094
0.07244714073
0.07244734269
0.07244722678
0.07244728735
0.0724471915
0.07244723439
0.07244719506
0.07244716985
0.07244714953
0.07244714655
0.07244715504
0.0724471467
0.0724471421
0.0724471381
0.07244713961
0.07244713806
0.07244713831
0.0724471377
0.07244713771
0.07244713716
0.07244713751
0.07244713734
0.07244713756
0.07244713779
0.07244713812
0.07244713843
0.07244713851
0.07244713889
0.07244713965
0.07244714017
0.07244714014
0.07244713995
0.07244714135
0.07244714063
0.07244720893
0.07244727314
0.07244714511
0.07244715459
0.072447142
0.07244713707
0.07244713716
0.07244713717
0.07244713801
0.07244713888
0.07244713891
0.07244735432
0.07244734517
0.0724473664
0.0724473438
0.07244735104
0.07244737907
0.07244736135
0.07244736995
0.07244739667
0.07244733998
0.07244735849
0.0724473943
0.072447371
0.07244737986
0.07244739744
0.0724473863
0.07244739096
0.07244713746
0.07244739416
0.07244714039
0.07244740104
0.0724473979
0.07244739921
0.07244739956
0.07244739988
0.07244739954
0.07244739832
0.07244733319
0.0724473293
0.07244733692
0.07244732572
0.07244732759
0.07244736014
0.0724473433
0.07244735439
0.0724473422
0.07244732952
0.07244734776
0.07244737274
0.07244736255
0.07244737373
0.07244738738
0.0724473818
0.07244738744
0.07244739411
0.0724473912
0.07244739383
0.07244739754
0.07244739552
0.07244739686
0.07244739883
0.07244739782
0.07244739819
0.07244739703
0.07244739817
0.07244739745
0.07244738256
0.07244733826
0.072447344
0.07244734293
0.07244735543
0.07244736449
0.07244734271
0.07244737829
0.07244737238
0.07244735972
0.07244736917
0.07244737614
0.07244737894
0.0724473827
0.07244738823
0.07244739006
0.07244739248
0.07244739544
0.07244739505
0.07244739723
0.0724473982
0.07244739701
0.07244739844
0.0724473984
0.0724473976
0.07244739818
0.07244739776
0.07244739712
0.07244739721
0.07244739638
0.07244714281
0.07244714069
0.07244740219
0.07244739262
0.07244735284
0.07244739123
0.07244737311
0.07244733
0.07244725003
0.07244738651
0.07244728112
0.0724472338
0.07244717771
0.0724473926
0.07244719668
0.07244717189
0.07244739899
0.0724471569
0.07244714829
0.07244714058
0.07244740245
0.07244714347
0.07244714085
0.07244740286
0.07244713947
0.07244713882
0.07244740123
0.07244713861
0.07244713867
0.07244713818
0.07244739919
0.07244713889
0.07244713917
0.07244713975
0.07244713906
)
;

boundaryField
{
    walls
    {
        type            zeroGradient;
    }
    wallFilmFace_top
    {
        type            zeroGradient;
    }
    region0_to_wallFilmRegion_wallFilmFace
    {
        type            zeroGradient;
    }
    mirrorFace_top
    {
        type            zeroGradient;
    }
    region0_to_wallFilmRegion_mirrorFace
    {
        type            zeroGradient;
    }
    procBoundary3to2
    {
        type            processor;
        value           nonuniform List<scalar> 
64
(
0.07244713493
0.07244713527
0.07244713741
0.07244713676
0.07244713978
0.07244731694
0.07244734965
0.07244736113
0.07244738123
0.07244713589
0.07244713576
0.07244713576
0.07244713576
0.07244711518
0.07244713482
0.07244713482
0.07244713482
0.07244713482
0.07244713482
0.07244708549
0.07244708363
0.0724470878
0.07244709899
0.07244709899
0.07244713468
0.07244713469
0.07244713469
0.07244713575
0.07244713461
0.07244713461
0.07244713936
0.07244720282
0.07244720282
0.07244724225
0.07244727943
0.07244713526
0.07244712255
0.07244713548
0.07244713392
0.07244714272
0.07244716878
0.07244734821
0.07244735803
0.07244734272
0.07244738427
0.07244737462
0.07244713548
0.07244714272
0.0724471354
0.07244713511
0.07244713613
0.07244714133
0.07244713676
0.07244714474
0.07244733641
0.07244718686
0.0724472458
0.07244735654
0.07244732229
0.07244738386
0.07244734532
0.07244735878
0.0724473938
0.07244738167
)
;
    }
}


// ************************************************************************* //
