/*--------------------------------*- C++ -*----------------------------------*\
  =========                 |
  \\      /  F ield         | OpenFOAM: The Open Source CFD Toolbox
   \\    /   O peration     | Website:  https://openfoam.org
    \\  /    A nd           | Version:  8
     \\/     M anipulation  |
\*---------------------------------------------------------------------------*/
FoamFile
{
    version     2.0;
    format      ascii;
    class       volScalarField;
    location    "0.2/wallFilmRegion";
    object      T;
}
// * * * * * * * * * * * * * * * * * * * * * * * * * * * * * * * * * * * * * //

dimensions      [0 0 0 1 0 0 0];

internalField   nonuniform List<scalar> 
1342
(
299.999938
299.9999828
299.999981
299.9999962
299.9999858
299.9999946
299.9999971
299.9999991
299.9999995
299.9999992
299.9999983
299.9999969
299.9999954
299.999994
299.9999932
299.9999934
299.9999947
299.9999964
299.9998694
299.9998716
299.999869
299.9999375
299.9999473
299.999966
299.9999778
299.999993
299.9999968
299.9999982
299.9999983
299.9999974
299.9999957
299.999993
299.9999898
299.9999864
299.9999832
299.9999821
299.9993646
299.9997873
299.999806
299.9997864
299.9999408
299.9999443
299.9999712
299.9999901
299.999995
299.9999963
299.9999957
299.9999936
299.9999905
299.9999865
299.9999825
299.9991864
299.9991697
299.9991041
299.9990746
299.999053
299.9994968
299.9992652
299.9991235
299.9993134
299.9996297
299.999957
299.9999629
299.9999765
299.9989378
299.9988978
299.998918
299.9989679
299.9988673
299.9991938
299.9990725
299.9988489
299.9988748
299.9991
299.999963
299.9999707
299.9988328
299.9987946
299.9983451
299.9986619
299.9987272
299.998717
299.9987034
299.9987102
299.9988219
299.9987691
299.998769
299.9987598
299.9999661
299.9991541
299.9996383
299.9998747
299.9999553
299.9999796
299.9999854
299.9999847
299.9999813
299.9999764
299.9998423
299.9999413
299.9999311
299.9999466
299.9999416
299.9999276
299.9999868
299.9999848
299.999908
299.999905
299.9999922
299.9999343
299.9999579
299.9999951
299.9999946
299.9999943
299.9999948
299.9999938
299.9999936
299.9999931
299.9999936
299.9999936
299.9999926
299.9999936
299.9999936
299.9999929
299.9999938
299.9999942
299.9999934
299.9999949
299.9999959
299.9999941
299.9999958
299.9999955
299.9999951
299.9999955
299.9999953
299.9999961
299.9999957
299.9999959
299.9999969
299.9999963
299.9999971
300.0001601
300
300
300.0002514
300
300
300.0001177
300
300
300.0000062
300.0002477
300.0002722
299.9999964
300.0002731
300.0002704
300.0000377
300.0002568
300
300.0002593
300
300
300.0001391
300
300
299.9999956
300
300.0000526
299.999996
300.0001378
300.0000689
299.9999979
300.000001
300.0000038
299.9999989
299.9999992
299.9999992
299.9999987
299.9999991
299.9999954
300
300
300
300
300
300
300
300
300
300
300
300
300
300
300
300
300
300
300
300
300
300
300
300
300
300
300
300
300
300
300.0002058
300
300
299.9999995
300.0002421
300.0000069
299.9999934
299.9999992
299.9999988
300
300
300
300
300
300
300
300
300
300
300
300
300
300
300
300
300
300
300
300
300
300
300
300
300
300
300
300
300
300
300
300
300
300.0002353
300
300
299.9999984
299.9999983
299.9999984
299.9999805
299.9999862
299.9999832
300
300
300
300
300
300
300
300
300
300
300
300
300
300
300
300
300
300
300
300
300
300
300
300
300
300
300
300
300
300
300
300
300
300
300
300
299.9999879
300.0000308
299.999988
299.9999887
299.9999889
299.9999877
300
300
300
300
300
300
300
300
300
300
300
300
300
300
300
300
300
300
300
300
300
300
300
300
300
300
300
300
300
300
300
300
300
300.0001969
299.9999959
299.9999929
299.9999897
299.9999912
299.9999926
300.0000987
300.0000607
300
300.0001123
300
300
300
300
300
300
300
300
300
300
300
300
300
300
300
300
300
300
300
300
300
300
300
300.0001527
300.0002037
300
300.0001356
300.0002301
300.0000138
299.9999879
299.9999912
299.9999914
299.9999914
299.9999927
299.9999955
299.9999958
299.999997
300.0000528
300.0000795
300
300.0000984
300.0000234
300.0001223
299.9999988
299.9999958
300.00012
299.9999953
299.9999952
300.0001995
299.9999948
299.9999942
300.000181
299.9999934
299.9999927
300.0001809
299.9999912
299.9999837
300.0000177
299.999978
299.9999735
299.9999742
299.9999693
299.9999651
299.9999621
299.9999625
299.9999631
299.9999843
299.9999659
299.9999834
299.9999908
299.9999918
299.9999942
299.999879
299.9997386
299.9998858
299.999748
299.9997436
299.9998591
299.9997225
299.9997136
299.9999922
299.9996924
299.9999921
299.9999923
299.9999923
299.9999923
299.9999924
299.9999924
299.9999925
299.9999925
299.9999925
299.9999926
299.999938
299.9993926
299.9998905
299.9995625
299.9997009
299.9995334
299.9996965
299.9997706
299.9998407
299.9998597
299.9998927
299.9998595
299.9995423
299.9995842
299.999513
299.9994601
299.9999924
299.9999926
299.9999927
299.9998066
299.9993439
299.9993535
299.9992505
299.9999923
299.9999924
299.9999925
299.9997036
299.9995297
299.9995603
299.9991369
299.9995081
299.9992121
299.9997315
299.9994757
299.9996492
299.999164
299.9991958
299.9991442
299.9990186
299.9989955
299.9990833
299.9989571
299.9990771
299.9990354
299.998942
299.9989227
299.9999927
299.9994134
299.9999928
299.9994211
299.9990418
299.9991713
299.9989701
299.9993765
299.9990864
299.9991697
299.999375
299.9989574
299.9987977
299.9990236
299.9991033
299.998812
299.9987785
299.9999929
299.9989108
299.9999929
299.9989269
299.9988519
299.9988522
299.9988639
299.9989372
299.9988509
299.9988129
299.9987494
299.9987348
299.9988342
299.999998
300.0000761
299.999998
300.0000675
299.9999979
299.9999922
299.9999945
299.999992
299.9999938
299.999992
299.9999942
299.999992
299.9999962
299.999964
299.999998
299.9999928
299.999895
299.999994
299.9998219
299.9999947
299.9999951
299.9999938
299.9999927
299.9999927
299.9999931
299.9999937
299.9999945
299.9999958
299.9999964
299.9999976
299.9999563
299.9999985
299.9999457
300.0001179
300.0001238
300.0002255
300.0000363
299.9999994
300
300.0002475
300.000252
300.0001559
299.999996
299.9999974
299.9999985
299.9999989
299.9999857
299.999987
299.9999981
300
300
300
300
300
300
300
300
300
300
300.0001795
300.0000019
299.9999992
299.9999843
300
300
300
300
300
300
300
300
300
300
300
300
299.9999986
299.9999877
300
300
300
300
300
300
300
300
300
300
300
300
299.9999996
299.9999874
300
300
300
300
300
300
300
300
300
300
300
300.0001886
299.9999901
299.9999908
300
300
300
300
300
300
300
300
300
300
300.0000344
299.9999908
299.9999937
299.9999966
300.0000008
300.000035
300.0000076
300.000156
300.0001728
300.0002072
300.0001067
300.0001112
299.9999903
299.9999644
299.9999625
299.9999878
299.9999941
299.9999971
299.9999985
299.9999956
299.9999949
299.9999937
299.9999915
299.9999863
299.9999767
299.9999687
299.9999678
299.9999784
299.9999935
299.999997
299.999997
299.9998305
299.9998723
299.9998558
299.9998631
299.9999922
299.9999923
299.9999924
299.9995645
299.999809
299.9996425
299.9997624
299.9995977
299.9999016
299.9999042
299.999886
299.9998884
299.9999769
299.9999797
299.9995551
299.9995319
299.9993403
299.9995154
299.9993097
299.9999923
299.9999925
299.9999926
299.9999926
299.9992826
299.9992391
299.9996166
299.9999522
299.9999557
299.9999601
299.9999773
299.9991286
299.9992628
299.9994628
299.9995851
299.9993597
299.9999478
299.9999349
299.999899
299.9999745
299.9999887
299.9999839
299.9999929
299.9999929
299.9999922
299.9999906
299.9999869
299.9999868
299.9999823
299.9988366
299.9989493
299.9990682
299.9999527
299.9999583
299.9999558
299.999915
299.9998313
299.9999767
299.999987
299.9999895
299.9999859
299.9999772
299.9999774
299.998871
299.9987957
299.9987049
299.9988104
299.9986979
299.9987663
299.9986929
299.9986762
299.9986678
299.9986671
299.9990225
299.9989244
299.9990824
299.9988708
299.998764
299.9987147
299.998691
299.998678
299.9986797
299.9989814
299.9988793
299.9989336
299.9988198
299.998744
299.9987057
299.9986776
299.9986836
299.9986828
299.9986349
299.9987385
299.9987253
299.9986908
299.9986652
299.9986561
299.99866
299.9986698
299.9986801
299.9999979
300.0000795
299.9999969
299.9999874
299.999998
300.0000708
299.9999971
299.9999972
299.9999993
299.9999757
299.999998
300.0000628
299.9999937
299.9999934
299.9999871
299.9999866
299.9999969
299.999992
299.9999935
299.9999935
299.9999681
299.9999922
299.9999939
299.999992
299.9999936
299.9999939
299.9999922
299.9999922
299.9999937
299.999992
299.9999944
299.9999948
299.9999922
299.9999923
299.9999942
299.999992
299.9999949
299.999995
299.9999923
299.9999923
299.9999963
299.9999949
299.9999952
299.9999957
299.9997347
299.9999767
299.9999977
299.9997552
299.9999969
299.9999969
299.9999381
299.9996131
299.9999974
299.9999984
299.9997133
299.9999969
299.9999984
299.9999979
299.9999986
299.9999987
299.9999986
299.9999435
299.9999903
299.9999121
299.9999172
299.999984
299.9999906
299.9999819
299.9999801
299.9999204
299.9999121
299.9999881
299.9999942
299.9999864
299.999988
299.9999939
299.9999565
299.9999582
299.9999625
299.9999922
299.999997
299.9999697
299.9999953
299.9999962
299.9999971
299.9999968
299.9999962
299.9999974
299.9999974
299.9999768
299.9999825
299.999987
300.0000195
299.9999969
299.9999993
299.9999977
299.9999967
299.9999964
299.9999959
299.9999992
299.9999963
299.9999953
299.9999952
299.9999956
299.9999954
299.9999994
299.9999988
299.999999
299.9999945
299.999995
299.9999944
299.9999988
299.999999
299.9999989
299.9999928
299.9999935
299.9999924
299.9999977
299.9999986
299.999998
299.9999897
299.999991
299.9999892
299.9999962
299.9999973
299.9999964
299.9999815
299.9999869
299.9999841
299.9999947
299.9999953
299.999994
299.9999722
299.9999814
299.999979
299.9999935
299.9999927
299.9999912
299.9999668
299.9999773
299.9999767
299.9999932
299.9999898
299.9999884
299.9999717
299.9999775
299.9999804
299.999994
299.9999872
299.9999863
299.9999888
299.9999857
299.9999899
299.9999956
299.9999858
299.999986
299.9999967
299.999996
299.9999929
299.9999861
299.9999869
299.9999863
299.999987
299.9999065
299.9998938
299.9998942
299.9998434
299.999821
299.9998625
299.9998391
299.9998401
299.9998261
299.9998702
299.9998349
299.9998357
299.9999464
299.9999394
299.9999431
299.9999503
299.9999542
299.9999442
299.9999473
299.9999558
299.9999595
299.9999514
299.9999717
299.9999668
299.9999659
299.9999614
299.9999962
299.9999865
299.9999977
299.9999938
299.9999984
299.9999958
299.9999968
299.999998
299.9999973
299.9999974
299.9999967
299.9999972
299.9999967
299.9999944
299.9999958
299.9999948
299.9999915
299.9999934
299.9999919
299.9999881
299.9999902
299.9999883
299.9999847
299.9999863
299.9999843
299.9999822
299.9999823
299.9999808
299.9999797
299.999978
299.9999762
299.9999716
299.9999755
299.9993897
299.9993148
299.9999926
299.9999927
299.9996926
299.9993901
299.9996239
299.9996792
299.9996913
299.9995432
299.9997632
299.9997858
299.9997798
299.9997166
299.9997227
299.9997988
299.9997743
299.9997087
299.9995859
299.9999427
299.9999432
299.9999421
299.9999377
299.9999469
299.9999448
299.9999495
299.9999529
299.9999578
299.9999588
299.999967
299.9999653
299.9999696
299.9999606
299.999965
299.99997
299.9999848
299.9999932
299.9999809
299.9999874
299.9999914
299.9999937
299.999996
299.9999949
299.9999953
299.9999962
299.9999948
299.9999952
299.9999946
299.9999936
299.9999922
299.9999922
299.9999887
299.9999886
299.9999906
299.9999867
299.9999844
299.9999845
299.9999793
299.9999822
299.9999797
299.9999751
299.9999773
299.9999753
299.9999716
299.9990501
299.9990471
299.9990383
299.9990278
299.9989971
299.998967
299.9992191
299.9992713
299.9990462
299.9989545
299.9989016
299.998882
299.9989096
299.9988396
299.9990536
299.998954
299.9990164
299.999316
299.999572
299.9995807
299.9993576
299.9990629
299.999358
299.999347
299.9990554
299.9999449
299.999948
299.9999451
299.9999502
299.9999536
299.9999491
299.9999666
299.9999589
299.9999623
299.9997669
299.999938
299.9998586
299.9999616
299.9999757
299.999968
299.9999792
299.9999911
299.9999855
299.9999901
299.9999915
299.9999902
299.9999903
299.9999887
299.9999865
299.9999844
299.9999823
299.9999821
299.9999699
299.9999741
299.9999732
299.9999776
299.9999676
299.9999665
299.9999709
299.9998947
299.9998362
299.9999596
299.9999835
299.9999916
299.9999887
299.9999933
299.9999922
299.999992
299.9999889
299.9999846
299.9999846
299.9999801
299.9999798
299.9989026
299.9988709
299.998831
299.9988132
299.9991137
299.9989831
299.9988749
299.9987675
299.998764
299.9987805
299.9987956
299.9988658
299.9989081
299.998815
299.9989076
299.9987601
299.9988462
299.9984559
299.9990182
299.9988299
299.9987258
299.9987884
299.9987164
299.9999928
299.9987384
299.9999926
299.9987025
299.9987281
299.9987261
299.9987228
299.9987269
299.9988469
299.9987358
299.9989059
299.9987521
299.9988635
299.9990358
299.9987659
299.9988871
299.9987711
299.9990722
299.9988875
299.9988713
299.9987663
299.998758
299.9988567
299.9988555
299.9987579
299.9999575
299.9999524
299.9999724
299.9999584
299.9999639
299.9999693
299.9999704
299.9989582
299.9995391
299.9992356
299.999716
299.999501
299.9996981
299.9998245
299.9999263
299.9999412
299.9998987
299.9999405
299.9999636
299.9999836
299.999976
299.9999838
299.9999825
299.9999856
299.9999855
299.9999883
299.9999866
299.9999874
299.9999863
299.9999851
299.9999835
299.9999819
299.9999815
299.9999796
299.9999758
299.9999732
299.9999734
299.9999743
299.9999673
299.9999709
299.9996286
299.9993068
299.9999484
299.9999009
299.999964
299.9999887
299.9999883
299.9999882
299.9999841
299.9999797
299.9999795
299.9988999
299.9989458
299.9988394
299.9989526
299.9989164
299.9987759
299.9988647
299.9988216
299.9986877
299.9989718
299.998879
299.9986995
299.9988163
299.9987719
299.9986838
299.9987396
299.9987163
299.9999868
299.9987003
299.9999721
299.9986657
299.9986815
299.9986749
299.9986732
299.9986716
299.9986733
299.9986794
299.9990058
299.9990253
299.9989871
299.9990433
299.9990339
299.9988708
299.9989551
299.9988996
299.9989607
299.9990242
299.9989328
299.9988076
299.9988587
299.9988026
299.9987342
299.9987622
299.9987339
299.9987005
299.9987151
299.9987019
299.9986833
299.9986934
299.9986867
299.9986769
299.9986819
299.99868
299.9986858
299.9986801
299.9986837
299.9987584
299.9989804
299.9989516
299.998957
299.9988944
299.998849
299.9989581
299.9987798
299.9988094
299.9988729
299.9988255
299.9987906
299.9987765
299.9987577
299.99873
299.9987208
299.9987087
299.9986938
299.9986958
299.9986849
299.99868
299.9986859
299.9986788
299.998679
299.998683
299.9986801
299.9986822
299.9986854
299.998685
299.9986891
299.99996
299.9999706
299.99866
299.998708
299.9989074
299.9987149
299.9988058
299.9990218
299.9994226
299.9987386
299.9992668
299.9995039
299.9997851
299.9987081
299.99969
299.9998142
299.9986761
299.9998894
299.9999325
299.9999711
299.9986587
299.9999566
299.9999698
299.9986567
299.9999767
299.99998
299.9986648
299.999981
299.9999807
299.9999832
299.9986751
299.9999796
299.9999782
299.9999753
299.9999787
)
;

boundaryField
{
    walls
    {
        type            zeroGradient;
    }
    wallFilmFace_top
    {
        type            zeroGradient;
    }
    region0_to_wallFilmRegion_wallFilmFace
    {
        type            zeroGradient;
    }
    mirrorFace_top
    {
        type            zeroGradient;
    }
    region0_to_wallFilmRegion_mirrorFace
    {
        type            zeroGradient;
    }
    procBoundary3to2
    {
        type            processor;
        value           nonuniform List<scalar> 
64
(
299.9999994
299.9999978
299.999987
299.9999903
299.9999751
299.9990873
299.9989233
299.9988658
299.998765
299.9999947
299.9999953
299.9999953
299.9999953
300.0000984
300
300
300
300
300
300.0002472
300.0002566
300.0002357
300.0001796
300.0001796
300.0000007
300.0000007
300.0000007
299.9999953
300.0000011
300.0000011
299.9999772
299.9996592
299.9996592
299.9994616
299.9992753
299.9999978
300.0000615
299.9999967
300.0000045
299.9999604
299.9998298
299.9989305
299.9988813
299.998958
299.9987498
299.9987982
299.9999967
299.9999604
299.9999971
299.9999986
299.9999935
299.9999674
299.9999903
299.9999503
299.9989897
299.9997392
299.9994438
299.9988888
299.9990605
299.9987519
299.998945
299.9988776
299.998702
299.9987628
)
;
    }
}


// ************************************************************************* //
