/*--------------------------------*- C++ -*----------------------------------*\
  =========                 |
  \\      /  F ield         | OpenFOAM: The Open Source CFD Toolbox
   \\    /   O peration     | Website:  https://openfoam.org
    \\  /    A nd           | Version:  8
     \\/     M anipulation  |
\*---------------------------------------------------------------------------*/
FoamFile
{
    version     2.0;
    format      ascii;
    class       volScalarField;
    location    "0.6/wallFilmRegion";
    object      kappa;
}
// * * * * * * * * * * * * * * * * * * * * * * * * * * * * * * * * * * * * * //

dimensions      [1 1 -3 -1 0 0 0];

internalField   nonuniform List<scalar> 
1342
(
0.6088099831
0.6088100396
0.608810011
0.6088100958
0.6088100978
0.608810009
0.6088100047
0.6088100042
0.6088100049
0.6088100058
0.6088100074
0.6088100079
0.6088100085
0.6088100017
0.6088100017
0.6088100029
0.6088100054
0.6088100076
0.6088099985
0.6088099938
0.6088100002
0.6088100024
0.6088100036
0.608810004
0.608810004
0.6088100037
0.6088099962
0.6088099937
0.6088100068
0.6088100019
0.6088101395
0.6088104136
0.6088100344
0.6088100219
0.6088100183
0.6088100154
0.6088100117
0.6088100073
0.6088100099
0.6088100113
0.6088100008
0.6088100009
0.6088100017
0.6088100033
0.6088100054
0.608809993
0.6088099925
0.6088100007
0.6088100017
0.608810003
0.6088100039
0.6088100041
0.6088100036
0.6088100108
0.6088100052
0.6088100002
0.6088100149
0.6088099914
0.6088101176
0.6088101905
0.6088100376
0.6088100084
0.6088100098
0.6088100073
0.6088100126
0.6088100131
0.6088100177
0.6088100168
0.6088100006
0.6088100006
0.608810001
0.6088100021
0.6088100041
0.6088100003
0.6088099951
0.6088099999
0.6088100027
0.6088100044
0.6088100051
0.6088100049
0.6088100039
0.6088100147
0.6088100083
0.6088100001
0.6088099952
0.6088099865
0.6088100348
0.6088101152
0.60881004
0.60881
0.6088100025
0.6088100034
0.6088100039
0.6088100055
0.6088100174
0.6088100204
0.6088100006
0.6088100004
0.6088100006
0.6088100011
0.6088100024
0.6088100033
0.6088100012
0.6088100025
0.6088100036
0.6088100042
0.6088100045
0.6088100046
0.6088100043
0.608809993
0.6088099953
0.6088099971
0.6088099933
0.6088099849
0.6088099987
0.6088116701
0.6088123336
0.6088099966
0.6088099995
0.6088100021
0.6088100022
0.6088100019
0.6088100012
0.6088100006
0.6088100001
0.6088100001
0.6088100002
0.6088100003
0.6088100005
0.6088100011
0.6088100021
0.6088100029
0.6088100033
0.6088100035
0.6088100038
0.6088100041
0.6088100045
0.6088100002
0.6088100013
0.6088100031
0.6088100045
0.6088099994
0.6088099879
0.6088099823
0.6088099832
0.6088099848
0.6088099959
0.6088099971
0.6088099999
0.6088100024
0.6088100026
0.6088100022
0.6088100021
0.6088100008
0.6088100005
0.6088100005
0.6088100006
0.608810001
0.6088100017
0.6088100026
0.6088100034
0.6088100042
0.608810005
0.6088100056
0.6088100057
0.6088100044
0.6088100156
0.6088100245
0.6088100157
0.6088100117
0.6088100115
0.6088100038
0.6088099855
0.6088099941
0.6088099973
0.6088099964
0.6088099968
0.6088099977
0.6088100009
0.6088100044
0.6088100021
0.608810002
0.6088100009
0.6088100007
0.6088100009
0.6088100013
0.6088100018
0.6088100026
0.6088100033
0.6088100041
0.6088100053
0.608810007
0.6088100089
0.6088100098
0.6088100042
0.6088099965
0.6088100042
0.6088100098
0.6088100123
0.6088100075
0.608810017
0.6088101552
0.6088099816
0.6088099839
0.6088099957
0.6088099972
0.6088099975
0.6088099988
0.6088100028
0.608810001
0.6088100009
0.608810001
0.6088100011
0.6088100015
0.608810002
0.6088100026
0.6088100032
0.608810004
0.6088100051
0.608810007
0.6088100097
0.6088100128
0.6088100142
0.608810004
0.6088099985
0.6088100035
0.6088100006
0.6088099999
0.6088099943
0.6088099882
0.6088100064
0.6088099906
0.6088099914
0.608809997
0.6088099983
0.6088099985
0.6088099992
0.6088100016
0.6088099997
0.6088099997
0.6088100013
0.6088100017
0.6088100022
0.6088100027
0.6088100032
0.608810004
0.608810005
0.6088100068
0.6088100096
0.608810013
0.6088100146
0.6088100121
0.6088100034
0.6088099889
0.6088100018
0.6088100007
0.6088099934
0.6088099925
0.6088099983
0.6088099986
0.6088099978
0.6088099974
0.6088099998
0.6088099991
0.6088099982
0.6088099973
0.6088099965
0.6088099963
0.6088099972
0.6088100005
0.608810002
0.6088100027
0.6088100033
0.608810004
0.6088100051
0.6088100067
0.608810009
0.6088100109
0.6088100109
0.6088100088
0.6088100065
0.6088100033
0.6088099907
0.6088099921
0.6088099827
0.6088099857
0.6088099885
0.6088099924
0.6088099955
0.6088099974
0.6088099982
0.6088099993
0.6088099974
0.6088099953
0.6088099977
0.6088099986
0.6088099989
0.6088099998
0.6088100004
0.6088100008
0.6088100011
0.6088100014
0.6088100018
0.6088100025
0.6088100039
0.6088100063
0.6088100082
0.6088100076
0.608810006
0.6088100048
0.6088100032
0.6088099944
0.6088099982
0.6088099839
0.6088099853
0.6088099856
0.608809983
0.6088099826
0.6088099845
0.6088099905
0.6088099984
0.6088099965
0.6088099941
0.6088099978
0.6088100003
0.6088100001
0.6088100005
0.6088100011
0.6088100016
0.608810002
0.6088100023
0.6088100027
0.6088100035
0.6088100049
0.6088100066
0.6088100069
0.6088100059
0.6088100048
0.6088100043
0.6088100032
0.6088099936
0.6088100063
0.6088100055
0.6088099898
0.6088099858
0.6088099825
0.6088099815
0.6088099816
0.608809984
0.6088099965
0.6088099955
0.6088099932
0.6088099964
0.6088100002
0.6088100003
0.6088100007
0.6088100014
0.6088100017
0.6088100028
0.6088100035
0.608810004
0.6088100047
0.6088100057
0.6088100063
0.6088100059
0.6088100051
0.6088100045
0.6088100042
0.6088100031
0.6088099938
0.6088099981
0.6088100041
0.6088099992
0.6088099881
0.6088099825
0.6088099842
0.6088099853
0.608809986
0.6088099958
0.6088099948
0.6088099929
0.6088099946
0.6088099996
0.6088100004
0.6088100008
0.6088100012
0.6088100003
0.6088100015
0.6088100035
0.6088100045
0.6088100052
0.6088100058
0.6088100059
0.6088100055
0.6088100049
0.6088100045
0.6088100044
0.608810003
0.608809998
0.6088099986
0.6088100012
0.6088100084
0.6088099977
0.608809983
0.6088099911
0.6088099915
0.6088099903
0.608809995
0.6088099942
0.6088099932
0.6088099961
0.6088100013
0.6088100006
0.6088100007
0.6088100002
0.60881
0.6088100001
0.6088100004
0.608810002
0.6088100046
0.6088100056
0.6088100056
0.6088100052
0.6088100048
0.6088100045
0.6088100045
0.6088100029
0.6088099981
0.6088100119
0.6088100036
0.6088100187
0.6088100138
0.6088099844
0.6088099922
0.6088100002
0.6088099958
0.608809995
0.6088099953
0.6088099965
0.6088100008
0.6088100039
0.608810001
0.6088100011
0.6088100009
0.60881
0.6088100004
0.6088100009
0.6088100016
0.6088100028
0.6088100037
0.6088100041
0.6088100044
0.6088100044
0.6088100045
0.6088100046
0.6088100028
0.608809998
0.60881
0.6088100017
0.6088100106
0.6088100218
0.6088099879
0.6088099968
0.6088099975
0.6088099985
0.6088099961
0.6088099987
0.6088100011
0.6088100036
0.6088100039
0.6088100015
0.6088100016
0.6088100016
0.6088100002
0.6088100005
0.6088100006
0.6088100009
0.6088100016
0.6088100024
0.608810003
0.6088100035
0.6088100038
0.6088100041
0.6088100043
0.6088100029
0.608809999
0.6088100008
0.608810002
0.608810006
0.6088100163
0.6088099938
0.6088100136
0.6088100194
0.6088099986
0.6088099968
0.6088099992
0.6088100017
0.608810004
0.6088100034
0.6088100018
0.6088100016
0.6088100014
0.6088100007
0.6088100004
0.6088100004
0.6088100008
0.6088100014
0.6088100021
0.6088100026
0.608810003
0.6088100034
0.6088100037
0.608810004
0.6088100029
0.6088100015
0.6088100019
0.6088100041
0.6088100101
0.6088100157
0.6088100004
0.6088100366
0.6088100241
0.6088100034
0.6088099965
0.6088099983
0.6088100001
0.6088100025
0.6088100029
0.6088100002
0.60881
0.6088100004
0.6088100004
0.6088100001
0.6088100001
0.6088100002
0.6088100005
0.608810001
0.6088100017
0.6088100025
0.608810003
0.6088100034
0.6088100037
0.6088100031
0.6088100019
0.6088100015
0.6088100015
0.6088100105
0.6088100149
0.6088100084
0.6088100272
0.6088100145
0.6088100086
0.6088099964
0.6088099979
0.6088099997
0.6088100016
0.6088100022
0.6088099997
0.6088099996
0.6088100003
0.6088100004
0.6088100001
0.6088100001
0.6088100003
0.6088100005
0.608810001
0.6088100018
0.6088100025
0.608810003
0.6088100033
0.6088100035
0.6088100032
0.6088100015
0.6088100009
0.6088100005
0.6088100071
0.6088100116
0.6088100126
0.6088100169
0.6088100097
0.6088100073
0.6088099982
0.608809998
0.6088099996
0.6088100008
0.6088100013
0.6088099999
0.6088099998
0.6088100004
0.6088100007
0.6088100002
0.6088100002
0.6088100004
0.6088100008
0.6088100014
0.6088100021
0.6088100027
0.6088100031
0.6088100033
0.6088100034
0.6088100034
0.6088100013
0.6088100007
0.6088100004
0.6088100046
0.6088100079
0.6088100108
0.6088100111
0.608810007
0.608810005
0.6088100008
0.608809999
0.6088099997
0.6088100006
0.608810001
0.6088100004
0.6088100003
0.6088100006
0.6088100009
0.6088100004
0.6088100004
0.6088100007
0.6088100011
0.6088100018
0.6088100025
0.6088100029
0.6088100032
0.6088100034
0.6088100035
0.6088100036
0.6088100015
0.6088100008
0.6088100007
0.6088100031
0.608810003
0.608809998
0.6088100005
0.6088100037
0.6088100029
0.6088100016
0.6088100003
0.6088100002
0.6088100007
0.6088100011
0.6088100008
0.6088100008
0.6088100009
0.6088100011
0.6088100006
0.6088100007
0.608810001
0.6088100016
0.6088100022
0.6088100027
0.6088100031
0.6088100034
0.6088100036
0.6088100037
0.6088100038
0.608810002
0.6088100012
0.608810001
0.6088100025
0.6088100026
0.6088099987
0.6088100014
0.6088100031
0.6088100022
0.6088100017
0.6088100011
0.6088100008
0.608810001
0.6088100012
0.6088100011
0.6088100011
0.6088100011
0.6088100012
0.6088100009
0.6088100011
0.6088100014
0.6088100019
0.6088100024
0.6088100029
0.6088100033
0.6088100036
0.6088100039
0.6088100041
0.6088100041
0.6088100026
0.6088100017
0.6088100014
0.6088100024
0.6088100028
0.6088100006
0.608810003
0.6088100028
0.608810002
0.6088100018
0.6088100014
0.6088100012
0.6088100014
0.6088100014
0.6088100013
0.6088100013
0.6088100013
0.6088100013
0.6088100012
0.6088100013
0.6088100016
0.608810002
0.6088100025
0.6088100031
0.6088100036
0.608810004
0.6088100044
0.6088100046
0.6088100045
0.6088100033
0.6088100024
0.6088100019
0.6088100024
0.6088100029
0.6088100029
0.6088100038
0.6088100025
0.6088100019
0.6088100018
0.6088100017
0.6088100016
0.6088100017
0.6088100016
0.6088100015
0.6088100015
0.6088100014
0.6088100014
0.6088100014
0.6088100015
0.6088100018
0.6088100022
0.6088100027
0.6088100034
0.608810004
0.6088100046
0.608810005
0.6088100052
0.6088100048
0.608810004
0.6088100031
0.6088100024
0.6088100025
0.6088100029
0.608810004
0.6088100039
0.6088100023
0.6088100017
0.6088100019
0.6088100019
0.6088100019
0.6088100019
0.6088100018
0.6088100018
0.6088100017
0.6088100017
0.6088100017
0.6088100017
0.6088100018
0.6088100021
0.6088100025
0.6088100031
0.6088100038
0.6088100045
0.6088100052
0.608810006
0.6088100056
0.6088100052
0.608810005
0.6088100038
0.608810003
0.6088100026
0.608810003
0.6088100041
0.6088100037
0.6088100023
0.6088100016
0.6088100019
0.6088100021
0.6088100021
0.608810002
0.6088100019
0.608810002
0.608810002
0.6088100021
0.6088100021
0.6088100021
0.6088100022
0.6088100025
0.608810003
0.6088100036
0.6088100043
0.6088100051
0.608810006
0.6088100045
0.6088100031
0.6088100039
0.6088100031
0.6088100041
0.6088100036
0.6088100029
0.6088100031
0.6088100039
0.6088100035
0.6088100023
0.6088100017
0.608810002
0.6088100022
0.6088100021
0.6088100019
0.6088100019
0.6088100021
0.6088100023
0.6088100025
0.6088100026
0.6088100026
0.6088100027
0.608810003
0.6088100034
0.608810004
0.6088100047
0.6088100055
0.6088100065
0.6088100035
0.6088100029
0.6088100027
0.608810002
0.6088100021
0.6088100021
0.6088100021
0.6088100021
0.6088100022
0.6088100022
0.6088100022
0.6088100021
0.6088100021
0.6088100019
0.6088100018
0.6088100017
0.6088100017
0.6088100017
0.6088100018
0.6088100018
0.608810002
0.6088100021
0.6088100023
0.6088100026
0.6088100028
0.608810003
0.6088100032
0.6088100034
0.6088100036
0.6088100034
0.6088100031
0.6088100024
0.6088099825
0.6088099616
0.6088099976
0.6088090437
0.6088099976
0.6088087261
0.6088086349
0.6088085498
0.6088085547
0.6088083729
0.6088083084
0.6088082493
0.6088085148
0.6088084044
0.6088083437
0.608808273
0.6088086049
0.6088085346
0.6088084493
0.6088084315
0.6088084169
0.6088085688
0.6088086037
0.6088086609
0.6088099976
0.6088099973
0.6088099973
0.6088099976
0.6088099972
0.6088099969
0.6088099973
0.6088099964
0.6088099956
0.6088099972
0.6088099939
0.6088099875
0.6088099973
0.6088099862
0.6088099867
0.6088099973
0.608809988
0.608809989
0.608809985
0.6088099895
0.6088099896
0.6088099845
0.6088099894
0.6088099892
0.6088099847
0.6088099898
0.6088099921
0.6088099838
0.6088099966
0.6088099857
0.6088099974
0.6088099975
0.6088099975
0.6088099976
0.6088099976
0.6088099976
0.6088099976
0.6088099977
0.6088099977
0.6088099978
0.6088099977
0.6088099977
0.6088099978
0.6088099978
0.6088099977
0.6088099976
0.6088099977
0.6088099978
0.6088099978
0.6088099979
0.608809998
0.6088099976
0.6088099976
0.6088099977
0.6088099978
0.608809996
0.6088099971
0.6088099974
0.6088099971
0.6088099976
0.6088099974
0.6088099963
0.608809997
0.608809997
0.6088099846
0.6088099874
0.608809986
0.6088099974
0.6088099974
0.6088099974
0.6088099971
0.6088099971
0.608809997
0.6088099973
0.6088099973
0.6088099972
0.608809997
0.6088099971
0.608809997
0.6088099973
0.6088099973
0.6088099973
0.6088099971
0.6088099973
0.6088099972
0.6088099974
0.6088099974
0.6088099975
0.6088099973
0.6088099974
0.6088099973
0.6088099975
0.6088099922
0.608809995
0.6088099973
0.6088099967
0.6088099972
0.6088099927
0.6088099823
0.6088099913
0.608809995
0.6088099844
0.6088099827
0.6088099834
0.6088099879
0.6088087792
0.6088087732
0.6088086218
0.6088086592
0.608808556
0.6088085083
0.6088087077
0.6088085428
0.6088085213
0.6088085408
0.608809997
0.6088099974
0.6088099973
0.6088099957
0.6088099968
0.6088099961
0.6088099888
0.6088099945
0.6088099902
0.6088099875
0.6088099883
0.608809989
0.60880999
0.6088099903
0.6088099913
0.6088099906
0.6088099917
0.6088099917
0.6088099905
0.6088099917
0.6088099921
0.6088099941
0.6088099937
0.6088099955
0.6088085563
0.6088084421
0.6088084309
0.6088086289
0.6088083966
0.6088083635
0.6088099975
0.6088099977
0.6088099976
0.6088099965
0.6088099974
0.608809997
0.6088099919
0.608809996
0.6088099935
0.6088099909
0.6088099922
0.6088099929
0.6088099927
0.6088099936
0.6088099941
0.608809993
0.6088099942
0.6088099942
0.6088099939
0.6088099946
0.6088099955
0.6088099966
0.6088099965
0.6088099973
0.6088084528
0.608808543
0.60880845
0.6088083256
0.6088083924
0.6088083528
0.6088082929
0.6088099973
0.6088099978
0.6088099976
0.6088099949
0.6088099972
0.608809996
0.6088099946
0.6088099959
0.608809996
0.6088099954
0.6088099962
0.6088099963
0.6088099955
0.6088099963
0.6088099966
0.6088099966
0.6088099968
0.6088099972
0.6088085245
0.6088084873
0.6088083861
0.6088084666
0.608808438
0.6088083272
0.6088084155
0.6088099968
0.608809998
0.6088099976
0.6088099968
0.6088099973
0.608809997
0.6088099969
0.608809997
0.6088099971
0.6088099971
0.6088099972
0.6088099975
0.6088086643
0.6088099977
0.6088099977
0.6088099977
0.6088099966
0.6088090985
0.6088099966
0.6088090954
0.6088099966
0.6088092548
0.6088099977
0.6088099977
0.6088099969
0.6088099861
0.6088099974
0.6088099975
0.608809997
0.6088099972
0.6088099973
0.6088099971
0.6088099973
0.6088099973
0.6088099972
0.6088099973
0.6088099974
0.6088099974
0.6088099966
0.6088099975
0.6088099974
0.6088099837
0.6088099825
0.6088099959
0.6088099849
0.6088099824
0.6088099842
0.6088099831
0.6088099883
0.6088099974
0.6088089241
0.6088087036
0.6088086851
0.6088099973
0.6088099965
0.608809994
0.608809987
0.6088099889
0.6088099905
0.6088099904
0.6088099917
0.6088099973
0.6088089667
0.6088086756
0.6088084914
0.6088084826
0.6088084513
0.6088083983
0.6088084326
0.6088099976
0.6088099972
0.6088099952
0.6088099902
0.608809992
0.6088099929
0.6088099931
0.6088099954
0.6088099977
0.6088099978
0.6088099976
0.6088099967
0.6088099942
0.6088099951
0.6088099954
0.6088099959
0.6088099973
0.6088099978
0.6088086687
0.6088086157
0.608808532
0.6088084408
0.6088084457
0.6088083534
0.6088099979
0.6088099976
0.6088099969
0.608809997
0.6088099968
0.6088099973
0.6088099977
0.6088084728
0.6088084885
0.6088084808
0.6088099979
0.6088086677
0.6088088365
0.6088085997
0.6088086336
0.608808565
0.6088086899
0.608809997
0.6088085873
0.6088086168
0.6088087345
0.6088087329
0.6088099968
0.6088084245
0.6088087174
0.6088087911
0.6088088595
0.6088099973
0.6088084091
0.6088086112
0.6088086864
0.6088087596
0.6088099965
0.608809284
0.6088099976
0.6088099965
0.6088092162
0.6088089805
0.6088099966
0.6088090531
0.6088099957
0.6088099939
0.6088088852
0.6088088172
0.6088099966
0.6088091868
0.6088099907
0.6088099908
0.6088088275
0.6088089537
0.6088099911
0.6088089999
0.6088099841
0.6088099833
0.6088099854
0.6088099825
0.6088099857
0.6088092724
0.6088099845
0.6088092653
0.6088090741
0.6088099976
0.6088088935
0.6088088468
0.6088088032
0.6088087586
0.6088087163
0.6088086781
0.6088085412
0.6088084359
0.6088087448
0.6088086985
0.6088087754
0.6088086116
0.6088086807
0.6088086565
0.6088085676
0.6088085908
0.6088085277
0.608808488
0.6088083439
0.6088082951
0.6088082821
0.6088084426
0.6088085253
0.6088085533
0.6088085139
0.6088085148
0.60880848
0.6088084444
0.6088084259
0.6088083808
0.6088084102
0.6088085846
0.608808485
0.6088083975
0.6088084125
0.6088083595
0.6088083208
0.6088085492
0.6088085214
0.6088086383
0.6088086068
0.6088084208
0.6088085553
0.6088085404
0.6088085472
0.6088084378
0.6088084879
0.6088085865
0.6088084919
0.6088084991
0.6088084851
0.6088085095
0.6088085205
0.6088085372
0.6088084889
0.608808562
0.6088085018
0.6088084658
0.6088084818
0.6088086285
0.6088086832
0.6088085521
0.6088086223
0.608808614
0.6088086607
0.608808638
0.6088086846
0.6088087371
0.6088087446
0.6088085291
0.6088084778
0.6088085182
0.6088086622
0.608808621
0.6088086242
0.6088087454
0.6088086148
0.6088086259
0.6088086443
0.6088086303
0.6088084058
0.608808582
0.6088087606
0.6088086543
0.6088087019
0.6088088225
0.6088087384
0.6088087743
0.6088088137
0.6088085532
0.6088084341
0.6088085288
0.6088086529
0.6088085704
0.6088086025
0.6088087209
0.6088086304
0.6088086612
0.6088086276
0.6088086976
)
;

boundaryField
{
    walls
    {
        type            zeroGradient;
    }
    wallFilmFace_top
    {
        type            zeroGradient;
    }
    region0_to_wallFilmRegion_wallFilmFace
    {
        type            zeroGradient;
    }
    mirrorFace_top
    {
        type            zeroGradient;
    }
    region0_to_wallFilmRegion_mirrorFace
    {
        type            zeroGradient;
    }
    procBoundary2to0
    {
        type            processor;
        value           nonuniform List<scalar> 
26
(
0.6088099851
0.6088100462
0.6088100267
0.6088100509
0.6088103928
0.6088100187
0.6088100054
0.6088100046
0.6088100056
0.6088100098
0.6088100087
0.6088100076
0.6088100079
0.6088100045
0.6088100045
0.6088100059
0.6088100071
0.6088100071
0.6088100053
0.6088099992
0.608810002
0.6088100038
0.6088100046
0.6088100052
0.608810006
0.6088100033
)
;
    }
    procBoundary2to1
    {
        type            processor;
        value           nonuniform List<scalar> 
33
(
0.6088105551
0.6088105551
0.6088099993
0.6088099993
0.6088100152
0.6088100188
0.6088099932
0.6088099932
0.6088100026
0.6088099939
0.6088099847
0.6088099919
0.6088099865
0.6088099868
0.6088099885
0.608809993
0.6088099935
0.6088099939
0.6088099936
0.6088099963
0.6088099994
0.6088100026
0.6088100032
0.6088100024
0.608810002
0.6088100021
0.6088100025
0.6088100031
0.6088100039
0.6088100049
0.6088100064
0.6088100033
0.6088100016
)
;
    }
    procBoundary2to3
    {
        type            processor;
        value           nonuniform List<scalar> 
64
(
0.6088099672
0.6088090047
0.6088089622
0.6088088909
0.6088085107
0.6088082186
0.6088082269
0.6088084437
0.6088087038
0.6088099841
0.6088099968
0.6088099855
0.6088099964
0.6088099968
0.6088099969
0.6088099969
0.6088099969
0.608809997
0.6088099971
0.6088099972
0.6088099972
0.6088099972
0.608809997
0.6088099969
0.6088099969
0.6088099961
0.6088099904
0.6088099904
0.6088099826
0.6088099904
0.6088087378
0.6088085466
0.6088087378
0.6088084069
0.6088083568
0.6088099966
0.6088093236
0.6088099841
0.6088099874
0.6088087378
0.6088083106
0.6088085973
0.6088086879
0.6088087333
0.6088089018
0.6088088025
0.6088099913
0.6088090919
0.6088099843
0.6088092275
0.6088090047
0.6088089234
0.6088086443
0.6088084481
0.6088082256
0.6088083498
0.6088083965
0.6088083349
0.6088085026
0.6088085954
0.6088087281
0.6088086932
0.6088088566
0.6088087393
)
;
    }
}


// ************************************************************************* //
