/*--------------------------------*- C++ -*----------------------------------*\
  =========                 |
  \\      /  F ield         | OpenFOAM: The Open Source CFD Toolbox
   \\    /   O peration     | Website:  https://openfoam.org
    \\  /    A nd           | Version:  8
     \\/     M anipulation  |
\*---------------------------------------------------------------------------*/
FoamFile
{
    version     2.0;
    format      ascii;
    class       volScalarField;
    location    "0.6/wallFilmRegion";
    object      mu;
}
// * * * * * * * * * * * * * * * * * * * * * * * * * * * * * * * * * * * * * //

dimensions      [1 -1 -1 0 0 0 0];

internalField   nonuniform List<scalar> 
1342
(
0.0008861476466
0.0008861468569
0.0008861472564
0.0008861460736
0.0008861460444
0.0008861472842
0.0008861473453
0.0008861473512
0.0008861473423
0.0008861473297
0.0008861473071
0.0008861472995
0.0008861472922
0.000886147387
0.000886147386
0.0008861473693
0.0008861473355
0.000886147304
0.0008861474312
0.0008861474965
0.0008861474071
0.0008861473771
0.0008861473596
0.0008861473548
0.0008861473547
0.0008861473593
0.0008861474629
0.0008861474986
0.0008861473157
0.0008861473834
0.0008861454629
0.0008861416361
0.0008861469295
0.0008861471043
0.0008861471553
0.0008861471949
0.0008861472465
0.0008861473079
0.0008861472722
0.0008861472521
0.0008861473986
0.0008861473978
0.0008861473872
0.0008861473642
0.0008861473343
0.0008861475085
0.0008861475154
0.0008861474
0.0008861473863
0.000886147368
0.0008861473556
0.0008861473532
0.0008861473596
0.0008861472594
0.0008861473378
0.0008861474081
0.0008861472029
0.0008861475309
0.0008861457689
0.000886144751
0.0008861468854
0.0008861472936
0.0008861472737
0.0008861473078
0.000886147235
0.0008861472275
0.0008861471631
0.000886147176
0.0008861474016
0.0008861474026
0.0008861473966
0.0008861473813
0.0008861473532
0.0008861474058
0.0008861474786
0.0008861474123
0.0008861473731
0.0008861473493
0.0008861473393
0.0008861473416
0.000886147356
0.0008861472044
0.0008861472938
0.0008861474086
0.0008861474776
0.0008861475983
0.0008861469239
0.0008861458026
0.0008861468524
0.0008861474109
0.0008861473749
0.0008861473622
0.0008861473555
0.0008861473333
0.0008861471679
0.0008861471249
0.0008861474024
0.0008861474049
0.0008861474026
0.0008861473943
0.0008861473763
0.0008861473649
0.0008861473937
0.000886147375
0.0008861473596
0.0008861473514
0.0008861473478
0.0008861473464
0.0008861473508
0.0008861475087
0.0008861474754
0.0008861474514
0.0008861475045
0.0008861476214
0.0008861474279
0.000886124095
0.000886114833
0.0008861474572
0.000886147418
0.0008861473816
0.0008861473791
0.0008861473833
0.0008861473942
0.0008861474025
0.0008861474089
0.0008861474089
0.0008861474081
0.0008861474064
0.0008861474027
0.0008861473944
0.0008861473809
0.0008861473695
0.0008861473645
0.0008861473612
0.0008861473577
0.0008861473538
0.0008861473476
0.0008861474072
0.0008861473917
0.0008861473664
0.0008861473474
0.0008861474189
0.0008861475797
0.0008861476574
0.0008861476446
0.0008861476224
0.0008861474671
0.0008861474505
0.0008861474111
0.0008861473765
0.0008861473735
0.0008861473794
0.0008861473807
0.0008861473991
0.0008861474039
0.0008861474039
0.0008861474015
0.0008861473962
0.0008861473861
0.0008861473738
0.0008861473632
0.0008861473517
0.00088614734
0.0008861473328
0.000886147331
0.0008861473488
0.0008861471927
0.0008861470688
0.0008861471907
0.0008861472474
0.0008861472499
0.0008861473568
0.0008861476123
0.0008861474924
0.0008861474487
0.0008861474604
0.0008861474546
0.0008861474418
0.0008861473985
0.0008861473483
0.0008861473812
0.000886147383
0.0008861473984
0.0008861474001
0.0008861473978
0.0008861473928
0.0008861473848
0.0008861473746
0.0008861473643
0.0008861473531
0.0008861473364
0.0008861473125
0.0008861472855
0.0008861472729
0.000886147352
0.0008861474594
0.0008861473514
0.0008861472732
0.0008861472389
0.0008861473052
0.0008861471735
0.0008861452433
0.0008861476669
0.0008861476355
0.0008861474705
0.00088614745
0.0008861474446
0.0008861474272
0.0008861473708
0.0008861473968
0.0008861473977
0.0008861473965
0.0008861473944
0.0008861473895
0.0008861473824
0.0008861473742
0.0008861473653
0.0008861473548
0.000886147339
0.0008861473124
0.0008861472744
0.000886147231
0.0008861472119
0.0008861473551
0.0008861474318
0.0008861473615
0.0008861474021
0.0008861474123
0.0008861474904
0.0008861475746
0.0008861473206
0.000886147542
0.0008861475301
0.0008861474515
0.0008861474334
0.0008861474306
0.0008861474216
0.0008861473883
0.0008861474148
0.0008861474143
0.0008861473926
0.0008861473866
0.0008861473801
0.0008861473729
0.0008861473651
0.0008861473552
0.0008861473402
0.0008861473151
0.0008861472756
0.0008861472285
0.0008861472067
0.0008861472416
0.0008861473635
0.0008861475659
0.0008861473856
0.0008861474004
0.0008861475029
0.0008861475155
0.0008861474334
0.0008861474303
0.0008861474404
0.000886147446
0.0008861474136
0.000886147423
0.000886147435
0.0008861474476
0.0008861474585
0.0008861474625
0.0008861474499
0.000886147403
0.0008861473831
0.0008861473725
0.0008861473639
0.0008861473541
0.0008861473396
0.0008861473165
0.0008861472847
0.0008861472576
0.0008861472582
0.0008861472879
0.0008861473203
0.0008861473649
0.0008861475407
0.0008861475209
0.0008861476518
0.00088614761
0.0008861475705
0.0008861475169
0.000886147473
0.0008861474464
0.0008861474353
0.0008861474197
0.0008861474461
0.0008861474764
0.000886147443
0.0008861474304
0.0008861474256
0.0008861474131
0.0008861474042
0.000886147399
0.0008861473951
0.0008861473907
0.0008861473847
0.0008861473748
0.0008861473557
0.0008861473219
0.0008861472954
0.0008861473046
0.000886147327
0.0008861473428
0.0008861473654
0.0008861474889
0.0008861474353
0.0008861476349
0.0008861476155
0.0008861476113
0.0008861476475
0.0008861476537
0.0008861476262
0.0008861475426
0.000886147432
0.0008861474596
0.0008861474929
0.0008861474413
0.0008861474059
0.0008861474085
0.000886147404
0.0008861473952
0.0008861473874
0.0008861473822
0.0008861473781
0.0008861473725
0.000886147362
0.000886147342
0.000886147318
0.0008861473142
0.0008861473287
0.0008861473428
0.0008861473503
0.000886147366
0.0008861474994
0.0008861473228
0.0008861473329
0.0008861475527
0.0008861476084
0.0008861476552
0.0008861476686
0.0008861476678
0.0008861476331
0.0008861474593
0.0008861474727
0.0008861475049
0.0008861474609
0.0008861474076
0.0008861474063
0.0008861474006
0.0008861473911
0.0008861473866
0.0008861473711
0.0008861473617
0.0008861473548
0.0008861473449
0.0008861473308
0.0008861473219
0.0008861473273
0.000886147339
0.0008861473478
0.0008861473513
0.0008861473673
0.0008861474975
0.000886147437
0.0008861473527
0.0008861474221
0.0008861475764
0.000886147654
0.0008861476315
0.0008861476155
0.0008861476052
0.0008861474691
0.0008861474832
0.0008861475096
0.0008861474852
0.0008861474163
0.0008861474044
0.0008861473996
0.0008861473938
0.0008861474063
0.0008861473899
0.0008861473616
0.0008861473478
0.0008861473384
0.0008861473297
0.0008861473274
0.0008861473338
0.0008861473424
0.0008861473481
0.0008861473495
0.0008861473689
0.0008861474379
0.0008861474294
0.0008861473938
0.000886147293
0.0008861474427
0.0008861476474
0.000886147534
0.0008861475294
0.0008861475456
0.0008861474797
0.0008861474916
0.0008861475049
0.0008861474655
0.0008861473916
0.0008861474016
0.0008861474008
0.000886147408
0.0008861474106
0.0008861474095
0.0008861474044
0.0008861473828
0.000886147346
0.0008861473325
0.0008861473325
0.0008861473376
0.0008861473434
0.000886147347
0.0008861473472
0.0008861473702
0.0008861474375
0.0008861472449
0.0008861473596
0.0008861471499
0.0008861472182
0.0008861476284
0.0008861475192
0.0008861474082
0.0008861474694
0.0008861474805
0.0008861474766
0.0008861474593
0.0008861473995
0.0008861473565
0.0008861473968
0.0008861473946
0.0008861473984
0.0008861474099
0.0008861474054
0.0008861473983
0.0008861473876
0.0008861473711
0.0008861473592
0.0008861473526
0.0008861473494
0.0008861473484
0.0008861473481
0.0008861473468
0.0008861473708
0.0008861474386
0.0008861474104
0.000886147387
0.0008861472623
0.0008861471061
0.0008861475792
0.0008861474555
0.0008861474452
0.000886147431
0.0008861474642
0.0008861474285
0.0008861473953
0.0008861473607
0.0008861473565
0.000886147389
0.0008861473884
0.0008861473876
0.0008861474076
0.000886147404
0.0008861474026
0.0008861473974
0.0008861473878
0.0008861473767
0.0008861473678
0.0008861473616
0.0008861473568
0.0008861473529
0.0008861473497
0.0008861473705
0.0008861474243
0.0008861473998
0.0008861473823
0.0008861473272
0.0008861471832
0.0008861474965
0.00088614722
0.000886147139
0.0008861474292
0.0008861474546
0.0008861474222
0.000886147386
0.0008861473548
0.000886147363
0.0008861473847
0.0008861473883
0.0008861473905
0.0008861474008
0.0008861474045
0.0008861474045
0.0008861473998
0.0008861473912
0.0008861473816
0.0008861473738
0.0008861473678
0.0008861473629
0.0008861473585
0.0008861473546
0.0008861473694
0.0008861473894
0.0008861473839
0.0008861473527
0.0008861472695
0.0008861471915
0.000886147405
0.0008861468999
0.0008861470734
0.0008861473626
0.0008861474598
0.0008861474342
0.0008861474086
0.0008861473758
0.0008861473701
0.0008861474074
0.000886147411
0.0008861474051
0.0008861474048
0.0008861474091
0.0008861474088
0.0008861474075
0.0008861474039
0.0008861473966
0.0008861473862
0.0008861473757
0.000886147368
0.0008861473628
0.0008861473593
0.0008861473677
0.0008861473836
0.0008861473897
0.0008861473888
0.0008861472644
0.0008861472024
0.0008861472936
0.0008861470307
0.0008861472075
0.0008861472906
0.0008861474609
0.0008861474398
0.0008861474142
0.0008861473886
0.0008861473798
0.0008861474152
0.0008861474155
0.0008861474058
0.0008861474045
0.0008861474088
0.0008861474083
0.0008861474067
0.000886147403
0.0008861473957
0.0008861473852
0.0008861473753
0.0008861473687
0.0008861473646
0.0008861473619
0.0008861473656
0.0008861473888
0.0008861473971
0.0008861474031
0.0008861473117
0.000886147249
0.000886147235
0.0008861471745
0.0008861472747
0.0008861473082
0.0008861474348
0.000886147438
0.0008861474166
0.0008861473998
0.0008861473924
0.0008861474116
0.0008861474129
0.0008861474051
0.0008861474011
0.0008861474076
0.000886147407
0.0008861474047
0.0008861473998
0.0008861473911
0.0008861473806
0.0008861473725
0.0008861473677
0.0008861473647
0.0008861473626
0.0008861473631
0.0008861473917
0.0008861474002
0.0008861474045
0.0008861473465
0.0008861473006
0.000886147259
0.0008861472551
0.0008861473131
0.0008861473412
0.0008861473995
0.0008861474246
0.0008861474146
0.000886147402
0.000886147396
0.000886147405
0.0008861474057
0.0008861474016
0.0008861473975
0.0008861474052
0.0008861474045
0.0008861474012
0.0008861473945
0.0008861473849
0.0008861473756
0.0008861473696
0.000886147366
0.0008861473635
0.0008861473615
0.0008861473601
0.0008861473888
0.0008861473985
0.0008861474011
0.0008861473674
0.000886147369
0.0008861474388
0.0008861474033
0.0008861473584
0.0008861473698
0.000886147388
0.000886147406
0.0008861474075
0.0008861474002
0.0008861473957
0.0008861473996
0.0008861473988
0.0008861473974
0.0008861473947
0.0008861474016
0.0008861474005
0.000886147396
0.0008861473885
0.0008861473796
0.0008861473721
0.0008861473669
0.0008861473634
0.0008861473607
0.0008861473586
0.0008861473566
0.0008861473826
0.0008861473934
0.0008861473959
0.0008861473748
0.0008861473737
0.000886147429
0.0008861473914
0.0008861473666
0.0008861473796
0.0008861473861
0.0008861473954
0.0008861473994
0.000886147396
0.0008861473937
0.0008861473956
0.0008861473952
0.0008861473946
0.0008861473933
0.0008861473972
0.0008861473956
0.0008861473909
0.0008861473843
0.0008861473769
0.00088614737
0.0008861473641
0.0008861473595
0.0008861473561
0.0008861473537
0.0008861473525
0.0008861473742
0.0008861473862
0.0008861473902
0.0008861473771
0.0008861473707
0.000886147402
0.0008861473691
0.000886147371
0.0008861473822
0.0008861473853
0.0008861473903
0.0008861473931
0.000886147391
0.0008861473907
0.0008861473922
0.0008861473925
0.0008861473926
0.0008861473923
0.0008861473935
0.0008861473918
0.0008861473878
0.0008861473822
0.0008861473753
0.0008861473676
0.0008861473601
0.000886147354
0.0008861473496
0.0008861473468
0.0008861473479
0.0008861473647
0.0008861473772
0.0008861473842
0.0008861473773
0.0008861473695
0.0008861473702
0.0008861473574
0.000886147375
0.0008861473843
0.0008861473846
0.0008861473867
0.000886147388
0.0008861473867
0.0008861473875
0.000886147389
0.0008861473898
0.0008861473903
0.0008861473904
0.0008861473905
0.0008861473889
0.0008861473854
0.00088614738
0.0008861473725
0.0008861473635
0.0008861473544
0.0008861473466
0.0008861473409
0.0008861473374
0.0008861473431
0.0008861473547
0.0008861473672
0.0008861473769
0.000886147376
0.0008861473693
0.0008861473544
0.0008861473564
0.0008861473776
0.0008861473863
0.0008861473841
0.0008861473833
0.0008861473838
0.0008861473839
0.0008861473849
0.0008861473858
0.0008861473864
0.0008861473868
0.000886147387
0.0008861473868
0.0008861473851
0.0008861473816
0.0008861473757
0.0008861473674
0.0008861473573
0.0008861473469
0.0008861473377
0.0008861473269
0.0008861473316
0.000886147338
0.0008861473406
0.0008861473578
0.0008861473679
0.0008861473735
0.0008861473684
0.0008861473527
0.0008861473587
0.0008861473786
0.0008861473874
0.0008861473838
0.0008861473806
0.0008861473812
0.000886147383
0.0008861473836
0.000886147383
0.0008861473821
0.0008861473816
0.0008861473814
0.0008861473809
0.0008861473791
0.0008861473753
0.0008861473691
0.0008861473604
0.00088614735
0.000886147339
0.000886147327
0.000886147348
0.0008861473664
0.0008861473566
0.0008861473672
0.000886147353
0.00088614736
0.0008861473705
0.0008861473673
0.0008861473557
0.0008861473614
0.0008861473784
0.000886147387
0.000886147383
0.0008861473792
0.0008861473811
0.000886147384
0.0008861473834
0.0008861473807
0.0008861473776
0.0008861473754
0.0008861473746
0.000886147374
0.0008861473723
0.0008861473686
0.0008861473626
0.0008861473545
0.0008861473447
0.0008861473337
0.0008861473201
0.0008861473609
0.0008861473705
0.0008861473723
0.000886147382
0.0008861473809
0.0008861473811
0.0008861473815
0.0008861473811
0.0008861473799
0.0008861473795
0.0008861473789
0.0008861473816
0.0008861473815
0.0008861473832
0.0008861473853
0.000886147386
0.000886147386
0.000886147386
0.0008861473859
0.000886147385
0.0008861473831
0.0008861473805
0.0008861473776
0.0008861473745
0.0008861473715
0.0008861473685
0.0008861473658
0.0008861473634
0.0008861473608
0.0008861473627
0.0008861473667
0.000886147377
0.000886147654
0.0008861479459
0.0008861474436
0.0008861607614
0.0008861474444
0.0008861651945
0.000886166468
0.0008861676565
0.000886167587
0.0008861701263
0.0008861710268
0.0008861718515
0.0008861681442
0.0008861696852
0.0008861705336
0.0008861715204
0.0008861668861
0.0008861678677
0.0008861690589
0.0008861693071
0.0008861695118
0.00088616739
0.0008861669036
0.0008861661054
0.0008861474439
0.0008861474484
0.0008861474474
0.0008861474445
0.0008861474497
0.0008861474543
0.0008861474483
0.000886147461
0.0008861474715
0.000886147449
0.0008861474958
0.0008861475845
0.0008861474482
0.0008861476033
0.0008861475957
0.0008861474474
0.0008861475785
0.0008861475643
0.0008861476195
0.0008861475575
0.0008861475557
0.0008861476264
0.0008861475577
0.0008861475606
0.0008861476238
0.0008861475523
0.0008861475207
0.0008861476364
0.0008861474584
0.0008861476097
0.0008861474461
0.0008861474457
0.000886147445
0.0008861474445
0.0008861474434
0.0008861474433
0.0008861474442
0.0008861474431
0.0008861474429
0.0008861474417
0.0008861474421
0.0008861474418
0.0008861474411
0.0008861474407
0.0008861474431
0.0008861474434
0.0008861474419
0.0008861474404
0.0008861474406
0.0008861474398
0.0008861474388
0.0008861474436
0.0008861474443
0.0008861474428
0.0008861474408
0.0008861474663
0.0008861474506
0.0008861474463
0.0008861474513
0.0008861474437
0.0008861474472
0.0008861474619
0.0008861474522
0.0008861474523
0.0008861476256
0.0008861475867
0.000886147606
0.0008861474467
0.0008861474465
0.0008861474473
0.0008861474511
0.0008861474515
0.0008861474519
0.0008861474482
0.0008861474484
0.0008861474488
0.0008861474526
0.000886147451
0.0008861474522
0.0008861474486
0.0008861474479
0.0008861474478
0.0008861474509
0.0008861474485
0.0008861474493
0.0008861474468
0.0008861474463
0.0008861474459
0.0008861474481
0.0008861474464
0.0008861474474
0.0008861474452
0.0008861475185
0.0008861474807
0.0008861474476
0.0008861474562
0.0008861474498
0.0008861475125
0.0008861476574
0.000886147532
0.0008861474806
0.0008861476275
0.0008861476515
0.0008861476419
0.0008861475787
0.000886164454
0.0008861645377
0.0008861666506
0.0008861661287
0.0008861675693
0.0008861682356
0.0008861654509
0.0008861677532
0.000886168054
0.000886167782
0.0008861474519
0.0008861474461
0.0008861474485
0.0008861474699
0.0008861474547
0.0008861474649
0.0008861475665
0.0008861474866
0.0008861475465
0.0008861475843
0.0008861475732
0.000886147564
0.0008861475497
0.0008861475454
0.0008861475322
0.0008861475419
0.0008861475266
0.0008861475259
0.0008861475436
0.0008861475267
0.000886147521
0.0008861474931
0.0008861474981
0.0008861474732
0.0008861675647
0.0008861691593
0.0008861693158
0.0008861665522
0.0008861697948
0.0008861702562
0.0008861474456
0.0008861474428
0.0008861474435
0.000886147459
0.0008861474462
0.0008861474527
0.0008861475237
0.0008861474661
0.0008861475013
0.0008861475376
0.0008861475194
0.00088614751
0.0008861475122
0.0008861474992
0.0008861474926
0.0008861475086
0.0008861474913
0.0008861474907
0.0008861474954
0.000886147486
0.0008861474728
0.0008861474583
0.0008861474588
0.0008861474483
0.0008861690098
0.0008861677503
0.0008861690493
0.000886170786
0.0008861698533
0.0008861704067
0.0008861712422
0.0008861474474
0.0008861474413
0.0008861474435
0.0008861474814
0.0008861474491
0.000886147466
0.0008861474851
0.0008861474681
0.0008861474664
0.0008861474752
0.0008861474631
0.0008861474621
0.0008861474727
0.0008861474619
0.0008861474582
0.0008861474577
0.000886147455
0.0008861474487
0.000886168009
0.0008861685283
0.0008861699414
0.0008861688181
0.0008861692172
0.0008861707637
0.0008861695307
0.0008861474546
0.0008861474389
0.0008861474444
0.0008861474548
0.0008861474476
0.0008861474523
0.000886147454
0.0008861474522
0.0008861474513
0.0008861474503
0.0008861474497
0.0008861474459
0.0008861660574
0.0008861474426
0.0008861474427
0.0008861474427
0.0008861474584
0.0008861599961
0.0008861474582
0.0008861600387
0.0008861474577
0.0008861578134
0.0008861474429
0.000886147443
0.0008861474543
0.000886147604
0.0008861474468
0.0008861474451
0.0008861474516
0.0008861474489
0.0008861474477
0.0008861474515
0.0008861474487
0.0008861474485
0.0008861474499
0.0008861474477
0.0008861474471
0.0008861474473
0.0008861474572
0.0008861474457
0.0008861474461
0.0008861476376
0.0008861476552
0.0008861474672
0.000886147621
0.0008861476554
0.0008861476306
0.0008861476469
0.0008861475737
0.0008861474468
0.0008861624299
0.0008861655088
0.0008861657666
0.000886147448
0.0008861474591
0.0008861474941
0.0008861475924
0.0008861475647
0.000886147543
0.0008861475439
0.0008861475258
0.0008861474476
0.0008861618354
0.0008861658996
0.0008861684713
0.0008861685939
0.0008861690305
0.0008861697708
0.0008861692917
0.0008861474444
0.0008861474501
0.0008861474768
0.0008861475476
0.0008861475223
0.0008861475089
0.0008861475073
0.0008861474748
0.0008861474421
0.0008861474417
0.0008861474434
0.0008861474565
0.0008861474915
0.0008861474786
0.000886147475
0.000886147467
0.0008861474487
0.0008861474417
0.000886165996
0.0008861667354
0.000886167905
0.0008861691782
0.0008861691088
0.0008861703984
0.00088614744
0.0008861474436
0.0008861474538
0.0008861474527
0.0008861474545
0.0008861474481
0.0008861474421
0.000886168731
0.0008861685113
0.0008861686194
0.0008861474398
0.0008861660097
0.0008861636529
0.0008861669591
0.0008861664863
0.0008861674433
0.0008861656996
0.0008861474527
0.000886167133
0.0008861667202
0.0008861650776
0.0008861650997
0.0008861474553
0.0008861694051
0.0008861653166
0.0008861642874
0.0008861633329
0.0008861474478
0.0008861696206
0.0008861667991
0.0008861657487
0.000886164727
0.0008861474596
0.0008861574062
0.0008861474438
0.0008861474594
0.0008861583521
0.0008861616431
0.0008861474583
0.0008861606291
0.0008861474701
0.0008861474948
0.0008861629734
0.0008861639227
0.0008861474577
0.0008861587633
0.0008861475397
0.0008861475392
0.0008861637797
0.0008861620172
0.0008861475352
0.0008861613716
0.000886147633
0.0008861476429
0.0008861476139
0.000886147654
0.0008861476097
0.0008861575682
0.0008861476265
0.0008861576676
0.000886160337
0.0008861474441
0.000886162857
0.0008861635099
0.0008861641189
0.0008861647405
0.0008861653312
0.0008861658649
0.0008861677758
0.0008861692458
0.000886164933
0.0008861655794
0.0008861645069
0.0008861667937
0.0008861658285
0.0008861661658
0.000886167407
0.0008861670836
0.0008861679645
0.0008861685185
0.0008861705303
0.0008861712121
0.000886171393
0.0008861691524
0.0008861679986
0.0008861676072
0.0008861681577
0.000886168144
0.0008861686301
0.0008861691277
0.0008861693857
0.0008861700154
0.0008861696049
0.0008861671697
0.0008861685612
0.0008861697825
0.000886169573
0.0008861703129
0.0008861708524
0.0008861676648
0.0008861680522
0.0008861664203
0.0008861668605
0.0008861694563
0.0008861675797
0.0008861677866
0.0008861676923
0.0008861692194
0.0008861685203
0.0008861671438
0.0008861684649
0.0008861683637
0.0008861685595
0.000886168219
0.0008861680649
0.0008861678322
0.0008861685056
0.0008861674855
0.0008861683259
0.0008861688282
0.0008861686059
0.0008861665575
0.000886165793
0.000886167624
0.0008861666444
0.0008861667596
0.0008861661081
0.0008861664249
0.0008861657745
0.000886165041
0.000886164937
0.0008861679446
0.0008861686608
0.0008861680967
0.0008861660866
0.0008861666621
0.0008861666169
0.0008861649254
0.000886166749
0.0008861665934
0.0008861663371
0.0008861665315
0.0008861696667
0.0008861672069
0.0008861647136
0.0008861661977
0.000886165532
0.0008861638488
0.0008861650233
0.0008861645213
0.0008861639719
0.0008861676087
0.0008861692712
0.0008861679494
0.0008861662165
0.0008861673677
0.00088616692
0.0008861652672
0.0008861665304
0.0008861661006
0.0008861665692
0.0008861655932
)
;

boundaryField
{
    walls
    {
        type            zeroGradient;
    }
    wallFilmFace_top
    {
        type            zeroGradient;
    }
    region0_to_wallFilmRegion_wallFilmFace
    {
        type            zeroGradient;
    }
    mirrorFace_top
    {
        type            zeroGradient;
    }
    region0_to_wallFilmRegion_mirrorFace
    {
        type            zeroGradient;
    }
    procBoundary2to0
    {
        type            processor;
        value           nonuniform List<scalar> 
26
(
0.0008861476186
0.0008861467657
0.0008861470378
0.0008861466993
0.0008861419266
0.0008861471487
0.0008861473343
0.0008861473465
0.0008861473315
0.0008861472736
0.0008861472884
0.0008861473045
0.0008861472995
0.0008861473474
0.0008861473478
0.0008861473282
0.0008861473115
0.0008861473108
0.0008861473363
0.000886147422
0.000886147382
0.0008861473576
0.0008861473462
0.0008861473378
0.0008861473266
0.0008861473649
)
;
    }
    procBoundary2to1
    {
        type            processor;
        value           nonuniform List<scalar> 
33
(
0.0008861396609
0.0008861396609
0.0008861474205
0.0008861474205
0.0008861471976
0.0008861471475
0.0008861475059
0.0008861475059
0.0008861473741
0.0008861474952
0.0008861476236
0.0008861475232
0.0008861475992
0.0008861475941
0.0008861475716
0.0008861475074
0.0008861475012
0.0008861474952
0.0008861474992
0.0008861474615
0.000886147418
0.0008861473745
0.0008861473658
0.0008861473772
0.0008861473826
0.000886147381
0.0008861473752
0.0008861473668
0.000886147356
0.0008861473426
0.000886147321
0.0008861473642
0.0008861473884
)
;
    }
    procBoundary2to3
    {
        type            processor;
        value           nonuniform List<scalar> 
64
(
0.0008861478684
0.0008861613056
0.0008861618981
0.0008861628943
0.0008861682021
0.0008861722803
0.0008861721645
0.0008861691365
0.0008861655059
0.0008861476327
0.0008861474553
0.0008861476131
0.0008861474609
0.0008861474553
0.0008861474536
0.0008861474535
0.0008861474529
0.0008861474516
0.0008861474502
0.0008861474492
0.0008861474489
0.0008861474498
0.0008861474519
0.000886147454
0.000886147454
0.0008861474649
0.0008861475438
0.0008861475438
0.0008861476539
0.0008861475438
0.0008861650319
0.0008861677001
0.0008861650319
0.0008861696513
0.0008861703501
0.0008861474576
0.0008861568537
0.0008861476327
0.0008861475865
0.0008861650319
0.0008861709957
0.0008861669921
0.000886165728
0.0008861650938
0.0008861627421
0.0008861641276
0.0008861475315
0.0008861600874
0.000886147629
0.0008861581947
0.0008861613056
0.0008861624398
0.0008861663362
0.000886169076
0.0008861721815
0.0008861704482
0.0008861697958
0.0008861706555
0.0008861683143
0.0008861670193
0.0008861651671
0.0008861656536
0.0008861633726
0.0008861650102
)
;
    }
}


// ************************************************************************* //
