/*--------------------------------*- C++ -*----------------------------------*\
  =========                 |
  \\      /  F ield         | OpenFOAM: The Open Source CFD Toolbox
   \\    /   O peration     | Website:  https://openfoam.org
    \\  /    A nd           | Version:  8
     \\/     M anipulation  |
\*---------------------------------------------------------------------------*/
FoamFile
{
    version     2.0;
    format      ascii;
    class       volScalarField;
    location    "0.6/wallFilmRegion";
    object      rho;
}
// * * * * * * * * * * * * * * * * * * * * * * * * * * * * * * * * * * * * * //

dimensions      [1 -3 0 0 0 0 0];

internalField   nonuniform List<scalar> 
1342
(
994.5114716
994.5114609
994.5114663
994.5114502
994.5114498
994.5114667
994.5114675
994.5114676
994.5114675
994.5114673
994.511467
994.5114669
994.5114668
994.5114681
994.5114681
994.5114679
994.5114674
994.511467
994.5114687
994.5114696
994.5114684
994.511468
994.5114677
994.5114677
994.5114677
994.5114677
994.5114691
994.5114696
994.5114671
994.5114681
994.5114419
994.5113898
994.5114619
994.5114643
994.5114649
994.5114655
994.5114662
994.511467
994.5114665
994.5114663
994.5114683
994.5114683
994.5114681
994.5114678
994.5114674
994.5114698
994.5114699
994.5114683
994.5114681
994.5114678
994.5114677
994.5114676
994.5114677
994.5114664
994.5114674
994.5114684
994.5114656
994.5114701
994.5114461
994.5114322
994.5114613
994.5114668
994.5114666
994.511467
994.511466
994.5114659
994.5114651
994.5114652
994.5114683
994.5114683
994.5114682
994.511468
994.5114676
994.5114684
994.5114694
994.5114684
994.5114679
994.5114676
994.5114675
994.5114675
994.5114677
994.5114656
994.5114668
994.5114684
994.5114693
994.511471
994.5114618
994.5114465
994.5114608
994.5114684
994.5114679
994.5114678
994.5114677
994.5114674
994.5114651
994.5114645
994.5114683
994.5114683
994.5114683
994.5114682
994.511468
994.5114678
994.5114682
994.5114679
994.5114677
994.5114676
994.5114676
994.5114676
994.5114676
994.5114698
994.5114693
994.511469
994.5114697
994.5114713
994.5114687
994.5111509
994.5110247
994.5114691
994.5114685
994.511468
994.511468
994.5114681
994.5114682
994.5114683
994.5114684
994.5114684
994.5114684
994.5114684
994.5114683
994.5114682
994.511468
994.5114679
994.5114678
994.5114678
994.5114677
994.5114677
994.5114676
994.5114684
994.5114682
994.5114678
994.5114676
994.5114685
994.5114707
994.5114718
994.5114716
994.5114713
994.5114692
994.511469
994.5114684
994.511468
994.5114679
994.511468
994.511468
994.5114683
994.5114683
994.5114683
994.5114683
994.5114682
994.5114681
994.5114679
994.5114678
994.5114676
994.5114675
994.5114674
994.5114673
994.5114676
994.5114655
994.5114638
994.5114654
994.5114662
994.5114662
994.5114677
994.5114712
994.5114695
994.5114689
994.5114691
994.511469
994.5114689
994.5114683
994.5114676
994.511468
994.511468
994.5114683
994.5114683
994.5114683
994.5114682
994.5114681
994.5114679
994.5114678
994.5114676
994.5114674
994.5114671
994.5114667
994.5114665
994.5114676
994.5114691
994.5114676
994.5114666
994.5114661
994.511467
994.5114652
994.5114389
994.5114719
994.5114715
994.5114692
994.511469
994.5114689
994.5114687
994.5114679
994.5114682
994.5114682
994.5114682
994.5114682
994.5114681
994.511468
994.5114679
994.5114678
994.5114677
994.5114674
994.5114671
994.5114666
994.511466
994.5114657
994.5114677
994.5114687
994.5114678
994.5114683
994.5114684
994.5114695
994.5114707
994.5114672
994.5114702
994.5114701
994.511469
994.5114687
994.5114687
994.5114686
994.5114681
994.5114685
994.5114685
994.5114682
994.5114681
994.511468
994.5114679
994.5114678
994.5114677
994.5114675
994.5114671
994.5114666
994.5114659
994.5114656
994.5114661
994.5114678
994.5114705
994.5114681
994.5114683
994.5114697
994.5114699
994.5114687
994.5114687
994.5114688
994.5114689
994.5114685
994.5114686
994.5114688
994.5114689
994.5114691
994.5114691
994.511469
994.5114683
994.5114681
994.5114679
994.5114678
994.5114677
994.5114675
994.5114671
994.5114667
994.5114663
994.5114663
994.5114668
994.5114672
994.5114678
994.5114702
994.5114699
994.5114717
994.5114711
994.5114706
994.5114699
994.5114693
994.5114689
994.5114688
994.5114685
994.5114689
994.5114693
994.5114689
994.5114687
994.5114686
994.5114685
994.5114683
994.5114683
994.5114682
994.5114682
994.5114681
994.5114679
994.5114677
994.5114672
994.5114669
994.511467
994.5114673
994.5114675
994.5114678
994.5114695
994.5114688
994.5114715
994.5114712
994.5114712
994.5114717
994.5114717
994.5114714
994.5114702
994.5114687
994.5114691
994.5114695
994.5114688
994.5114684
994.5114684
994.5114683
994.5114682
994.5114681
994.511468
994.511468
994.5114679
994.5114678
994.5114675
994.5114672
994.5114671
994.5114673
994.5114675
994.5114676
994.5114678
994.5114696
994.5114672
994.5114674
994.5114704
994.5114711
994.5114718
994.5114719
994.5114719
994.5114715
994.5114691
994.5114693
994.5114697
994.5114691
994.5114684
994.5114684
994.5114683
994.5114682
994.5114681
994.5114679
994.5114678
994.5114677
994.5114675
994.5114673
994.5114672
994.5114673
994.5114674
994.5114676
994.5114676
994.5114678
994.5114696
994.5114688
994.5114676
994.5114686
994.5114707
994.5114717
994.5114714
994.5114712
994.5114711
994.5114692
994.5114694
994.5114698
994.5114694
994.5114685
994.5114683
994.5114683
994.5114682
994.5114684
994.5114681
994.5114678
994.5114676
994.5114674
994.5114673
994.5114673
994.5114674
994.5114675
994.5114676
994.5114676
994.5114679
994.5114688
994.5114687
994.5114682
994.5114668
994.5114689
994.5114716
994.5114701
994.51147
994.5114703
994.5114694
994.5114695
994.5114697
994.5114692
994.5114682
994.5114683
994.5114683
994.5114684
994.5114684
994.5114684
994.5114683
994.511468
994.5114675
994.5114674
994.5114674
994.5114674
994.5114675
994.5114676
994.5114676
994.5114679
994.5114688
994.5114662
994.5114677
994.5114649
994.5114658
994.5114714
994.5114699
994.5114684
994.5114692
994.5114694
994.5114693
994.5114691
994.5114683
994.5114677
994.5114682
994.5114682
994.5114683
994.5114684
994.5114684
994.5114683
994.5114681
994.5114679
994.5114677
994.5114676
994.5114676
994.5114676
994.5114676
994.5114676
994.5114679
994.5114688
994.5114684
994.5114681
994.5114664
994.5114643
994.5114707
994.511469
994.5114689
994.5114687
994.5114692
994.5114687
994.5114682
994.5114677
994.5114677
994.5114681
994.5114681
994.5114681
994.5114684
994.5114683
994.5114683
994.5114682
994.5114681
994.511468
994.5114678
994.5114678
994.5114677
994.5114676
994.5114676
994.5114679
994.5114686
994.5114683
994.511468
994.5114673
994.5114653
994.5114696
994.5114658
994.5114647
994.5114687
994.511469
994.5114686
994.5114681
994.5114677
994.5114678
994.5114681
994.5114681
994.5114682
994.5114683
994.5114683
994.5114683
994.5114683
994.5114682
994.511468
994.5114679
994.5114678
994.5114678
994.5114677
994.5114677
994.5114679
994.5114681
994.5114681
994.5114676
994.5114665
994.5114654
994.5114683
994.5114615
994.5114638
994.5114678
994.5114691
994.5114687
994.5114684
994.511468
994.5114679
994.5114684
994.5114684
994.5114683
994.5114683
994.5114684
994.5114684
994.5114684
994.5114683
994.5114682
994.5114681
994.5114679
994.5114678
994.5114678
994.5114677
994.5114678
994.5114681
994.5114681
994.5114681
994.5114664
994.5114656
994.5114668
994.5114633
994.5114657
994.5114668
994.5114691
994.5114688
994.5114685
994.5114681
994.511468
994.5114685
994.5114685
994.5114684
994.5114683
994.5114684
994.5114684
994.5114684
994.5114683
994.5114682
994.5114681
994.5114679
994.5114679
994.5114678
994.5114678
994.5114678
994.5114681
994.5114682
994.5114683
994.5114671
994.5114662
994.511466
994.5114652
994.5114666
994.511467
994.5114688
994.5114688
994.5114685
994.5114683
994.5114682
994.5114684
994.5114685
994.5114684
994.5114683
994.5114684
994.5114684
994.5114683
994.5114683
994.5114682
994.511468
994.5114679
994.5114678
994.5114678
994.5114678
994.5114678
994.5114682
994.5114683
994.5114683
994.5114676
994.5114669
994.5114664
994.5114663
994.5114671
994.5114675
994.5114683
994.5114686
994.5114685
994.5114683
994.5114682
994.5114683
994.5114684
994.5114683
994.5114682
994.5114684
994.5114683
994.5114683
994.5114682
994.5114681
994.5114679
994.5114679
994.5114678
994.5114678
994.5114678
994.5114677
994.5114681
994.5114683
994.5114683
994.5114678
994.5114679
994.5114688
994.5114683
994.5114677
994.5114679
994.5114681
994.5114684
994.5114684
994.5114683
994.5114682
994.5114683
994.5114683
994.5114682
994.5114682
994.5114683
994.5114683
994.5114682
994.5114681
994.511468
994.5114679
994.5114678
994.5114678
994.5114677
994.5114677
994.5114677
994.511468
994.5114682
994.5114682
994.5114679
994.5114679
994.5114687
994.5114682
994.5114678
994.511468
994.5114681
994.5114682
994.5114683
994.5114682
994.5114682
994.5114682
994.5114682
994.5114682
994.5114682
994.5114682
994.5114682
994.5114682
994.5114681
994.511468
994.5114679
994.5114678
994.5114677
994.5114677
994.5114677
994.5114676
994.5114679
994.5114681
994.5114681
994.511468
994.5114679
994.5114683
994.5114679
994.5114679
994.511468
994.5114681
994.5114681
994.5114682
994.5114682
994.5114682
994.5114682
994.5114682
994.5114682
994.5114682
994.5114682
994.5114682
994.5114681
994.511468
994.5114679
994.5114678
994.5114677
994.5114677
994.5114676
994.5114676
994.5114676
994.5114678
994.511468
994.5114681
994.511468
994.5114679
994.5114679
994.5114677
994.5114679
994.5114681
994.5114681
994.5114681
994.5114681
994.5114681
994.5114681
994.5114681
994.5114681
994.5114681
994.5114681
994.5114682
994.5114681
994.5114681
994.511468
994.5114679
994.5114678
994.5114677
994.5114676
994.5114675
994.5114674
994.5114675
994.5114677
994.5114678
994.511468
994.511468
994.5114679
994.5114677
994.5114677
994.511468
994.5114681
994.5114681
994.5114681
994.5114681
994.5114681
994.5114681
994.5114681
994.5114681
994.5114681
994.5114681
994.5114681
994.5114681
994.511468
994.511468
994.5114678
994.5114677
994.5114676
994.5114674
994.5114673
994.5114673
994.5114674
994.5114675
994.5114677
994.5114678
994.5114679
994.5114679
994.5114676
994.5114677
994.511468
994.5114681
994.5114681
994.511468
994.511468
994.511468
994.5114681
994.511468
994.511468
994.511468
994.511468
994.511468
994.511468
994.5114679
994.5114679
994.5114677
994.5114676
994.5114674
994.5114673
994.5114676
994.5114678
994.5114677
994.5114678
994.5114676
994.5114677
994.5114679
994.5114678
994.5114677
994.5114678
994.511468
994.5114681
994.511468
994.511468
994.511468
994.5114681
994.5114681
994.511468
994.511468
994.5114679
994.5114679
994.5114679
994.5114679
994.5114679
994.5114678
994.5114677
994.5114675
994.5114674
994.5114672
994.5114677
994.5114679
994.5114679
994.511468
994.511468
994.511468
994.511468
994.511468
994.511468
994.511468
994.511468
994.511468
994.511468
994.5114681
994.5114681
994.5114681
994.5114681
994.5114681
994.5114681
994.5114681
994.5114681
994.511468
994.511468
994.5114679
994.5114679
994.5114679
994.5114678
994.5114678
994.5114677
994.5114678
994.5114678
994.511468
994.5114717
994.5114757
994.5114689
994.5116502
994.5114689
994.5117106
994.511728
994.5117441
994.5117432
994.5117778
994.51179
994.5118013
994.5117508
994.5117718
994.5117833
994.5117968
994.5117337
994.511747
994.5117632
994.5117666
994.5117694
994.5117405
994.5117339
994.511723
994.5114689
994.5114689
994.5114689
994.5114689
994.511469
994.511469
994.5114689
994.5114691
994.5114693
994.5114689
994.5114696
994.5114708
994.5114689
994.511471
994.5114709
994.5114689
994.5114707
994.5114705
994.5114713
994.5114704
994.5114704
994.5114714
994.5114704
994.5114705
994.5114713
994.5114704
994.5114699
994.5114715
994.5114691
994.5114711
994.5114689
994.5114689
994.5114689
994.5114689
994.5114689
994.5114689
994.5114689
994.5114689
994.5114689
994.5114688
994.5114689
994.5114689
994.5114688
994.5114688
994.5114689
994.5114689
994.5114689
994.5114688
994.5114688
994.5114688
994.5114688
994.5114689
994.5114689
994.5114689
994.5114688
994.5114692
994.511469
994.5114689
994.511469
994.5114689
994.5114689
994.5114691
994.511469
994.511469
994.5114714
994.5114708
994.5114711
994.5114689
994.5114689
994.5114689
994.511469
994.511469
994.511469
994.5114689
994.5114689
994.5114689
994.511469
994.511469
994.511469
994.5114689
994.5114689
994.5114689
994.511469
994.5114689
994.511469
994.5114689
994.5114689
994.5114689
994.5114689
994.5114689
994.5114689
994.5114689
994.5114699
994.5114694
994.5114689
994.511469
994.511469
994.5114698
994.5114718
994.5114701
994.5114694
994.5114714
994.5114717
994.5114716
994.5114707
994.5117005
994.5117017
994.5117304
994.5117233
994.511743
994.511752
994.5117141
994.5117455
994.5117496
994.5117459
994.511469
994.5114689
994.5114689
994.5114692
994.511469
994.5114692
994.5114705
994.5114695
994.5114703
994.5114708
994.5114706
994.5114705
994.5114703
994.5114703
994.5114701
994.5114702
994.51147
994.51147
994.5114702
994.51147
994.5114699
994.5114695
994.5114696
994.5114693
994.5117429
994.5117646
994.5117667
994.5117291
994.5117733
994.5117796
994.5114689
994.5114689
994.5114689
994.5114691
994.5114689
994.511469
994.51147
994.5114692
994.5114697
994.5114702
994.5114699
994.5114698
994.5114698
994.5114696
994.5114695
994.5114698
994.5114695
994.5114695
994.5114696
994.5114695
994.5114693
994.5114691
994.5114691
994.5114689
994.5117626
994.5117454
994.5117631
994.5117868
994.5117741
994.5117816
994.511793
994.5114689
994.5114688
994.5114689
994.5114694
994.5114689
994.5114692
994.5114694
994.5114692
994.5114692
994.5114693
994.5114691
994.5114691
994.5114693
994.5114691
994.5114691
994.5114691
994.511469
994.5114689
994.5117489
994.511756
994.5117753
994.51176
994.5117654
994.5117865
994.5117697
994.511469
994.5114688
994.5114689
994.511469
994.5114689
994.511469
994.511469
994.511469
994.511469
994.511469
994.511469
994.5114689
994.5117224
994.5114689
994.5114689
994.5114689
994.5114691
994.5116398
994.5114691
994.5116404
994.5114691
994.5116101
994.5114689
994.5114689
994.511469
994.5114711
994.5114689
994.5114689
994.511469
994.5114689
994.5114689
994.511469
994.5114689
994.5114689
994.511469
994.5114689
994.5114689
994.5114689
994.5114691
994.5114689
994.5114689
994.5114715
994.5114718
994.5114692
994.5114713
994.5114718
994.5114714
994.5114716
994.5114706
994.5114689
994.511673
994.5117149
994.5117184
994.5114689
994.5114691
994.5114696
994.5114709
994.5114705
994.5114702
994.5114702
994.51147
994.5114689
994.5116649
994.5117202
994.5117552
994.5117569
994.5117629
994.5117729
994.5117664
994.5114689
994.511469
994.5114693
994.5114703
994.5114699
994.5114698
994.5114697
994.5114693
994.5114689
994.5114688
994.5114689
994.511469
994.5114695
994.5114694
994.5114693
994.5114692
994.5114689
994.5114688
994.5117215
994.5117316
994.5117475
994.5117649
994.5117639
994.5117815
994.5114688
994.5114689
994.511469
994.511469
994.511469
994.5114689
994.5114689
994.5117588
994.5117558
994.5117573
994.5114688
994.5117217
994.5116896
994.5117347
994.5117282
994.5117412
994.5117175
994.511469
994.511737
994.5117314
994.511709
994.5117093
994.511469
994.511768
994.5117123
994.5116983
994.5116853
994.5114689
994.5117709
994.5117325
994.5117182
994.5117043
994.5114691
994.5116046
994.5114689
994.5114691
994.5116174
994.5116623
994.5114691
994.5116484
994.5114692
994.5114696
994.5116804
994.5116933
994.5114691
994.511623
994.5114702
994.5114702
994.5116914
994.5116673
994.5114701
994.5116586
994.5114715
994.5114716
994.5114712
994.5114717
994.5114711
994.5116068
994.5114714
994.5116081
994.5116445
994.5114689
994.5116788
994.5116877
994.511696
994.5117044
994.5117125
994.5117197
994.5117458
994.5117658
994.5117071
994.5117159
994.5117013
994.5117324
994.5117193
994.5117238
994.5117408
994.5117363
994.5117483
994.5117559
994.5117833
994.5117926
994.511795
994.5117645
994.5117488
994.5117435
994.511751
994.5117508
994.5117574
994.5117642
994.5117677
994.5117763
994.5117707
994.5117375
994.5117565
994.5117731
994.5117702
994.5117803
994.5117877
994.5117443
994.5117495
994.5117273
994.5117333
994.5117687
994.5117431
994.5117459
994.5117446
994.5117654
994.5117559
994.5117372
994.5117552
994.5117538
994.5117564
994.5117518
994.5117497
994.5117465
994.5117557
994.5117418
994.5117533
994.5117601
994.5117571
994.5117292
994.5117188
994.5117437
994.5117304
994.5117319
994.5117231
994.5117274
994.5117185
994.5117085
994.5117071
994.5117481
994.5117578
994.5117501
994.5117228
994.5117306
994.51173
994.511707
994.5117318
994.5117297
994.5117262
994.5117288
994.5117715
994.511738
994.5117041
994.5117243
994.5117152
994.5116923
994.5117083
994.5117015
994.511694
994.5117435
994.5117661
994.5117481
994.5117245
994.5117402
994.5117341
994.5117116
994.5117288
994.511723
994.5117293
994.511716
)
;

boundaryField
{
    walls
    {
        type            zeroGradient;
    }
    wallFilmFace_top
    {
        type            zeroGradient;
    }
    region0_to_wallFilmRegion_wallFilmFace
    {
        type            zeroGradient;
    }
    mirrorFace_top
    {
        type            zeroGradient;
    }
    region0_to_wallFilmRegion_mirrorFace
    {
        type            zeroGradient;
    }
    procBoundary2to0
    {
        type            processor;
        value           nonuniform List<scalar> 
26
(
994.5114713
994.5114596
994.5114633
994.5114587
994.5113937
994.5114649
994.5114674
994.5114676
994.5114673
994.5114666
994.5114668
994.511467
994.5114669
994.5114676
994.5114676
994.5114673
994.5114671
994.5114671
994.5114674
994.5114686
994.511468
994.5114677
994.5114675
994.5114674
994.5114673
994.5114678
)
;
    }
    procBoundary2to1
    {
        type            processor;
        value           nonuniform List<scalar> 
33
(
994.5113629
994.5113629
994.5114686
994.5114686
994.5114655
994.5114648
994.5114697
994.5114697
994.5114679
994.5114696
994.5114713
994.51147
994.511471
994.5114709
994.5114706
994.5114697
994.5114697
994.5114696
994.5114696
994.5114691
994.5114685
994.5114679
994.5114678
994.511468
994.511468
994.511468
994.5114679
994.5114678
994.5114677
994.5114675
994.5114672
994.5114678
994.5114681
)
;
    }
    procBoundary2to3
    {
        type            processor;
        value           nonuniform List<scalar> 
64
(
994.5114747
994.5116577
994.5116657
994.5116793
994.5117516
994.5118071
994.5118055
994.5117643
994.5117149
994.5114714
994.511469
994.5114712
994.5114691
994.511469
994.511469
994.511469
994.511469
994.511469
994.511469
994.511469
994.5114689
994.511469
994.511469
994.511469
994.511469
994.5114692
994.5114702
994.5114702
994.5114717
994.5114702
994.5117084
994.5117447
994.5117084
994.5117713
994.5117808
994.5114691
994.511597
994.5114714
994.5114708
994.5117084
994.5117896
994.5117351
994.5117179
994.5117092
994.5116772
994.5116961
994.5114701
994.5116411
994.5114714
994.5116153
994.5116577
994.5116731
994.5117262
994.5117635
994.5118058
994.5117822
994.5117733
994.511785
994.5117531
994.5117355
994.5117102
994.5117169
994.5116858
994.5117081
)
;
    }
}


// ************************************************************************* //
