/*--------------------------------*- C++ -*----------------------------------*\
  =========                 |
  \\      /  F ield         | OpenFOAM: The Open Source CFD Toolbox
   \\    /   O peration     | Website:  https://openfoam.org
    \\  /    A nd           | Version:  8
     \\/     M anipulation  |
\*---------------------------------------------------------------------------*/
FoamFile
{
    version     2.0;
    format      ascii;
    class       volVectorField;
    location    "0.6/wallFilmRegion";
    object      U;
}
// * * * * * * * * * * * * * * * * * * * * * * * * * * * * * * * * * * * * * //

dimensions      [0 1 -1 0 0 0 0];

internalField   nonuniform List<vector> 
1342
(
(-0.5232956804 -0.00111892115 0)
(-0.01120409396 -0.009829982162 0)
(0.2143601893 0.008953093235 0)
(-0.2301632603 -0.1896624305 0)
(-0.2880227825 -0.1401057231 0)
(-0.2707588421 -0.1370107333 0)
(-0.1656946195 -0.4814930665 0)
(-0.08975228347 -0.7953036861 0)
(-0.01823686426 -0.6767940284 0)
(0.06361220912 -0.4640650746 0)
(0.2195554203 -0.09987465842 0)
(0.3635343092 0.245305018 0)
(0.236431086 0.3085359611 0)
(-1.26995056 0.6941996528 0)
(-1.148007848 0.7995980905 0)
(-0.7578575997 0.8677495923 0)
(-0.2264219408 0.9942913384 0)
(-0.0250481677 1.183455979 0)
(-0.09292385938 0.109936674 0)
(-0.2647950513 -0.7526122945 0)
(-0.2017754973 0.7517446008 0)
(-0.1003330103 1.369614418 0)
(-0.03039039857 1.690219499 0)
(0.01999258886 1.817295445 0)
(0.07348499423 1.367115956 0)
(0.08982453596 1.202582528 0)
(0.05720331883 -0.2243133297 0)
(0.0899283293 -0.05941439496 0)
(0.006499513531 -0.09825250008 0)
(0.2298353223 0.02584833388 0)
(-0.2048312492 -0.2548811118 0)
(-0.250582222 -0.2283457399 0)
(-0.4420351752 0.3563039129 0)
(-0.4237465312 0.3346992955 0)
(-0.3990919358 0.3486075033 0)
(-0.3438936221 0.3842855213 0)
(-0.1508904191 0.2318043917 0)
(0.1139626823 -0.4562581631 0)
(0.1325525112 0.3113400143 0)
(0.2130781957 0.4986106442 0)
(-1.183638447 0.7387162423 0)
(-1.103306187 0.8573888358 0)
(-0.8598799169 0.9386390561 0)
(-0.3907070046 0.9798670846 0)
(0.1185993704 1.091676156 0)
(-0.1263968066 -0.9725442233 0)
(-0.146982644 -1.117321102 0)
(0.05729405657 1.07605907 0)
(0.119771197 1.381215017 0)
(0.1580727473 1.611229234 0)
(0.1785221581 1.754624331 0)
(0.1974020841 1.62057746 0)
(0.06888552206 1.18692533 0)
(0.05124532549 -0.2779440166 0)
(0.08482915692 -0.1666636183 0)
(0.1204327092 -0.08253813674 0)
(0.1654720195 -0.04926976643 0)
(0.2421974733 0.0436930847 0)
(-0.1206180114 -0.3940811378 0)
(-0.1534264385 -0.3720336585 0)
(-0.4365538965 0.3260878249 0)
(-0.5683703822 0.2310280645 0)
(-0.3299447163 0.3348459397 0)
(-0.2230375612 0.3943923599 0)
(-0.02620567946 0.4480779281 0)
(0.1814651703 -0.06571953375 0)
(0.2248681849 0.4211044245 0)
(0.4360395209 0.6183733588 0)
(-0.8873332227 0.7593626456 0)
(-0.8268261473 0.8962885961 0)
(-0.7217145492 1.027814009 0)
(-0.4596491387 1.063130123 0)
(0.007554976881 1.077404117 0)
(0.1814438358 0.3638599974 0)
(0.2305770232 -0.5135116054 0)
(0.3613364655 0.691600994 0)
(0.3585003173 1.296136133 0)
(0.3444214194 1.57374579 0)
(0.3343069675 1.697826598 0)
(0.3296801751 1.601046115 0)
(0.06953838399 1.185714437 0)
(-0.01663599424 -0.268091636 0)
(0.03693440172 -0.2124327473 0)
(0.04687654106 -0.1072545313 0)
(-0.2108427493 0.009351004404 0)
(0.2160704861 0.0391611234 0)
(-0.0700760146 -0.4958596039 0)
(-0.2501918731 -0.3699614407 0)
(-0.3673588474 0.2099341586 0)
(-0.9496885644 0.2908429864 0)
(-0.4742503222 0.4516679073 0)
(-0.2330839433 0.4575144194 0)
(-0.1655894049 0.422450196 0)
(-0.07553079132 0.2117879398 0)
(0.08637435897 0.3747144045 0)
(0.5338988221 0.6076445038 0)
(-0.503100484 0.7549683525 0)
(-0.4818744674 0.961627741 0)
(-0.41251712 1.132151566 0)
(-0.3298827247 1.216362766 0)
(-0.05368058064 1.183512424 0)
(0.3214136567 1.045886101 0)
(0.4822579193 0.6492387623 0)
(0.5811916045 0.9887681488 0)
(0.6135918033 1.248645334 0)
(0.6169725884 1.387900324 0)
(0.6065344538 1.457807936 0)
(0.5837338158 1.417917455 0)
(0.1368949811 1.203015724 0)
(0.2960273352 -0.4449986878 0)
(0.2533765939 -0.4690005755 0)
(0.1819664656 -0.2877695021 0)
(0.1592008318 -0.09245926691 0)
(0.2108784802 -0.004222478322 0)
(-0.08645784363 -0.126922538 0)
(0.2501239371 -0.4670360689 0)
(0.2053809827 0.4756259783 0)
(-1.186517138 0.4217967379 0)
(-0.7647384977 0.5104954611 0)
(-0.3223791892 0.549529852 0)
(-0.2539304215 0.5019313623 0)
(-0.1524408608 0.1683565663 0)
(0.04209406074 -0.8686721736 0)
(0.1769967388 -1.043502083 0)
(0.1926698512 0.7349004714 0)
(0.194938019 1.053495821 0)
(0.2009334159 1.385281442 0)
(0.2199795481 1.707771029 0)
(0.2497218066 1.944366562 0)
(0.2682530901 1.976154027 0)
(0.241590232 1.615993052 0)
(0.09686137292 1.241900408 0)
(-0.02513369724 1.115146861 0)
(-0.08805684091 1.087793766 0)
(-0.111981901 1.08127656 0)
(-0.1065638694 1.054367692 0)
(-0.05259491481 1.084037986 0)
(-0.06394883659 -0.1986219825 0)
(-0.01765178727 -0.3371224877 0)
(0.05352832648 -0.4183006616 0)
(0.01006536452 -0.5051827883 0)
(0.108009107 -0.4074167998 0)
(0.1748730588 -0.1258994037 0)
(0.103907643 0.4253098808 0)
(0.1726006837 0.2198016023 0)
(0.1610239747 0.2301159414 0)
(-1.21383524 0.4137476766 0)
(-1.061642456 0.4498589869 0)
(-0.7028019928 0.48878498 0)
(-0.4810562036 0.5263813127 0)
(-0.390714787 0.5116163816 0)
(-0.5007482237 0.5358424653 0)
(-0.3063431596 0.5159551795 0)
(0.5356959281 0.6526859244 0)
(0.6963854558 0.9294789226 0)
(0.6809044834 1.219758873 0)
(0.6259662521 1.481471128 0)
(0.5633225092 1.644937346 0)
(0.4734054289 1.597964764 0)
(0.3502570637 1.363378854 0)
(0.1856328004 1.156774998 0)
(-0.02402209218 1.070056874 0)
(-0.2707271429 1.078632325 0)
(-0.454664046 1.107170562 0)
(-0.5400331891 1.078431832 0)
(-0.140567128 1.176951713 0)
(0.01046488155 0.2028765423 0)
(0.03117890516 0.1591911027 0)
(-0.1522237159 0.003746288337 0)
(-0.4197630862 -0.1927832197 0)
(-0.1520467948 -0.3202135019 0)
(0.07680254226 -0.2548716992 0)
(0.09320516348 0.2699834075 0)
(-0.2514946328 0.1838052386 0)
(-0.1171189057 0.1773962062 0)
(-1.148427582 0.4275009592 0)
(-1.05459796 0.5071293093 0)
(-0.8221298067 0.5556967864 0)
(-0.5372526888 0.5130840099 0)
(-0.3921454265 0.486131114 0)
(-0.9320690375 0.6404235318 0)
(-0.7423630782 0.7020051062 0)
(0.8839876811 0.6780413784 0)
(1.038652139 0.8571642186 0)
(0.9741640124 1.037057028 0)
(0.8565902155 1.164552342 0)
(0.7286312377 1.194220877 0)
(0.5831947128 1.126623158 0)
(0.4200360467 1.016113858 0)
(0.2496452702 0.9564190147 0)
(0.04364420073 0.9869628088 0)
(-0.200240591 1.112219221 0)
(-0.3584334807 1.23804668 0)
(-0.3930544158 1.254387129 0)
(-0.00724742956 1.283086797 0)
(0.02875692698 0.1913377634 0)
(0.0234759799 0.2162295487 0)
(-0.02984179502 0.2626416653 0)
(-0.04369884804 0.2776559597 0)
(-0.1587218668 -0.09880610149 0)
(-0.2134370079 -0.1665688956 0)
(-0.253595963 -0.3449185081 0)
(-0.009036126307 0.3628251107 0)
(0.08535235163 0.4084751904 0)
(-0.8968682182 0.443873711 0)
(-0.8948315642 0.5870001538 0)
(-0.7330059014 0.685004058 0)
(-0.5387019312 0.6544908107 0)
(-0.331153521 0.5236231595 0)
(-0.7882126997 0.7514335285 0)
(-0.805375436 0.8419108104 0)
(1.015436399 0.6959591803 0)
(1.085435971 0.7824553459 0)
(0.9573015716 0.8558016505 0)
(0.8071580434 0.8622133594 0)
(0.6659639509 0.8321505599 0)
(0.5535801548 0.8385459161 0)
(0.4130447212 0.8466707194 0)
(0.2171029035 0.9101116807 0)
(-0.06631872728 1.117561634 0)
(-0.2428864458 1.350888284 0)
(-0.2615090447 1.45692583 0)
(-0.2438989621 1.423780211 0)
(0.06625138565 1.357708886 0)
(0.1392843479 0.2568809605 0)
(0.3530344741 -0.1489399584 0)
(0.3471345555 -0.274956294 0)
(0.256085375 -0.1491973524 0)
(0.2237555728 0.01249183951 0)
(0.1977201027 0.09452263795 0)
(0.5138166481 -0.1560327459 0)
(0.263420251 0.2195242367 0)
(0.1137105229 0.220756732 0)
(-0.574966695 0.4347684026 0)
(-0.6030134832 0.697982378 0)
(-0.4990487488 0.8680452387 0)
(-0.4185206631 0.8862128543 0)
(-0.1870535005 0.7969970089 0)
(-0.36199694 1.005478922 0)
(-0.493824408 1.015489624 0)
(0.5874562235 0.7127914092 0)
(0.7099622447 0.7005977587 0)
(0.6688400735 0.6981150693 0)
(0.6026273562 0.6646411368 0)
(0.5720903293 0.6951376037 0)
(0.5062130974 0.7414875048 0)
(0.410654914 0.819307435 0)
(0.317673409 1.023634715 0)
(0.2833124925 1.323931675 0)
(0.2701320125 1.502581523 0)
(0.2539230089 1.589164121 0)
(0.2399486317 1.526070831 0)
(0.1655870581 1.477861025 0)
(-0.1340402296 0.1523772643 0)
(0.1363184334 -0.2117850346 0)
(0.1281591407 -0.3884546666 0)
(0.2338778736 -0.3164217358 0)
(0.2250745365 -0.5853571103 0)
(0.3577564987 -1.426978659 0)
(0.3596813055 -1.473303721 0)
(0.3597428021 -1.124165705 0)
(0.3485813073 -0.7178998738 0)
(0.3939588072 0.4900422065 0)
(0.3831691923 0.998595741 0)
(0.3759279127 1.396657376 0)
(0.3690447031 1.643936167 0)
(0.3588315168 1.761567263 0)
(0.2854402001 1.715139048 0)
(0.05752362275 1.466780906 0)
(0.002418601025 0.8022577266 0)
(0.2199311011 0.5635565659 0)
(0.3971605267 0.5247908933 0)
(0.4870892097 0.5694631189 0)
(0.5059982971 0.6383791705 0)
(0.4718274015 0.7261849148 0)
(0.424946618 0.8800606177 0)
(0.4029272034 1.094779136 0)
(0.3918491586 1.250545774 0)
(0.3686417109 1.333614659 0)
(0.3282615611 1.376820035 0)
(0.2810206235 1.309973056 0)
(0.2005435658 1.418144689 0)
(0.06637187623 -0.07073608689 0)
(-0.001592694519 -0.1400327701 0)
(0.08562947645 0.1368179529 0)
(0.1598268488 0.127871138 0)
(0.1406364263 -0.05990974593 0)
(0.1327315026 -0.5943894784 0)
(0.2410024403 -0.9666730692 0)
(0.372617027 -0.9859641281 0)
(0.4697380892 -0.6812716698 0)
(0.881594573 0.4902906582 0)
(0.7813553812 0.8911877371 0)
(0.509173556 0.5968427004 0)
(0.3689658439 0.04809258159 0)
(0.2687470061 0.1338076254 0)
(0.3208429662 0.692789022 0)
(0.3494731986 0.9522820627 0)
(0.3380247052 1.173334619 0)
(0.3505423973 1.289001691 0)
(0.3741285046 1.342736041 0)
(0.3996847809 1.338807715 0)
(0.4207302626 1.281025985 0)
(0.4251130428 1.198422888 0)
(0.4377640997 1.124708009 0)
(0.4669590605 1.090075631 0)
(0.4737716201 1.155816173 0)
(0.4467971263 1.22637753 0)
(0.4029805716 1.265919017 0)
(0.354825942 1.223453313 0)
(0.2515049131 1.366365653 0)
(0.05971442454 0.03163567275 0)
(0.04572097679 -0.1187019066 0)
(0.1088171305 0.1880752173 0)
(0.09958228105 0.1647568794 0)
(0.1138104238 0.1651528607 0)
(0.1382312643 0.1880661152 0)
(0.1810116861 0.1501663453 0)
(0.2279075341 -0.06141071042 0)
(0.2905866803 -0.2372615526 0)
(1.234065528 0.4810548013 0)
(1.045808324 0.7893213036 0)
(0.6113480655 0.4183134592 0)
(0.2915229826 -0.480991576 0)
(-0.6669999549 0.5747841487 0)
(0.4319652594 0.6708155154 0)
(0.6006155293 0.8543964064 0)
(0.4271147349 0.9428918598 0)
(0.2333817468 0.9234231575 0)
(0.2082467976 0.9172558468 0)
(0.2285192084 0.9194528122 0)
(0.2754605143 0.9070715599 0)
(0.3386368529 0.8984415282 0)
(0.4270079164 0.8968195701 0)
(0.514232216 0.9670291605 0)
(0.5325237329 1.075204691 0)
(0.5026360908 1.146880528 0)
(0.4555842593 1.181549916 0)
(0.4084885026 1.145005334 0)
(0.3049573813 1.333163614 0)
(0.2955407279 -0.04593757961 0)
(0.001885539064 -0.03932669855 0)
(-0.3640581389 -0.01203120923 0)
(0.1154188059 0.05084735018 0)
(0.1353453684 0.1709910138 0)
(0.2346268155 0.3070148279 0)
(0.2267146898 0.2759485498 0)
(0.2189311914 0.2365674411 0)
(0.01421369665 0.2460261379 0)
(1.379661215 0.4567945845 0)
(1.228720346 0.690893277 0)
(0.7590271062 0.4127030899 0)
(0.32776608 -0.3796005625 0)
(-0.4561255428 0.457015937 0)
(0.8232092681 0.6681858633 0)
(0.7212356122 0.7656361514 0)
(0.3180751917 0.7461268054 0)
(-0.8329396207 0.6802341785 0)
(-0.35837049 0.5992481527 0)
(-0.1652015202 0.5417023852 0)
(0.003701383565 0.544988706 0)
(0.2099563439 0.6237581859 0)
(0.4058245553 0.7381473732 0)
(0.5408970967 0.8900114424 0)
(0.5754764979 1.015300921 0)
(0.5500428402 1.086507476 0)
(0.503152502 1.118673692 0)
(0.4573119636 1.077094903 0)
(0.355241002 1.315553104 0)
(-0.04095465216 0.01995473396 0)
(-0.03782900693 -0.114108259 0)
(-0.4257024263 0.09859522197 0)
(0.1464355159 -0.1888965347 0)
(0.1652803614 0.04699387346 0)
(0.2813557778 0.305305872 0)
(0.2190300186 0.2489259643 0)
(0.2125160067 0.2178701933 0)
(0.1735512125 0.2440039024 0)
(1.538672732 0.457118412 0)
(1.350305254 0.6047303799 0)
(0.8999492192 0.4371412993 0)
(0.5548426538 0.1588377305 0)
(-0.1329866943 0.4687270855 0)
(0.9547912678 0.6754135483 0)
(0.7313826429 0.7241538764 0)
(0.3777408452 0.7235351121 0)
(-1.777393838 0.7715899093 0)
(-1.180070059 1.099187225 0)
(-0.4793921058 0.6875205685 0)
(-0.1172541771 0.571087236 0)
(0.1603098228 0.6113178151 0)
(0.4042438753 0.7197779219 0)
(0.5661009745 0.8602539494 0)
(0.6175034038 0.9739250043 0)
(0.5998574614 1.03987795 0)
(0.55566156 1.071481066 0)
(0.5115212985 1.014983793 0)
(0.4012099974 1.300928865 0)
(0.1485419632 -0.07701128273 0)
(0.1119039781 0.2150276672 0)
(-0.1679641863 0.2937569452 0)
(0.01369565285 -0.2054029321 0)
(0.1575704384 -0.1814946423 0)
(0.2027795175 0.3451978554 0)
(-0.179414025 0.2350674911 0)
(-0.07989810267 0.1607565849 0)
(0.1783022384 0.2106594102 0)
(1.546740662 0.4319803329 0)
(1.367428554 0.5217179747 0)
(0.9788918713 0.4596101772 0)
(0.6494289562 0.3898054149 0)
(0.09838769668 0.5330659212 0)
(0.8953910659 0.6870491718 0)
(0.6194448811 -0.4157693408 0)
(0.5255123832 -1.537917975 0)
(0.5533182688 0.7818854634 0)
(0.5186008828 2.15492683 0)
(0.4041689875 2.94054624 0)
(0.2111611678 2.497735237 0)
(0.2179567168 1.130114304 0)
(0.4484697399 0.7890260447 0)
(0.6059624894 0.8585130457 0)
(0.6638825858 0.9434296213 0)
(0.6547602517 1.000677417 0)
(0.6152219249 1.03408853 0)
(0.5731846209 0.9497336101 0)
(0.4416344949 1.276821628 0)
(0.3180670612 -0.08702151771 0)
(-0.0768704612 -0.1511106916 0)
(-0.2585054765 0.2825199455 0)
(0.4596729306 -0.2517529644 0)
(0.3639630989 -0.0171688419 0)
(0.2149087832 0.2908077461 0)
(-0.1148515369 0.2776745409 0)
(-0.2386916966 0.2772448108 0)
(0.2459965605 0.09793410274 0)
(1.256883966 0.1195585374 0)
(1.139540476 0.1672648585 0)
(0.7911103395 0.08552112414 0)
(0.6317947332 0.09630784733 0)
(0.4816713718 0.4679910342 0)
(0.8229657317 0.6824557849 0)
(0.6347434273 0.4255045012 0)
(0.5484986257 -0.9138577264 0)
(1.921916604 0.7867117852 0)
(0.9321744174 1.329984587 0)
(-0.3382806445 1.204302657 0)
(-0.1738114293 1.29144233 0)
(0.2557317959 1.26679779 0)
(0.5081893556 1.163488469 0)
(0.6403679154 1.076858904 0)
(0.7047465197 1.027337139 0)
(0.713543251 1.012403129 0)
(0.683728351 1.019918844 0)
(0.6432314024 0.8874482151 0)
(0.4761790035 1.2397864 0)
(0.3989476154 0.001341442738 0)
(0.3046315869 0.2981948032 0)
(0.1020187287 0.391632244 0)
(0.4187209987 -0.04122958308 0)
(0.5604234903 0.1454072847 0)
(0.2589867546 0.006738875808 0)
(0.2601155436 0.3920162934 0)
(0.1879588393 0.3113891864 0)
(0.3099677332 0.05534294304 0)
(0.7823583993 -0.3467253887 0)
(0.8355937941 -0.5808533926 0)
(0.7370818263 -0.524867179 0)
(0.7129017937 -0.3303376666 0)
(0.7053983562 0.5317458128 0)
(0.7641091141 0.700621168 0)
(0.6896274865 0.7775836536 0)
(0.6851422431 0.8025268386 0)
(2.765867728 0.8250197404 0)
(-0.2652885074 0.9943004875 0)
(-0.8199191672 1.094339323 0)
(-0.4847002137 1.244330152 0)
(0.05002348016 1.355928177 0)
(0.4591295054 1.345574484 0)
(0.6657480864 1.254342157 0)
(0.7715442856 1.121487313 0)
(0.7782268086 1.061130108 0)
(0.7542646392 1.033460345 0)
(0.7152807843 0.8495487966 0)
(0.5062176626 1.193319017 0)
(0.3689213256 0.311343154 0)
(0.322873698 0.4963361189 0)
(0.2366127212 0.5067641217 0)
(0.3700280087 0.2349658785 0)
(0.6414884523 0.2144007239 0)
(0.3726085124 -0.123951899 0)
(-0.4738834848 0.3063124714 0)
(-0.5854439832 0.3501570194 0)
(0.4406315376 -0.1412154816 0)
(0.631599773 -0.3706606565 0)
(0.7189377982 -0.5672869736 0)
(0.7924702823 -0.8255035803 0)
(0.837670978 -0.5365265549 0)
(0.8864753312 0.5744685442 0)
(0.849880513 0.7320630166 0)
(0.8431135453 0.8707858809 0)
(0.8477640407 1.025070025 0)
(2.253695949 0.9963014743 0)
(-0.4044046368 0.9717110588 0)
(-0.7310788835 1.041741815 0)
(-0.5485922345 1.179930054 0)
(-0.01896449506 1.335517216 0)
(0.426042765 1.379561227 0)
(0.6435566926 1.318584026 0)
(0.7397818654 1.215441882 0)
(0.7930089684 1.129765935 0)
(0.8194280802 1.046182296 0)
(0.7811470823 0.8457875619 0)
(0.5339744302 1.143573687 0)
(0.4136335621 0.427178024 0)
(0.4185171679 0.2492793768 0)
(0.3664343387 0.05295980538 0)
(0.6031439938 -0.268506464 0)
(0.7264548023 -0.3664732835 0)
(0.586203709 -0.2735000555 0)
(0.75996846 0.3668873112 0)
(0.7087198295 0.5093883627 0)
(0.5425474882 0.3481350442 0)
(0.5395835678 -0.182350262 0)
(0.5145542032 -0.1196551085 0)
(0.3965124766 -0.1688382402 0)
(0.9869702382 -0.4786408048 0)
(1.068327622 0.5411279024 0)
(0.9093328704 0.702945172 0)
(0.9535709165 0.818942612 0)
(0.8245469205 -0.698628116 0)
(0.9120867384 -0.5130963507 0)
(0.6950374574 0.8022522732 0)
(0.7066534479 1.188082132 0)
(0.6825046264 1.574530657 0)
(0.6586311811 1.850726169 0)
(0.6736344886 1.905935982 0)
(0.7060014692 1.722949309 0)
(0.7383458146 1.448385939 0)
(0.7665520517 1.243497642 0)
(0.7863071973 1.127709707 0)
(0.802382392 0.9078644051 0)
(0.5595115323 1.096708336 0)
(0.4897037053 0.2348787785 0)
(0.5080812822 0.02694997141 0)
(0.6469147005 -0.1252927214 0)
(0.7684096789 -0.5649522773 0)
(0.8013323268 -0.53732616 0)
(0.7691776285 -0.3839252055 0)
(0.8694680776 0.3749688374 0)
(0.8319483079 0.4898508935 0)
(0.7648347671 0.5826668138 0)
(0.5395335065 0.0209724534 0)
(0.4625284449 0.08692732098 0)
(0.3382527199 0.07311107135 0)
(0.8932738694 -0.4084914042 0)
(1.216667651 0.4382387317 0)
(0.9948463223 0.6517161088 0)
(0.9946634404 0.7943100051 0)
(0.8909645045 -0.4595630659 0)
(0.8228668522 -0.8010524154 0)
(1.091369888 0.8181354568 0)
(1.063224433 1.159062867 0)
(1.011803397 1.512927109 0)
(0.9453757085 1.780514534 0)
(0.8730911498 1.840116965 0)
(0.80824587 1.66821413 0)
(0.769738165 1.422615636 0)
(0.7589989046 1.251965939 0)
(0.7619502668 1.161606939 0)
(0.7696245797 0.9573857314 0)
(0.5798146243 1.061283601 0)
(0.5570142873 0.03221603622 0)
(0.5791258945 -0.08200103117 0)
(0.7289120537 -0.1286639363 0)
(0.8440528833 -0.6270427482 0)
(0.8522878486 -0.5556002773 0)
(0.8551627304 -0.407353644 0)
(0.95208507 0.378455098 0)
(0.9208547959 0.4802869592 0)
(0.8866112065 0.586194334 0)
(0.6437284715 0.3539544856 0)
(0.4581427949 0.2979219352 0)
(0.3462213284 0.2510113453 0)
(0.5862300256 -0.0124457429 0)
(1.041047391 0.2581793793 0)
(1.095760417 0.558178595 0)
(1.093702384 0.7533072436 0)
(1.021945522 0.0719617184 0)
(0.9490682645 -0.3480033315 0)
(1.450459581 0.7779605668 0)
(1.410424415 1.111930676 0)
(1.318461888 1.4234467 0)
(1.182809796 1.638863734 0)
(1.018380931 1.661014203 0)
(0.8718032198 1.510696177 0)
(0.7862200382 1.340781237 0)
(0.7527967985 1.233499678 0)
(0.7450488513 1.172448503 0)
(0.7483773664 0.9891559463 0)
(0.5954222717 1.038290377 0)
(0.6225202184 -0.1080198592 0)
(0.6385503583 -0.1375240867 0)
(0.7052404399 -0.1220333225 0)
(0.8818865857 -0.6143627207 0)
(0.8716930893 -0.5327106463 0)
(0.8030458776 -0.399877708 0)
(1.03037543 0.3799426482 0)
(1.008794567 0.4795206708 0)
(0.9925900324 0.553636599 0)
(0.8507865886 0.5636163039 0)
(0.567465055 0.5246484902 0)
(0.4283067641 0.4312461894 0)
(0.5294582032 0.231521429 0)
(0.9710367782 0.2940317552 0)
(1.177213192 0.4978529422 0)
(1.214014629 0.6875457568 0)
(1.175625457 0.4895442966 0)
(1.133068459 0.3110293228 0)
(1.709346509 0.7891897084 0)
(1.676173791 1.07020118 0)
(1.533763599 1.315957969 0)
(1.319217562 1.463100589 0)
(1.079319244 1.459293083 0)
(0.8929186192 1.362561957 0)
(0.7926162823 1.271865105 0)
(0.7496081648 1.210886129 0)
(0.7352253335 1.167141314 0)
(0.7352402184 1.007335967 0)
(0.6058395596 1.027440847 0)
(0.6846726566 -0.1916094688 0)
(0.6903914959 -0.1783220096 0)
(0.7159146964 -0.161279517 0)
(0.8796576032 -0.5564812715 0)
(0.76553073 -0.3370604219 0)
(0.3598214206 0.1851031771 0)
(0.6461769103 0.2799746403 0)
(1.013468014 0.4550892491 0)
(1.066609359 0.4571979894 0)
(0.9974789902 0.5066921779 0)
(0.7905443388 0.5750950875 0)
(0.5788557705 0.5448929487 0)
(0.5520165259 0.3959510318 0)
(0.9375679213 0.3780386867 0)
(1.194777228 0.4954088149 0)
(1.27889763 0.6458261736 0)
(1.280586389 0.6888272949 0)
(1.252831919 0.6877575372 0)
(1.786330143 0.8393338712 0)
(1.7533735 1.036551448 0)
(1.564829378 1.201202504 0)
(1.30758183 1.286237812 0)
(1.062467114 1.287422401 0)
(0.8911723837 1.253199867 0)
(0.7939792217 1.21699124 0)
(0.7451955085 1.182461031 0)
(0.7253559402 1.148662785 0)
(0.7216606915 1.015820239 0)
(0.609896912 1.029047631 0)
(0.7486680735 -0.240889242 0)
(0.7401964164 -0.2083865977 0)
(0.6826368977 -0.2317041432 0)
(0.8938461638 -0.4877885006 0)
(0.8443470445 -0.3296604093 0)
(0.5115018845 0.1344990195 0)
(0.8468642686 0.2803780349 0)
(1.141003293 0.4722554071 0)
(1.059029166 0.3179415717 0)
(1.020894041 0.3540189959 0)
(0.8886745653 0.4599559693 0)
(0.6814348686 0.5122686051 0)
(0.6057405026 0.4747883268 0)
(0.9163840758 0.4591009675 0)
(1.152555302 0.538047136 0)
(1.253252896 0.6591986696 0)
(1.272742523 0.7580863139 0)
(1.254397315 0.8247236833 0)
(1.622043245 0.8909754002 0)
(1.583919752 1.008977177 0)
(1.400665902 1.101405374 0)
(1.190810866 1.149523074 0)
(1.013007424 1.167293327 0)
(0.8766026236 1.171589694 0)
(0.7794229032 1.165362315 0)
(0.7253352995 1.147829535 0)
(0.703053334 1.122136865 0)
(0.6933248576 1.016675575 0)
(0.6084083593 1.0451819 0)
(0.8176701862 -0.2663252686 0)
(0.8181438202 -0.2162727485 0)
(0.7876284679 -0.2371026861 0)
(0.9220036028 -0.3971321139 0)
(0.9298935124 -0.2979726567 0)
(0.7280587732 0.02879971 0)
(1.085620604 0.2880147043 0)
(1.260842605 0.4863507932 0)
(0.9777305488 0.2055005801 0)
(0.9652089178 0.2259599033 0)
(0.8614256517 0.3150927752 0)
(0.7667095665 0.4498096443 0)
(0.7119575184 0.5028593732 0)
(0.8747902324 0.5546046879 0)
(1.081189955 0.6095914124 0)
(1.165992437 0.7079817323 0)
(1.184764669 0.8015269043 0)
(1.173830942 0.8736569817 0)
(1.339646938 0.9254549071 0)
(1.306736381 0.9896861039 0)
(1.192614119 1.037101476 0)
(1.073993778 1.06451955 0)
(0.9621883281 1.078539015 0)
(0.8575828456 1.091640921 0)
(0.7895463472 1.108155848 0)
(0.7381246211 1.107142095 0)
(0.6956264968 1.093777193 0)
(0.6838194229 1.01097905 0)
(0.6084316262 1.080532284 0)
(0.8842432668 -0.2726648235 0)
(0.9061125256 -0.20949452 0)
(0.8820377308 -0.1980362461 0)
(0.9648629511 -0.2944550909 0)
(0.9963139078 -0.226655312 0)
(0.9564821235 -0.01518914856 0)
(1.227684598 0.2935985241 0)
(1.350627572 0.4923888503 0)
(0.935276005 0.1704248997 0)
(0.9123660176 0.123973966 0)
(0.874772658 0.2453798931 0)
(0.8379173877 0.4059241118 0)
(0.8182441447 0.5136622495 0)
(0.8982818518 0.5941227427 0)
(0.9798201887 0.7016198288 0)
(1.052211221 0.7659288954 0)
(1.070558046 0.8382534489 0)
(1.068418801 0.8973550557 0)
(1.120559697 0.9395626019 0)
(1.102506295 0.9747883173 0)
(1.051835344 0.9966621976 0)
(0.9914729683 1.004257695 0)
(0.9146702529 1.003161675 0)
(0.8712747811 1.036796164 0)
(0.8236704803 1.056400153 0)
(0.7791220118 1.059162111 0)
(0.7403644634 1.051452087 0)
(0.7193760584 0.9953616368 0)
(0.6146796128 1.136947054 0)
(0.9386231507 -0.2610083894 0)
(0.990989764 -0.1988901262 0)
(0.982081797 -0.1331654125 0)
(1.024664297 -0.190451275 0)
(1.057409876 -0.137996965 0)
(1.096544667 0.04236353469 0)
(1.298164142 0.3040686379 0)
(1.418243156 0.5059064703 0)
(0.9188166844 0.1781248956 0)
(0.8626057196 0.07544124426 0)
(0.8835410051 0.193494182 0)
(0.9125759609 0.3769777145 0)
(0.9249312284 0.5172697264 0)
(0.9435285997 0.6182036777 0)
(0.9528850858 0.7241775652 0)
(0.9432917587 0.8184668649 0)
(0.9629413104 0.8625413461 0)
(0.9696955736 0.9067331087 0)
(0.9890705762 0.937444099 0)
(0.9872064759 0.9549017755 0)
(0.9717465358 0.958409694 0)
(0.9453796238 0.9472439722 0)
(0.9179851955 0.9688290226 0)
(0.8905223512 0.9929514512 0)
(0.8533026812 1.007130216 0)
(0.8133727957 1.011502009 0)
(0.7785622067 1.014891941 0)
(0.3620945988 0.5323585398 0)
(0.5971345349 1.196376686 0)
(1.02379752 -0.165003378 0)
(1.062562821 -0.1754772156 0)
(1.120232872 -0.04686997955 0)
(1.108143614 -0.08758765232 0)
(1.132239025 -0.04065916486 0)
(1.18870186 0.1220321923 0)
(1.348172259 0.3257681678 0)
(1.470401081 0.5346430216 0)
(0.9215761104 0.2071291945 0)
(0.8413828269 0.09198235373 0)
(0.8952407337 0.1638666182 0)
(0.9947929622 0.3564834601 0)
(1.027816515 0.5118914588 0)
(1.011198524 0.6173710604 0)
(0.9715913356 0.7124621772 0)
(0.9291380146 0.7941261256 0)
(0.8893196038 0.8685307513 0)
(0.8850255291 0.902164497 0)
(0.895628294 0.9226811711 0)
(0.909513402 0.9259062517 0)
(0.9141602194 0.9147071642 0)
(0.9130295673 0.9014770732 0)
(0.9293102392 0.931133918 0)
(0.9158093121 0.9479890583 0)
(0.8853731868 0.9567670914 0)
(0.8488404362 0.947799476 0)
(-0.6758198788 -0.0392474022 0)
(-0.8879203099 -0.8209671096 0)
(-0.03088227849 1.047171807 0)
(-0.6475193136 0.005535846558 0)
(0.5107642164 -0.1024911036 0)
(0.9623214214 0.04684244379 0)
(1.085362044 0.0182946544 0)
(1.126838367 0.06202755588 0)
(1.16901355 0.1995615651 0)
(1.312513457 0.3603480421 0)
(1.445184939 0.5894744967 0)
(0.8907312385 0.246167155 0)
(0.7770325294 0.1327456055 0)
(0.8042827233 0.1656611333 0)
(0.9639286742 0.347889934 0)
(1.02222578 0.4982797052 0)
(0.9924227013 0.5965018997 0)
(0.9185447791 0.6789350319 0)
(0.8305137499 0.7523689794 0)
(0.7525326748 0.8186598718 0)
(0.7068954989 0.868058074 0)
(0.6940845867 0.8938164468 0)
(0.6965239012 0.9038337349 0)
(0.7015892884 0.8907326332 0)
(0.7135591368 0.8962169476 0)
(0.727929369 0.9071715968 0)
(0.7313160301 0.9138043953 0)
(0.7098582872 0.9177685783 0)
(0.7002599466 0.9199840614 0)
(-1.15435208 -0.3328330165 0)
(-0.9736046426 -0.7341785906 0)
(-0.260518161 0.6780637772 0)
(0.6574723838 0.02025781964 0)
(0.7122561271 0.1515148544 0)
(0.9074811322 0.2041640468 0)
(1.110435093 0.2453888183 0)
(1.255479799 0.2891574235 0)
(1.32525349 0.3397552572 0)
(1.332938399 0.3835417462 0)
(1.263643506 0.4493259825 0)
(0.9953753801 0.3187776288 0)
(0.9438902298 0.2705399924 0)
(1.014652494 0.2599406791 0)
(1.114234326 0.2982241051 0)
(1.173254879 0.3601013708 0)
(1.186599194 0.421603828 0)
(1.166319585 0.4769327678 0)
(1.127601738 0.5257759629 0)
(1.084317726 0.5686845969 0)
(1.047319464 0.6056250207 0)
(1.022649967 0.6360219261 0)
(1.012235986 0.6587337228 0)
(1.01544755 0.6738177131 0)
(1.029887732 0.6830624773 0)
(1.053135677 0.6887593885 0)
(1.083244031 0.6928914449 0)
(1.120081293 0.7010952707 0)
(1.155252253 0.6392601929 0)
(1.146382222 0.5795889306 0)
(0.949560585 -0.08821799539 0)
(0.1666883362 0.2806205873 0)
(-0.5968289234 0.0004075640624 0.06237344003)
(-3.336185519 -0.004325506699 -3.781393614)
(0.03225824898 0.129265257 -2.182865238)
(-3.656752257 0.3762127766 -6.549647042)
(0.2443233421 0.418722816 -1.648724784)
(-4.039350409 1.57278058 -6.182131181)
(-3.355125396 1.67651651 -6.616619208)
(-2.644767783 1.774508254 -6.980936403)
(-6.725808963 -1.964139043 -3.619495444)
(-6.078870692 -2.358077077 -4.514809015)
(-5.245731833 -2.597144183 -4.92083219)
(-4.301312042 -2.809794138 -5.346816268)
(-6.875711162 -2.513248102 -2.593139664)
(-6.032716041 -3.000059397 -3.277413998)
(-5.108811753 -3.237094768 -3.518997202)
(-4.300532038 -3.51126015 -3.842057543)
(-6.890755755 -2.295972535 -1.433058823)
(-5.978628239 -2.742930306 -1.747730167)
(-5.220942317 -2.955829653 -1.875402304)
(-4.569755035 -3.252388864 -2.063254977)
(-7.273592094 3.059436846 -1.428869092)
(-5.851927355 3.638537689 -1.775112482)
(-4.860296208 3.9330569 -1.922473741)
(-4.028897077 4.351626348 -2.127211632)
(2.672835976e-06 -0.3226725214 -0.6463711957)
(0.0002548736246 -1.74809835 -2.236622646)
(1.571307811e-05 -1.784374099 -1.966743703)
(0 0.2447651152 -0.08067850039)
(1.024357141e-05 -1.676203152 -2.773549406)
(1.215061093e-06 -0.8153000503 -2.744314289)
(0 0.2601198339 -0.184291278)
(0 -0.6175382685 -3.100682558)
(0 -0.4953050903 -3.033019573)
(0 0.3065034559 -0.2258881261)
(0 -0.3501393319 -2.877669753)
(0 0.1030086921 -3.272004193)
(0 0.3524488681 -0.2468933433)
(0 0.3714509708 -3.177783416)
(0 0.8562045974 -2.874425662)
(0 0.3813181946 -0.2732312233)
(0 1.172137079 -2.778886653)
(0 1.36592393 -2.762398237)
(0 -0.4338687156 -0.1597562884)
(0 1.527954773 -2.750132122)
(0 1.68803861 -2.843298211)
(0 -0.4898090402 -0.4689578908)
(0 1.858122854 -2.905587792)
(0 2.068918308 -2.904973332)
(4.958219434e-07 -0.268821819 -0.3391876587)
(5.509776316e-07 2.478522766 -3.387903783)
(1.223041005e-05 2.598378994 -3.978826019)
(1.297208144e-06 0.04093050374 -0.1809292544)
(4.024768164e-05 3.004515001 -3.548318897)
(1.876817154e-06 0.04017417384 0.0479614981)
(-0.0001616878022 -1.649352187 -1.434076754)
(0.0006283710448 -1.543445388 -1.259878149)
(-0.0002850915477 -1.486823593 -1.186351385)
(0.001213586803 2.624715255 -1.805618224)
(0.0003443271594 2.470417616 -0.9649910939)
(0.002356252809 2.503608651 -0.9911787014)
(0.002054219874 -1.384005253 -1.053147103)
(0.001797793514 -1.24859427 -0.9003220496)
(0.2378365053 0.454929812 -1.510829953)
(0.002959953734 2.183193794 -0.7500671403)
(0.0004816425738 -1.119723155 -0.7640841007)
(-9.791798797e-06 -1.041427154 -0.692993731)
(7.66395585e-06 -0.9732247578 -0.6194092107)
(-2.638987444e-07 -0.9051253962 -0.563398881)
(-0.0002364498155 1.80999164 -0.5617797457)
(-3.373814173e-07 1.529851886 -0.4333296031)
(1.058216078e-05 1.660369632 -0.4877215574)
(0 -0.8242401208 -0.4906989651)
(0 -0.755129078 -0.3961133227)
(0 -0.6450502913 -0.3604479299)
(0 -0.5825691229 -0.3181936945)
(0 1.202555884 -0.3239458367)
(0 0.9454415245 -0.2352400576)
(0 1.048643858 -0.2643316884)
(0 -0.4153235026 -0.1916683242)
(0 0.2813420263 -0.06802018719)
(0 0.5149139006 -0.1076036018)
(0 0.6954109779 -0.1528161528)
(0.0869136759 0.1739989364 -0.000277626674)
(-0.2366020464 0.3114900017 -0.000496684399)
(0.2577666963 0.242606327 -0.0003867443007)
(-0.2106574915 0.1789729754 -0.0002855252459)
(0.01287984855 0.2094172365 -0.0003332762363)
(-0.1149463669 0.2098389274 -0.0003341566151)
(-0.6267022208 0.04648136988 -7.418768249e-05)
(-0.3247395906 0.001164211264 -2.306168387e-06)