/*--------------------------------*- C++ -*----------------------------------*\
  =========                 |
  \\      /  F ield         | OpenFOAM: The Open Source CFD Toolbox
   \\    /   O peration     | Website:  https://openfoam.org
    \\  /    A nd           | Version:  8
     \\/     M anipulation  |
\*---------------------------------------------------------------------------*/
FoamFile
{
    version     2.0;
    format      ascii;
    class       volScalarField;
    location    "1.5";
    object      epsilon;
}
// * * * * * * * * * * * * * * * * * * * * * * * * * * * * * * * * * * * * * //

dimensions      [0 2 -3 0 0 0 0];

internalField   nonuniform List<scalar> 
67451
(
0.1581063208
0.1522046787
0.1554410937
0.1845074052
0.2323941332
0.3277579836
0.4898611687
0.67647653
0.5882660142
0.5485363542
0.7996011005
0.2486667892
0.2199099658
0.2033696958
0.1963735779
0.1932825992
0.189852672
0.1989946125
0.2754773729
0.4011076865
0.5998586116
0.86918331
1.170754614
1.047373101
0.7478089444
0.4926567715
0.3908959739
0.302070545
0.2198529436
0.1868065586
0.242644082
0.4530722922
0.7015304737
0.9408767237
1.175438283
1.30342975
1.236305613
0.3307579697
0.289286893
0.2590716762
0.2426051353
0.2371900496
0.2381980945
0.2384706071
0.2348007899
0.2560217249
0.4280566558
0.6890817601
1.031556265
1.403328474
1.743856775
1.627684267
1.326167166
0.9514878116
0.5903454206
0.3455392893
0.2350814124
0.2751699903
0.3680137999
0.6055160259
0.8707608631
1.140068798
1.405701106
1.573698018
1.483912635
0.3454069363
0.3154958124
0.292283114
0.2843895878
0.2860901672
0.2909706335
0.2919411742
0.2804080997
0.3352725128
0.6445516123
1.075691246
1.596657992
2.123739902
2.497833586
2.314850025
1.911543928
1.501686036
1.062262235
0.6630387804
0.4551661346
0.5181294885
0.4657172861
0.6006092408
0.8616461467
1.191862466
1.523531685
1.762605972
1.690937887
0.3670581748
0.342278724
0.3385497115
0.3438104433
0.3496779979
0.3505223746
0.3338505922
0.4077734488
0.8448553565
1.437692085
2.162406349
2.863304872
3.26788012
3.045388607
2.512642369
1.93947088
1.430703595
0.9609383086
0.7695524218
0.9775792145
0.6920765965
0.4845465636
0.6316521892
0.9388477291
1.272963922
1.454600835
1.351393297
0.4391352686
0.4031114081
0.3995498792
0.4059577043
0.4113997238
0.4092052554
0.3848027187
0.4391223179
0.8966726659
1.562693784
2.415593684
3.216654584
3.657272927
3.473954004
2.919297962
2.244719322
1.655528834
1.213831189
1.197531158
1.70656627
1.270723059
0.7207371496
0.776906464
0.9397889539
1.13050096
1.103624882
1.042636179
0.5538982354
0.4913302122
0.4706816963
0.4728752561
0.4762470744
0.4608101037
0.4206588969
0.4367119309
0.7513119932
1.294635424
2.104484336
2.919381053
3.401412432
3.282371948
2.801350346
2.231324317
1.761716808
1.409074327
1.596323472
2.018105553
1.914731675
1.340703889
0.756282551
0.5344076023
0.701433033
0.8312244979
0.8717862341
0.5269533068
0.5665669517
0.5627426664
0.5531960539
0.5493087437
0.5279254894
0.4836364807
0.4483325469
0.5967840125
0.8692651403
1.341837668
2.048313186
2.649634423
2.585848662
2.206574715
1.73908852
1.240640126
1.371369793
3.166702378
2.844858527
2.46300719
2.012322292
1.365648444
0.8689735304
0.6040951349
0.6184828657
0.7423313888
0.6334601505
0.702259232
0.6903517719
0.6617769881
0.6424671291
0.6107676228
0.559819302
0.5025830976
0.58132064
0.7508662379
0.9289281021
1.309581819
1.916009761
1.902073851
1.638037869
1.272867491
0.9683841453
1.979670673
15.29708956
7.893306705
3.177352581
2.028821036
1.398157902
0.890570566
0.5752387777
0.4974706984
0.5973710509
0.7079240791
0.7946519036
0.7860622008
0.7602077287
0.745102034
0.7167212157
0.6534159155
0.5776863211
0.5913775819
0.7811918748
0.9422674825
1.053792114
1.387240053
1.374587082
1.195341861
0.9532385102
0.753506939
0.7863732561
3.397169054
2.477022246
1.881526387
1.506872438
1.070568398
0.7151514718
0.5147221241
0.4416972461
0.4707498345
0.7293952639
0.76583062
0.7958539047
0.8225064379
0.839207284
0.8284566734
0.7672977031
0.6681067873
0.6177413026
0.778021042
1.027524585
1.092757968
1.135533998
1.094453388
0.9747938241
0.8234156098
0.6888777765
0.6280634563
1.023179341
1.180608916
1.194465684
1.007844131
0.7431487834
0.5499535634
0.4670245321
0.4212969599
0.3958541984
0.8090960316
0.8206543414
0.8616367423
0.9032413252
0.9310133558
0.9324028364
0.8895382297
0.7782494003
0.6768294381
0.7287327148
0.9956095512
1.107850385
1.100067544
1.042754871
0.9495854492
0.8396958539
0.725938468
0.6302516504
0.640466937
0.7261564742
0.7526790345
0.6474808359
0.5084733487
0.4407529533
0.4358114653
0.4115286074
0.3629407672
0.916226923
0.9057906553
0.9371943682
0.977095474
1.006686232
1.015447595
0.9910141552
0.9116926751
0.7705819555
0.7020336579
0.840618662
1.03348656
1.081778085
1.04599772
0.9705147404
0.877211335
0.7755845219
0.670914356
0.5870302408
0.5576098071
0.5234126288
0.4429872239
0.3743031039
0.3730212831
0.4065496206
0.396854155
0.3471430197
1.029027762
0.9854860459
0.9985032945
1.031598844
1.058735881
1.070023176
1.057292557
1.006806013
0.9024685948
0.7688877281
0.7569411023
0.8966274002
1.002984672
1.014737805
0.9666787555
0.8894669034
0.7980873139
0.6977397309
0.5931897407
0.5099869189
0.4345764668
0.3553412731
0.3090444518
0.3250136258
0.3710122723
0.3725253447
0.3336447281
1.135722586
1.055321602
1.037303589
1.057015223
1.079099757
1.089652128
1.082721565
1.048671056
0.9726046024
0.8511012412
0.7570316793
0.786311939
0.8803231143
0.9310557635
0.9185379542
0.8640215983
0.7862965893
0.6943220136
0.5913648561
0.4935563945
0.4047960903
0.3257066655
0.2783021887
0.2873665573
0.3303576985
0.3405152048
0.3174753438
1.24071261
1.126850985
1.056125648
1.04994467
1.06564458
1.074821748
1.069447461
1.043121731
0.9858366601
0.8897660143
0.7802745981
0.7321680108
0.7640112805
0.813720913
0.827215579
0.7977453545
0.7374474042
0.6568327446
0.5620341632
0.4693227326
0.3834103561
0.3097960611
0.2628314635
0.2597626733
0.2908323599
0.3050045439
0.2978750129
1.262774345
1.135024886
1.043251899
1.024304568
1.038434213
1.048211992
1.043929625
1.021647287
0.9750687696
0.8976316312
0.7961189423
0.7122437976
0.6879203787
0.6996772967
0.7121830428
0.6979392126
0.6540609897
0.5874914798
0.5097797901
0.4301248027
0.3555926165
0.2948365825
0.2560684553
0.2463875361
0.2619104099
0.2720360664
0.2759354859
1.281749872
1.12185767
1.009710206
0.9828453725
0.9990839427
1.011849024
1.009501604
0.9901061519
0.9502297796
0.8854176463
0.7963504298
0.7026967218
0.6449082181
0.6220106959
0.6129879668
0.595885763
0.5611552886
0.5094874961
0.4469403585
0.3811699102
0.3221414163
0.2798284147
0.2571460244
0.2501740128
0.2521684313
0.2493873713
0.2545199625
1.392645312
1.1311129
0.9709736777
0.9307068119
0.9503207466
0.9679002324
0.9684636359
0.9516957989
0.9164657666
0.860232244
0.7821464341
0.6907415076
0.6170988382
0.5700434973
0.539778984
0.5123732887
0.4782020367
0.4342358662
0.3830838169
0.3312381598
0.2893511566
0.2676597646
0.265141653
0.2682121524
0.2626451201
0.2427459947
0.2379734243
1.559367293
1.16010329
0.9322578358
0.8725787705
0.8957009815
0.9187922711
0.9226636348
0.9083530066
0.8765653236
0.8262436252
0.7564360742
0.6706680296
0.5929345638
0.5328931553
0.4872107024
0.4501362816
0.4159265751
0.3788933706
0.3378751264
0.2973404284
0.2680448953
0.261673527
0.2761381162
0.2909170571
0.2839657898
0.2499581531
0.2293849966
1.702139058
1.187179216
0.8998511917
0.8134773627
0.8389205211
0.8667617842
0.8734993049
0.8612086944
0.8319271011
0.7855971252
0.7214308349
0.6411727912
0.5667231044
0.5046395514
0.4582552158
0.4316038771
0.4183357632
0.4067039783
0.3789216111
0.3336992117
0.2908692347
0.2742425759
0.287803935
0.3071531371
0.3016837707
0.260713512
0.2266194172
1.699658944
1.137228755
0.8408271435
0.755123834
0.7820820771
0.813141984
0.821729815
0.8107637759
0.7830915266
0.7391313116
0.6779326458
0.6043770772
0.5365178017
0.4893107235
0.5274570525
0.7662569812
0.7738881408
0.7859346126
0.7631446181
0.6474363645
0.4852819528
0.3626401433
0.315966041
0.3141597745
0.3055874707
0.2635485079
0.2227408613
1.504874856
0.9886825603
0.7514634571
0.6956442074
0.7256399387
0.7580541664
0.7673485634
0.7569845812
0.7301687446
0.6875219101
0.6283540401
0.565912211
0.5160419391
0.5961042896
1.64630685
2.81524089
2.57168128
1.944264577
1.5297985
1.175208073
0.8278468917
0.5527323765
0.3888905487
0.3237598282
0.295945298
0.2532727453
0.2116348882
1.176526608
0.7926023233
0.6596869199
0.638767472
0.6703584216
0.7004439623
0.709549499
0.6992862506
0.6727904349
0.6305995118
0.5779145137
0.5243541093
0.5376057387
1.596106719
5.609377775
8.635625075
7.346170394
4.772462673
2.939398255
1.841748666
1.165955692
0.7272497179
0.4573724315
0.327731029
0.2749478339
0.2305950614
0.1915135613
0.8710071695
0.8557997664
0.6278076385
0.5930095882
0.6189056109
0.6409981375
0.6474680428
0.6368760989
0.6111780413
0.5745570283
0.531808642
0.4869853612
0.5016957002
1.622814529
5.743263921
8.526757054
6.930373058
4.507604912
2.758501947
1.722415164
1.104635441
0.6999731327
0.4385827931
0.3021584331
0.2423125362
0.1993421136
0.164872095
1.378456245
9.478840763
2.587178309
0.8357925252
0.5970274476
0.5870920762
0.5861555563
0.5741399401
0.5522202844
0.5227922184
0.488740552
0.4530758844
0.4478155792
0.9079862264
3.617829079
5.769915843
4.58791595
2.994709498
1.901829654
1.267912239
0.8623170851
0.5669884382
0.3665181766
0.2567568389
0.2036513878
0.1651930197
0.1365160206
0.9625078766
7.211381951
1.473024658
0.6447500843
0.5528116647
0.5454694597
0.5360307402
0.5199153522
0.4987404494
0.4739134502
0.4472065308
0.4205098733
0.4073429477
0.5402711877
1.629205316
2.983206163
2.407845268
1.652249843
1.163840296
0.8542155653
0.6144274654
0.4214974477
0.2870571293
0.2093534396
0.1660914314
0.1330305148
0.1105053996
0.5350571762
1.947507005
0.7204672571
0.5825907964
0.5571108904
0.5331993129
0.5056192804
0.4779808583
0.4519721601
0.4279384958
0.4061975492
0.3871256511
0.3754404155
0.4029160137
0.7059381074
1.271292913
1.100311888
0.8638526779
0.6987918252
0.5580546137
0.4228832919
0.307169383
0.2232938521
0.1689803446
0.1328465343
0.1045488968
0.08792455212
0.4953077588
0.8066862098
0.688657975
0.663940111
0.6199398763
0.5616818716
0.5037964079
0.4539785187
0.4146220601
0.3852286747
0.3642862661
0.3500254715
0.3423211346
0.3456971447
0.4079445655
0.5542745062
0.5348120146
0.4910547136
0.4402644423
0.3732102355
0.299078344
0.2315648769
0.1771412665
0.1350480734
0.1024160709
0.07810368994
0.06738599332
0.5524788218
0.7385862315
0.7750627854
0.745348158
0.6765584075
0.5908362606
0.5060825988
0.4330542634
0.3767277075
0.337698639
0.3136423228
0.3007789586
0.2957389059
0.2960419389
0.3066793153
0.3314311258
0.3328509054
0.3236927976
0.3009045607
0.2648903873
0.2223320975
0.1793083208
0.1387741691
0.1019468524
0.07107484616
0.05122064831
0.04697125443
0.548573079
0.7154984719
0.7301295873
0.6982163973
0.637584639
0.560367181
0.4770723782
0.3980386916
0.3323373415
0.2852051287
0.2564741841
0.2420389273
0.2368938382
0.2366848433
0.2392775442
0.2431776378
0.2426859529
0.2366842023
0.2230938794
0.2019349541
0.1748438152
0.1434841945
0.1094711653
0.07512072199
0.04455616349
0.02768927863
0.01544277228
0.1431050758
0.1368950316
0.1418892996
0.1616781392
0.1806533667
0.2024199782
0.2522015273
0.3275566319
0.3715920083
0.4453561138
0.5052247787
0.2055117003
0.188057521
0.1767142272
0.1718898879
0.1698476792
0.1643082791
0.174478317
0.2105004987
0.2532701456
0.2999460519
0.3602515945
0.4219575572
0.4090828915
0.3695818952
0.3291108437
0.2907457222
0.2294191099
0.1736505901
0.1474167152
0.1633430492
0.2770705328
0.4808068881
0.6977679173
0.8239014619
0.8988816411
1.248520314
0.252256645
0.2318627314
0.214347255
0.2027542416
0.1987926927
0.201688601
0.2046806555
0.1966353458
0.2178683402
0.2805922464
0.3678457824
0.479102945
0.6170474631
0.7177550719
0.6153349496
0.4673001591
0.3833258727
0.2899539135
0.2104141065
0.1701884147
0.1725676263
0.216459405
0.3300916523
0.4692089352
0.6466907313
0.8562611837
1.082701571
1.65951857
0.261752914
0.2467183678
0.233776431
0.2274203906
0.229507098
0.2353975537
0.2356632619
0.2469185714
0.2613179852
0.3727150854
0.5217738652
0.7983864489
1.083484578
1.214617515
1.071554358
0.7805956974
0.5401327095
0.4435763955
0.3510112132
0.3035641166
0.2823474306
0.2920656342
0.3630093241
0.4491810578
0.6218428459
0.9103414188
1.205863874
1.945314677
0.2710340258
0.2616805297
0.2584958686
0.2644585905
0.272088586
0.272522646
0.2864861016
0.3078140414
0.4608012327
0.6772445813
1.149655322
1.550702151
1.692825034
1.549495443
1.191780206
0.8021128907
0.5905533747
0.5391192325
0.5675123857
0.5320654371
0.4617635729
0.4117114125
0.4405087918
0.5963883134
0.815372243
1.058475141
1.514847989
0.3010496912
0.2955593607
0.2929362828
0.3000170031
0.3091207386
0.314435188
0.3318584328
0.3445617061
0.5039252425
0.7512240987
1.286871195
1.713907797
1.861512146
1.77290729
1.453761975
1.044528662
0.8114891999
0.8342053852
1.004590671
1.02194323
0.8505033342
0.6948597335
0.5933222456
0.6733586539
0.7253931501
0.7696328891
0.8066789823
0.3379523197
0.3373991767
0.3301258413
0.3349531884
0.3450921982
0.354625029
0.3568740735
0.3698504136
0.4980163924
0.7076957014
1.141442097
1.561422994
1.73642218
1.682175846
1.401667603
1.063367551
0.9625386004
1.306032423
1.722775376
1.464074903
1.222872408
0.902380265
0.6416615971
0.5642191496
0.5312387372
0.5047731518
0.5333162605
0.3636428401
0.354946481
0.3572807913
0.366917896
0.378774488
0.3873179332
0.3936757842
0.4047136884
0.4971556448
0.6468009186
0.8885382439
1.19026431
1.352274098
1.3141751
1.106332103
0.9333357799
1.126810258
2.727001007
4.945639721
3.56156051
1.664292182
1.165130995
0.7759780647
0.5558287571
0.466163758
0.4395985648
0.5140929468
0.3845158664
0.3841814327
0.3924484794
0.4033683317
0.4155192917
0.4249094664
0.4352376878
0.4509902467
0.5263453287
0.6294743586
0.7338807808
0.8658148636
0.9560524745
0.9367980057
0.818324573
0.7400010006
1.234182098
5.605024094
15.36788256
8.990285928
4.260353539
1.438557737
0.8177832519
0.545692797
0.4388182086
0.4154659497
0.5084085174
0.4378053616
0.4337604597
0.4364305595
0.4434952669
0.4544800353
0.466046699
0.4794923401
0.5003431336
0.5612212031
0.6452543093
0.6869248598
0.7179228333
0.7481016548
0.7260693236
0.6589463291
0.6162991274
0.7051105346
1.682067539
6.173964385
3.862958186
1.526729005
0.9454978019
0.6436603195
0.4716365708
0.4016630059
0.3910857431
0.4947186131
0.4811223058
0.4796485707
0.4771852172
0.4804184588
0.4911229518
0.5055785408
0.5219455599
0.5467662151
0.5958821545
0.6665419988
0.6903094967
0.6792549417
0.6678272584
0.6329924916
0.5796304553
0.5344472777
0.5314146036
0.716362994
1.599334034
1.112915958
0.8116670762
0.6327965543
0.484209744
0.3986799136
0.3708351546
0.3729665041
0.4900599308
0.5132118287
0.511836063
0.5080231671
0.5110297938
0.5221457749
0.5385158464
0.5584446873
0.5828462822
0.6249080542
0.681062125
0.7004776764
0.6789442049
0.6428468167
0.5959818566
0.5431744716
0.4951058183
0.4648511137
0.4904011566
0.6213444525
0.5767666055
0.5220005183
0.4391315954
0.3703210441
0.3443293515
0.346880225
0.3584521702
0.4901378493
0.5641017575
0.5531508264
0.5412327528
0.5379650285
0.5443244805
0.5580455227
0.5772289733
0.600417924
0.6300403924
0.6719846136
0.6966296005
0.6822095311
0.6408529387
0.5883074022
0.5335559785
0.4827610181
0.4418220693
0.4206661249
0.4220755539
0.4077394184
0.3765728868
0.3307484797
0.3002569573
0.3062647322
0.3259916338
0.3434435561
0.4851318356
0.6238477129
0.6034324956
0.578072417
0.5606204486
0.5550564664
0.5604222136
0.5740560575
0.5925859396
0.6138937834
0.6427507552
0.6697435061
0.6684912853
0.6367899361
0.5879260988
0.5340847796
0.482216452
0.4363263412
0.399229387
0.3698278528
0.3440259837
0.317091831
0.2730467499
0.2602374863
0.2771317684
0.3044069316
0.3253223583
0.4700849127
0.6602860483
0.6363503545
0.6026972215
0.573230309
0.5558460587
0.5519775809
0.559099053
0.5729066687
0.5891014779
0.6071746892
0.6267610785
0.6332862133
0.6153740591
0.5774127562
0.5296716814
0.4801431969
0.4332809552
0.3909357786
0.3526260497
0.3190605663
0.2869929851
0.2550492864
0.2392900528
0.2529785465
0.2807873091
0.3032638179
0.4444929688
0.6803006487
0.6551240853
0.62115925
0.5849289065
0.5574395602
0.544173695
0.5436800299
0.5511375421
0.5613788362
0.5713208058
0.5808509508
0.5857502558
0.5762131206
0.5498476608
0.5116165421
0.4679932097
0.4236585283
0.3809734783
0.3403963629
0.3055497952
0.2732311333
0.2445567288
0.229178099
0.235462291
0.2576308279
0.2785531382
0.4111423317
0.7064895612
0.6689189864
0.6299601203
0.5883852409
0.5540253581
0.5339428449
0.5272363327
0.5287996277
0.5332256603
0.5366349663
0.5377995392
0.5364456025
0.5289510665
0.5091942987
0.4796029758
0.4433004874
0.4038250626
0.3636612161
0.3262877646
0.2928473724
0.2629036899
0.2393831447
0.2268863777
0.2281394009
0.2410201221
0.2552721619
0.3750338688
0.7348087916
0.6758156061
0.6283027545
0.5823720605
0.5443028117
0.5204494898
0.5097086536
0.506814481
0.5064493721
0.5047419974
0.499840153
0.4920701681
0.4826677946
0.4661584711
0.4420131337
0.4117490511
0.3778793882
0.3427726737
0.3086735652
0.277418267
0.2520564611
0.236505964
0.2313967841
0.2331222943
0.2373278195
0.23959301
0.3425139085
0.7668535835
0.6800251774
0.6203026785
0.5694590518
0.5294087707
0.5040579793
0.49125362
0.4855328897
0.4818182035
0.4765423322
0.467697486
0.4553311465
0.4424094003
0.4257759572
0.4046123265
0.3793147786
0.3506656201
0.3199410485
0.2890454091
0.2612234732
0.2419629299
0.2358124601
0.2406458029
0.2475282566
0.2471964903
0.2358537357
0.3192919632
0.7911193346
0.6799398154
0.6078032777
0.551370201
0.5106079379
0.4855077329
0.4722150516
0.4650910215
0.4594300319
0.4520817424
0.4411340164
0.4263495258
0.411323082
0.3947970238
0.3771367725
0.3581271778
0.3369504844
0.3124187236
0.2844719051
0.2574207815
0.2400005869
0.239113039
0.2515502201
0.264397571
0.263734918
0.2421157669
0.3072033763
0.7967274388
0.6804385816
0.5955213042
0.5298757994
0.4893464719
0.4658393719
0.4531540162
0.4456150166
0.4390480792
0.4307896607
0.4192196912
0.4043507396
0.3915976178
0.3847160417
0.3945835676
0.4052322453
0.4013324523
0.3838412061
0.3504135339
0.3058598432
0.26810399
0.2540516173
0.2627351581
0.2768075379
0.2770398564
0.2503395126
0.3014833846
0.7861890491
0.6628641645
0.5727547568
0.5063638228
0.4672045864
0.4463023487
0.4347883352
0.427287783
0.4203189482
0.411718473
0.4003653354
0.3887689545
0.3906216301
0.4566564693
0.6703691469
0.8150649382
0.7787999235
0.6782962203
0.5707217651
0.461393882
0.3613018054
0.2971867043
0.27793084
0.2816125977
0.2797765092
0.2513997367
0.2922964753
0.7381539764
0.6264915049
0.5400354689
0.4804037595
0.4458978841
0.4282017717
0.4178809166
0.4103662518
0.4029986368
0.3941851695
0.383877596
0.3826039223
0.4503352155
0.8808546644
1.745409241
2.065879293
1.749326457
1.250338179
0.9016470952
0.6658137896
0.4790514868
0.35732448
0.2972367013
0.2788579896
0.2695387567
0.2402668034
0.2717861664
0.6654276174
0.7667397134
0.5703150676
0.4686364135
0.4312431761
0.4135176915
0.4033139704
0.3951865315
0.3869601628
0.377522227
0.3696442179
0.3808213026
0.5511628165
1.455008967
2.742915688
3.586927476
3.080895465
1.967330992
1.229861775
0.8327905351
0.5703569309
0.4032462205
0.3081529842
0.2670330739
0.2481121789
0.2179363283
0.2398751227
0.8802492093
3.824796457
1.226851015
0.5533381468
0.4325110728
0.4035994806
0.3915705197
0.3821580959
0.3724495142
0.3629701953
0.3565937719
0.3659029561
0.5176998917
1.404799229
2.770176301
3.747179853
3.157326894
1.961859283
1.206833665
0.8150574826
0.5645126811
0.3974071769
0.2943532937
0.2440375397
0.219252895
0.1891856488
0.2026960987
2.963965876
6.112886942
4.019319204
1.072547785
0.5029810532
0.4100289978
0.3869587397
0.373574269
0.3625376707
0.3527416917
0.345497363
0.3470273082
0.4232356839
0.913033497
1.893099778
2.554612107
2.077427957
1.334162426
0.9041190202
0.661542854
0.4852799196
0.3506212434
0.2622422081
0.2148478976
0.1881841181
0.1594823104
0.1671195663
1.375154874
7.75548543
2.031047788
0.7108534355
0.4706934404
0.4164513713
0.3916024098
0.3731766755
0.3585655798
0.346870694
0.3382452008
0.3346176053
0.3609101702
0.5392475707
1.004577501
1.248534801
1.046524959
0.7922465816
0.6305691542
0.5032194011
0.3883434075
0.2929087902
0.2264722562
0.1860554517
0.1590214353
0.1323812766
0.1364585621
0.6197597011
1.930245885
0.9077412064
0.5700286902
0.4887754047
0.4459520424
0.4110325303
0.3824121803
0.3607878979
0.3453296289
0.3350410959
0.3294042197
0.3354756401
0.3831169556
0.5398094811
0.6117077153
0.5715089838
0.5093522692
0.4487072147
0.3803845735
0.3084771435
0.2445866105
0.1956986411
0.1601231237
0.1324217665
0.1079969408
0.1097717498
0.5092320926
0.8162380406
0.6899223539
0.6184135818
0.5676945191
0.5099431541
0.4539769941
0.4071868454
0.3725512838
0.349412183
0.335612911
0.3287119694
0.3286255275
0.3384054903
0.3758854849
0.3957044278
0.3903238202
0.3733669395
0.3442623001
0.3027642851
0.2555626674
0.209992296
0.1697793089
0.1351559781
0.1063100481
0.08445456116
0.08465781249
0.5744451799
0.7397903547
0.7639827013
0.7359649625
0.6722080831
0.5880202408
0.503678931
0.4322338075
0.3793423955
0.3449748957
0.325820211
0.3173702983
0.3158537121
0.3177798249
0.324243154
0.3248726682
0.3192309185
0.3059436694
0.2831209496
0.2518682413
0.2155606781
0.1774310039
0.1400139261
0.1053693808
0.07685590356
0.05908662607
0.05921465515
0.7619100846
1.027389959
1.11110608
1.081644796
0.9675159073
0.8161437217
0.667222611
0.5442491191
0.4561479174
0.4015795174
0.3737046502
0.3639637753
0.3648308078
0.3694621552
0.3739762069
0.3715040069
0.3608242072
0.3401067088
0.3091268272
0.2695996595
0.2241458533
0.1758695321
0.1283469798
0.08516987622
0.05053948514
0.03439032266
0.03618642905
0.1444615447
0.1369837093
0.1335467315
0.143287766
0.1639599997
0.1806585152
0.1955898637
0.2366903323
0.3194586653
0.4372688038
0.5647566834
0.6100462833
0.5643030451
0.4721947545
0.3507736685
0.1908389988
0.175898813
0.1659195631
0.1616723143
0.1606777838
0.1596720773
0.1706344215
0.2027886132
0.2427221658
0.2781209981
0.3189063912
0.3443445088
0.3592024887
0.393103533
0.4158690031
0.3667637148
0.299703521
0.2242330315
0.1753013515
0.1785475542
0.2854002098
0.4866419053
0.6673827886
0.7902979678
0.8852578481
1.334142285
0.2336118738
0.2152863296
0.1989588891
0.1876116324
0.1832677486
0.185966502
0.1942054609
0.1949617681
0.2095247422
0.2612112031
0.356302761
0.4702656498
0.5562909106
0.5343358629
0.4446968096
0.4561363171
0.7277201911
0.2975615915
0.2129323213
0.1757045982
0.1589806813
0.1776532833
0.2543537546
0.4014594249
0.6135692668
0.8353057606
1.066887355
1.760937898
0.243186338
0.2277790417
0.2137757057
0.2060236557
0.2070218395
0.2146120185
0.2208483704
0.2307354943
0.2499237287
0.3457039556
0.5375205135
0.8021271531
1.007048363
0.9993182682
0.7819546939
0.5319754514
0.394705716
0.312061605
0.2736383833
0.2620242353
0.2402067032
0.2459445679
0.2951906748
0.3968871547
0.6227611703
0.9053425613
1.187557404
2.03509527
0.2485310155
0.2356157624
0.2297248477
0.2347123609
0.2466148323
0.2566533539
0.2677984928
0.297275431
0.4387564411
0.740574683
1.152707051
1.439945932
1.478169312
1.263096815
0.8911145107
0.5995194548
0.4952941437
0.49386261
0.5244717852
0.5082779868
0.468168663
0.4486421922
0.471588572
0.6314405226
0.8706278378
1.109137679
1.684602899
0.2863342353
0.2655927802
0.2575466593
0.2638068412
0.2782697194
0.2922844991
0.310128728
0.3425150932
0.5012179246
0.8444739264
1.285523769
1.557645094
1.601316247
1.476867278
1.168917242
0.8512191346
0.7609528769
0.8864853278
0.9620765068
0.9170401051
0.7883749926
0.6990103211
0.6140464502
0.6765086435
0.7991200148
0.9098378645
0.9633571648
0.3272671352
0.3089156476
0.2884866408
0.2926312606
0.3069640486
0.322955119
0.3410168385
0.3777981967
0.5181784547
0.8051434041
1.185952495
1.447057005
1.503572441
1.418280403
1.180452415
0.9660452731
1.077448842
1.714069351
1.968049562
1.408250891
1.1059769
0.8770747286
0.7099601405
0.6701651059
0.6874010108
0.6529707103
0.5874133655
0.3159932084
0.302161594
0.3047656621
0.3169680245
0.3335539939
0.3505733554
0.3732535183
0.4158753294
0.5238492696
0.7034248739
0.9531878383
1.17220186
1.252435734
1.207991452
1.057546461
1.043121819
1.880257291
4.610757803
7.252098299
3.61508118
1.740163332
1.1027708
0.7673086878
0.5777726499
0.5116646075
0.476371042
0.4980870241
0.3126536198
0.3187705111
0.3308096257
0.3452473277
0.3624361243
0.3820484869
0.4109352068
0.4600336812
0.546280708
0.6385524223
0.7427860354
0.8621895403
0.9315989297
0.9131491675
0.8266958208
0.8776462722
2.034898301
9.171315966
8.732273444
10.18901247
3.185067072
1.324756112
0.776391685
0.5242029246
0.4264238872
0.4023248022
0.501312758
0.3469205174
0.3535250515
0.3638928294
0.3768154877
0.3938541123
0.415935591
0.4498326443
0.5041490961
0.5769941164
0.6222002455
0.6429013114
0.6739943926
0.6985546719
0.6790229615
0.6221369219
0.6228511212
0.9492034648
3.275888078
7.203860307
3.899788167
1.673077752
0.958612901
0.6394949983
0.4569691683
0.3838154444
0.3757849969
0.5249983431
0.3833992195
0.3912721941
0.3946953482
0.403420298
0.4199604066
0.4440301855
0.4803914949
0.535909141
0.5990453427
0.6250474095
0.6121980911
0.5930952271
0.5768776649
0.5452723879
0.5002036644
0.4814092644
0.5642232098
1.046727789
2.137251332
1.365524299
0.8998857343
0.6655442236
0.4938638593
0.3911434403
0.3567182088
0.3665465588
0.5484164307
0.4017376845
0.4074901902
0.410214833
0.4179179493
0.4333422309
0.4572637454
0.4927718899
0.5432053397
0.5999325213
0.6261071283
0.6084698721
0.5693274041
0.5282480223
0.4848722999
0.4410673421
0.4117049898
0.4232268214
0.5301705616
0.7473755825
0.6562327921
0.562559157
0.4633034905
0.3801544957
0.3402815315
0.3375430452
0.3608313751
0.5623593617
0.4267128694
0.4239316427
0.4204467333
0.4226039359
0.4331634914
0.4532581487
0.4842918853
0.5271884899
0.577273723
0.6126189159
0.6077288945
0.5692034743
0.5186824106
0.4678387125
0.4214851825
0.3853631277
0.369235886
0.3857873522
0.4267017855
0.4200362786
0.3871204412
0.3391444449
0.3077108948
0.3053666688
0.3216425858
0.3524023864
0.5624203118
0.4537069883
0.4421322113
0.4295584437
0.4225383447
0.4250690225
0.4388832656
0.4641042243
0.4997633225
0.5424169891
0.5804331722
0.591552501
0.5675290877
0.5218450705
0.4703445854
0.4220138711
0.3812432245
0.3519502877
0.3375636104
0.3335794862
0.3234433466
0.303218826
0.2806506922
0.2676673934
0.2796054925
0.3045371832
0.3382802506
0.5470433556
0.4748473163
0.4568788625
0.4372788296
0.4216905842
0.4154187746
0.4216633572
0.4402795989
0.4689122284
0.5039241222
0.5384232422
0.558162612
0.5505434894
0.5182941824
0.4736191223
0.427160958
0.384722309
0.3492965112
0.3223153766
0.3019399577
0.2840934217
0.2657196854
0.2505097437
0.2458319493
0.2598827563
0.2855892113
0.3184241968
0.5182281297
0.4944383819
0.4701790377
0.4455071534
0.4229350892
0.4082939996
0.4065301751
0.4179407021
0.4392967761
0.4663941404
0.4942552543
0.5146408795
0.5174350142
0.4991919518
0.4656819327
0.4255649269
0.3853061352
0.3485417474
0.316929635
0.2904132019
0.2688246926
0.2508203887
0.2387664727
0.2355360397
0.2459717762
0.2667136441
0.2948835602
0.4801308442
0.5179288142
0.4826764261
0.4519668788
0.4235426921
0.4021348668
0.3933889519
0.3980150206
0.4123852642
0.4318772429
0.4522720429
0.468686798
0.4748419313
0.4661974215
0.4435951769
0.4121277993
0.3771788859
0.3426350801
0.3107414892
0.2833845562
0.261216916
0.2448762543
0.2357509761
0.2342632537
0.2406437144
0.2531097878
0.2722836903
0.4391313762
0.5420523507
0.4911106808
0.4538933541
0.4212246922
0.3953933762
0.3815979656
0.380648259
0.3888931199
0.4016278003
0.415029292
0.4259014671
0.4308174341
0.4266577837
0.4122142234
0.3891045834
0.3606936454
0.3306548685
0.3015568148
0.2755218185
0.2547389919
0.2416599217
0.237478358
0.2402165167
0.2456290115
0.2500346774
0.2565099069
0.4025096435
0.5623505507
0.493871953
0.4506729765
0.4153617634
0.3873273839
0.3705644479
0.3655994033
0.3689503391
0.3761511954
0.3837409975
0.3894084824
0.3914573946
0.3888695032
0.379513148
0.3639489291
0.3434067592
0.3197650956
0.2946737191
0.270340691
0.25079711
0.2408348094
0.24218259
0.2508446743
0.2586411086
0.2580045842
0.2511521106
0.3756396676
0.5703573804
0.4889158944
0.4421821019
0.4060598044
0.3778206872
0.35998685
0.3525639304
0.3523469516
0.3553724569
0.3586514504
0.3604986857
0.3604407735
0.3598519169
0.359132424
0.3587836231
0.3522198288
0.3378773549
0.31657652
0.2895458141
0.2636094641
0.249073676
0.2507397529
0.263130809
0.2740391013
0.2715048065
0.2542341656
0.3591436143
0.5579841728
0.475804835
0.4295675595
0.3944357498
0.3675799895
0.3501099985
0.3414646914
0.3388126483
0.3388905885
0.3393569673
0.3393444107
0.3406395037
0.3524492051
0.392153821
0.4628392247
0.4977266179
0.4800724279
0.4398087059
0.3870957247
0.3290488453
0.2848284834
0.2687262886
0.2751578641
0.2856252809
0.2822071116
0.258668646
0.3474405679
0.5290031524
0.4644298065
0.4186418181
0.3833376474
0.358264229
0.34180224
0.3326008472
0.3282298377
0.3262299132
0.3251005485
0.3256773669
0.3378363056
0.4051655654
0.6364639297
1.00109787
1.136932838
0.9884340114
0.7791938695
0.6103682885
0.4722489602
0.3636019048
0.3026531329
0.2866005704
0.2890674212
0.2831948469
0.2563721979
0.3311307371
0.501013759
0.4938367102
0.4299577816
0.3806717745
0.3529876268
0.3365879767
0.3267058232
0.3207760867
0.3170558732
0.3150097469
0.3188037828
0.3593083243
0.582800869
1.291682758
2.016937475
2.207680962
1.827674053
1.293525281
0.9003518208
0.6398283492
0.4541105433
0.3401908173
0.2931971605
0.2817034261
0.2711867624
0.2426612437
0.3034497432
0.5868082035
1.144696742
0.6878903036
0.4432122788
0.3654016275
0.3382156967
0.3251820459
0.3170122668
0.3113259282
0.3079467272
0.3151944364
0.3827145948
0.771527688
1.884296404
2.764849131
2.951825296
2.455790141
1.673822793
1.088745901
0.730773076
0.4987692699
0.3554632901
0.2874395947
0.2633863854
0.2477144655
0.2185286727
0.2654227747
1.5209882
4.66990906
2.547567106
0.8778452359
0.4506185095
0.3563843452
0.330390225
0.3178492939
0.3096452708
0.3050743657
0.3103666011
0.3674086827
0.7122587358
1.800379976
2.754670151
2.955165283
2.416525329
1.607057752
1.030455358