/*--------------------------------*- C++ -*----------------------------------*\
  =========                 |
  \\      /  F ield         | OpenFOAM: The Open Source CFD Toolbox
   \\    /   O peration     | Website:  https://openfoam.org
    \\  /    A nd           | Version:  8
     \\/     M anipulation  |
\*---------------------------------------------------------------------------*/
FoamFile
{
    version     2.0;
    format      ascii;
    class       volScalarField;
    location    "1.5";
    object      htcConv;
}
// * * * * * * * * * * * * * * * * * * * * * * * * * * * * * * * * * * * * * //

dimensions      [1 0 -1 1 0 0 0];

internalField   uniform 0;

boundaryField
{
    walls
    {
        type            calculated;
        value           uniform 0;
    }
    region0_to_wallFilmRegion_wallFilmFace
    {
        type            convectiveHeatTransfer;
        L               1;
        value           nonuniform List<scalar> 
822
(
2.732997358
2.757926096
2.813044266
2.887868106
2.92998247
2.976841382
2.855232574
2.460691421
2.550563569
2.387079821
2.298120528
2.237444074
2.113729285
1.982106834
1.979715654
2.254627879
2.539317679
2.827524893
3.140256098
3.433176077
3.676107728
3.8200912
3.843703581
3.706995396
3.546084078
3.617891608
4.361399965
3.625222999
2.911831309
2.200700766
1.676306372
2.744805359
2.853459764
2.937446774
2.982673145
3.00782534
2.950909795
2.750594723
2.68813411
2.466132352
2.246754681
2.189380558
2.066754387
1.938081079
1.916585074
2.206604063
2.518970859
2.805090948
3.080550232
3.324992668
3.507983277
3.607425744
3.441695385
3.435646814
2.269211412
4.941280054
8.576144853
5.306399857
3.937522321
2.717407547
1.821622678
2.751348725
2.855545239
2.924030717
2.949243416
2.942076436
2.890933192
2.796744998
2.742042585
2.56989758
2.357702863
2.243281914
2.092030662
1.964203267
1.926849487
2.154600075
2.455728693
2.732078767
2.982210715
3.197008324
3.356338239
3.454293733
3.428548553
3.502314757
2.971429985
3.81516713
4.724800446
3.914723542
3.09607042
2.414500037
2.015316689
2.747415397
2.832928984
2.886360324
2.892314676
2.861952832
2.819424518
2.770695649
2.730093992
2.610368759
2.433697151
2.306615408
2.166109444
2.069951911
2.052801846
2.207227386
2.451983322
2.691809259
2.90766241
3.090043018
3.227584293
3.307165341
3.295340615
3.294835309
3.011922361
3.375218973
3.60786932
3.296534584
2.887077315
2.427507602
2.189963978
2.748101751
2.805309007
2.822862387
2.808801447
2.748662808
2.704167601
2.683411595
2.668675395
2.596624234
2.471050931
2.3655173
2.258095828
2.201576277
2.21712442
2.338038641
2.529427366
2.724542826
2.902004774
3.050951438
3.163854389
3.234223385
3.255015198
3.262954751
3.148298319
3.287064938
3.342901454
3.136977678
2.857164629
2.526451806
2.394260359
2.619719104
2.705892479
2.70150916
2.745069533
2.702649399
2.606054624
2.580860292
2.586380537
2.590908771
2.55102235
2.472467759
2.402271883
2.337605711
2.320260207
2.367848326
2.479903083
2.637575076
2.797428924
2.943036156
3.065119268
3.15845433
3.219934574
3.248217031
3.253020398
3.205046595
3.229592949
3.199969738
3.045863408
2.850783235
2.597461574
2.529523847
2.692729528
2.910589988
2.708625699
2.606134149
2.675350505
2.514243001
2.464663943
2.493037589
2.489429452
2.466838468
2.421314582
2.384646601
2.371618133
2.401414816
2.48552708
2.603770343
2.744342991
2.880531417
3.002089889
3.103066754
3.180368488
3.232506364
3.259328556
3.263503856
3.240064693
3.22447173
3.164180408
3.029853589
2.867273498
2.649582141
2.614588146
2.599876931
2.712076381
2.760809028
2.714062231
2.662502539
2.533466985
2.458913561
2.427222792
2.366960061
2.30312554
2.263872156
2.268447378
2.32001465
2.418562175
2.554816688
2.695750286
2.834157983
2.957673009
3.062482376
3.146655245
3.209436545
3.25070549
3.270958271
3.271168896
3.251858393
3.219128325
3.147433048
3.021294022
2.872868748
2.67387492
2.652847079
2.297878889
2.434222184
2.49784559
2.534029911
2.528814224
2.425396414
2.291875182
2.196410287
2.083555668
1.984661595
1.932442122
1.968350873
2.151871329
2.3596746
2.567676103
2.746872817
2.896635886
3.017682242
3.112572938
3.183548675
3.232460976
3.260816038
3.270378333
3.262008177
3.240287319
3.199562844
3.123856561
3.001782364
2.859612702
2.67084532
2.650927498
2.080883405
2.283783102
2.414759536
2.519535767
2.547108412
2.465269875
2.272334992
2.026341712
1.818729607
1.548945255
1.299957675
1.286786109
1.803915473
2.222901327
2.529194206
2.758316087
2.929472814
3.055577797
3.145658599
3.20592868
3.240743745
3.25305093
3.247649305
3.224163783
3.198063573
3.156637089
3.082369914
2.964487733
2.826450444
2.644684034
2.619909506
2.160781698
2.323065109
2.467813033
2.542402382
2.539663288
2.458872104
2.270542426
1.957875123
1.637891717
1.170746743
0.9010819001
1.093728553
1.559091045
2.077034847
2.464777368
2.743585118
2.939427682
3.073739987
3.161089704
3.210852309
3.22939333
3.220135046
3.194884898
3.144581564
3.124071827
3.095841156
3.029189392
2.915398377
2.779596502
2.603024
2.572015149
2.307413321
2.434732969
2.525199583
2.55710525
2.511998935
2.418202217
2.247329451
1.940442717
1.520667971
1.098268139
1.280288093
1.607326304
1.868764351
2.162672835
2.47568187
2.743242784
2.944192898
3.08154107
3.164070526
3.200658027
3.197933684
3.152837852
3.091941702
2.975073102
2.980011829
2.994192771
2.95225243
2.850284575
2.720844501
2.551348475
2.516293501
2.415964228
2.59886602
2.654122601
2.626307287
2.53389946
2.432080624
2.29071211
2.159451207
2.034385375
1.850576537
1.760706288
1.952122186
2.175683617
2.381437029
2.593292343
2.798977996
2.96929279
3.089341419
3.156752129
3.173122382
3.137449224
3.039229755
2.924493334
2.705767228
2.851096488
2.946409041
2.916089049
2.808091708
2.673542981
2.503307614
2.461432915
2.256557567
2.523485589
2.677703232
2.688735047
2.59957475
2.460274054
2.299698619
2.242463916
2.223947551
2.164231621
2.098964991
2.205103572
2.387164013
2.565770071
2.733322148
2.889004677
3.021266102
3.110749817
3.149923291
3.137370294
3.054942549
2.907135295
2.709278376
2.21974118
2.657264664
2.874732125
2.921927462
2.815347618
2.655794846
2.46891946
2.414651121
1.919799869
2.337084205
2.57042804
2.698379944
2.674351266
2.496543865
2.309120403
2.265729596
2.298452388
2.334205473
2.293030334
2.377600701
2.537067887
2.700095579
2.847551648
2.975032994
3.077638576
3.139162649
3.145007067
3.095932077
2.947228684
2.661416456
2.416328339
3.131721375
3.309389913
3.305827899
3.146296101
2.893566571
2.664067733
2.449568774
2.381805425
1.078215678
2.149479286
2.424284355
2.673902441
2.731841955
2.499120696
2.296949896
2.18574355
2.041756969
2.323611262
2.364403857
2.48691649
2.645882301
2.798583429
2.931820466
3.040756673
3.121994414
3.162217385
3.138060362
3.06887023
2.867230573
2.566199693
2.587903428
3.873609587
4.020792262
4.09385578
3.89071035
3.441368625
2.967863651
2.569168364
2.406052837
1.772775565
2.365420151
2.614437988
2.691310986
2.389986998
2.288333506
1.736151584
1.97358558
2.600585128
2.519981303
2.611996994
2.738338264
2.872431315
2.990452808
3.083087319
3.147269965
3.171270858
3.130335925
3.072287192
2.877455801
2.814210064
2.607717825
3.894324414
4.082384348
4.151115062
3.962735327
3.539802679
3.073947793
2.649883657
2.453785236
1.762746089
2.441489234
2.709967647
2.757913978
2.394020373
1.639819267
1.174457876
3.211449904
2.492238404
2.444895316
2.630762299
2.792797784
2.921197119
3.025173182
3.100969828
3.148761629
3.156498009
3.10613111
3.055390175
2.868457753
2.911582159
2.632788707
3.746309309
4.038881356
4.053515027
3.846161315
3.478194051
3.070250899
2.677376748
2.488782933
1.901244024
2.448787378
2.681627172
2.721703028
2.451865445
1.480973242
3.134933283
4.161314922
3.804412378
3.12429977
2.982285563
2.934009127
2.974923961
3.044246744
3.09503515
3.119507477
3.110089991
3.054134386
3.0026647
2.838512006
2.893593649
2.77856583
3.583700225
3.881492545
3.87435678
3.680889339
3.375449473
3.023951337
2.670558319
2.504528325
1.992246123
2.323441349
2.415216318
2.634584453
2.592542064
2.182402415
3.472779527
4.265860691
4.287259595
3.318264605
3.132244259
3.000881919
2.987968402
3.033141422
3.051484378
3.052792473
3.027951892
2.969559534
2.914394364
2.79189567
2.836892844
2.867864402
3.435170458
3.682473333
3.672758409
3.509073784
3.24558077
2.936020095
2.62232309
2.489369497
2.055698748
2.295613389
2.246685997
2.417261197
2.325624972
2.47587453
2.719289614
4.292707591
3.66640446
3.279734447
3.144938713
2.979681052
2.854780805
2.971164749
2.962898203
2.948944751
2.914112916
2.855753658
2.796155261
2.714579847
2.744815345
2.868030683
3.294049748
3.482244964
3.463198776
3.315675422
3.076532495
2.801231717
2.528024311
2.43282946
2.231622119
2.48098514
2.396899466
2.423913778
1.984824396
2.327689285
2.569585364
3.579805798
3.327693577
3.177632902
3.058154881
2.913344192
2.818585803
2.899567789
2.853697167
2.82572397
2.787437921
2.732879506
2.673077198
2.615980593
2.624663482
2.764280716
3.096001735
3.243041837
3.219523736
3.080955415
2.863061549
2.621982307
2.387796822
2.325776642
2.318225746
2.565646274
2.446751881
2.33113352
2.006251025
1.96979086
2.445371289
3.142715312
3.066457103
2.984670289
2.898338443
2.81687019
2.794683025
2.754202016
2.72291129
2.701066637
2.669112717
2.624768324
2.574928236
2.532202348
2.519916688
2.618597077
2.849923266
2.962127935
2.93565085
2.808940961
2.616561465
2.40918186
2.203646639
2.157677507
2.320613572
2.559115313
2.460641753
2.25103274
2.137465569
1.644616346
2.217383847
2.75077245
2.772974873
2.75689834
2.727274715
2.696185836
2.681721866
2.66660623
2.645487187
2.618652687
2.583149048
2.543935689
2.507485919
2.479156413
2.460469252
2.499329816
2.618851715
2.682446937
2.647373386
2.533125324
2.36389127
2.177095788
1.975224958
1.908773673
2.294123753
2.486646158
2.363700656
2.142168556
2.247067273
2.139760319
2.077722711
2.442292317
2.548477349
2.600425274
2.636114856
2.663810785
2.684571315
2.689016933
2.671979845
2.63385196
2.580622254
2.527316355
2.487241498
2.462550424
2.444153239
2.443534607
2.473409148
2.478164433
2.422549479
2.309407559
2.147938439
1.963019551
1.735888604
1.577596051
2.501394812
2.505366908
2.359286392
2.163903763
2.140467631
2.4531468
2.339820708
2.439444113
2.499134754
2.551261183
2.612163016
2.672068257
2.720699897
2.748039576
2.74744324
2.716071752
2.657002558
2.584271824
2.517893112
2.469378781
2.433493436
2.404547644
2.380840487
2.339595594
2.25918769
2.136642274
1.974226242
1.789753103
1.530403929
1.188057808
2.742991982
2.61424019
2.445631974
2.416820389
2.518511199
2.77328751
2.801649691
2.762711357
2.710268574
2.670936646
2.674982289
2.715452997
2.765476077
2.804180605
2.820049644
2.80660579
2.760457315
2.685500571
2.597445201
2.517635477
2.456348276
2.408950155
2.363489205
2.300931754
2.20729888
2.086431552
1.946455541
1.811643138
1.574526211
1.327085813
)
;
    }
    region0_to_wallFilmRegion_mirrorFace
    {
        type            convectiveHeatTransfer;
        L               1;
        value           nonuniform List<scalar> 
558
(
3.755697769
3.424854682
2.995631851
3.656353579
3.740121174
3.889561675
4.004528294
3.998282844
3.997053349
4.048917172
3.926303079
3.853950417
3.829416332
3.978474794
3.939896014
3.982881071
4.37918314
4.325853654
4.254799691
4.158141753
4.029187358
4.125249898
4.098186521
3.947758211
4.4972761
4.407783677
4.298369406
3.894891179
4.016224412
3.884016043
4.005075379
4.186832645
4.082963947
4.045720124
4.175401023
4.516149693
3.89446054
3.919420101
3.998954186
4.35302655
3.631547154
3.21518391
3.609582591
3.520679397
3.296310426
3.490938546
3.603822407
2.242944023
2.343955565
2.349240351
1.862315698
2.243823643
2.082033582
2.271188821
2.214144873
2.246777753
2.319301956
2.273694295
2.292252005
2.224819286
2.288793351
2.260431749
2.086459076
2.230886578
2.232806741
2.152510625
2.154736068
2.29446565
1.932602103
2.081855063
1.922794572
1.930505265
2.139102372
1.953182401
1.985671711
2.195002528
2.022217437
2.059004281
2.214794954
2.09357983
2.128715994
2.246686033
2.171347504
2.22987397
2.359449961
2.309785451
2.349606061
1.76318095
1.648773529
1.562387884
1.730160854
1.502974745
1.483130835
1.789970125
1.510005341
1.574405986
1.902892508
1.664872973
1.768990547
2.038425926
1.877519192
1.984336421
2.202018355
2.080610269
2.180136231
2.464424029
2.230652973
2.549693487
2.781569517
2.430509315
4.710230516
1.631003537
1.719243827
1.567133027
1.354242795
1.398771759
1.219752585
1.210822117
1.069797455
1.043296835
1.405304551
1.182836507
1.385059617
1.721613107
1.585876826
1.766051764
1.995389522
1.916341227
2.029972634
2.14108529
2.092769626
2.09558667
2.289759524
1.980909352
1.904143009
3.64488696
1.566667475
2.718767884
1.599830144
1.835048357
1.720115522
1.293340203
1.603083691
1.501799885
1.209318829
1.449796372
1.472285285
1.523819696
1.565901021
1.704158883
1.869660219
1.85099363
1.985295808
2.09971421
2.094234338
2.168776243
2.137586413
2.20209542
2.179981058
1.846782508
2.103221905
1.888458084
1.888535822
2.109541083
2.042329543
1.734828381
1.976097681
1.923459043
1.716859277
1.898284786
1.900646985
1.874358653
1.933658349
1.996820852
2.082897425
2.072265952
2.14143443
2.202220511
2.190792727
2.200505673
2.149459147
2.186882438
2.094575779
1.886182817
1.926169209
1.850953475
2.206279119
2.191486711
2.135874248
2.118614062
2.083993
2.040385962
2.096384491
2.02495648
2.006879239
2.12473912
1.987746808
2.011766633
2.213986965
2.054391695
2.074542705
2.151217543
2.074087217
1.941745749
3.805498725
3.924875364
3.906576776
2.13059279
2.473544937
1.692656503
3.306545476
2.236859594
2.296012328
2.314325136
2.118464067
2.007751412
3.828617254
3.127511452
2.066417156
2.107338961
2.169448457
2.209582405
2.222321704
2.265359377
2.515546923
1.814054006
1.734278757
1.750738226
1.842381673
1.96827085
2.112990907
2.280464744
2.76256336
1.765253206
1.491009148
1.246948151
1.274646247
1.562654322
1.868564825
2.086468316
2.093552583
1.974349044
1.742638456
1.445423133
1.193609602
1.340931911
1.706515596
2.003255379
2.148644246
2.067078008
1.458566502
1.975083769
1.803360008
1.702682331
1.777629544
1.982653692
2.160039051
2.207681982
2.117181832
2.017468376
2.258133549
2.157238512
2.10942928
2.091803998
2.17357436
2.218807892
2.017415992
2.069123625
2.379593119
2.315563783
2.401203809
2.124091092
2.236482104
2.273402311
3.927699071
3.120207701
3.90254877
3.915862578
4.040402435
4.018371211
3.971752557
3.890632541
4.140218127
4.065985943
4.012917
4.130029135
4.448302026
4.327269035
4.198097428
4.221843295
4.016911978
4.307784716
4.354899545
4.48421455
4.208976483
4.021325956
4.017963032
4.153416572
4.982819752
3.777845876
3.581243073
3.866085375
4.727068951
3.236773016
2.926304827
3.741529555
3.957850305
3.493809818
3.516106869
4.107832885
2.127883476
1.907983927
1.933472498
2.118145685
2.967754141
2.352482752
3.851378324
3.667518303
2.935760569
2.696941342
3.58613058
3.225646623
3.830466596
3.645375732
2.753727111
1.801490072
3.71657663
3.643814994
3.207485928
3.804093282
3.878498478
3.718816882
3.81664045
3.009361713
3.896572749
1.822926234
2.047750767
3.718184197
2.106937852
3.777047155
3.029802462
3.309067778
3.805577107
3.816532419
3.920315802
2.333603218
2.128063766
2.062984401
2.286317066
2.020883503
2.039561494
3.993867495
4.181476679
2.389289826
2.006785646
2.26764473
4.008145302
4.180076251
4.169340884
2.103728604
2.817933203
2.443787801
3.990549061
4.14752478
4.124269878
2.323746263
2.554294228
2.962332253
4.022812369
4.109371933
4.104840698
3.732970071
2.06325408
3.512694668
3.747262581
4.094355315
3.754182763
3.961180794
3.883733949
3.969697715
3.865821066
3.98486944
3.818638771
3.992280715
4.005592552
3.891991333
4.033497374
4.054593403
4.004957373
3.88076884
4.08266111
4.059950707
3.823986186
3.968314604
3.996191744
3.940445974
3.83138368
3.97223474
3.982884859
4.358690292
4.491940167
4.462069268
4.289717272
4.419332593
4.372422045
4.207142072
4.321580508
4.2426716
3.954123021
3.952240539
4.094303242
4.037211434
4.082218153
3.876376936
3.954669082
3.99642737
3.986249573
3.948094449
3.892109669
4.087335789
4.095962158
4.055374385
4.100216887
3.947753557
4.136922195
4.088928495
3.940890025
4.045191388
4.062920841
3.920146799
3.966175655
3.890557923
3.904945108
3.976458944
4.047802485
3.989976769
3.962574791
4.330601905
4.457504686
4.385770151
4.279555856
4.353678484
4.226801488
4.042492209
4.183432436
4.210046264
4.141118569
4.145823684
4.100883879
4.048152416
3.913761206
3.967464833
4.012032862
3.955989996
4.085428832
4.058450458
4.092314127
4.127605384
4.086764313
4.165148688
4.127951877
4.00453271
4.122539527
4.148441374
4.139893334
4.026135207
3.949718667
4.330113414
4.261156674
4.109974884
4.067756061
4.085744218
4.027006646
3.957098055
3.990514245
4.004075512
4.063440557
3.982925602
3.942006085
4.043537264
4.382273707
4.272774587
4.1409741
4.144666968
4.03438528
3.959613898
4.029760183
4.067268928
4.163485016
4.115904641
4.193560247
4.281780208
4.415956802
4.290133433
4.472519859
4.531883046
4.519347976
4.459809359
4.502656886
3.901175696
4.054594018
3.920322607
4.034823895
3.931780009
3.957572708
3.996087753
4.008524068
4.057302598
4.165825058
4.272276853
4.325740181
4.148468322
4.422500833
4.367787175
4.293621987
4.158656104
4.013979661
3.995302891
4.026575099
4.233021804
6.168160994
4.909465691
3.575531086
3.981644198
3.437566646
3.70608389
3.328768993
3.515114689
3.959028853
3.782754653
3.986217367
4.095657461
3.875804032
4.177134089
3.633457233
2.850642445
3.216414352
2.98863207
3.319545627
3.094763828
3.455933805
4.050054608
3.888518424
4.172057492
4.308267301
4.301657332
3.690010936
3.85451052
3.766452914
3.417189837
3.720201733
3.738146007
3.94589044
3.801078729
3.840299891
4.029484596
4.234454279
4.138687074
)
;
    }
    procBoundary1to0
    {
        type            processor;
        value           uniform 0;
    }
    procBoundary1to2
    {
        type            processor;
        value           uniform 0;
    }
    procBoundary1to3
    {
        type            processor;
        value           uniform 0;
    }
}


// ************************************************************************* //
