/*--------------------------------*- C++ -*----------------------------------*\
  =========                 |
  \\      /  F ield         | OpenFOAM: The Open Source CFD Toolbox
   \\    /   O peration     | Website:  https://openfoam.org
    \\  /    A nd           | Version:  8
     \\/     M anipulation  |
\*---------------------------------------------------------------------------*/
FoamFile
{
    version     2.0;
    format      ascii;
    class       volScalarField;
    location    "0.5/wallFilmRegion";
    object      alpha;
}
// * * * * * * * * * * * * * * * * * * * * * * * * * * * * * * * * * * * * * //

dimensions      [0 0 0 0 0 0 0];

internalField   nonuniform List<scalar> 
1342
(
0.02973157394
0.007502334557
0.05721210524
0.02017434825
0.003276009851
0.05498659745
0.06392813465
0.03068252492
0.007335209858
0.001626210082
0.001757636176
0.0006242049315
0.0002165666327
8.683358445e-05
6.658275778e-05
0.0001057163723
0.01888787385
0.04271442849
0.05373065747
0.04889322751
0.03905453297
0.02880088409
0.03201891726
0.04628502464
0.05418873512
0.9395021008
0.005926645213
0.00641874985
0.005120941361
0.06997733279
0.0112320339
0.00145966323
0.07473550773
0.06085113979
0.03736609399
0.01316185805
0.003529889316
0.001269509395
0.0003474101494
0.000101985212
3.910805154e-05
3.227939166e-05
4.88851586e-05
0.01987729648
0.04039314673
0.04524801311
0.03388248688
0.01824457533
0.01283992489
0.01885404129
0.03414604675
0.05012669149
1.556352155
0.01087268762
0.01491052932
0.02677138405
0.05172477464
0.08827235304
0.004987748945
0.002123870165
0.113998012
0.04851386031
0.02346007228
0.01303965788
0.005083928099
0.001654257699
0.0004366286153
0.0001135415106
3.880324115e-05
2.807152638e-05
3.670356028e-05
0.01564109302
0.02692515914
0.02540649336
0.01569783905
0.006264324325
0.005639594338
0.01096284654
0.02187598754
0.03474480832
1.248454427
0.02419305391
0.0335862141
0.04072228673
0.04491572487
0.0313720443
0.005424588903
0.004306426676
0.1682635602
0.001214840631
0.001410608769
0.003310420944
0.001384115924
0.000373052695
5.844262644e-05
2.358723288e-05
1.883559554e-05
2.076991724e-05
2.450267057e-05
0.00349294226
0.009271686341
0.008832149469
0.005450432024
0.002325037687
0.003403426066
0.007568253391
0.01518522308
0.02436677859
1.008276248
0.0237215426
0.1296633315
0.3692457297
0.1361732066
0.0613088859
0.04247000816
0.02707562566
0.0895201576
0.1613291251
0.153982404
0.1341162638
0.1140031954
0.09306142736
0.06846790661
0.04051319157
0.01685786431
0.005075998709
0.001360312641
0.000710465297
0.002556267965
0.002743365755
0.00191407456
0.001307959523
0.002711438793
0.006002125116
0.01161213943
0.01824718097
0.8614666035
1.123606321e-05
0.000431547402
0.003816312258
0.1385196592
0.2475379686
0.1518015465
0.0987263899
0.03864495891
0.1058356982
0.407644188
0.2481823955
0.1650214227
0.1231720953
0.08460825579
0.04668810358
0.02116795279
0.007759173018
0.002396760041
0.0006991126511
0.0002700061835
0.00109330181
0.001354324612
0.001108246074
0.001533554398
0.002655510167
0.004970264775
0.008943725565
0.0135097911
0.8344600485
0.01004264835
0.01461034497
0.00420773127
0.04902307032
0.05926264479
0.05816694163
0.01632387015
0.1964050178
0.2503150824
0.9454494011
0.542480021
0.236191708
0.1107045906
0.04395392497
0.0165117297
0.006837160584
0.00257254567
0.0008472036028
0.0002772918826
0.0001524457446
0.20680494
0.1511434449
0.03819655831
0.01051783835
0.004539813823
0.004023158288
0.005760139155
0.007982698926
0.8059163495
0.03498473812
0.06933241853
0.05988366361
0.01043118169
0.01168718633
0.02626267249
0.01484195054
0.01885430523
0.4607371861
0.5893708359
0.3750137804
0.1566761125
0.05159243799
0.0125136223
0.004792368277
0.002098795407
0.0007953950813
0.0002810722568
0.0001225800991
0.0001348679655
0.08182250449
0.1515786149
0.01820215151
0.003531063395
0.003276481978
0.005325067545
0.008371658344
0.01104291115
0.9412234453
0.06694695078
0.02359937291
0.001568403674
0.000464314392
0.02191536623
0.0942148585
0.1675732378
0.271344422
0.490727582
0.3670181968
0.3443595535
0.3051448582
0.2393985663
0.1624099337
0.08735246698
0.0272622928
0.004056081227
0.0004533574587
0.01925017023
0.00144026989
0.03252040708
0.177962714
0.007214976958
0.002749467119
0.005726181955
0.009511625017
0.01457368499
0.01867026645
1.130261628
0.01758690709
0.001227942365
1.285943868e-07
5.672499021e-08
0.003670431478
0.004789251511
0.003486536595
0.002656298382
0.01148707688
0.3442549252
0.2852361012
0.1913420801
0.1173967855
0.0642465127
0.027115387
0.007140229049
0.001119941486
0.0001878857888
0.1421669428
0.01715444955
0.01825884969
0.05118608358
0.09615200065
0.07042080616
0.03564093122
0.02213040261
0.02251249484
0.02508162183
1.28624692
0.001810538817
4.535410623e-07
1.43504654e-12
1.046515094e-07
0.003830237863
0.002331764572
0.001352740279
0.000902107233
0.004424924841
0.2876938087
0.211888651
0.1051348895
0.04080471118
0.01457311909
0.005208517334
0.001667628931
0.0007847024493
0.002966336206
0.2991637788
0.04591120823
0.04506938152
0.08324996727
0.1044780276
0.1089351795
0.1061020707
0.09983871986
0.09178460909
0.08060795642
1.488071619
0.04161818154
0.005528526745
2.532542361e-05
0.0004842939468
0.004449397127
0.0007898088258
0.0004963662967
0.000326741082
0.00163855713
0.2238459947
0.1347840701
0.04704119781
0.01259610605
0.004205755311
0.002627501647
0.003835911598
0.01105102158
0.03938492232
0.4557406795
0.3104944222
0.2202363349
0.1902323726
0.1797868003
0.1695426205
0.1551767968
0.1383854193
0.1204212532
0.1006353373
1.722625839
0.4497693157
0.05867228016
0.004184416275
0.01904094049
0.01129863899
0.003449192835
0.00143811416
0.0006183944274
0.003125285722
0.163286085
0.08211123182
0.03031225831
0.01756733586
0.01312272907
0.01280151507
0.04141958695
0.1453682795
0.2640106587
1.087701771
0.7189061225
0.4814230963
0.3211714114
0.2431160547
0.2116115732
0.1837724688
0.1509849034
0.1229338528
0.1018079225
2.131532808
0.2641675008
0.06270179701
0.00422730123
0.01059022774
0.02674421297
0.01113699613
0.004872044342
0.001989410828
0.008387866094
0.110517459
0.06022872596
0.03839242883
0.03267785834
0.02884180583
0.02680796014
0.03613419786
0.08081116096
0.1432689921
0.6884355207
0.3745906991
0.2248931624
0.2137547309
0.233534648
0.2339268496
0.2029823071
0.1601656137
0.1341755812
0.1220129655
2.479112193
0.04029990574
0.02617490017
0.001320361853
0.0009304084875
0.01010089819
0.02049567543
0.008208570263
0.003487820465
0.01372709857
0.07001371438
0.05719104652
0.05178996201
0.04673405383
0.0421627423
0.04056569588
0.05752329918
0.09987900337
0.1036483907
0.4325316075
0.1912363994
0.1273231584
0.1771302909
0.2207725986
0.2276563116
0.2052264376
0.1768225989
0.1706503718
0.1660780692
2.362757557
0.02222023876
0.00900080523
0.0005132996413
0.0001588137112
0.002541461795
0.02225292976
0.009552430875
0.004724290816
0.01783582054
0.05041109296
0.05969684716
0.07324687027
0.08459203853
0.08372224851
0.0790554899
0.08472776033
0.0791656583
0.05761808869
0.20121648
0.06830874814
0.09030767727
0.1556983944
0.1853808662
0.1769275785
0.1682134776
0.176428133
0.1953853187
0.1842554033
1.790906425
0.008888704017
0.003700679046
0.0002344946666
5.125029171e-05
0.0008850312744
0.0138988215
0.008458226059
0.005800046713
0.02005636058
0.04514810638
0.06020631742
0.1306133133
0.2835988138
0.3634337868
0.3298323471
0.223960948
0.1096497889
0.04753360332
0.04706056086
0.02508096381
0.07630826068
0.1269365922
0.1315189997
0.1088105434
0.1043058139
0.1277975813
0.1548478854
0.1376592583
1.12822618
0.003981691005
0.00180773953
0.0001225106005
1.838160043e-05
0.0002825962556
0.006627206936
0.006209939495
0.005513761593
0.01968054485
0.04132408839
0.05609088306
0.1023904064
0.1253242401
0.1191548826
0.09947368205
0.06468849866
0.03391720984
0.01826952549
0.01331881107
0.01235426027
0.04498214156
0.07314499633
0.06841436378
0.05307865125
0.05406181013
0.06990971573
0.08591786412
0.07333859892
0.6846979639
0.002748510048
0.001535008084
0.0006463581995
0.0003633145442
0.0003637875113
0.003220188036
0.00469466433
0.004970574678
0.0234692569
0.04832852483
0.05959255269
0.06671175094
0.03796055745
0.0198274338
0.01364473811
0.01020174115
0.00703555156
0.004884947564
0.004002070118
0.004118646165
0.01042856842
0.02299779102
0.02463376495
0.02331600979
0.02746820142
0.0355690087
0.0421742559
0.03571506489
0.4861121422
0.1389251035
0.01796512663
0.003972150417
0.001483661226
0.001142828931
0.002955474843
0.006105473504
0.01172952309
0.4274419553
0.1794847707
0.06849346829
0.05499893605
0.03048127222
0.0201994336
0.0239336059
0.03163199645
0.03212854827
0.02459951
0.01592004195
0.01102476047
0.0103904395
0.01317380983
0.01562307564
0.01827443854
0.02221347789
0.02637010982
0.02877857046
0.0246564123
0.435118063
0.09773402484
0.01576149132
0.004342377164
0.003714327487
0.007624210015
0.01620673817
0.02515126909
0.04134145869
0.7518475068
0.3790703619
0.1159249528
0.03371137401
0.02484951036
0.0308049758
0.0552681504
0.08202721819
0.0823856467
0.0600989663
0.03769724548
0.02484686567
0.01987810445
0.0193710276
0.02094876393
0.02376331607
0.02721925432
0.03004120215
0.03090903429
0.02658678325
0.4551693179
0.0949359163
0.0173242961
0.006013032157
0.01366916812
0.05536129656
0.1015081802
0.08878070306
0.08531202444
0.4918299733
0.2637213843
0.1284981568
0.02084045879
0.0260728335
0.04908290006
0.09872665518
0.1376480242
0.1256432617
0.08493447333
0.05286752969
0.03634283129
0.0298739456
0.02850042965
0.0297243414
0.03240565963
0.03554600189
0.03767870287
0.03752518159
0.03200805061
0.5037440048
0.6461240875
0.3125280719
0.1910214025
0.1345175145
0.1093587756
0.08915265232
0.06788677279
0.06323682855
0.179050684
0.115146034
0.07451372159
0.02184933528
0.0332897235
0.07282496944
0.1399460056
0.1698989376
0.1376142282
0.08786841435
0.05676978343
0.04254011896
0.03733430253
0.03643069285
0.03776604164
0.04031968974
0.04299755344
0.04425002183
0.04292442541
0.03596733613
0.5594860244
0.5213573943
0.248624743
0.1544187339
0.1081655989
0.07483315972
0.04597116756
0.03261772011
0.03153854711
0.04998005086
0.06436049099
0.0500043836
0.02970081714
0.04463813031
0.09726208589
0.166103216
0.1732653555
0.1234971362
0.07747842118
0.05414898486
0.04480112766
0.04191407725
0.04195570877
0.04353215067
0.04581634973
0.04769044822
0.047670433
0.04501599271
0.03686597664
0.6176729024
0.3656947778
0.1689294604
0.1036627239
0.0724176555
0.04960616897
0.1226952274
0.03244404458
0.01845137308
0.01880580426
0.04096250135
0.04855069645
0.04047854404
0.05946748274
0.1189706479
0.1753500213
0.1565478274
0.100951486
0.06511531348
0.05014946425
0.04534963781
0.04459248544
0.04550690199
0.04720337827
0.04894159101
0.04961640272
0.04802243435
0.04415794429
0.03546024104
0.6875379799
0.2691766963
0.1186063363
0.07286607317
0.05819167504
0.04179667602
0.04811664208
0.01822661031
0.01373249336
0.01341115861
0.03087116285
0.04850547427
0.05323584634
0.07858768365
0.1377113372
0.171580526
0.1321570755
0.08113209176
0.055768177
0.04744747489
0.04597939568
0.04676534111
0.0482506254
0.04977603777
0.05058842903
0.04971809695
0.04651319672
0.04196203649
0.03361996593
0.7928123695
0.2237360688
0.09435102627
0.06636158071
0.0579357817
0.03848929143
0.02424837385
0.01455725069
0.01469691297
0.01624689387
0.02946243505
0.04652854986
0.0691795625
0.103015284
0.1535539652
0.1599620947
0.1094149621
0.06786341383
0.05118088044
0.04745160606
0.04811598014
0.04979270122
0.05138225111
0.05226146548
0.05170386935
0.04911926618
0.04465285235
0.040301694
0.03329448202
0.952907218
0.229385555
0.09845661256
0.0698735347
0.05627989687
0.0341583642
0.0198495916
0.01715542378
0.02115304221
0.02564754763
0.03584414738
0.04800771152
0.08890725122
0.130474049
0.1648257426
0.1466353735
0.09602972159
0.06437733412
0.05362403608
0.05240574031
0.05389983033
0.05557991664
0.05656992233
0.05625539872
0.05409654544
0.05008271967
0.04508411427
0.04756581364
0.04175216521
1.902792765
0.3422540962
0.1199250903
0.06153264918
0.04103392223
0.02424379392
0.01669836119
0.02000476119
0.03065088981
0.03934457656
0.04412607948
0.04503410248
0.1005950801
0.1478406811
0.1592810151
0.122060529
0.08374232699
0.0673359
0.06397674779
0.06443369428
0.06482575711
0.06415043113
0.06219462914
0.0588517072
0.05426584415
0.04910861146
0.04462170501
0.04860805552
0.0484888611
3.225519805
6.569857207
1.16391017
0.2007719835
0.4727876217
0.6753056544
0.9318706341
1.276217639
1.402908434
1.239405323
1.08599705
1.109563049
1.375772193
1.662372924
1.857754626
1.9349757
1.927987809
1.843203206
1.688171378
1.504883607
1.349744075
1.252336812
1.213090476
1.214399525
1.230064524
1.254533475
1.252374556
4.59880119
2.846879276
18.18389084
10.26708274
0.0008940679152
0.2843135507
0.0003525172556
0.1421356247
0.0003895310144
1.349066316e-05
9.167964806e-06
0.263797132
0.2175943094
1.752617753e-06
1.070038059e-06
0.2504840934
0.7219228276
1.119821049e-06
6.915277136e-07
0.2966177733
1.702365774
5.387146017e-07
3.38022597e-07
0.02588931523
0.0001612089179
4.675456576e-07
2.284326463e-07
0.2672361958
0.2573120669
0.07441484231
4.059220303
0.05288604564
0.06517855839
1.441647855
0.08717509185
0.3008192386
0.07760675956
0.1554417856
0.02961019471
0.003858682833
0.00540298417
0.001481317412
0.002260647238
0.0007944669788
0.0006935043949
0.002953057101
0.0007220234192
0.0008482965065
0.006433997627
0.001077071009
0.001478375716
0.3196412337
0.003476418695
0.01421319837
27.0741883
0.09609958159
0.7763864407
0.1042218518
0.2895554263
0.1757002004
0.3987022383
0.1997982747
0.3677170212
0.2592844235
0.2550110805
0.4647619506
0.2749900336
0.2258748594
0.132515994
0.174918883
0.1532096149
0.1590152084
0.139515561
0.269384213
0.1791809386
0.2524901873
0.2188716404
0.2963182503
0.1216063223
0.121476991
0.1729895713
0.4731563324
0.2257814454
0.03687796725
0.07856943358
0.2753979046
4.827468624
0.6846789494
0.01409948423
0.0200751873
0.003962175501
0.01466931402
0.0063898555
0.005214731868
0.3846488738
3.931352455
0.1613836995
0.03256533999
0.09896126229
0.01536753278
0.05333505908
0.9150992188
0.02465114672
0.004383921341
0.06416255078
0.002460699666
0.02470305087
0.6579355938
0.03498199238
0.00543268928
0.2291650129
0.01240925604
0.05054731631
1.103396126
0.07801349763
0.02636924188
0.3759778599
0.07046270935
0.1360266227
1.875532865
0.2443347803
0.2197687255
0.6235844168
0.4614107722
0.3960756403
2.901741053
0.5471819102
0.8024523353
1.163180716
2.414053716
1.438728523
1.466461097
0.01028992749
0.3561864658
0.01046437762
1.182149356e-05
0.01721954346
1.325462695e-05
3.222749601e-06
3.232553296e-06
2.511705572e-06
1.941370707e-06
0.05940923421
0.07835367029
0.07478663256
0.2282507766
0.085168735
0.2320568041
0.02839074979
0.2063614486
0.03235928011
0.001688715931
0.006260003855
0.001878370614
0.0007555550101
0.0009998687116
0.0008331884089
0.0008911875115
0.0008461870537
0.001103693174
0.001777795943
0.001635213927
0.00284191021
0.0155287451
0.007240502827
0.02562356281
0.009167653787
1.359683032e-05
2.05666348e-06
0.2347289371
1.750077251e-06
1.356969448e-06
0.09214802784
0.1296632269
0.1119122657
0.2262513008
0.1170011989
0.2161881096
0.03662036137
0.4215998914
0.03865294006
0.002044316432
0.00671092772
0.002152233543
0.0009539387898
0.001263132656
0.001139081041
0.001508066483
0.001302258816
0.002332751607
0.005371333926
0.004715411082
0.01187472678
0.04674346646
0.03324073789
0.08241583855
0.01427067385
0.2450873702
0.02036699391
1.147025998e-05
0.3582112638
1.127824829e-05
1.376008554e-06
0.2097125167
0.1507175314
0.2195648536
0.03034155557
0.6829606332
0.008261751837
0.00205033404
0.002096737621
0.001641553369
0.001426255971
0.001668598795
0.001940412653
0.004500922367
0.003174270244
0.01113144095
0.02809705213
0.02705944186
0.06251470673
0.2955042358
0.05114675059
1.121720129e-05
1.274834061
1.392189964e-05
8.823777843e-07
7.943473295e-07
0.007987965572
0.5722304303
0.03650977525
0.002048137757
0.007687119126
0.007521410595
0.003195980085
0.006686581591
0.005655987105
0.02902798066
0.02068450595
0.06433494828
0.04425245233
1.139265749
38.35166163
22.51172551
0.9451248587
0.005220014317
0.3078619133
3.045525013e-05
0.322919624
1.861547583e-05
0.7076631828
4.327614502
0.04245987484
0.01516956272
3.29194975
4.445017842
0.1717621281
0.4411887725
1.988751721
0.05240463432
0.01348583453
0.6237006817
0.1330687244
0.002356958083
0.8347929776
0.3024025863
0.002500079746
1.454407809
0.4704315581
0.003503527636
2.339759911
0.7828835964
1.080456381
3.68461752
1.497124214
7.392234224
1.564908319
0.2503846626
0.401567206
0.007196111347
4.163689374e-06
0.0565001651
0.07065342394
0.1543694498
0.005706397435
0.0009016699641
0.0007542607639
0.001181939428
0.003635168349
0.1188363398
0.4027795476
0.2554447756
0.04357250688
0.08908349417
2.635384571e-06
2.23517001e-06
1.592430344e-06
0.1027470584
0.1008265415
0.292253537
0.006681365106
0.001118756938
0.001011102001
0.002532736259
0.01534143272
0.3053806907
0.1568746397
0.1328957047
0.574306756
0.005379088816
0.001427536099
0.001856965894
0.01085550938
0.07030642258
0.3150269669
0.1663323309
0.1344317475
0.0003931639964
5.472368277e-06
3.939957401e-06
3.515783481e-06
0.1740920692
0.6622940346
0.001340981149
0.002579986274
0.007273676337
0.0606323751
0.2199706953
0.04361198785
0.0003335502296
9.597571585e-07
0.6460273529
0.2522407465
0.296800326
8.953919459e-05
2.620537614e-07
2.724323957e-07
1.68151554e-07
0.3088391842
0.9543994706
3.616595091e-05
1.269842475e-07
8.175084357e-08
0.08834045894
0.1411952052
1.923538899e-05
9.740641992e-08
6.3190276e-08
0.04773739782
0.007062298829
5.136156309e-05
2.360940698e-07
1.172334685e-07
8.92739996
0.08874306405
4.527420481
1.045446515
0.7433586062
0.01192353991
0.319112823
4.216491812e-05
0.06484290961
0.03463810896
0.003653953901
1.105854783e-05
0.3174953003
2.384798521e-05
0.04302723493
0.04706942195
5.378407185e-06
4.157472851e-06
0.05062092336
3.211392335e-06
0.3733490247
24.35734493
0.6466183104
0.00941129211
0.5754695115
0.003487283991
0.3586876089
0.0003195061183
0.003874076245
0.23050372
0.003992307899
0.000374377583
3.172869747e-05
1.788099964e-05
1.485551321e-05
1.219801327e-05
0.00973028637
1.279004355e-05
0.1592409175
0.003889645928
0.003979517274
1.967464682e-05
2.505805693e-05
0.0003943121449
1.013773917e-05
1.12132706e-05
8.381311348e-06
6.806304453e-06
1.556722341e-06
1.225312114e-06
9.561326513e-07
0.03370795128
0.06609867236
0.003345746518
0.002477886477
0.0003810745228
8.916695499e-06
1.845696783e-06
1.411190207e-06
2.477246576e-06
1.099651184e-06
0.00365480018
1.174207849e-05
4.416331638e-06
3.13377585e-06
6.273764336e-07
4.938690598e-07
0.06213793709
1.588823717e-05
1.291868204
1.050959217e-05
4.270003092e-07
4.314931777e-07
3.428610647e-07
0.001027667302
0.02852611615
0.001330579007
1.527253048e-06
0.0002728130302
0.0002056131905
2.808005562e-06
1.865605209e-06
5.723127082e-07
3.836961947e-07
5.376395577e-07
2.931607902e-07
0.001866640058
4.73792782e-06
6.944187892e-07
0.00177693019
0.5285899216
0.0008746929412
6.534457261e-07
4.550489424e-05
5.058815073e-07
2.096661321e-07
1.996158377e-07
1.597986111e-07
1.28368638e-07
0.0006091100643
0.7781864429
0.0003773217022
3.266509294e-07
2.702778663e-05
1.843353115e-07
1.016495284e-07
7.166195522e-08
5.759935031e-08
4.6535627e-08
0.0002201895123
0.00493648055
0.0001273642627
2.45963033e-07
1.240715475e-05
3.528884069e-07
7.822877653e-08
1.391085904e-07
1.105183484e-07
8.884366264e-08
0.0003051416119
0.01146727132
0.0005378243676
6.872112951e-07
8.74743158e-05
9.710704385e-07
1.577063012e-07
3.120108061e-07
1.95971976e-07
3.03493263e-07
1.433398997e-07
)
;

boundaryField
{
    walls
    {
        type            zeroGradient;
    }
    wallFilmFace_top
    {
        type            zeroGradient;
    }
    region0_to_wallFilmRegion_wallFilmFace
    {
        type            zeroGradient;
    }
    mirrorFace_top
    {
        type            zeroGradient;
    }
    region0_to_wallFilmRegion_mirrorFace
    {
        type            zeroGradient;
    }
    procBoundary2to0
    {
        type            processor;
        value           nonuniform List<scalar> 
26
(
0.2107249736
0.001250826847
0.05386627646
0.03912322436
0.01113276869
0.04756082193
0.04162101631
0.009368786154
0.001842547053
0.000376104057
0.004643558887
0.002668763469
0.001561242722
0.01430172547
0.001061679132
0.0004139457668
0.02291599005
0.05122005392
0.06410503583
0.06110686061
0.05022249552
0.03736714766
0.03101091475
0.03344633699
0.02961450641
1.060617307
)
;
    }
    procBoundary2to1
    {
        type            processor;
        value           nonuniform List<scalar> 
33
(
5.766172926e-06
5.766172926e-06
0.005346678041
0.005346678041
0.009707715092
0.018709684
0.004562724821
0.004562724821
1.018600223e-05
0.01834238916
0.04796624485
0.08476403665
0.04526793964
0.02402616818
0.1464637082
0.3123983595
0.137292604
0.03825659999
0.01821855161
0.01122099181
0.006414376308
0.004599355419
0.003843370559
0.003651627335
0.004390504142
0.2864047056
0.2278795072
0.1482056068
0.08699079744
0.04268682269
0.0347583623
0.06413329697
2.790844997
)
;
    }
    procBoundary2to3
    {
        type            processor;
        value           nonuniform List<scalar> 
64
(
0.0002398022702
4.02827755e-05
2.37357286e-05
1.613870603e-05
7.481503085e-06
8.293180952e-07
5.395865343e-07
2.663752233e-07
1.794768016e-07
0.01510238301
0.00235067842
0.004990768071
0.001502617373
0.00235067842
0.003612963261
0.004621980388
0.005693875842
0.00936640147
0.01405128621
0.01570382693
0.0202854355
0.05653020911
0.1025414707
0.5628545515
0.5628545515
0.4479166846
1.046637795
1.046637795
0.009258711928
1.046637795
2.487254042e-06
1.506614541e-06
2.487254042e-06
1.235772843e-06
1.052598644e-06
0.3256642411
1.462696483e-05
0.01510238301
0.5018955746
2.487254042e-06
2.79076184e-06
2.155340743e-07
1.343861656e-07
6.555197325e-08
5.092475958e-08
9.357408096e-08
0.05393301503
2.496503349e-06
0.232050093
4.925812674e-05
4.02827755e-05
1.963872368e-05
1.000331692e-05
5.514666358e-06
7.428490204e-07
1.952988706e-06
8.544098688e-07
3.870514589e-07
4.171842899e-07
2.29272587e-07
1.027938343e-07
3.748621739e-08
7.132519903e-08
1.138837637e-07
)
;
    }
}


// ************************************************************************* //
