/*--------------------------------*- C++ -*----------------------------------*\
  =========                 |
  \\      /  F ield         | OpenFOAM: The Open Source CFD Toolbox
   \\    /   O peration     | Website:  https://openfoam.org
    \\  /    A nd           | Version:  8
     \\/     M anipulation  |
\*---------------------------------------------------------------------------*/
FoamFile
{
    version     2.0;
    format      ascii;
    class       volScalarField;
    location    "0.5/wallFilmRegion";
    object      delta;
}
// * * * * * * * * * * * * * * * * * * * * * * * * * * * * * * * * * * * * * //

dimensions      [0 1 0 0 0 0 0];

internalField   nonuniform List<scalar> 
1342
(
2.973157394e-05
7.502334557e-06
5.721210524e-05
2.017434825e-05
3.276009851e-06
5.498659745e-05
6.392813465e-05
3.068252492e-05
7.335209858e-06
1.626210082e-06
1.757636176e-06
6.242049315e-07
2.165666327e-07
8.683358445e-08
6.658275778e-08
1.057163723e-07
1.888787385e-05
4.271442849e-05
5.373065747e-05
4.889322751e-05
3.905453297e-05
2.880088409e-05
3.201891726e-05
4.628502464e-05
5.418873512e-05
0.0009395021008
5.926645213e-06
6.41874985e-06
5.120941361e-06
6.997733279e-05
1.12320339e-05
1.45966323e-06
7.473550773e-05
6.085113979e-05
3.736609399e-05
1.316185805e-05
3.529889316e-06
1.269509395e-06
3.474101494e-07
1.01985212e-07
3.910805154e-08
3.227939166e-08
4.88851586e-08
1.987729648e-05
4.039314673e-05
4.524801311e-05
3.388248688e-05
1.824457533e-05
1.283992489e-05
1.885404129e-05
3.414604675e-05
5.012669149e-05
0.001556352155
1.087268762e-05
1.491052932e-05
2.677138405e-05
5.172477464e-05
8.827235304e-05
4.987748945e-06
2.123870165e-06
0.000113998012
4.851386031e-05
2.346007228e-05
1.303965788e-05
5.083928099e-06
1.654257699e-06
4.366286153e-07
1.135415106e-07
3.880324115e-08
2.807152638e-08
3.670356028e-08
1.564109302e-05
2.692515914e-05
2.540649336e-05
1.569783905e-05
6.264324325e-06
5.639594338e-06
1.096284654e-05
2.187598754e-05
3.474480832e-05
0.001248454427
2.419305391e-05
3.35862141e-05
4.072228673e-05
4.491572487e-05
3.13720443e-05
5.424588903e-06
4.306426676e-06
0.0001682635602
1.214840631e-06
1.410608769e-06
3.310420944e-06
1.384115924e-06
3.73052695e-07
5.844262644e-08
2.358723288e-08
1.883559554e-08
2.076991724e-08
2.450267057e-08
3.49294226e-06
9.271686341e-06
8.832149469e-06
5.450432024e-06
2.325037687e-06
3.403426066e-06
7.568253391e-06
1.518522308e-05
2.436677859e-05
0.001008276248
2.37215426e-05
0.0001296633315
0.0003692457297
0.0001361732066
6.13088859e-05
4.247000816e-05
2.707562566e-05
8.95201576e-05
0.0001613291251
0.000153982404
0.0001341162638
0.0001140031954
9.306142736e-05
6.846790661e-05
4.051319157e-05
1.685786431e-05
5.075998709e-06
1.360312641e-06
7.10465297e-07
2.556267965e-06
2.743365755e-06
1.91407456e-06
1.307959523e-06
2.711438793e-06
6.002125116e-06
1.161213943e-05
1.824718097e-05
0.0008614666035
1.123606321e-08
4.31547402e-07
3.816312258e-06
0.0001385196592
0.0002475379686
0.0001518015465
9.87263899e-05
3.864495891e-05
0.0001058356982
0.000407644188
0.0002481823955
0.0001650214227
0.0001231720953
8.460825579e-05
4.668810358e-05
2.116795279e-05
7.759173018e-06
2.396760041e-06
6.991126511e-07
2.700061835e-07
1.09330181e-06
1.354324612e-06
1.108246074e-06
1.533554398e-06
2.655510167e-06
4.970264775e-06
8.943725565e-06
1.35097911e-05
0.0008344600485
1.004264835e-05
1.461034497e-05
4.20773127e-06
4.902307032e-05
5.926264479e-05
5.816694163e-05
1.632387015e-05
0.0001964050178
0.0002503150824
0.0009454494011
0.000542480021
0.000236191708
0.0001107045906
4.395392497e-05
1.65117297e-05
6.837160584e-06
2.57254567e-06
8.472036028e-07
2.772918826e-07
1.524457446e-07
0.00020680494
0.0001511434449
3.819655831e-05
1.051783835e-05
4.539813823e-06
4.023158288e-06
5.760139155e-06
7.982698926e-06
0.0008059163495
3.498473812e-05
6.933241853e-05
5.988366361e-05
1.043118169e-05
1.168718633e-05
2.626267249e-05
1.484195054e-05
1.885430523e-05
0.0004607371861
0.0005893708359
0.0003750137804
0.0001566761125
5.159243799e-05
1.25136223e-05
4.792368277e-06
2.098795407e-06
7.953950813e-07
2.810722568e-07
1.225800991e-07
1.348679655e-07
8.182250449e-05
0.0001515786149
1.820215151e-05
3.531063395e-06
3.276481978e-06
5.325067545e-06
8.371658344e-06
1.104291115e-05
0.0009412234453
6.694695078e-05
2.359937291e-05
1.568403674e-06
4.64314392e-07
2.191536623e-05
9.42148585e-05
0.0001675732378
0.000271344422
0.000490727582
0.0003670181968
0.0003443595535
0.0003051448582
0.0002393985663
0.0001624099337
8.735246698e-05
2.72622928e-05
4.056081227e-06
4.533574587e-07
1.925017023e-05
1.44026989e-06
3.252040708e-05
0.000177962714
7.214976958e-06
2.749467119e-06
5.726181955e-06
9.511625017e-06
1.457368499e-05
1.867026645e-05
0.001130261628
1.758690709e-05
1.227942365e-06
1.285943868e-10
5.672499021e-11
3.670431478e-06
4.789251511e-06
3.486536595e-06
2.656298382e-06
1.148707688e-05
0.0003442549252
0.0002852361012
0.0001913420801
0.0001173967855
6.42465127e-05
2.7115387e-05
7.140229049e-06
1.119941486e-06
1.878857888e-07
0.0001421669428
1.715444955e-05
1.825884969e-05
5.118608358e-05
9.615200065e-05
7.042080616e-05
3.564093122e-05
2.213040261e-05
2.251249484e-05
2.508162183e-05
0.00128624692
1.810538817e-06
4.535410623e-10
1.43504654e-15
1.046515094e-10
3.830237863e-06
2.331764572e-06
1.352740279e-06
9.02107233e-07
4.424924841e-06
0.0002876938087
0.000211888651
0.0001051348895
4.080471118e-05
1.457311909e-05
5.208517334e-06
1.667628931e-06
7.847024493e-07
2.966336206e-06
0.0002991637788
4.591120823e-05
4.506938152e-05
8.324996727e-05
0.0001044780276
0.0001089351795
0.0001061020707
9.983871986e-05
9.178460909e-05
8.060795642e-05
0.001488071619
4.161818154e-05
5.528526745e-06
2.532542361e-08
4.842939468e-07
4.449397127e-06
7.898088258e-07
4.963662967e-07
3.26741082e-07
1.63855713e-06
0.0002238459947
0.0001347840701
4.704119781e-05
1.259610605e-05
4.205755311e-06
2.627501647e-06
3.835911598e-06
1.105102158e-05
3.938492232e-05
0.0004557406795
0.0003104944222
0.0002202363349
0.0001902323726
0.0001797868003
0.0001695426205
0.0001551767968
0.0001383854193
0.0001204212532
0.0001006353373
0.001722625839
0.0004497693157
5.867228016e-05
4.184416275e-06
1.904094049e-05
1.129863899e-05
3.449192835e-06
1.43811416e-06
6.183944274e-07
3.125285722e-06
0.000163286085
8.211123182e-05
3.031225831e-05
1.756733586e-05
1.312272907e-05
1.280151507e-05
4.141958695e-05
0.0001453682795
0.0002640106587
0.001087701771
0.0007189061225
0.0004814230963
0.0003211714114
0.0002431160547
0.0002116115732
0.0001837724688
0.0001509849034
0.0001229338528
0.0001018079225
0.002131532808
0.0002641675008
6.270179701e-05
4.22730123e-06
1.059022774e-05
2.674421297e-05
1.113699613e-05
4.872044342e-06
1.989410828e-06
8.387866094e-06
0.000110517459
6.022872596e-05
3.839242883e-05
3.267785834e-05
2.884180583e-05
2.680796014e-05
3.613419786e-05
8.081116096e-05
0.0001432689921
0.0006884355207
0.0003745906991
0.0002248931624
0.0002137547309
0.000233534648
0.0002339268496
0.0002029823071
0.0001601656137
0.0001341755812
0.0001220129655
0.002479112193
4.029990574e-05
2.617490017e-05
1.320361853e-06
9.304084875e-07
1.010089819e-05
2.049567543e-05
8.208570263e-06
3.487820465e-06
1.372709857e-05
7.001371438e-05
5.719104652e-05
5.178996201e-05
4.673405383e-05
4.21627423e-05
4.056569588e-05
5.752329918e-05
9.987900337e-05
0.0001036483907
0.0004325316075
0.0001912363994
0.0001273231584
0.0001771302909
0.0002207725986
0.0002276563116
0.0002052264376
0.0001768225989
0.0001706503718
0.0001660780692
0.002362757557
2.222023876e-05
9.00080523e-06
5.132996413e-07
1.588137112e-07
2.541461795e-06
2.225292976e-05
9.552430875e-06
4.724290816e-06
1.783582054e-05
5.041109296e-05
5.969684716e-05
7.324687027e-05
8.459203853e-05
8.372224851e-05
7.90554899e-05
8.472776033e-05
7.91656583e-05
5.761808869e-05
0.00020121648
6.830874814e-05
9.030767727e-05
0.0001556983944
0.0001853808662
0.0001769275785
0.0001682134776
0.000176428133
0.0001953853187
0.0001842554033
0.001790906425
8.888704017e-06
3.700679046e-06
2.344946666e-07
5.125029171e-08
8.850312744e-07
1.38988215e-05
8.458226059e-06
5.800046713e-06
2.005636058e-05
4.514810638e-05
6.020631742e-05
0.0001306133133
0.0002835988138
0.0003634337868
0.0003298323471
0.000223960948
0.0001096497889
4.753360332e-05
4.706056086e-05
2.508096381e-05
7.630826068e-05
0.0001269365922
0.0001315189997
0.0001088105434
0.0001043058139
0.0001277975813
0.0001548478854
0.0001376592583
0.00112822618
3.981691005e-06
1.80773953e-06
1.225106005e-07
1.838160043e-08
2.825962556e-07
6.627206936e-06
6.209939495e-06
5.513761593e-06
1.968054485e-05
4.132408839e-05
5.609088306e-05
0.0001023904064
0.0001253242401
0.0001191548826
9.947368205e-05
6.468849866e-05
3.391720984e-05
1.826952549e-05
1.331881107e-05
1.235426027e-05
4.498214156e-05
7.314499633e-05
6.841436378e-05
5.307865125e-05
5.406181013e-05
6.990971573e-05
8.591786412e-05
7.333859892e-05
0.0006846979639
2.748510048e-06
1.535008084e-06
6.463581995e-07
3.633145442e-07
3.637875113e-07
3.220188036e-06
4.69466433e-06
4.970574678e-06
2.34692569e-05
4.832852483e-05
5.959255269e-05
6.671175094e-05
3.796055745e-05
1.98274338e-05
1.364473811e-05
1.020174115e-05
7.03555156e-06
4.884947564e-06
4.002070118e-06
4.118646165e-06
1.042856842e-05
2.299779102e-05
2.463376495e-05
2.331600979e-05
2.746820142e-05
3.55690087e-05
4.21742559e-05
3.571506489e-05
0.0004861121422
0.0001389251035
1.796512663e-05
3.972150417e-06
1.483661226e-06
1.142828931e-06
2.955474843e-06
6.105473504e-06
1.172952309e-05
0.0004274419553
0.0001794847707
6.849346829e-05
5.499893605e-05
3.048127222e-05
2.01994336e-05
2.39336059e-05
3.163199645e-05
3.212854827e-05
2.459951e-05
1.592004195e-05
1.102476047e-05
1.03904395e-05
1.317380983e-05
1.562307564e-05
1.827443854e-05
2.221347789e-05
2.637010982e-05
2.877857046e-05
2.46564123e-05
0.000435118063
9.773402484e-05
1.576149132e-05
4.342377164e-06
3.714327487e-06
7.624210015e-06
1.620673817e-05
2.515126909e-05
4.134145869e-05
0.0007518475068
0.0003790703619
0.0001159249528
3.371137401e-05
2.484951036e-05
3.08049758e-05
5.52681504e-05
8.202721819e-05
8.23856467e-05
6.00989663e-05
3.769724548e-05
2.484686567e-05
1.987810445e-05
1.93710276e-05
2.094876393e-05
2.376331607e-05
2.721925432e-05
3.004120215e-05
3.090903429e-05
2.658678325e-05
0.0004551693179
9.49359163e-05
1.73242961e-05
6.013032157e-06
1.366916812e-05
5.536129656e-05
0.0001015081802
8.878070306e-05
8.531202444e-05
0.0004918299733
0.0002637213843
0.0001284981568
2.084045879e-05
2.60728335e-05
4.908290006e-05
9.872665518e-05
0.0001376480242
0.0001256432617
8.493447333e-05
5.286752969e-05
3.634283129e-05
2.98739456e-05
2.850042965e-05
2.97243414e-05
3.240565963e-05
3.554600189e-05
3.767870287e-05
3.752518159e-05
3.200805061e-05
0.0005037440048
0.0006461240875
0.0003125280719
0.0001910214025
0.0001345175145
0.0001093587756
8.915265232e-05
6.788677279e-05
6.323682855e-05
0.000179050684
0.000115146034
7.451372159e-05
2.184933528e-05
3.32897235e-05
7.282496944e-05
0.0001399460056
0.0001698989376
0.0001376142282
8.786841435e-05
5.676978343e-05
4.254011896e-05
3.733430253e-05
3.643069285e-05
3.776604164e-05
4.031968974e-05
4.299755344e-05
4.425002183e-05
4.292442541e-05
3.596733613e-05
0.0005594860244
0.0005213573943
0.000248624743
0.0001544187339
0.0001081655989
7.483315972e-05
4.597116756e-05
3.261772011e-05
3.153854711e-05
4.998005086e-05
6.436049099e-05
5.00043836e-05
2.970081714e-05
4.463813031e-05
9.726208589e-05
0.000166103216
0.0001732653555
0.0001234971362
7.747842118e-05
5.414898486e-05
4.480112766e-05
4.191407725e-05
4.195570877e-05
4.353215067e-05
4.581634973e-05
4.769044822e-05
4.7670433e-05
4.501599271e-05
3.686597664e-05
0.0006176729024
0.0003656947778
0.0001689294604
0.0001036627239
7.24176555e-05
4.960616897e-05
0.0001226952274
3.244404458e-05
1.845137308e-05
1.880580426e-05
4.096250135e-05
4.855069645e-05
4.047854404e-05
5.946748274e-05
0.0001189706479
0.0001753500213
0.0001565478274
0.000100951486
6.511531348e-05
5.014946425e-05
4.534963781e-05
4.459248544e-05
4.550690199e-05
4.720337827e-05
4.894159101e-05
4.961640272e-05
4.802243435e-05
4.415794429e-05
3.546024104e-05
0.0006875379799
0.0002691766963
0.0001186063363
7.286607317e-05
5.819167504e-05
4.179667602e-05
4.811664208e-05
1.822661031e-05
1.373249336e-05
1.341115861e-05
3.087116285e-05
4.850547427e-05
5.323584634e-05
7.858768365e-05
0.0001377113372
0.000171580526
0.0001321570755
8.113209176e-05
5.5768177e-05
4.744747489e-05
4.597939568e-05
4.676534111e-05
4.82506254e-05
4.977603777e-05
5.058842903e-05
4.971809695e-05
4.651319672e-05
4.196203649e-05
3.361996593e-05
0.0007928123695
0.0002237360688
9.435102627e-05
6.636158071e-05
5.79357817e-05
3.848929143e-05
2.424837385e-05
1.455725069e-05
1.469691297e-05
1.624689387e-05
2.946243505e-05
4.652854986e-05
6.91795625e-05
0.000103015284
0.0001535539652
0.0001599620947
0.0001094149621
6.786341383e-05
5.118088044e-05
4.745160606e-05
4.811598014e-05
4.979270122e-05
5.138225111e-05
5.226146548e-05
5.170386935e-05
4.911926618e-05
4.465285235e-05
4.0301694e-05
3.329448202e-05
0.000952907218
0.000229385555
9.845661256e-05
6.98735347e-05
5.627989687e-05
3.41583642e-05
1.98495916e-05
1.715542378e-05
2.115304221e-05
2.564754763e-05
3.584414738e-05
4.800771152e-05
8.890725122e-05
0.000130474049
0.0001648257426
0.0001466353735
9.602972159e-05
6.437733412e-05
5.362403608e-05
5.240574031e-05
5.389983033e-05
5.557991664e-05
5.656992233e-05
5.625539872e-05
5.409654544e-05
5.008271967e-05
4.508411427e-05
4.756581364e-05
4.175216521e-05
0.001902792765
0.0003422540962
0.0001199250903
6.153264918e-05
4.103392223e-05
2.424379392e-05
1.669836119e-05
2.000476119e-05
3.065088981e-05
3.934457656e-05
4.412607948e-05
4.503410248e-05
0.0001005950801
0.0001478406811
0.0001592810151
0.000122060529
8.374232699e-05
6.73359e-05
6.397674779e-05
6.443369428e-05
6.482575711e-05
6.415043113e-05
6.219462914e-05
5.88517072e-05
5.426584415e-05
4.910861146e-05
4.462170501e-05
4.860805552e-05
4.84888611e-05
0.003225519805
0.006569857207
0.00116391017
0.0002007719835
0.0004727876217
0.0006753056544
0.0009318706341
0.001276217639
0.001402908434
0.001239405323
0.00108599705
0.001109563049
0.001375772193
0.001662372924
0.001857754626
0.0019349757
0.001927987809
0.001843203206
0.001688171378
0.001504883607
0.001349744075
0.001252336812
0.001213090476
0.001214399525
0.001230064524
0.001254533475
0.001252374556
0.00459880119
0.002846879276
0.01818389084
0.0066742326
6.997470447e-07
0.0002222336128
3.496505811e-07
0.0001350122721
3.844609182e-07
1.331524545e-08
9.049164508e-09
0.0002204057711
0.0002142300771
1.725362093e-09
1.053462126e-09
0.000196944221
0.0007128213888
1.105809553e-09
6.826837323e-10
0.0002475659368
0.001676368202
5.305210709e-10
3.328810818e-10
1.918335606e-05
1.596720941e-07
4.631820212e-10
2.262796897e-10
0.0002096171884
0.0002010626744
7.441427113e-05
0.003181392496
5.288633419e-05
6.517863077e-05
0.001129433064
8.717510172e-05
0.0003008192386
6.079857738e-05
0.0001554417856
2.961019471e-05
3.023309157e-06
5.40298417e-06
1.481317412e-06
1.771469195e-06
7.944669788e-07
6.935043949e-07
2.314475675e-06
7.220234192e-07
8.482965065e-07
5.044997455e-06
1.077071009e-06
1.478375876e-06
0.0002508688126
3.476422515e-06
1.421327427e-05
0.01747743507
9.609884518e-05
0.0006067489672
0.0001042146594
0.0001798128505
0.0001709678597
0.0003076534058
0.000194420487
0.0002282516702
0.0002279065802
0.0002014902688
0.0002411522457
0.0002172441455
0.0001554793032
0.0001325172075
0.0001358381679
0.0001484397329
0.0001538891502
0.0001351759269
0.0002092499194
0.000139417833
0.0002524901873
0.0001526758383
0.0002567362731
0.0001177377618
0.0001052217093
0.0001205357995
0.0003704459191
0.000179395978
2.917900992e-05
5.356861686e-05
0.0002753979209
0.003799759675
0.0006846789047
1.409948346e-05
2.007518442e-05
3.962175351e-06
1.466931581e-05
6.389855709e-06
5.2147323e-06
0.0003846488819
0.003091891284
0.0001613836921
3.25653375e-05
9.896123669e-05
1.536753285e-05
5.333506056e-05
0.000719642565
2.465114609e-05
4.383921336e-06
6.416255555e-05
2.460699471e-06
2.47030496e-05
0.0005174178229
3.498199247e-05
5.432688734e-06
0.0002291650023
1.24092528e-05
5.054730804e-05
0.0008677612126
7.801348825e-05
2.636923817e-05
0.0003759778781
7.046270306e-05
0.0001360266118
0.001475079762
0.0002443347646
0.0002197687149
0.0006235844692
0.0004614107947
0.0003960755698
0.002282938208
0.0005471819194
0.0008024523129
0.001163180673
0.001903089609
0.001438728265
0.001466460914
1.020457195e-05
0.0003029801049
1.035261823e-05
1.172631106e-08
1.703502048e-05
1.311367645e-08
3.19698249e-09
3.198074157e-09
2.485001689e-09
1.920427322e-09
5.940920091e-05
7.835244089e-05
7.478705288e-05
0.0002282507799
8.516878807e-05
0.0002320568109
2.839074979e-05
0.0002063614486
3.235928011e-05
1.688715931e-06
6.260003855e-06
1.878370614e-06
7.555550101e-07
9.998687116e-07
8.331884089e-07
8.911875115e-07
8.461870537e-07
1.103693174e-06
1.77779634e-06
1.635213975e-06
2.841911966e-06
1.552854694e-05
7.240542611e-06
2.562316652e-05
9.048243987e-06
1.341863884e-08
2.029680697e-09
0.0001906777003
1.733196088e-09
1.343933464e-09
9.214863825e-05
0.0001296543767
0.0001119129558
0.0002262513076
0.0001170012794
0.000216188116
3.662036137e-05
0.0004215998914
3.865294006e-05
2.044316432e-06
6.71092772e-06
2.152233543e-06
9.539387898e-07
1.263132656e-06
1.139081041e-06
1.508066483e-06
1.302258816e-06
2.332751607e-06
5.371337742e-06
4.715411222e-06
1.18747349e-05
4.674145165e-05
3.324093806e-05
8.241028091e-05
1.405470571e-05
0.0001925347991
2.015950997e-05
1.129077866e-08
0.0003542988398
1.115347926e-08
1.354736407e-09
0.0002097125198
0.0001507175522
0.0002195648536
3.034155557e-05
0.0006829606332
8.261751837e-06
2.05033404e-06
2.096737621e-06
1.641553369e-06
1.426255971e-06
1.668598795e-06
1.940412653e-06
4.500922367e-06
3.174270244e-06
1.113144095e-05
2.809706845e-05
2.705944186e-05
6.251471538e-05
0.0002323635011
5.06087951e-05
1.107434609e-08
0.001260612838
1.376367531e-08
8.71285741e-10
7.854390432e-10
7.987965572e-06
0.0005551491458
3.650977525e-05
2.048137757e-06
7.687119126e-06
7.521410595e-06
3.195980085e-06
6.686581591e-06
5.655987105e-06
2.902798066e-05
2.068450595e-05
6.241215106e-05
4.385151869e-05
0.0007342347008
0.0249476889
0.01461063785
0.0007393858387
4.079424118e-06
0.0002403314897
2.375882154e-08
0.0002519697192
1.451725667e-08
0.000554799155
0.003411142204
4.245986655e-05
1.516956395e-05
0.002579393852
0.00349665092
0.0001717621
0.0003456273463
0.001563989571
5.240463496e-05
1.056560608e-05
0.0004904883149
0.0001330687256
1.846814926e-06
0.0006565107192
0.0003024025768
1.959242957e-06
0.001143832545
0.0004704315739
2.746386411e-06
0.001840353352
0.0007828835013
0.0008475515462
0.002900622048
0.001176021506
0.005847801356
0.001564908819
0.0001931426113
0.0003138624932
7.137163632e-06
4.130449981e-09
5.649944487e-05
7.065344041e-05
0.0001543694498
5.706397435e-06
9.016699641e-07
7.542607639e-07
1.181939445e-06
3.635166136e-06
0.0001188282269
0.0002092568793
0.0002426778672
4.299982362e-05
8.82197761e-05
2.600567255e-09
2.2133919e-09
1.571524008e-09
0.0001027425715
0.0001008266151
0.000292253537
6.681365106e-06
1.118756938e-06
1.011102001e-06
2.532736335e-06
1.534153239e-05
0.0002684325585
0.0001518128289
0.0001328957826
0.000574306756
5.379088816e-06
1.427536099e-06
1.856965894e-06
1.085550954e-05
7.030705306e-05
0.0002170054695
0.0001389924351
0.0001055852062
3.86939701e-07
5.387383018e-09
3.89772237e-09
3.460433314e-09
0.0001685530296
0.0006622940346
1.340981149e-06
2.579986274e-06
7.273676337e-06
6.06323751e-05
0.0001711860981
3.430231036e-05
3.292954952e-07
9.490638452e-10
0.0004416451657
0.0001870430762
0.0002477760167
8.833930775e-08
2.585596441e-10
2.698535834e-10
1.659108599e-10
0.000244545617
0.0007444852237
3.57608079e-08
1.255608629e-10
8.084491845e-11
7.015664587e-05
0.0001100225113
1.902100731e-08
9.632148735e-11
6.248389559e-11
3.735402633e-05
5.500577892e-06
5.078629324e-08
2.33437547e-10
1.159335523e-10
0.007006831091
6.954670274e-05
0.003581093945
0.001045446566
0.0005856888243
1.188807668e-05
0.0002492917482
3.29127393e-08
6.484290118e-05
3.463810521e-05
3.643258773e-06
1.10262391e-08
0.0002477710175
1.859962157e-08
4.302723656e-05
4.706943107e-05
5.362706401e-09
4.145364299e-09
5.062092536e-05
3.202117534e-09
0.0003733490621
0.01584796116
0.0005075857262
7.387704869e-06
0.000453416102
3.476063847e-06
0.000280655779
3.185102516e-07
3.84205409e-06
0.0001960444815
3.949807809e-06
3.703845934e-07
3.138591134e-08
1.768883628e-08
1.469564011e-08
1.206517679e-08
9.638955016e-06
1.266548054e-08
0.000129341668
3.853668787e-06
3.927666874e-06
1.948113824e-08
2.473076986e-08
3.9053495e-07
1.00380351e-08
1.106819181e-08
8.301965011e-09
6.740639868e-09
1.53977279e-09
1.212028794e-09
9.457054471e-10
3.330549495e-05
5.200918145e-05
3.311557414e-06
2.448257975e-06
3.768409694e-07
8.819233774e-09
1.822515935e-09
1.39350784e-09
2.449855751e-09
1.085772057e-09
3.598905911e-06
1.155691018e-08
4.348631782e-09
3.099801448e-09
6.202855197e-10
4.881895599e-10
6.121405397e-05
1.564534108e-08
0.001279617701
1.041032731e-08
4.205168172e-10
4.273895805e-10
3.396015874e-10
1.018313554e-06
2.380365336e-05
1.310677005e-06
1.512974704e-09
2.697153247e-07
2.024273723e-07
2.776402132e-09
1.837031575e-09
5.635543755e-10
3.778175504e-10
5.315943041e-10
2.886577989e-10
1.846987796e-06
4.677890092e-09
6.86736892e-10
1.753265518e-06
0.0004118993468
8.649680219e-07
6.447535441e-10
4.499800896e-08
5.002607619e-10
2.068676172e-10
1.97394665e-10
1.580257878e-10
1.269379405e-10
6.022693478e-07
0.000606458811
3.7310212e-07
3.229839998e-10
2.672671974e-08
1.822818042e-10
1.005208378e-10
7.086935957e-11
5.696577753e-11
4.602561912e-11
2.177293142e-07
3.848481339e-06
1.259360629e-07
2.432282491e-10
1.226914325e-08
3.490022607e-10
7.735372325e-11
1.375722973e-10
1.093001956e-10
8.786931329e-11
3.017546248e-07
9.573329164e-06
5.307378976e-07
6.795187142e-10
8.629991175e-08
9.581007031e-10
1.559453587e-10
3.078578269e-10
1.933600548e-10
3.006329105e-10
1.414226458e-10
)
;

boundaryField
{
    walls
    {
        type            zeroGradient;
    }
    wallFilmFace_top
    {
        type            zeroGradient;
    }
    region0_to_wallFilmRegion_wallFilmFace
    {
        type            zeroGradient;
    }
    mirrorFace_top
    {
        type            zeroGradient;
    }
    region0_to_wallFilmRegion_mirrorFace
    {
        type            zeroGradient;
    }
    procBoundary2to0
    {
        type            processor;
        value           nonuniform List<scalar> 
26
(
0.0002107249736
1.250826847e-06
5.386627646e-05
3.912322436e-05
1.113276869e-05
4.756082193e-05
4.162101631e-05
9.368786154e-06
1.842547053e-06
3.76104057e-07
4.643558887e-06
2.668763469e-06
1.561242722e-06
1.430172547e-05
1.061679132e-06
4.139457668e-07
2.291599005e-05
5.122005392e-05
6.410503583e-05
6.110686061e-05
5.022249552e-05
3.736714766e-05
3.101091475e-05
3.344633699e-05
2.961450641e-05
0.001060617307
)
;
    }
    procBoundary2to1
    {
        type            processor;
        value           nonuniform List<scalar> 
33
(
5.766172926e-09
5.766172926e-09
5.346678041e-06
5.346678041e-06
9.707715092e-06
1.8709684e-05
4.562724821e-06
4.562724821e-06
1.018600223e-08
1.834238916e-05
4.796624485e-05
8.476403665e-05
4.526793964e-05
2.402616818e-05
0.0001464637082
0.0003123983595
0.000137292604
3.825659999e-05
1.821855161e-05
1.122099181e-05
6.414376308e-06
4.599355419e-06
3.843370559e-06
3.651627335e-06
4.390504142e-06
0.0002864047056
0.0002278795072
0.0001482056068
8.699079744e-05
4.268682269e-05
3.47583623e-05
6.413329697e-05
0.002790844997
)
;
    }
    procBoundary2to3
    {
        type            processor;
        value           nonuniform List<scalar> 
64
(
1.874464558e-07
3.99500471e-08
2.354027624e-08
1.600416279e-08
7.384549135e-09
8.164335425e-10
5.327858011e-10
2.62331772e-10
1.777753919e-10
1.510238161e-05
2.350678477e-06
4.990767324e-06
1.502617369e-06
2.350678477e-06
3.612963579e-06
4.621980067e-06
5.693876019e-06
9.366402239e-06
1.405128457e-05
1.570382587e-05
2.028543232e-05
5.653021018e-05
0.0001025414728
0.0005628545006
0.0005628545006
0.0004479166967
0.001046637689
0.001046637689
9.258710549e-06
0.001046637689
2.467253856e-09
1.490118617e-09
2.467253856e-09
1.219302572e-09
1.042344013e-09
0.0002540965343
1.140643643e-08
1.510238161e-05
0.0005018956543
2.467253856e-09
2.746520564e-09
2.13496167e-10
1.325982824e-10
6.482107713e-11
5.03511781e-11
9.25332906e-11
5.393301442e-05
2.48932785e-09
0.0001813133548
4.91067313e-08
3.99500471e-08
1.947758272e-08
9.895198151e-09
5.46059744e-09
7.34793754e-10
1.931562379e-09
8.436889701e-10
3.826873305e-10
4.12464641e-10
2.257184065e-10
1.01631309e-10
3.707569965e-11
7.053651042e-11
1.123596501e-10
)
;
    }
}


// ************************************************************************* //
