/*--------------------------------*- C++ -*----------------------------------*\
  =========                 |
  \\      /  F ield         | OpenFOAM: The Open Source CFD Toolbox
   \\    /   O peration     | Website:  https://openfoam.org
    \\  /    A nd           | Version:  8
     \\/     M anipulation  |
\*---------------------------------------------------------------------------*/
FoamFile
{
    version     2.0;
    format      ascii;
    class       volScalarField;
    location    "0.5/wallFilmRegion";
    object      kappa;
}
// * * * * * * * * * * * * * * * * * * * * * * * * * * * * * * * * * * * * * //

dimensions      [1 1 -3 -1 0 0 0];

internalField   nonuniform List<scalar> 
1342
(
0.608809985
0.6088100191
0.6088099913
0.6088100225
0.608810036
0.6088100015
0.608810002
0.6088100036
0.6088100081
0.6088100258
0.6088100336
0.6088100756
0.6088102135
0.6088106667
0.6088112191
0.6088109847
0.6088100043
0.6088100019
0.6088100019
0.6088100028
0.6088100064
0.6088100118
0.6088100109
0.6088100081
0.6088100069
0.6088100033
0.608809995
0.6088099894
0.6088099846
0.6088099632
0.6088100263
0.6088100552
0.6088100009
0.6088100015
0.6088100028
0.6088100057
0.6088100147
0.6088100417
0.6088101217
0.6088103862
0.6088111121
0.6088116808
0.6088114108
0.6088100054
0.6088100033
0.6088100035
0.6088100051
0.6088100121
0.6088100161
0.6088100107
0.6088100067
0.6088100053
0.6088100024
0.6088100152
0.6088100077
0.6088100008
0.6088099954
0.6088099652
0.6088100348
0.6088100359
0.6088100006
0.6088100016
0.6088100031
0.608810006
0.6088100136
0.6088100396
0.6088101258
0.6088104137
0.6088111074
0.6088116939
0.6088115342
0.6088100089
0.608810006
0.6088100065
0.6088100097
0.6088100237
0.6088100242
0.6088100125
0.608810007
0.6088100049
0.6088100026
0.6088100211
0.6088100158
0.6088100098
0.6088100013
0.6088099845
0.6088100222
0.6088100146
0.6088100006
0.6088101232
0.6088100597
0.6088100269
0.6088100528
0.6088101491
0.6088106659
0.608811631
0.6088119828
0.60881186
0.6088117405
0.608810026
0.6088100131
0.6088100139
0.6088100216
0.6088100483
0.6088100326
0.608810015
0.608810008
0.6088100052
0.6088100028
0.6088100042
0.6088099871
0.6088099825
0.6088100042
0.6088100013
0.6088100017
0.6088100016
0.6088100004
0.6088100005
0.6088100005
0.6088100006
0.6088100008
0.6088100011
0.6088100015
0.6088100024
0.6088100048
0.6088100131
0.6088100468
0.6088101085
0.6088100384
0.6088100376
0.6088100549
0.6088100796
0.6088100388
0.6088100177
0.6088100094
0.6088100059
0.6088100029
0.6088123287
0.6088101057
0.6088099989
0.6088099968
0.6088100077
0.6088100067
0.6088100046
0.608810002
0.6088100003
0.6088100006
0.6088100005
0.6088100006
0.608810001
0.6088100014
0.6088100021
0.6088100037
0.6088100087
0.6088100267
0.6088100952
0.608810284
0.6088101574
0.6088101484
0.6088101547
0.6088100807
0.6088100421
0.6088100213
0.6088100114
0.6088100069
0.6088100029
0.6088100271
0.6088100051
0.608810019
0.6088099943
0.6088100077
0.608810013
0.6088100237
0.6088100067
0.6088100004
0.608810001
0.6088100011
0.6088100012
0.6088100017
0.6088100025
0.6088100039
0.6088100079
0.6088100214
0.6088100704
0.6088102346
0.6088105679
0.6088100036
0.6088100045
0.6088100079
0.608810015
0.608810026
0.6088100243
0.6088100148
0.6088100089
0.6088100029
0.6088100122
0.6088100012
0.6088099994
0.6088100048
0.6088100195
0.6088100165
0.6088100128
0.6088100135
0.6088100003
0.6088100009
0.6088100016
0.6088100026
0.6088100039
0.6088100063
0.6088100104
0.6088100231
0.6088100647
0.6088102116
0.6088105574
0.6088107007
0.6088100032
0.6088100033
0.6088100093
0.6088100224
0.6088100209
0.6088100123
0.6088100078
0.6088100054
0.6088100025
0.6088100091
0.6088100142
0.6088100569
0.6088100556
0.6088100113
0.6088100037
0.6088100011
0.6088100006
0.6088100004
0.6088100002
0.6088100003
0.6088100005
0.6088100007
0.6088100011
0.6088100017
0.6088100036
0.6088100166
0.6088101498
0.6088100097
0.6088100818
0.608810004
0.6088100021
0.6088100277
0.6088100242
0.6088100141
0.6088100086
0.6088100057
0.6088100041
0.6088100023
0.6088100155
0.6088100677
0.608814435
0.6088146989
0.6088100332
0.6088100384
0.6088100502
0.6088100677
0.6088100163
0.6088100003
0.608810001
0.6088100017
0.6088100022
0.608810003
0.6088100046
0.6088100121
0.6088100665
0.6088104382
0.6088100041
0.6088100139
0.6088100065
0.608810002
0.6088100017
0.6088100021
0.6088100032
0.6088100044
0.6088100042
0.6088100034
0.6088100022
0.6088100662
0.6088141196
0.6088147672
0.6088146694
0.6088100259
0.608810045
0.6088100685
0.6088100956
0.608810021
0.6088100004
0.608810002
0.6088100044
0.6088100069
0.6088100115
0.6088100259
0.6088100885
0.6088102245
0.6088101209
0.6088100023
0.6088100072
0.608810001
0.6088100005
0.6088100004
0.6088100005
0.6088100007
0.6088100009
0.6088100012
0.6088100015
0.6088100022
0.6088099976
0.6088100102
0.60881111
0.6088102951
0.6088100191
0.608810069
0.6088101072
0.6088101608
0.6088100318
0.6088100006
0.6088100025
0.6088100076
0.6088100189
0.6088100408
0.6088100651
0.6088100561
0.6088100301
0.6088100173
0.6088100013
0.6088100049
0.6088100051
0.6088100029
0.6088100017
0.6088100013
0.6088100012
0.6088100013
0.6088100015
0.6088100017
0.6088100024
0.6088099946
0.6088099963
0.6088100254
0.6088100217
0.6088100082
0.6088100137
0.6088100288
0.6088100535
0.6088100114
0.6088100008
0.6088100026
0.6088100056
0.6088100091
0.6088100115
0.6088100131
0.6088100063
0.6088100014
0.6088100005
0.6088100001
0.6088100004
0.6088100012
0.6088100021
0.608810002
0.6088100019
0.6088100019
0.6088100021
0.6088100022
0.6088100023
0.6088100027
0.6088099946
0.6088099982
0.6088100211
0.6088100106
0.6088100065
0.6088100066
0.6088100128
0.6088100239
0.6088100061
0.6088100012
0.6088100023
0.608810003
0.6088100037
0.6088100044
0.6088100052
0.6088100056
0.608810005
0.6088100046
0.6088100005
0.6088100011
0.6088100023
0.6088100026
0.6088100024
0.6088100025
0.6088100028
0.608810003
0.6088100031
0.6088100031
0.608810003
0.6088099753
0.6088100013
0.6088100469
0.6088100325
0.6088100087
0.6088100053
0.6088100088
0.6088100148
0.6088100042
0.6088100017
0.6088100018
0.6088100019
0.6088100022
0.6088100025
0.6088100031
0.6088100037
0.6088100037
0.608810004
0.6088100011
0.6088100022
0.6088100033
0.6088100028
0.6088100028
0.6088100032
0.6088100036
0.6088100039
0.6088100039
0.6088100038
0.6088100032
0.6088099801
0.6088100074
0.6088101083
0.6088101559
0.6088100189
0.608810006
0.6088100082
0.6088100119
0.6088100036
0.6088100018
0.6088100015
0.6088100014
0.6088100015
0.6088100017
0.6088100022
0.6088100028
0.6088100034
0.6088100043
0.6088100021
0.6088100043
0.6088100038
0.6088100032
0.6088100033
0.6088100039
0.6088100045
0.6088100046
0.6088100045
0.6088100043
0.6088100034
0.6088099885
0.6088100171
0.6088102202
0.6088105376
0.6088100553
0.6088100084
0.6088100101
0.6088100124
0.6088100036
0.6088100018
0.6088100015
0.6088100013
0.6088100015
0.608810002
0.6088100026
0.6088100032
0.6088100041
0.6088100052
0.608810005
0.6088100071
0.6088100046
0.6088100039
0.6088100042
0.608810005
0.6088100055
0.6088100054
0.6088100051
0.6088100049
0.6088100037
0.6088100013
0.6088100351
0.6088103849
0.6088114357
0.6088101651
0.6088100139
0.6088100146
0.6088100162
0.6088100043
0.6088100021
0.6088100017
0.6088100015
0.6088100017
0.6088100028
0.6088100044
0.6088100059
0.608810007
0.608810008
0.6088100087
0.6088100093
0.6088100063
0.6088100055
0.6088100059
0.6088100068
0.608810007
0.6088100064
0.6088100059
0.6088100058
0.608810004
0.6088100125
0.6088100399
0.6088100858
0.6088101331
0.608810172
0.6088100328
0.6088100275
0.608810027
0.6088100057
0.6088100026
0.608810002
0.6088100019
0.6088100026
0.6088100039
0.6088100062
0.6088100087
0.6088100109
0.6088100128
0.6088100143
0.608810015
0.608810011
0.6088100085
0.608810009
0.6088100095
0.6088100088
0.6088100078
0.6088100072
0.608810007
0.6088100041
0.6088099983
0.6088100016
0.6088100143
0.6088100435
0.60881007
0.608810042
0.6088100302
0.608810026
0.6088100019
0.6088100016
0.608810002
0.6088100022
0.6088100028
0.6088100032
0.6088100029
0.6088100027
0.6088100028
0.6088100031
0.6088100039
0.6088100054
0.6088100072
0.6088100081
0.6088100086
0.6088100086
0.6088100083
0.6088100078
0.6088100076
0.6088100076
0.608810004
0.6088100004
0.6088100045
0.6088100176
0.6088100271
0.608810019
0.6088100136
0.608810012
0.6088100125
0.608810002
0.6088100017
0.6088100018
0.6088100025
0.6088100028
0.6088100023
0.6088100018
0.6088100018
0.6088100019
0.6088100022
0.6088100027
0.6088100035
0.6088100043
0.608810005
0.6088100055
0.6088100057
0.6088100059
0.6088100061
0.6088100063
0.6088100066
0.6088100038
0.6088100003
0.608810004
0.6088100146
0.6088100102
0.6088100056
0.6088100051
0.6088100058
0.6088100075
0.6088100024
0.6088100021
0.608810002
0.6088100028
0.6088100025
0.6088100018
0.6088100015
0.6088100015
0.6088100016
0.6088100019
0.6088100023
0.6088100028
0.6088100032
0.6088100035
0.6088100038
0.608810004
0.6088100043
0.6088100046
0.608810005
0.6088100055
0.6088100035
0.60881
0.6088100001
0.6088100003
0.6088100008
0.6088100022
0.6088100039
0.6088100053
0.6088100069
0.6088100033
0.6088100033
0.6088100026
0.6088100027
0.6088100021
0.6088100015
0.6088100014
0.6088100015
0.6088100016
0.6088100018
0.6088100022
0.6088100025
0.6088100027
0.6088100029
0.608810003
0.6088100032
0.6088100035
0.6088100039
0.6088100043
0.6088100048
0.6088100032
0.60881
0.6088100002
0.6088100005
0.6088100014
0.6088100032
0.6088100047
0.6088100062
0.6088100079
0.6088100055
0.6088100048
0.6088100035
0.6088100026
0.6088100019
0.6088100014
0.6088100014
0.6088100015
0.6088100017
0.6088100019
0.6088100021
0.6088100023
0.6088100025
0.6088100026
0.6088100027
0.6088100029
0.6088100032
0.6088100036
0.608810004
0.6088100045
0.608810003
0.6088100001
0.6088100004
0.6088100012
0.608810003
0.6088100048
0.6088099992
0.6088100031
0.6088100091
0.6088100097
0.6088100061
0.608810004
0.6088100025
0.6088100017
0.6088100014
0.6088100015
0.6088100017
0.6088100019
0.6088100021
0.6088100022
0.6088100023
0.6088100024
0.6088100025
0.6088100027
0.6088100029
0.6088100032
0.6088100036
0.608810004
0.6088100044
0.6088100029
0.6088100003
0.6088100011
0.6088100028
0.6088100045
0.6088100056
0.6088100016
0.6088100062
0.6088100108
0.6088100125
0.6088100071
0.6088100043
0.6088100024
0.6088100017
0.6088100015
0.6088100017
0.6088100019
0.6088100021
0.6088100023
0.6088100023
0.6088100023
0.6088100024
0.6088100025
0.6088100027
0.608810003
0.6088100033
0.6088100037
0.6088100041
0.6088100044
0.6088100028
0.6088100007
0.6088100023
0.608810004
0.6088100048
0.6088100058
0.6088100052
0.6088100082
0.6088100101
0.6088100109
0.6088100073
0.6088100046
0.6088100024
0.6088100017
0.6088100017
0.6088100019
0.6088100022
0.6088100024
0.6088100024
0.6088100024
0.6088100024
0.6088100025
0.6088100026
0.6088100029
0.6088100032
0.6088100036
0.608810004
0.6088100043
0.6088100045
0.6088100028
0.6088100019
0.6088100033
0.6088100042
0.6088100049
0.6088100058
0.6088100066
0.6088100074
0.6088100074
0.6088100077
0.6088100064
0.6088100047
0.6088100024
0.6088100019
0.6088100019
0.6088100022
0.6088100026
0.6088100027
0.6088100026
0.6088100025
0.6088100024
0.6088100026
0.6088100028
0.6088100031
0.6088100034
0.6088100038
0.6088100041
0.6088100043
0.6088100044
0.608810003
0.6088100031
0.6088100036
0.6088100044
0.608810005
0.6088100058
0.6088100063
0.6088100057
0.6088100051
0.6088100052
0.6088100052
0.6088100046
0.6088100025
0.6088100021
0.6088100021
0.6088100026
0.6088100029
0.6088100029
0.6088100027
0.6088100025
0.6088100025
0.6088100027
0.608810003
0.6088100033
0.6088100036
0.608810004
0.6088100042
0.6088100043
0.6088100042
0.6088100032
0.6088100021
0.6088100019
0.6088100037
0.6088100019
0.6088100016
0.6088100016
0.6088100016
0.6088100018
0.6088100021
0.6088100024
0.6088100026
0.6088100026
0.6088100027
0.6088100029
0.6088100031
0.6088100031
0.6088100031
0.608810003
0.6088100029
0.6088100029
0.608810003
0.6088100031
0.6088100032
0.6088100032
0.6088100033
0.6088100034
0.6088100033
0.6088100027
0.6088100021
0.6088099832
0.6088099614
0.6088099967
0.6088099557
0.6088099974
0.6088099526
0.6088095853
0.6088094572
0.6088099991
0.6088099996
0.6088087036
0.608808524
0.6088099998
0.6088099998
0.6088085653
0.6088084416
0.6088099999
0.6088099999
0.6088085791
0.6088086025
0.6088099979
0.6088099336
0.608808406
0.6088083968
0.6088099961
0.6088099953
0.6088099962
0.6088099972
0.6088099972
0.6088099979
0.6088099981
0.6088099985
0.6088099992
0.608809998
0.6088099987
0.6088099984
0.6088099962
0.6088099977
0.6088099958
0.6088099956
0.6088099939
0.6088099933
0.6088099958
0.608809993
0.6088099929
0.6088099955
0.6088099929
0.6088099932
0.6088099926
0.6088099937
0.6088099935
0.608809982
0.6088099948
0.6088099936
0.6088099965
0.6088099964
0.6088099967
0.6088099951
0.6088099958
0.6088099956
0.608809997
0.6088099976
0.608809997
0.6088099962
0.6088099984
0.6088099992
0.6088099992
0.6088099994
0.6088099969
0.6088099972
0.6088099971
0.6088099997
0.6088099991
0.6088099996
0.6088099988
0.6088099975
0.6088099978
0.6088099978
0.6088099947
0.6088099961
0.6088099956
0.6088099982
0.6088099969
0.6088099972
0.6088099972
0.6088099954
0.6088099919
0.6088099938
0.6088099931
0.6088099963
0.6088099968
0.6088099972
0.6088099973
0.6088099971
0.6088099956
0.6088099953
0.6088099931
0.6088099969
0.6088099971
0.6088099961
0.6088099867
0.6088099858
0.6088099793
0.6088099956
0.6088099969
0.6088099955
0.6088099809
0.6088099843
0.6088099822
0.6088099955
0.6088099965
0.6088099953
0.6088099831
0.6088099868
0.6088099845
0.6088099946
0.6088099956
0.6088099935
0.6088099863
0.608809989
0.6088099872
0.6088099924
0.6088099943
0.6088099914
0.6088099889
0.6088099899
0.608809993
0.6088099907
0.6088099903
0.6088099985
0.6088099978
0.6088099988
0.6088095036
0.6088099987
0.6088094512
0.6088091949
0.608809133
0.6088090332
0.6088089392
0.6088099982
0.6088099978
0.6088099984
0.6088099993
0.608809999
0.6088099994
0.6088099984
0.6088099987
0.6088099983
0.6088099955
0.6088099975
0.6088099953
0.6088099923
0.6088099928
0.6088099914
0.6088099919
0.6088099907
0.6088099915
0.6088099934
0.6088099928
0.608809994
0.6088099948
0.608809995
0.6088099954
0.6088099992
0.6088094014
0.608808891
0.6088099987
0.60880878
0.608808689
0.6088099987
0.6088099984
0.6088099989
0.6088099994
0.6088099993
0.6088099994
0.6088099983
0.6088099986
0.6088099983
0.6088099952
0.6088099974
0.6088099951
0.6088099906
0.6088099922
0.6088099901
0.6088099918
0.6088099898
0.6088099928
0.6088099948
0.6088099946
0.6088099956
0.608809996
0.6088099963
0.6088099965
0.6088099996
0.6088099994
0.6088099997
0.6088092708
0.6088099997
0.6088092516
0.6088086073
0.6088099994
0.6088099995
0.6088099993
0.6088099981
0.6088099986
0.608809996
0.6088099945
0.6088099947
0.6088099926
0.6088099897
0.608809991
0.6088099894
0.6088099941
0.6088099914
0.6088099956
0.6088099964
0.6088099964
0.608809997
0.6088099999
0.6088099998
0.6088092445
0.6088099999
0.6088092942
0.6088084964
0.6088085456
0.608809993
0.6088099977
0.6088099934
0.6088099917
0.608809993
0.6088099928
0.6088099894
0.6088099917
0.6088099902
0.6088099968
0.6088099962
0.6088099978
0.6088099996
0.6088099941
0.6088099969
0.6088099971
0.6088099832
0.608809995
0.6088099805
0.6088096899
0.6088099793
0.6088095821
0.6088099971
0.6088099972
0.6088099979
0.6088099944
0.6088099972
0.6088099972
0.6088099965
0.6088099982
0.6088099972
0.6088099912
0.6088099974
0.608809997
0.608809984
0.6088099955
0.6088099967
0.6088099853
0.6088099958
0.6088099961
0.6088099882
0.6088099956
0.608809995
0.6088099891
0.6088099926
0.6088099933
0.6088099881
0.6088099851
0.6088099878
0.6088099959
0.6088099974
0.6088099982
0.6088092874
0.6088099975
0.6088099988
0.6088099987
0.6088099975
0.6088099933
0.6088099918
0.6088099925
0.6088099944
0.6088099955
0.608809998
0.6088099983
0.6088099991
0.6088099993
0.6088089927
0.608808881
0.6088087974
0.6088099981
0.6088099991
0.6088099986
0.6088099975
0.6088099925
0.60880999
0.6088099936
0.6088099957
0.6088099961
0.6088099988
0.6088099994
0.6088099986
0.6088099971
0.6088099918
0.6088099903
0.6088099956
0.6088099968
0.6088099967
0.6088099977
0.6088099978
0.6088099484
0.6088091773
0.6088090266
0.608808966
0.6088099996
0.6088099984
0.6088099921
0.6088099909
0.6088099933
0.6088099972
0.6088099975
0.6088099981
0.6088099453
0.6088084373
0.6088099958
0.6088099999
0.6088099998
0.6088099104
0.6088086229
0.6088087054
0.6088087012
0.6088099963
0.6088099998
0.60880988
0.6088086516
0.6088087466
0.6088099954
0.6088099995
0.6088097936
0.6088085408
0.6088086503
0.608809998
0.6088099969
0.6088098898
0.6088084731
0.6088085195
0.6088099956
0.6088099971
0.6088099969
0.6088099967
0.6088099969
0.608809998
0.608809981
0.6088097328
0.608809992
0.6088099871
0.6088099974
0.6088095649
0.6088099799
0.6088096378
0.6088099859
0.6088099846
0.6088094257
0.6088093429
0.6088099834
0.6088092607
0.608809988
0.6088099824
0.6088099917
0.6088099891
0.608809996
0.6088099902
0.6088099911
0.6088099564
0.6088099906
0.6088099971
0.6088099907
0.6088099543
0.6088097505
0.6088096807
0.6088096328
0.608809579
0.6088099994
0.6088093525
0.6088099976
0.6088099906
0.6088099907
0.6088095958
0.6088096786
0.608809951
0.6088094775
0.6088095249
0.6088094046
0.6088093241
0.6088086523
0.6088085632
0.6088084876
0.6088099998
0.6088099982
0.6088099902
0.6088099892
0.6088099475
0.6088092452
0.608808663
0.6088085687
0.6088088142
0.6088084878
0.6088099904
0.6088093693
0.6088090737
0.6088089203
0.6088085082
0.6088084853
0.6088099998
0.6088093278
0.6088099999
0.6088092871
0.6088085811
0.60880864
0.6088086623
0.6088099854
0.608809998
0.6088099865
0.6088086346
0.6088099427
0.6088099379
0.6088087122
0.6088086161
0.6088083596
0.6088083326
0.6088083459
0.6088083321
0.6088099881
0.6088089345
0.608808381
0.6088099888
0.6088099998
0.6088099857
0.6088086507
0.6088098882
0.608808679
0.6088086596
0.6088086647
0.608808707
0.6088087498
0.6088099823
0.6088099997
0.6088099755
0.608808642
0.6088098557
0.6088085434
0.6088087012
0.608808583
0.6088086435
0.6088086959
0.6088099639
0.6088099958
0.6088099511
0.6088085107
0.6088096998
0.6088085201
0.6088085995
0.6088085043
0.6088085468
0.6088085915
0.6088099748
0.6088099974
0.6088099804
0.6088085989
0.6088099131
0.6088086124
0.6088084838
0.6088084297
0.6088084193
0.6088083863
0.6088084439
)
;

boundaryField
{
    walls
    {
        type            zeroGradient;
    }
    wallFilmFace_top
    {
        type            zeroGradient;
    }
    region0_to_wallFilmRegion_wallFilmFace
    {
        type            zeroGradient;
    }
    mirrorFace_top
    {
        type            zeroGradient;
    }
    region0_to_wallFilmRegion_mirrorFace
    {
        type            zeroGradient;
    }
    procBoundary2to0
    {
        type            processor;
        value           nonuniform List<scalar> 
26
(
0.6088099803
0.6088100379
0.6088099873
0.608810022
0.6088100226
0.6088100026
0.6088100031
0.6088100065
0.6088100199
0.6088100844
0.6088100202
0.6088100345
0.6088100869
0.6088100223
0.6088101257
0.608810211
0.6088100017
0.608810001
0.608810001
0.6088100013
0.6088100024
0.608810006
0.6088100104
0.6088100109
0.6088100105
0.6088100034
)
;
    }
    procBoundary2to1
    {
        type            processor;
        value           nonuniform List<scalar> 
33
(
0.6088124971
0.6088124971
0.6088100012
0.6088100012
0.6088100219
0.608810024
0.6088100475
0.6088100475
0.6088122674
0.6088100182
0.6088100062
0.6088100037
0.6088100061
0.6088100049
0.608809996
0.6088099955
0.6088099961
0.6088099938
0.6088099882
0.6088099895
0.6088099971
0.6088100059
0.6088100161
0.608810023
0.6088100228
0.6088100001
0.6088100002
0.6088100005
0.6088100012
0.6088100028
0.6088100039
0.6088100031
0.6088100015
)
;
    }
    procBoundary2to3
    {
        type            processor;
        value           nonuniform List<scalar> 
64
(
0.6088099193
0.6088098085
0.6088097582
0.6088096799
0.6088093837
0.6088084537
0.6088083993
0.6088086362
0.6088084154
0.6088099918
0.6088099901
0.6088099963
0.608809996
0.6088099901
0.6088099788
0.6088099753
0.6088099757
0.6088099782
0.6088099796
0.6088099801
0.6088099814
0.6088099842
0.6088099848
0.6088099874
0.6088099874
0.6088099872
0.6088099878
0.6088099878
0.6088099899
0.6088099878
0.608809105
0.6088088542
0.608809105
0.6088087146
0.6088086102
0.6088099788
0.6088095247
0.6088099918
0.6088099932
0.608809105
0.608808857
0.6088087602
0.6088087426
0.608808786
0.6088086932
0.6088085593
0.6088099822
0.6088091823
0.6088099917
0.6088098501
0.6088098085
0.6088097214
0.6088095196
0.6088092384
0.6088084255
0.6088087113
0.6088084179
0.6088084727
0.60880832
0.6088083381
0.6088087894
0.6088087405
0.608808633
0.6088084776
)
;
    }
}


// ************************************************************************* //
