/*--------------------------------*- C++ -*----------------------------------*\
  =========                 |
  \\      /  F ield         | OpenFOAM: The Open Source CFD Toolbox
   \\    /   O peration     | Website:  https://openfoam.org
    \\  /    A nd           | Version:  8
     \\/     M anipulation  |
\*---------------------------------------------------------------------------*/
FoamFile
{
    version     2.0;
    format      ascii;
    class       surfaceScalarField;
    location    "0.5/wallFilmRegion";
    object      phi;
}
// * * * * * * * * * * * * * * * * * * * * * * * * * * * * * * * * * * * * * //

dimensions      [1 0 -1 0 0 0 0];

internalField   nonuniform List<scalar> 
2598
(
-7.269314427e-07
5.560052715e-06
1.312194797e-08
-2.289726936e-06
-1.341426919e-05
0.0001532201372
-4.582324982e-06
-2.522614277e-05
3.85658755e-06
-3.91615812e-06
0.000203436491
-0.0004630398242
0.0002552395755
-0.0003982723206
0.000144967971
-0.0001182160881
3.941219599e-05
2.868393596e-05
8.948557511e-06
8.840118207e-06
1.017193499e-05
8.028149053e-06
3.965001058e-06
-1.186515489e-06
1.436595445e-06
-4.469042772e-07
5.784028667e-07
-1.757945561e-07
4.462276759e-07
-1.370627912e-07
7.847936447e-07
-1.941088959e-07
0.0001576488358
0.0001478695298
0.0003740636271
0.0003108680576
0.0004883835472
0.000357307896
0.0004505283284
0.0002752032729
0.0003566676685
3.990131808e-05
0.0002641387965
-6.237135002e-05
0.0003010887932
-0.0001388262596
0.0004316591669
-0.0002580751557
0.0005798787114
-0.0003471682669
-0.001008025542
-2.346977471e-05
1.194598006e-06
-1.06867474e-05
1.997853257e-06
-3.354073815e-07
4.120596626e-06
-4.686196943e-06
0.000201667349
-3.113768009e-06
-8.314346017e-06
1.138812936e-06
-4.251072818e-06
0.0002760000261
-0.0005192807149
0.0002378798466
-0.000284267175
0.0001667338393
-0.0001019416554
6.728368474e-05
3.7392188e-05
1.896417735e-05
2.137224539e-05
7.203361297e-06
6.785021385e-06
2.171150782e-06
-2.095795233e-07
6.991396152e-07
-2.386991308e-07
2.846468676e-07
-1.073145201e-07
2.372466309e-07
-8.302096856e-08
3.749141524e-07
-1.070781861e-07
0.0001624729798
0.0001467338083
0.0003416796197
0.0002991673303
0.0003918487315
0.0003023553541
0.0002969500263
0.0001866314629
0.0001632328937
-2.421981129e-05
0.0001186499457
-4.528379212e-05
0.000179110997
-9.371983354e-05
0.0003140026617
-0.0001781538824
0.0004741128003
-0.0002580692893
-0.0001350483903
-4.477536241e-05
1.668082626e-06
-4.475165236e-05
1.518671392e-06
-3.471374418e-05
7.416365511e-06
1.079746307e-05
9.826589868e-05
-7.122676286e-06
0.0001762168694
-7.401797584e-06
-4.71196081e-06
1.435056232e-07
-8.498991634e-06
0.0004089010397
-0.0006057798268
0.0001841186834
-1.975145311e-06
0.0001023327444
-1.669397684e-06
6.522556894e-05
3.380777829e-05
2.668174526e-05
2.282048561e-05
9.082710534e-06
7.317904196e-06
2.630090457e-06
6.308106654e-07
7.624828554e-07
3.830445034e-08
2.805742246e-07
-2.882094971e-09
2.058403548e-07
-7.69047029e-09
2.758625432e-07
-9.871824135e-09
0.0001234839971
6.21280682e-05
0.0002203642283
0.0001766954376
0.0002150067432
0.0001627749548
0.000137462732
9.232466235e-05
5.675651582e-05
-1.626244585e-05
5.282919956e-05
-2.885940717e-05
0.0001055783753
-6.221429999e-05
0.0002069732115
-0.0001176591811
0.0003424674786
-0.0001742681451
0.0001209260824
-9.519735363e-05
6.274355901e-06
-0.0001199771648
1.39019102e-05
-0.0001108718608
1.477133686e-05
-5.902076037e-05
8.34297433e-05
-1.831244943e-05
5.92304622e-05
-1.844960439e-05
5.162795489e-06
-1.677979794e-05
1.291506387e-07
-1.983916121e-06
-6.644689487e-05
-8.905478956e-06
2.62869525e-06
-1.790389937e-05
3.159524227e-06
-5.91946659e-06
8.060576428e-06
-9.725987839e-07
3.68886764e-06
5.372322204e-07
1.028763699e-06
3.04453553e-07
1.135340408e-07
1.563600727e-07
4.611289339e-08
1.44978534e-07
4.098526594e-08
1.808160252e-07
4.768591473e-08
2.350765151e-07
5.569534991e-08
3.195254684e-05
8.216790059e-06
7.779444341e-05
6.62152892e-05
7.653802656e-05
6.602452494e-05
4.848352545e-05
3.991794025e-05
2.120534078e-05
-8.593163092e-06
3.224312266e-05
-1.979302446e-05
7.396536927e-05
-4.250560476e-05
0.0001469510356
-7.815593839e-05
0.0002471456298
-0.0001148685321
0.0003323612552
-0.0002618288351
4.448005263e-06
-0.0009998258596
6.241009916e-05
-0.0007383406883
-0.0001199884741
-0.0004765041923
0.0001004245531
-0.0002885312755
0.0001574836528
-0.0001390464885
0.0001126013328
2.102749714e-06
8.543963457e-05
0.0004338084227
0.0002892269607
0.0009375672169
0.0001644800335
0.00107574913
0.0004121152764
0.00108691359
0.0004074988268
0.001041100573
0.0003358808206
0.0009264593877
0.0002552858183
0.0006924871514
0.000185982068
0.0003764442876
0.0001242725678
0.0001407972552
6.066721216e-05
4.312548577e-05
1.860573408e-05
1.256457553e-05
4.804113951e-06
6.460459707e-06
2.408837444e-06
2.201425997e-05
2.138904656e-05
2.407538265e-05
2.443998914e-05
1.706985995e-05
1.655982015e-05
1.196457551e-05
-7.105763661e-06
2.59057747e-05
-1.476005768e-05
5.942961206e-05
-2.772230641e-05
0.0001144231898
-4.844924085e-05
0.0001892621232
-6.962682353e-05
0.000704831892
-5.701623904e-12
1.022855966e-09
-1.763115102e-07
-2.353527527e-06
2.852575617e-07
5.616399065e-09
-0.0003060122932
-0.0001806732208
-0.0006803130978
-0.0001456870592
-0.0006219184906
0.000256708605
-0.0002046399463
-2.590705935e-05
4.376852807e-06
0.0001186582806
0.0004737716298
0.0005952491383
0.002090807952
-0.003503884246
0.001582457484
-7.960408491e-05
0.001215969825
0.0003931205449
0.0009863548719
0.0003936535624
0.0007008971949
0.0002879807626
0.0003743361303
0.0001953504305
0.0001595312756
0.0001051940208
5.947761793e-05
4.032932928e-05
1.997271595e-05
1.192920182e-05
6.29477464e-06
3.309573756e-06
2.435062508e-06
1.214996043e-06
9.51819698e-06
-4.094314149e-06
1.19062926e-05
1.785421279e-06
9.855542786e-06
3.356502598e-06
1.403702161e-05
-2.000590396e-05
2.552323504e-05
-1.576410545e-05
4.977702622e-05
-1.570730419e-05
8.909818047e-05
-2.279712496e-05
0.0001420444
-3.098560607e-05
0.001198433196
9.337136312e-06
5.309799313e-06
9.153124633e-06
-3.398404202e-05
6.976659395e-07
-2.1915991e-05
1.033513333e-05
-2.36640661e-05
-9.248552122e-05
-5.649051918e-05
-1.697533227e-05
-3.30930315e-05
8.193132447e-06
-6.946476354e-05
0.0002545454204
1.354382142e-05
0.0007973557965
0.001720922808
0.003673668886
-0.004303861408
0.002545671225
-0.001855336531
0.001301566471
-0.0001873935658
0.0006210734605
0.0002610701713
0.0002368823385
0.0001938796788
9.619117282e-05
0.0001054718291
4.531436267e-05
4.721614188e-05
1.911777029e-05
1.699046373e-05
6.891301216e-06
5.270200202e-06
2.42886241e-06
1.628663389e-06
1.051885759e-06
8.452304893e-07
0.0009501449149
-0.0007486407448
0.0007269606622
-0.001011220426
0.0002536508734
-2.495444614e-05
9.119435485e-05
1.357817446e-05
4.367606629e-05
1.336477772e-06
4.079752075e-05
-1.657660985e-07
5.809780675e-05
-7.983339512e-07
8.511526948e-05
-9.22741828e-07
0.001815988262
0.0001053288928
3.259460695e-05
0.0002074804548
-1.109535594e-06
0.0001007475632
-5.494611e-07
7.084848467e-06
-3.517364856e-08
-4.423935755e-06
-9.601000589e-05
-2.791074997e-05
-7.989618949e-05
-5.191549053e-05
-3.747800543e-05
-1.076253295e-05
1.395757749e-05
0.001443347143
0.002638048874
0.002435611599
-0.0008786464266
0.001703151538
-0.0006888448501
0.0006166883242
-0.0001409172024
0.0001278929254
0.0001115676473
3.41645292e-05
4.976044054e-05
2.33851319e-05
2.595339638e-05
1.31044793e-05
1.35881874e-05
5.691320431e-06
6.111263928e-06
2.212886739e-06
2.055757055e-06
1.036414897e-06
1.242913772e-07
9.651601478e-07
8.642459779e-07
0.0004174738687
-0.0002770763383
0.0004141231445
-0.00114647506
7.289478938e-05
4.327079931e-05
2.818789634e-05
1.281405038e-05
3.041574278e-05
1.164258983e-05
5.393178762e-05
1.877686433e-05
8.701941856e-05
2.942639146e-05
0.0001263859531
3.896698947e-05
0.002958165247
0.0001138542366
4.592007773e-05
1.544952892e-05
6.669371268e-06
4.179491915e-09
2.463801956e-09
-3.998069154e-05
-5.293248676e-14
-0.0006478673468
-1.807874149e-05
-0.00168773692
-8.674315927e-06
-0.002371559518
-4.923136436e-06
-0.002582481268
-4.116357399e-06
0.0002310368589
-7.571943986e-06
0.002242183935
0.001905201502
0.003458658032
0.001552458036
0.004039543059
0.001187890703
0.00367412579
0.000850797704
0.002615133649
0.0005705733417
0.001225582512
0.0003810694889
0.0002531252042
0.0001869901295
2.808519024e-05
3.452106258e-05
3.288893523e-06
3.715921534e-06
0.0001503222822
-0.001746579534
1.129966934e-05
2.899322171e-06
0.0002146863678
-0.0001059445008
3.155698444e-05
-0.0002736974255
7.679547058e-06
2.758410887e-06
2.272760692e-05
1.414160878e-06
5.315900358e-05
8.790862002e-06
9.552553111e-05
3.192826429e-05
0.0001492431596
6.231056358e-05
0.0002170021424
8.376855435e-05
0.004362107319
6.896124669e-06
3.442871985e-06
2.019117497e-09
7.795478218e-10
-7.973388201e-18
-1.689006696e-23
4.61432233e-11
-5.485929751e-17
5.129687124e-06
-2.393365e-05
7.645057435e-06
-1.173009376e-05
8.685726815e-06
-7.709158517e-06
8.007041456e-06
-5.953864179e-06
4.134953047e-05
-2.503450634e-05
0.001872226184
0.003353838898
0.002310590825
0.002179300219
0.002018464124
0.001100923022
0.001405383478
0.0005626669275
0.0007058705789
0.0003161861637
0.0002056163692
0.0001660777613
4.120295876e-05
5.652983978e-05
7.258861617e-06
9.294649233e-06
1.251231611e-06
1.513336864e-06
0.0009754904965
-0.005856542524
0.0001292741931
-0.0002270397712
0.0001413420472
-4.908313306e-06
0.0003775982391
-5.880697516e-06
0.000667699519
2.304920652e-05
0.0004913097105
2.719220222e-05
0.0002782843297
5.485494414e-05
0.0002033442399
7.909477916e-05
0.000221386746
0.0001051460117
0.0002884726912
0.0001264949875
0.005731980987
5.948035677e-09
1.845941697e-06
-4.240105053e-24
3.984389426e-11
-1.787857556e-17
-3.199513027e-14
5.706208905e-11
-6.326883502e-10
3.949201386e-06
-2.013977387e-05
3.646001314e-06
-3.563631627e-06
3.455322094e-06
-2.638019253e-06
2.801680616e-06
-1.839324922e-06
1.639384075e-05
-8.384791672e-06
0.00136157346
0.003851438434
0.001248906707
0.00209053657
0.0007041600748
0.0006363702071
0.000236950384
0.0001954225312
5.821343836e-05
7.201352151e-05
1.856452541e-05
2.632228264e-05
7.036437767e-06
7.614538946e-06
3.643279383e-06
3.161037747e-06
1.671030176e-05
1.081846327e-05
0.001447333759
-0.006917847915
0.0002487187785
-0.002251055568
0.0003757686367
8.95283089e-05
0.0007857488727
0.0003426468169
0.001098424962
0.0004831714581
0.001271518775
0.0005229795623
0.001352017041
0.0005143549028
0.00135066066
0.0004991335033
0.001259585451
0.0004808101224
0.001078401716
0.0004428818585
0.007355281359
1.8790346e-05
8.997333446e-05
2.531041942e-07
3.806976314e-06
-1.584668485e-10
5.588975526e-09
-1.716961501e-06
1.381173787e-07
-3.321849771e-07
-7.402582871e-06
6.224734336e-07
4.345819839e-08
8.190026791e-07
-1.879330387e-07
7.944772013e-07
-5.004715642e-08
5.981406928e-06
2.091749072e-07
0.0009539682648
0.003572036077
0.0005659011881
0.001549301066
0.0001497684626
0.0002856511895
3.333321738e-05
5.666952349e-05
1.483218581e-05
1.866465226e-05
1.284868526e-05
1.038936382e-05
2.403090325e-05
1.106121941e-05
8.143911597e-05
2.440525447e-05
0.0002901961298
7.803457944e-05
0.003378093827
-0.003883631329
0.002351812766
-0.001165909458
0.001669074248
0.0004645913193
0.001622183937
0.0008822181547
0.001755761709
0.001064150148
0.001870371291
0.001055123809
0.001893043634
0.000951898989
0.001805229158
0.0008334677695
0.001602545538
0.0007394419035
0.001305423988
0.0006518058977
0.00899393068
-5.592222547e-05
0.0001174867893
-5.541132258e-06
7.542214829e-05
-1.913895925e-05
5.993439818e-06
-3.844026959e-05
-1.508964926e-06
-1.768559944e-05
2.149165528e-05
-7.676583671e-06
1.46780691e-05
-2.719340131e-06
6.747499093e-06
9.592910514e-08
2.909995903e-06
1.273538833e-05
1.667856997e-05
0.0006736820792
0.002721408929
0.0003596335862
0.0009288547521
0.0001492848865
0.0001911136924
0.0001043048377
8.842135252e-05
9.370748994e-05
6.549693899e-05
2.979976281e-05
6.291044485e-05
-0.001140639117
0.0001808824909
-0.002767323103
0.0005288486333
-0.0008685133569
0.0006546423208
0.01168304462
0.009802402625
0.01201787145
0.005578274954
0.008113078706
0.002987088685
0.004084160093
0.002118548811
0.002477775891
0.0018128633
0.002182241631
0.001566345138
0.002038034656
0.001293702366
0.001776584779
0.001033436633
0.001459914784
0.0008667671154
0.001192735213
0.0007764945391
0.01106172858
-3.677181175e-05
-7.712790492e-06
-1.530606847e-05
9.507462018e-05
-4.14074763e-05
1.371851033e-05
-8.122579208e-05
-6.462558963e-07
-4.833549811e-05
4.432263008e-06
-2.35444067e-05
5.017641754e-05
-8.343352888e-06
2.33937741e-05
3.457401398e-07
9.575128936e-06
3.48771375e-05
4.950157914e-05
0.0004811005164
0.001586316953
0.0002969267002
0.0005456737149
0.0002170136885
0.0002394975921
0.0002108703739
0.0001864402687
0.0002132805614
0.0001615173829
0.000217388929
0.0001461310357
0.000253451726
0.0001581342926
0.0004311727005
0.0001599407818
0.0008409396473
-0.0001199143493
0.006504626525
0.01096798933
0.004789329262
0.004525713564
0.002650592697
0.001889581087
0.002027397078
0.001839507284
0.002092348888
0.002015263644
0.002171270311
0.001835973609
0.001975977517
0.001443919405
0.001630023027
0.001119490388
0.001349823595
0.001000990836
0.001254281661
0.0009804246967
0.01224806819
-3.17856282e-05
6.564899459e-05
-5.133987854e-06
6.051178291e-05
-3.780118818e-06
6.452230233e-06
-1.321898579e-05
2.395837849e-06
-5.009299064e-05
2.073572963e-05
-3.332181705e-05
9.768411236e-05
-1.169626887e-05
4.140972988e-05
1.877860477e-06
1.77204779e-05
5.826131626e-05
8.795980412e-05
0.0003271439141
0.0007137299411
0.0002989923094
0.0004166615582
0.0003012441924
0.0003409152657
0.0003054406674
0.000309446433
0.0003130089802
0.0002713357689
0.0003356607515
0.0002492066296
0.0004901762533
0.0002534639009
0.0007880141984
9.099825401e-05
0.0007370012968
-0.000176573739
0.0035213477
0.007084757702
0.001786831954
0.001638572236
0.001113125542
0.001025679665
0.001458431357
0.001684715255
0.001831404821
0.001994857771
0.00191160823
0.001716528005
0.001746848672
0.001297778549
0.001543327585
0.001123779179
0.001475742808
0.001192586125
0.001557692783
0.001228973156
0.010846337
-1.937622512e-05
5.787647908e-05
-1.912332971e-06
3.813819079e-05
-5.525798146e-07
3.10101696e-06
-5.977875933e-07
9.647506808e-07
-1.29148133e-05
1.564518586e-05
-2.462566111e-05
0.0001167348707
-6.323962788e-06
5.274840317e-05
7.543347651e-06
2.634124333e-05
7.626129812e-05
0.0001240625478
0.000244696398
0.0003908091341
0.0003241971811
0.0004222964367
0.0004389069548
0.0004628452685
0.000552667366
0.0004462386941
0.0006046208452
0.000391921059
0.000613494266
0.0003584907462
0.0006447907049
0.0002960582347
0.0005497455483
6.082122575e-05
0.0003847770263
-0.0001407926399
0.001412867547
0.001469796152
0.0005147842017
-8.851871117e-06
0.0007077444901
0.0006482440362
0.001227935026
0.001450010565
0.001459173196
0.00160329374
0.001381673891
0.001197514576
0.001309037611
0.0008835962575
0.001392298339
0.0009241309651
0.0015424563
0.001152120302
0.00165769207
0.001152930112
0.007521236947
-1.459176096e-05
4.030167078e-05
-1.039742595e-06
2.261039076e-05
-1.644904523e-07
1.559076124e-06
-1.059250787e-07
3.472624744e-07
6.397541373e-07
6.140132952e-06
-3.331602378e-08
8.57785816e-05
1.176839754e-05
5.318736245e-05
1.72745267e-05
3.642276031e-05
8.597230902e-05
0.0001526535883
0.0002193792176
0.0003460084548
0.0003377002598
0.0004544924981
0.0008007497938
0.0005839813623
0.001747871127
0.0001519281504
0.002270880155
-0.000170757945
0.002011416096
-0.0001289017455
0.00129269348
-7.441972429e-05
0.0006298399152
-7.348194241e-05
0.0002900772219
-7.925658248e-05
0.0003055306001
-4.047403776e-05
0.0001764024776
-6.000064766e-05
0.0005791515555
0.0004018818149
0.0009712112246
0.0009921802344
0.0009922656334
0.000967302068
0.0008124783277
0.0006136804717
0.0007862643602
0.0004614789823
0.0009738924057
0.000562402896
0.0011648387
0.0007652621006
0.001231410303
0.00072299106
0.004436384416
-9.174758022e-06
2.562813358e-05
-5.292719954e-07
1.28478403e-05
-5.660093877e-08
8.850456463e-07
-2.352722848e-08
1.339288151e-07
6.243728288e-07
2.075279125e-06
1.684462888e-05
4.620282793e-05
2.112288998e-05
4.317859676e-05
2.187977703e-05
3.817064627e-05
8.524739816e-05
0.000166122697
0.0001988487278
0.0003515695738
0.0003108187245
0.000473756752
0.0005904420785
0.0004441875771
0.0006329666934
8.017055771e-05
0.0005550015943
-5.252080555e-05
0.0004711748353
-4.942344462e-05
0.0003182508527
-3.65873383e-05
0.0001824297598
-3.069069827e-05
0.0001099745414
-2.73587438e-05
8.756916957e-05
-2.208109105e-05
8.722686783e-05
-1.47411572e-05
0.0003339629755
0.0001074105262
0.000551073551
0.0004016904568
0.0005146929925
0.0003771802922
0.0003962856278
0.0002435725975
0.0004033037928
0.0002209990984
0.0005235826652
0.0002935065585
0.0006411619263
0.0003887372231
0.0006805548031
0.0003460489712
0.002755499919
8.968252315e-06
8.642939765e-06
9.945766817e-06
9.230238148e-06
5.580132212e-06
4.984439312e-06
3.329574553e-06
2.802341292e-06
2.707201201e-06
2.783288315e-06
1.594199677e-05
2.265276499e-05
1.922985328e-05
3.14904554e-05
2.065858235e-05
3.286379843e-05
0.0001020895754
0.000178105822
0.0002293487739
0.0003979564364
0.0003056338834
0.000560255854
0.0003480241817
0.0004126045987
0.000194596549
0.0001643495982
0.0001023569224
4.673644663e-05
7.067833236e-05
2.156538972e-05
5.444290367e-05
1.629448636e-05
4.091979273e-05
7.564588592e-06
3.136418974e-05
2.133540922e-06
2.777017084e-05
2.484005141e-06
3.032157724e-05
6.834580916e-06
7.963208787e-05
3.2783698e-05
0.0001791026968
0.0001085074143
0.0001944862083
0.0001216077387
0.0001843170541
0.0001115117978
0.0002161635347
0.0001286766553
0.0002806161985
0.000166739027
0.0003358627936
0.0002007977881
0.0003582484548
0.0001724782334
0.002203833112
0.0002196385811
-0.0006403102554
8.546297106e-05
5.530927012e-05
2.934566764e-05
3.215917992e-05
1.237135016e-05
1.174691935e-05
8.887598553e-06
8.788047142e-06
1.823629191e-05
2.06085056e-05
2.6938405e-05
3.896613418e-05
6.005152342e-06
7.093620981e-05
-0.0004456022919
0.002444679787
5.211523122e-05
0.001127173499
0.0002407520502
0.0006155011595
0.0002384524866
0.0003806242532
0.0001768715855
0.0001785922211
0.0001551713973
0.0001188938081
0.0002056371151
0.0001507768431
0.0002703401893
0.000209741516
0.0002653607758
0.0002156605311
0.0002001017414
0.0001656731579
0.0001367532028
0.0001064809646
0.0001049014866
7.102846064e-05
0.0001061349039
6.353045161e-05
0.0001388362856
7.918242742e-05
0.0001665282114
9.424316809e-05
0.0001918607395
0.0001097175513
0.0002250707437
0.0001310187828
0.0002581655508
0.0001520876404
0.0002763999615
0.0001629312115
0.000276411977
0.0001384549089
0.002290630748
0.0001938193286
-0.0009720039171
7.438013186e-05
6.471501347e-06
2.829912096e-05
3.59857315e-05
2.652196134e-05
2.270535344e-05
5.421406048e-05
3.784757763e-05
0.0001068261575
6.808355554e-05
0.000139324909
0.0001204865783
4.729013961e-05
0.0002130940141
-0.001158321355
0.003617758047
-0.0002904155946
0.001680525539
9.571695847e-05
0.0007597117124
0.0001401688029
0.0002525120034
0.0001603637039
0.00018696182
0.0002524245515
0.0002407133095
0.0004749076782
0.000435185739
0.0006698180108
0.0006342718495
0.0006345321104
0.000626864148
0.000459007611
0.00044587246
0.0003075453585
0.0002789099237
0.0002296779024
0.0001846542392
0.0002082494164
0.0001472325612
0.0002220392196
0.0001419778658
0.0002528916768
0.0001517684688
0.0002918891783
0.0001696583484
0.0003306943661
0.0001905267854
0.000354859154
0.0002054042956
0.000352413755
0.0002062698772
0.0003269036036
0.0001741217558
0.00273258402
0.0001498744051
6.695538798e-06
6.973340032e-05
6.538458397e-05
3.45662652e-05
5.024011854e-05
8.457519946e-05
8.525739628e-05
0.0003091980301
0.000242702772
0.0004836296292
0.0002476494627
0.0004049047142
0.0002660628372
0.0001100286261
0.0003469717058
-0.0006664361381
0.002032347488
-0.0004241555586
0.0007963449835
7.323046252e-06
0.000546599388
9.700240112e-05
0.0001806535569
0.0001775067102
0.0002415168908
0.0003992980289
0.0004537854245
0.0008032054202
0.000866077002
0.001029198648
0.001133398344
0.0008879477277
0.001004201575
0.0006143897721
0.0006680826989
0.0004196338059
0.0004237475075
0.0003311864565
0.0002990408886
0.0003111892618
0.0002487693023
0.0003292525249
0.0002364260508
0.0003681761723
0.0002433904728
0.0004167160935
0.0002605580743
0.0004608779463
0.0002796648666
0.0004811544283
0.0002894148417
0.0004632620206
0.0002810938218
0.0004128032176
0.0002345451539
0.003362447451
0.002692486343
0.007028073202
0.003405156031
0.003295332996
0.003070238057
0.001947109693
0.002316605125
0.001249837772
0.001363350486
0.0007483134194
0.000599134454
0.0003305037017
0.000302497766
0.0002150298466
0.0001056679863
0.0002619063601
-0.0001272513574
0.0007028024243
-0.0001586097105
0.0002729761778
1.830182656e-05
0.0002659563414
0.00010024012
0.0002117312709
0.0002246421638
0.0003565192713
0.0005598145363
0.0007565846949
0.001039232995
0.00131843123
0.001162057206
0.001490282931
0.0009054686476
0.001145066521
0.0006114914478
0.0007421730269
0.0004465016214
0.0004994590796
0.0003873688293
0.0003876095634
0.0003874862518
0.0003446816586
0.000418740766
0.0003346552979
0.0004667613059
0.0003414819176
0.0005205104163
0.0003567042754
0.0005638802923
0.0003709677945
0.0005753532121
0.0003717668815
0.00054111335
0.0003511114904
0.0004708981457
0.000287468879
0.00407641328
0.002085693249
0.008443770915
0.002559770023
0.003723201018
0.002217343675
0.002074159138
0.001482559933
0.001158706895
0.0006568585084
0.0005379590017
0.0002189843985
0.0001844447022
0.0001206892092
0.0001330736667
6.702583461e-05
0.000163059615
3.616467316e-05
0.0002433396486
9.84889447e-07
0.000181465419
5.864647396e-05
0.0001903257959
0.000131473529
0.0003094111843
0.000291492308
0.000530806774
0.0006999428049
0.001097524577
0.001122255981
0.001684938521
0.001079164333
0.001627980263
0.0007610932836
0.001108024936
0.0005276168804
0.0007205336238
0.0004269454026
0.0005301393626
0.0004091645284
0.0004531431325
0.0004328937832
0.0004271207666
0.0004768504199
0.0004233212465
0.0005302284894
0.0004303816368
0.0005823527065
0.0004411732782
0.0006162797946
0.0004459289204
0.0006118646467
0.0004325806334
0.0005605559158
0.0003969392227
0.0004797752275
0.0003176421821
0.004853016235
0.00134903737
0.007954177756
0.001522926235
0.003165225258
0.001122638641
0.001545313283
0.0006000466973
0.0007532811201
0.0002189425244
0.0003594741069
0.0003547053606
0.0005987738462
0.0001012012073
0.0001850009424
5.1395087e-05
0.000125330623
3.857744813e-05
0.0001261655527
5.042158288e-05
0.0001629839024
9.571650798e-05
0.0002135297337
0.0001770028249
0.0004517866827
0.0003677006505
0.000766026116
0.000790412517
0.001429836576
0.001075656981
0.001901681363
0.0009006611768
0.001568648312
0.0006020330794
0.0009982761755
0.0004415753245
0.0006765591087
0.000397963216
0.0005488717393
0.0004141274455
0.0005083431792
0.0004559416702
0.0004994005191
0.0005078376928
0.0005012740027
0.0005609986088
0.0005065481678
0.0006042545405
0.0005088294007
0.0006211211352
0.0004986765935
0.0005966739485
0.0004669657975
0.0005316617586
0.0004168227369
0.0004518104873
0.0003275925845
0.005768600779
0.0008578796321
0.007020746413
0.0007984855768
0.00231533188
0.000482863396
0.0009925584828
0.0002747438129
0.0005569950653
0.0001380228529
0.0003226180524
0.0001409151919
0.0003134317136
5.919720101e-05
0.0001359915827
4.686633028e-05
0.0001131452933
3.910629645e-05
0.0001115222613
6.011322494e-05
0.0001724377738
0.0001180180774
0.0002494180286
0.0002322892746
0.0006332863961
0.0004558703633
0.00107029595
0.0008358830991
0.001738709825
0.0009590097593
0.001959152772
0.0007106094977
0.001403124892
0.0004740610835
0.0008815843418
0.0003795735487
0.0006473269175
0.0003778578955
0.0005774946922
0.0004169139285
0.0005670949039
0.0004697571992
0.0005710207361
0.0005242228583
0.0005751106237
0.0005714880493
0.000574212934
0.0005996450596
0.0005623692726
0.0005951166606
0.0005323319057
0.0005520387303
0.000481078333
0.0004816597578
0.0004216285843
0.0004139793901
0.0003315313835
0.006980320553
0.0005453167689
0.005616924151
0.0003942400917
0.001549383568
0.0002614083272
0.000772176162
0.0001967506074
0.0005415642639
0.0001167930212
0.0003202427068
7.886059343e-05
0.0001959358972
5.495753338e-05
0.0001280729582
5.851304966e-05
0.0001358338514
5.772887294e-05
0.000150885186
7.68787657e-05
0.0002138707977
0.00013278961
0.000284577093
0.0003026008583
0.000854975862
0.0005550004599
0.001421009584
0.0008376838244
0.001980083541
0.0008196115582
0.001868421292
0.000564239029
0.001221674989
0.0003949296764
0.0008030074514
0.0003504216166
0.0006555784222
0.0003765042013
0.0006329384935
0.0004293109496
0.0006438596813
0.0004870214828
0.0006537607835
0.0005386501712
0.0006534189702
0.0005743906137
0.000639141538
0.0005830966714
0.000606771016
0.0005575710726
0.0005543356295
0.0005031954426
0.0004872577281
0.0004389161993
0.000428595812
0.0003929334611
0.0003483783223
0.008655419112
0.0003772908118
0.003620087298
0.0002337120721
0.001246452167
0.0001935940147
0.000746435589
0.0001586796024
0.0005270469436
0.0001002893395
0.0002966470814
7.136997664e-05
0.000171101973
7.293768868e-05
0.0001506978607
9.286705652e-05
0.0001957049567
0.0001031550132
0.0002427493297
0.0001156280101
0.0002954404215
0.0001587263078
0.0003269083272
0.0003807936998
0.001076559212
0.0006380837879
0.001720628021
0.000807348161
0.002055795475
0.0007018207152
0.001644776097
0.0004914572137
0.001052942173
0.0003784295796
0.0007766831066
0.0003679733905
0.0007150892322
0.0004101132841
0.0007298682169
0.0004684679095
0.00075089954
0.000524635357
0.0007553917702
0.0005678546796
0.0007393062135
0.000588254302
0.000701913181
0.0005781129025
0.0006439486678
0.0005386606686
0.0005712242762
0.0004837418412
0.0004982728676
0.0004762033253
0.0003859770174
0.0004490390542
0.0003812181743
0.01172949878
7.163837941e-05
0.002778273666
0.0001294361403
0.001068215138
0.0001332402397
0.0006726912201
0.0001015335693
0.0004760579694
7.169892348e-05
0.0002735326885
6.539462767e-05
0.0001802465387
9.151906426e-05
0.0002034615272
0.0001411072331
0.0003099334543
0.0001680656219
0.0003990284507
0.0001615115468
0.0004255332855
0.000165961148
0.0003968742135
0.0004244371482
0.001126719374
0.0006630362937
0.001722251331
0.0007237933
0.001796540671
0.0005717078649
0.001308785671
0.0004385508805
0.0009134173931
0.0004048291297
0.0008058209531
0.0004377719298
0.0008351616138
0.0004926175317
0.0008777240921
0.0005442580901
0.0008897375472
0.000581133197
0.0008684039317
0.0005966413449
0.0008209344199
0.0005867958917
0.0007544392317
0.0005532035476
0.0006759707272
0.0005061175879
0.0005959658429
0.0004626580045
0.0005310793491
0.0004479231311
0.0004235987217
0.0004742043103
0.0004362752501
0.01177943215
-0.001384753598
-0.0001382283282
0.0002100349649
0.000884171904
0.001714433939
0.002857822785
0.004227604474
0.004731007391
0.004283880359
0.003996495417
0.004458153747
0.00599166771
0.007686814308
0.008935051996
0.009531904127
0.009719946054
0.009613997358
0.009249888386
0.008780750634
0.008435776456
0.008352906211
0.008543574057
0.008913394404
0.009306021558
0.00949404975
0.00949098588
0.002552111938
-0.002654779348
0.01104719652
0.03644575959
-0.0001301955654
-0.009367567453
1.886057107e-05
1.123085528e-05
-1.153151703e-05
-0.0006799439337
0.00642106412
-6.17084441e-05
-0.004837973999
1.19707575e-05
8.40294873e-06
-1.204650626e-05
-0.0004438085788
0.003402959988
-0.002456251811
-4.534920179e-05
1.184826117e-05
6.943775504e-06
-7.636256487e-07
-1.135099954e-05
4.687522573e-07
5.197998846e-07
-3.265945151e-07
-4.073937732e-07
3.230095467e-07
3.160169432e-07
-2.22140125e-07
0.0002335261552
0.004374360038
-1.256612816e-05
-0.003892293557
-0.0001256387875
-2.275310534e-07
-0.004370283731
0.002887220294
9.226643407e-08
-7.025767832e-08
6.392384081e-08
-5.077524192e-08
3.981534522e-08
5.322126753e-08
-3.159777772e-08
0.0001251628793
0.0007429117778
0.003312491572
-0.00305311347
2.728101788e-05
0.0076795253
-3.535529205e-07
-0.01178002211
-0.0006263130284
1.184206102e-07
-9.124918019e-08
-1.928786706e-08
3.166580349e-08
7.004638789e-08
1.978925011e-08
-1.213613968e-08
0.0003834553454
0.002389518869
-0.001472538257
7.703446739e-05
0.0136114266
-0.0006889969983
-2.071368194e-08
-0.009725989771
1.10077192e-08
3.534665634e-08
-2.749693338e-08
-7.953169275e-09
-5.119447745e-09
7.00839468e-09
2.130528026e-08
9.831845523e-05
6.587584246e-05
-1.988572539e-05
0.000214345329
-8.848533873e-05
3.375439201e-06
-8.708204556e-08
2.553185804e-06
-9.59617482e-07
4.650170418e-08
8.97671517e-09
-4.802655928e-09
-3.382796019e-08
4.762747851e-09
2.583271849e-08
-2.479677727e-09
-0.001041472706
0.001976193349
-0.001685919015
0.0006684017747
-0.001421002346
0.003733983506
-0.003912171679
0.001231405556
-0.0007886725957
-0.00209653797
-0.0007902264225
-0.002410124677
-0.0008133551043
0.006445238573
-0.0006350469885
0.000581070361
-0.001295042169
-0.0004722748134
-0.001540983301
-0.008302104425
0.009194732525
-0.006045084515
0.002875469213
-9.545215286e-05
0.001236324538
-0.002075342794
0.0007418516208
-0.008311973087
-0.0006212950653
0.0004993772643
-0.0008864642535
0.0002020711024
0.0003637202774
0.003982573517
-0.004251332038
0.0001022861463
-0.000617194984
-2.21949503e-05
2.085279613e-05
-4.717245524e-05
1.617523319e-05
2.579506895e-05
8.392669992e-05
-7.837935617e-05
8.427872707e-06
-2.210975675e-05
-9.798407642e-06
1.123539003e-05
-1.121932135e-05
1.197927848e-05
5.184593877e-06
1.163537177e-05
-1.172899799e-05
5.082544242e-06
-9.762337813e-06
-1.057318975e-05
1.150967087e-05
-1.45408477e-05
1.869181988e-05
5.867551369e-06
9.64697686e-06
-9.717546368e-06
7.616692841e-06
-1.151842109e-05
-1.691993464e-05
1.999324019e-05
-2.45232318e-05
2.901473006e-05
1.076580026e-05
1.264243555e-05
-1.545221956e-05
1.717101113e-05
-2.378487978e-05
-5.144233104e-05
-0.0004792702805
-0.001872560399
0.0003246186387
4.539159975e-05
2.512370215e-05
-5.251426385e-05
0.0002018928488
-0.0001600334889
-0.007048751676
-0.001902690264
0.004798097535
0.001460241501
0.001055573167