/*--------------------------------*- C++ -*----------------------------------*\
  =========                 |
  \\      /  F ield         | OpenFOAM: The Open Source CFD Toolbox
   \\    /   O peration     | Website:  https://openfoam.org
    \\  /    A nd           | Version:  8
     \\/     M anipulation  |
\*---------------------------------------------------------------------------*/
FoamFile
{
    version     2.0;
    format      ascii;
    class       volScalarField;
    location    "0.5/wallFilmRegion";
    object      rho;
}
// * * * * * * * * * * * * * * * * * * * * * * * * * * * * * * * * * * * * * //

dimensions      [1 -3 0 0 0 0 0];

internalField   nonuniform List<scalar> 
1342
(
994.5114713
994.5114648
994.5114701
994.5114641
994.5114616
994.5114681
994.511468
994.5114677
994.5114669
994.5114635
994.511462
994.5114541
994.5114278
994.5113417
994.5112366
994.5112812
994.5114676
994.5114681
994.5114681
994.5114679
994.5114672
994.5114662
994.5114664
994.5114669
994.5114671
994.5114678
994.5114694
994.5114704
994.5114713
994.5114754
994.5114634
994.5114579
994.5114682
994.5114681
994.5114679
994.5114673
994.5114656
994.5114605
994.5114453
994.511395
994.511257
994.5111489
994.5112002
994.5114674
994.5114678
994.5114678
994.5114675
994.5114661
994.5114654
994.5114664
994.5114671
994.5114674
994.511468
994.5114655
994.511467
994.5114683
994.5114693
994.511475
994.5114618
994.5114616
994.5114683
994.5114681
994.5114678
994.5114673
994.5114658
994.5114609
994.5114445
994.5113898
994.5112579
994.5111464
994.5111767
994.5114667
994.5114673
994.5114672
994.5114666
994.5114639
994.5114638
994.511466
994.5114671
994.5114675
994.5114679
994.5114644
994.5114654
994.5114666
994.5114682
994.5114714
994.5114642
994.5114657
994.5114683
994.511445
994.5114571
994.5114633
994.5114584
994.5114401
994.5113418
994.5111583
994.5110914
994.5111148
994.5111375
994.5114635
994.5114659
994.5114658
994.5114643
994.5114592
994.5114622
994.5114656
994.5114669
994.5114674
994.5114679
994.5114676
994.5114709
994.5114717
994.5114676
994.5114682
994.5114681
994.5114681
994.5114683
994.5114683
994.5114683
994.5114683
994.5114683
994.5114682
994.5114681
994.511468
994.5114675
994.5114659
994.5114595
994.5114478
994.5114611
994.5114613
994.511458
994.5114533
994.511461
994.511465
994.5114666
994.5114673
994.5114679
994.5110257
994.5114483
994.5114686
994.511469
994.511467
994.5114672
994.5114675
994.511468
994.5114684
994.5114683
994.5114683
994.5114683
994.5114682
994.5114681
994.511468
994.5114677
994.5114668
994.5114633
994.5114503
994.5114144
994.5114385
994.5114402
994.511439
994.5114531
994.5114604
994.5114644
994.5114663
994.5114671
994.5114679
994.5114633
994.5114675
994.5114648
994.5114695
994.511467
994.5114659
994.5114639
994.5114672
994.5114683
994.5114682
994.5114682
994.5114682
994.5114681
994.5114679
994.5114677
994.5114669
994.5114643
994.511455
994.5114238
994.5113604
994.5114677
994.5114676
994.5114669
994.5114656
994.5114635
994.5114638
994.5114656
994.5114667
994.5114679
994.5114661
994.5114682
994.5114685
994.5114675
994.5114647
994.5114653
994.511466
994.5114659
994.5114684
994.5114682
994.5114681
994.5114679
994.5114677
994.5114672
994.5114664
994.511464
994.5114561
994.5114282
994.5113624
994.5113352
994.5114678
994.5114678
994.5114667
994.5114642
994.5114644
994.5114661
994.5114669
994.5114674
994.5114679
994.5114667
994.5114657
994.5114576
994.5114578
994.5114663
994.5114677
994.5114682
994.5114683
994.5114684
994.5114684
994.5114684
994.5114683
994.5114683
994.5114682
994.5114681
994.5114677
994.5114653
994.5114399
994.5114666
994.5114529
994.5114677
994.511468
994.5114632
994.5114638
994.5114657
994.5114668
994.5114673
994.5114676
994.511468
994.5114655
994.5114556
994.5106252
994.510575
994.5114621
994.5114611
994.5114589
994.5114556
994.5114653
994.5114684
994.5114682
994.5114681
994.511468
994.5114679
994.5114675
994.5114661
994.5114558
994.5113851
994.5114676
994.5114658
994.5114672
994.511468
994.5114681
994.511468
994.5114678
994.5114676
994.5114676
994.5114678
994.511468
994.5114558
994.5106852
994.510562
994.5105806
994.5114635
994.5114599
994.5114554
994.5114502
994.5114644
994.5114683
994.511468
994.5114676
994.5114671
994.5114662
994.5114635
994.5114516
994.5114257
994.5114454
994.511468
994.511467
994.5114682
994.5114683
994.5114683
994.5114683
994.5114683
994.5114682
994.5114682
994.5114681
994.511468
994.5114689
994.5114665
994.5112574
994.5114123
994.5114648
994.5114553
994.511448
994.5114378
994.5114624
994.5114683
994.511468
994.511467
994.5114648
994.5114607
994.511456
994.5114577
994.5114627
994.5114651
994.5114682
994.5114675
994.5114675
994.5114679
994.5114681
994.5114682
994.5114682
994.5114682
994.5114681
994.5114681
994.511468
994.5114694
994.5114691
994.5114636
994.5114643
994.5114669
994.5114658
994.5114629
994.5114582
994.5114663
994.5114683
994.5114679
994.5114674
994.5114667
994.5114662
994.5114659
994.5114672
994.5114681
994.5114683
994.5114684
994.5114684
994.5114682
994.511468
994.511468
994.5114681
994.5114681
994.511468
994.511468
994.511468
994.5114679
994.5114695
994.5114688
994.5114644
994.5114664
994.5114672
994.5114672
994.511466
994.5114639
994.5114673
994.5114682
994.511468
994.5114678
994.5114677
994.5114676
994.5114674
994.5114674
994.5114675
994.5114675
994.5114683
994.5114682
994.511468
994.5114679
994.511468
994.5114679
994.5114679
994.5114679
994.5114678
994.5114678
994.5114679
994.5114731
994.5114682
994.5114595
994.5114622
994.5114668
994.5114674
994.5114668
994.5114656
994.5114676
994.5114681
994.5114681
994.5114681
994.511468
994.5114679
994.5114678
994.5114677
994.5114677
994.5114677
994.5114682
994.511468
994.5114678
994.5114679
994.5114679
994.5114678
994.5114677
994.5114677
994.5114677
994.5114677
994.5114678
994.5114722
994.511467
994.5114478
994.5114388
994.5114648
994.5114673
994.5114669
994.5114662
994.5114677
994.5114681
994.5114681
994.5114681
994.5114681
994.5114681
994.511468
994.5114679
994.5114678
994.5114676
994.511468
994.5114676
994.5114677
994.5114678
994.5114678
994.5114677
994.5114676
994.5114675
994.5114676
994.5114676
994.5114678
994.5114706
994.5114652
994.5114266
994.5113662
994.5114579
994.5114668
994.5114665
994.5114661
994.5114677
994.5114681
994.5114681
994.5114682
994.5114681
994.511468
994.5114679
994.5114678
994.5114676
994.5114674
994.5114675
994.5114671
994.5114675
994.5114677
994.5114676
994.5114675
994.5114674
994.5114674
994.5114675
994.5114675
994.5114677
994.5114682
994.5114618
994.5113952
994.5111955
994.511437
994.5114658
994.5114656
994.5114653
994.5114676
994.511468
994.5114681
994.5114681
994.5114681
994.5114679
994.5114676
994.5114673
994.5114671
994.5114669
994.5114668
994.5114667
994.5114672
994.5114674
994.5114673
994.5114671
994.5114671
994.5114672
994.5114673
994.5114673
994.5114677
994.511466
994.5114608
994.5114521
994.5114431
994.5114357
994.5114622
994.5114632
994.5114633
994.5114673
994.5114679
994.511468
994.5114681
994.5114679
994.5114677
994.5114672
994.5114668
994.5114664
994.511466
994.5114657
994.5114656
994.5114663
994.5114668
994.5114667
994.5114666
994.5114667
994.5114669
994.5114671
994.5114671
994.5114676
994.5114688
994.5114681
994.5114657
994.5114601
994.5114551
994.5114604
994.5114627
994.5114635
994.5114681
994.5114681
994.511468
994.511468
994.5114679
994.5114678
994.5114679
994.5114679
994.5114679
994.5114678
994.5114677
994.5114674
994.5114671
994.5114669
994.5114668
994.5114668
994.5114669
994.5114669
994.511467
994.511467
994.5114677
994.5114684
994.5114676
994.5114651
994.5114633
994.5114648
994.5114658
994.5114661
994.511466
994.511468
994.5114681
994.5114681
994.5114679
994.5114679
994.511468
994.5114681
994.5114681
994.5114681
994.511468
994.5114679
994.5114678
994.5114676
994.5114675
994.5114674
994.5114673
994.5114673
994.5114673
994.5114672
994.5114672
994.5114677
994.5114684
994.5114677
994.5114656
994.5114665
994.5114674
994.5114675
994.5114673
994.511467
994.511468
994.511468
994.511468
994.5114679
994.511468
994.5114681
994.5114681
994.5114681
994.5114681
994.5114681
994.511468
994.5114679
994.5114678
994.5114677
994.5114677
994.5114677
994.5114676
994.5114675
994.5114675
994.5114674
994.5114678
994.5114684
994.5114684
994.5114684
994.5114683
994.511468
994.5114677
994.5114674
994.5114671
994.5114678
994.5114678
994.5114679
994.5114679
994.511468
994.5114681
994.5114682
994.5114681
994.5114681
994.5114681
994.511468
994.511468
994.5114679
994.5114679
994.5114678
994.5114678
994.5114678
994.5114677
994.5114676
994.5114675
994.5114678
994.5114684
994.5114684
994.5114683
994.5114682
994.5114678
994.5114675
994.5114672
994.5114669
994.5114674
994.5114675
994.5114678
994.5114679
994.5114681
994.5114681
994.5114682
994.5114681
994.5114681
994.5114681
994.511468
994.511468
994.511468
994.5114679
994.5114679
994.5114679
994.5114678
994.5114677
994.5114677
994.5114676
994.5114678
994.5114684
994.5114683
994.5114682
994.5114678
994.5114675
994.5114686
994.5114678
994.5114667
994.5114666
994.5114673
994.5114677
994.5114679
994.5114681
994.5114681
994.5114681
994.5114681
994.5114681
994.511468
994.511468
994.511468
994.511468
994.5114679
994.5114679
994.5114679
994.5114678
994.5114677
994.5114677
994.5114676
994.5114679
994.5114684
994.5114682
994.5114679
994.5114676
994.5114674
994.5114681
994.5114672
994.5114664
994.511466
994.5114671
994.5114676
994.511468
994.5114681
994.5114681
994.5114681
994.5114681
994.511468
994.511468
994.511468
994.511468
994.511468
994.5114679
994.5114679
994.5114678
994.5114678
994.5114677
994.5114676
994.5114676
994.5114679
994.5114683
994.511468
994.5114677
994.5114675
994.5114673
994.5114674
994.5114669
994.5114665
994.5114663
994.511467
994.5114676
994.511468
994.5114681
994.5114681
994.5114681
994.511468
994.511468
994.511468
994.511468
994.511468
994.511468
994.5114679
994.5114679
994.5114678
994.5114677
994.5114677
994.5114676
994.5114676
994.5114679
994.5114681
994.5114678
994.5114676
994.5114675
994.5114673
994.5114672
994.511467
994.511467
994.511467
994.5114672
994.5114675
994.511468
994.5114681
994.5114681
994.511468
994.5114679
994.5114679
994.5114679
994.511468
994.511468
994.5114679
994.5114679
994.5114678
994.5114678
994.5114677
994.5114676
994.5114676
994.5114676
994.5114679
994.5114678
994.5114677
994.5114676
994.5114675
994.5114673
994.5114672
994.5114673
994.5114675
994.5114674
994.5114674
994.5114676
994.5114679
994.511468
994.511468
994.5114679
994.5114679
994.5114679
994.5114679
994.5114679
994.5114679
994.5114679
994.5114679
994.5114678
994.5114677
994.5114677
994.5114676
994.5114676
994.5114676
994.5114678
994.511468
994.5114681
994.5114677
994.5114681
994.5114681
994.5114681
994.5114681
994.5114681
994.511468
994.511468
994.5114679
994.5114679
994.5114679
994.5114679
994.5114678
994.5114678
994.5114678
994.5114679
994.5114679
994.5114679
994.5114679
994.5114678
994.5114678
994.5114678
994.5114678
994.5114678
994.5114678
994.5114679
994.511468
994.5114716
994.5114758
994.511469
994.5114769
994.5114689
994.5114774
994.5115473
994.5115716
994.5114686
994.5114685
994.5117149
994.511749
994.5114685
994.5114685
994.5117412
994.5117647
994.5114684
994.5114684
994.5117386
994.5117341
994.5114688
994.511481
994.5117715
994.5117732
994.5114692
994.5114693
994.5114691
994.511469
994.5114689
994.5114688
994.5114688
994.5114687
994.5114686
994.5114688
994.5114687
994.5114687
994.5114691
994.5114689
994.5114692
994.5114693
994.5114696
994.5114697
994.5114692
994.5114698
994.5114698
994.5114693
994.5114698
994.5114697
994.5114698
994.5114696
994.5114697
994.5114718
994.5114694
994.5114696
994.5114691
994.5114691
994.511469
994.5114694
994.5114692
994.5114692
994.511469
994.5114689
994.511469
994.5114691
994.5114687
994.5114686
994.5114686
994.5114685
994.511469
994.511469
994.511469
994.5114685
994.5114686
994.5114685
994.5114686
994.5114689
994.5114688
994.5114688
994.5114694
994.5114692
994.5114693
994.5114688
994.511469
994.5114689
994.511469
994.5114693
994.51147
994.5114696
994.5114697
994.5114691
994.511469
994.511469
994.5114689
994.511469
994.5114693
994.5114693
994.5114697
994.511469
994.511469
994.5114692
994.5114709
994.5114711
994.5114724
994.5114693
994.511469
994.5114693
994.5114721
994.5114714
994.5114718
994.5114693
994.5114691
994.5114693
994.5114716
994.5114709
994.5114714
994.5114694
994.5114693
994.5114697
994.511471
994.5114705
994.5114709
994.5114699
994.5114695
994.51147
994.5114705
994.5114703
994.5114697
994.5114702
994.5114703
994.5114687
994.5114688
994.5114686
994.5115628
994.5114687
994.5115728
994.5116215
994.5116333
994.5116522
994.5116701
994.5114688
994.5114688
994.5114687
994.5114686
994.5114686
994.5114685
994.5114687
994.5114687
994.5114687
994.5114693
994.5114689
994.5114693
994.5114699
994.5114698
994.5114701
994.51147
994.5114702
994.51147
994.5114697
994.5114698
994.5114696
994.5114694
994.5114694
994.5114693
994.5114686
994.5115822
994.5116793
994.5114687
994.5117004
994.5117177
994.5114687
994.5114687
994.5114686
994.5114685
994.5114686
994.5114685
994.5114687
994.5114687
994.5114687
994.5114693
994.5114689
994.5114694
994.5114702
994.5114699
994.5114703
994.51147
994.5114704
994.5114698
994.5114694
994.5114695
994.5114693
994.5114692
994.5114691
994.5114691
994.5114685
994.5114685
994.5114685
994.5116071
994.5114685
994.5116107
994.5117332
994.5114685
994.5114685
994.5114685
994.5114688
994.5114687
994.5114692
994.5114695
994.5114694
994.5114698
994.5114704
994.5114701
994.5114704
994.5114695
994.5114701
994.5114693
994.5114691
994.5114691
994.511469
994.5114684
994.5114685
994.5116121
994.5114684
994.5116026
994.5117543
994.5117449
994.5114697
994.5114689
994.5114697
994.51147
994.5114697
994.5114698
994.5114704
994.51147
994.5114703
994.511469
994.5114691
994.5114688
994.5114685
994.5114695
994.511469
994.511469
994.5114716
994.5114694
994.5114721
994.5115274
994.5114723
994.5115479
994.511469
994.511469
994.5114688
994.5114695
994.5114689
994.511469
994.5114691
994.5114688
994.5114689
994.5114701
994.5114689
994.511469
994.5114715
994.5114693
994.511469
994.5114712
994.5114692
994.5114692
994.5114707
994.5114693
994.5114694
994.5114705
994.5114698
994.5114697
994.5114707
994.5114713
994.5114707
994.5114692
994.5114689
994.5114688
994.5116039
994.5114689
994.5114687
994.5114687
994.5114689
994.5114697
994.51147
994.5114698
994.5114695
994.5114693
994.5114688
994.5114687
994.5114686
994.5114685
994.5116599
994.5116812
994.5116971
994.5114688
994.5114686
994.5114687
994.5114689
994.5114698
994.5114703
994.5114696
994.5114692
994.5114692
994.5114686
994.5114685
994.5114687
994.511469
994.51147
994.5114703
994.5114693
994.511469
994.5114691
994.5114689
994.5114688
994.5114782
994.5116248
994.5116535
994.511665
994.5114685
994.5114687
994.5114699
994.5114702
994.5114697
994.511469
994.5114689
994.5114688
994.5114788
994.5117655
994.5114692
994.5114684
994.5114685
994.5114855
994.5117302
994.5117146
994.5117154
994.5114691
994.5114685
994.5114912
994.5117248
994.5117067
994.5114693
994.5114685
994.5115077
994.5117458
994.511725
994.5114688
994.511469
994.5114894
994.5117587
994.5117499
994.5114693
994.511469
994.511469
994.5114691
994.511469
994.5114688
994.511472
994.5115192
994.5114699
994.5114709
994.5114689
994.5115511
994.5114722
994.5115373
994.5114711
994.5114713
994.5115776
994.5115934
994.5114716
994.511609
994.5114707
994.5114718
994.51147
994.5114705
994.5114692
994.5114703
994.5114701
994.5114767
994.5114702
994.511469
994.5114702
994.5114771
994.5115159
994.5115291
994.5115382
994.5115485
994.5114685
994.5115915
994.5114689
994.5114702
994.5114702
994.5115453
994.5115295
994.5114777
994.5115678
994.5115588
994.5115816
994.5115969
994.5117246
994.5117416
994.511756
994.5114685
994.5114688
994.5114703
994.5114705
994.5114784
994.5116119
994.5117226
994.5117405
994.5116939
994.5117559
994.5114702
994.5115883
994.5116445
994.5116737
994.5117521
994.5117564
994.5114685
994.5115962
994.5114684
994.511604
994.5117382
994.511727
994.5117228
994.5114712
994.5114688
994.511471
994.511728
994.5114793
994.5114802
994.5117133
994.5117315
994.5117803
994.5117854
994.5117829
994.5117855
994.5114707
994.511671
994.5117762
994.5114705
994.5114685
994.5114711
994.511725
994.5114897
994.5117196
994.5117233
994.5117223
994.5117143
994.5117061
994.5114718
994.5114685
994.5114731
994.5117266
994.5114959
994.5117454
994.5117154
994.5117378
994.5117263
994.5117164
994.5114753
994.5114692
994.5114777
994.5117516
994.5115255
994.5117498
994.5117347
994.5117528
994.5117447
994.5117362
994.5114732
994.5114689
994.5114722
994.5117348
994.5114849
994.5117322
994.5117567
994.511767
994.511769
994.5117752
994.5117643
)
;

boundaryField
{
    walls
    {
        type            zeroGradient;
    }
    wallFilmFace_top
    {
        type            zeroGradient;
    }
    region0_to_wallFilmRegion_wallFilmFace
    {
        type            zeroGradient;
    }
    mirrorFace_top
    {
        type            zeroGradient;
    }
    region0_to_wallFilmRegion_mirrorFace
    {
        type            zeroGradient;
    }
    procBoundary2to0
    {
        type            processor;
        value           nonuniform List<scalar> 
26
(
994.5114722
994.5114612
994.5114708
994.5114642
994.5114641
994.5114679
994.5114678
994.5114672
994.5114646
994.5114524
994.5114646
994.5114619
994.5114519
994.5114642
994.5114445
994.5114283
994.5114681
994.5114682
994.5114682
994.5114682
994.511468
994.5114673
994.5114664
994.5114664
994.5114664
994.5114678
)
;
    }
    procBoundary2to1
    {
        type            processor;
        value           nonuniform List<scalar> 
33
(
994.5109937
994.5109937
994.5114682
994.5114682
994.5114642
994.5114639
994.5114594
994.5114594
994.5110373
994.511465
994.5114672
994.5114677
994.5114673
994.5114675
994.5114692
994.5114693
994.5114692
994.5114696
994.5114707
994.5114704
994.511469
994.5114673
994.5114654
994.511464
994.5114641
994.5114684
994.5114684
994.5114683
994.5114682
994.5114679
994.5114677
994.5114678
994.5114681
)
;
    }
    procBoundary2to3
    {
        type            processor;
        value           nonuniform List<scalar> 
64
(
994.5114838
994.5115048
994.5115144
994.5115293
994.5115856
994.5117624
994.5117728
994.5117277
994.5117697
994.51147
994.5114703
994.5114691
994.5114692
994.5114703
994.5114724
994.5114731
994.511473
994.5114726
994.5114723
994.5114722
994.511472
994.5114714
994.5114713
994.5114708
994.5114708
994.5114708
994.5114707
994.5114707
994.5114703
994.5114707
994.5116386
994.5116863
994.5116386
994.5117128
994.5117327
994.5114725
994.5115588
994.51147
994.5114697
994.5116386
994.5116857
994.5117041
994.5117075
994.5116992
994.5117169
994.5117423
994.5114718
994.5116239
994.51147
994.5114969
994.5115048
994.5115214
994.5115598
994.5116132
994.5117678
994.5117134
994.5117692
994.5117588
994.5117878
994.5117844
994.5116986
994.5117079
994.5117283
994.5117579
)
;
    }
}


// ************************************************************************* //
