/*--------------------------------*- C++ -*----------------------------------*\
  =========                 |
  \\      /  F ield         | OpenFOAM: The Open Source CFD Toolbox
   \\    /   O peration     | Website:  https://openfoam.org
    \\  /    A nd           | Version:  8
     \\/     M anipulation  |
\*---------------------------------------------------------------------------*/
FoamFile
{
    version     2.0;
    format      ascii;
    class       volScalarField;
    location    "0.5/wallFilmRegion";
    object      sigma;
}
// * * * * * * * * * * * * * * * * * * * * * * * * * * * * * * * * * * * * * //

dimensions      [1 0 -2 0 0 0 0];

internalField   nonuniform List<scalar> 
1342
(
0.072447137
0.07244713205
0.07244713608
0.07244713156
0.0724471296
0.07244713461
0.07244713453
0.0724471343
0.07244713365
0.07244713108
0.07244712996
0.07244712387
0.07244710388
0.07244703818
0.07244695811
0.07244699209
0.07244713421
0.07244713455
0.07244713455
0.07244713441
0.07244713389
0.07244713312
0.07244713325
0.07244713365
0.07244713383
0.07244713434
0.07244713554
0.07244713636
0.07244713706
0.07244714015
0.07244713101
0.07244712682
0.07244713469
0.0724471346
0.07244713441
0.072447134
0.07244713269
0.07244712878
0.07244711718
0.07244707884
0.07244697362
0.07244689118
0.07244693031
0.07244713404
0.07244713435
0.07244713432
0.07244713408
0.07244713306
0.07244713249
0.07244713327
0.07244713385
0.07244713406
0.07244713447
0.07244713262
0.0724471337
0.07244713471
0.07244713549
0.07244713987
0.07244712979
0.07244712962
0.07244713473
0.07244713459
0.07244713438
0.07244713395
0.07244713286
0.07244712908
0.07244711659
0.07244707486
0.07244697429
0.07244688928
0.07244691243
0.07244713354
0.07244713395
0.07244713388
0.07244713342
0.07244713139
0.07244713131
0.07244713301
0.07244713382
0.07244713412
0.07244713444
0.07244713176
0.07244713254
0.07244713341
0.07244713463
0.07244713707
0.0724471316
0.07244713271
0.07244713473
0.07244711696
0.07244712616
0.07244713093
0.07244712717
0.0724471132
0.07244703829
0.0724468984
0.0724468474
0.0724468652
0.07244688252
0.07244713105
0.07244713293
0.0724471328
0.07244713169
0.07244712782
0.07244713009
0.07244713264
0.07244713367
0.07244713407
0.07244713442
0.07244713421
0.0724471367
0.07244713735
0.07244713421
0.07244713464
0.07244713457
0.07244713459
0.07244713476
0.07244713475
0.07244713475
0.07244713473
0.07244713471
0.07244713466
0.0724471346
0.07244713447
0.07244713413
0.07244713293
0.07244712804
0.07244711909
0.07244712926
0.07244712937
0.07244712687
0.07244712329
0.0724471292
0.07244713225
0.07244713346
0.07244713397
0.0724471344
0.07244679725
0.0724471195
0.07244713498
0.07244713529
0.07244713371
0.07244713386
0.07244713415
0.07244713454
0.07244713478
0.07244713474
0.07244713475
0.07244713473
0.07244713468
0.07244713462
0.07244713451
0.07244713428
0.07244713356
0.07244713095
0.07244712102
0.07244709365
0.072447112
0.07244711331
0.07244711241
0.07244712312
0.07244712872
0.07244713174
0.07244713317
0.07244713382
0.0724471344
0.07244713089
0.07244713409
0.07244713207
0.07244713566
0.0724471337
0.07244713294
0.07244713139
0.07244713386
0.07244713477
0.07244713468
0.07244713467
0.07244713465
0.07244713458
0.07244713446
0.07244713426
0.07244713368
0.07244713172
0.07244712462
0.07244710082
0.0724470525
0.07244713431
0.07244713418
0.07244713367
0.07244713265
0.07244713106
0.0724471313
0.07244713268
0.07244713354
0.0724471344
0.07244713305
0.07244713465
0.07244713491
0.07244713413
0.07244713199
0.07244713243
0.07244713297
0.07244713286
0.07244713478
0.07244713469
0.0724471346
0.07244713445
0.07244713426
0.07244713392
0.07244713332
0.07244713148
0.07244712545
0.07244710416
0.07244705402
0.07244703325
0.07244713436
0.07244713435
0.07244713347
0.07244713158
0.07244713179
0.07244713303
0.0724471337
0.07244713404
0.07244713446
0.0724471335
0.07244713277
0.07244712658
0.07244712676
0.07244713318
0.07244713429
0.07244713466
0.07244713474
0.07244713477
0.0724471348
0.07244713478
0.07244713476
0.07244713472
0.07244713466
0.07244713458
0.0724471343
0.07244713242
0.07244711311
0.07244713341
0.07244712297
0.07244713424
0.07244713452
0.07244713081
0.07244713132
0.07244713278
0.07244713357
0.072447134
0.07244713423
0.07244713449
0.07244713257
0.07244712501
0.07244649192
0.07244645366
0.07244713001
0.07244712925
0.07244712755
0.07244712501
0.07244713247
0.07244713478
0.07244713467
0.07244713458
0.0724471345
0.07244713439
0.07244713416
0.07244713307
0.07244712519
0.0724470713
0.07244713423
0.07244713281
0.07244713388
0.07244713453
0.07244713458
0.07244713452
0.07244713436
0.07244713419
0.07244713422
0.07244713433
0.0724471345
0.07244712523
0.07244653765
0.07244644377
0.07244645795
0.07244713108
0.0724471283
0.07244712489
0.07244712097
0.07244713178
0.07244713476
0.07244713454
0.07244713418
0.07244713382
0.07244713316
0.07244713106
0.072447122
0.07244710227
0.0724471173
0.07244713449
0.07244713377
0.07244713468
0.07244713476
0.07244713476
0.07244713476
0.07244713473
0.07244713469
0.07244713465
0.07244713461
0.0724471345
0.07244713517
0.07244713335
0.07244697391
0.07244709204
0.07244713205
0.07244712483
0.07244711929
0.07244711151
0.07244713021
0.07244713474
0.07244713446
0.07244713373
0.07244713208
0.07244712891
0.07244712539
0.07244712669
0.07244713046
0.07244713231
0.07244713463
0.07244713411
0.07244713409
0.0724471344
0.07244713458
0.07244713464
0.07244713465
0.07244713463
0.07244713461
0.07244713458
0.07244713448
0.0724471356
0.07244713536
0.07244713113
0.07244713168
0.07244713363
0.07244713284
0.07244713065
0.07244712706
0.07244713317
0.07244713471
0.07244713445
0.07244713401
0.07244713351
0.07244713316
0.07244713292
0.07244713391
0.07244713461
0.07244713475
0.07244713481
0.07244713477
0.07244713464
0.07244713453
0.07244713453
0.07244713455
0.07244713454
0.07244713452
0.0724471345
0.07244713449
0.07244713444
0.07244713561
0.07244713508
0.07244713176
0.07244713328
0.07244713388
0.07244713386
0.07244713296
0.07244713136
0.07244713394
0.07244713465
0.07244713449
0.07244713439
0.07244713428
0.07244713419
0.07244713407
0.07244713401
0.0724471341
0.07244713415
0.07244713475
0.07244713467
0.07244713449
0.07244713445
0.07244713448
0.07244713446
0.07244713442
0.07244713439
0.07244713437
0.07244713437
0.07244713439
0.0724471384
0.07244713463
0.07244712802
0.07244713011
0.07244713357
0.07244713406
0.07244713355
0.07244713267
0.07244713421
0.07244713457
0.07244713456
0.07244713455
0.07244713451
0.07244713446
0.07244713437
0.07244713429
0.07244713429
0.07244713425
0.07244713467
0.07244713451
0.07244713435
0.07244713442
0.07244713442
0.07244713436
0.07244713429
0.07244713426
0.07244713426
0.07244713428
0.07244713436
0.07244713771
0.07244713375
0.07244711913
0.07244711223
0.07244713209
0.07244713395
0.07244713363
0.0724471331
0.07244713431
0.07244713456
0.0724471346
0.07244713462
0.07244713461
0.07244713458
0.07244713451
0.07244713441
0.07244713433
0.0724471342
0.07244713452
0.0724471342
0.07244713427
0.07244713437
0.07244713435
0.07244713426
0.07244713417
0.07244713415
0.07244713418
0.0724471342
0.07244713433
0.07244713649
0.07244713234
0.07244710291
0.0724470569
0.07244712681
0.07244713361
0.07244713336
0.07244713303
0.0724471343
0.07244713456
0.07244713461
0.07244713464
0.07244713461
0.07244713453
0.07244713445
0.07244713436
0.07244713423
0.07244713407
0.0724471341
0.07244713379
0.07244713415
0.07244713425
0.07244713421
0.0724471341
0.07244713402
0.07244713405
0.07244713409
0.07244713411
0.07244713429
0.07244713463
0.07244712974
0.07244707902
0.07244692671
0.07244711089
0.07244713281
0.0724471327
0.07244713247
0.07244713419
0.07244713452
0.07244713458
0.07244713461
0.07244713457
0.07244713442
0.07244713418
0.07244713397
0.0724471338
0.07244713366
0.07244713356
0.07244713348
0.0724471339
0.07244713403
0.07244713397
0.07244713383
0.07244713381
0.0724471339
0.07244713396
0.07244713398
0.07244713425
0.07244713301
0.07244712904
0.07244712239
0.07244711552
0.07244710989
0.07244713007
0.07244713083
0.07244713092
0.072447134
0.07244713445
0.07244713453
0.07244713454
0.07244713445
0.07244713425
0.07244713392
0.07244713356
0.07244713325
0.07244713297
0.07244713276
0.07244713264
0.07244713323
0.07244713359
0.07244713352
0.07244713345
0.07244713355
0.0724471337
0.07244713378
0.0724471338
0.07244713422
0.07244713507
0.0724471346
0.07244713275
0.07244712851
0.07244712468
0.07244712874
0.07244713045
0.07244713105
0.07244713455
0.07244713459
0.07244713454
0.07244713451
0.07244713442
0.07244713437
0.07244713441
0.07244713443
0.07244713442
0.07244713437
0.07244713425
0.07244713404
0.07244713379
0.07244713364
0.07244713357
0.07244713357
0.07244713363
0.07244713369
0.07244713372
0.07244713372
0.07244713424
0.07244713477
0.07244713417
0.07244713227
0.07244713089
0.07244713208
0.07244713285
0.07244713308
0.07244713301
0.07244713454
0.07244713458
0.07244713456
0.07244713446
0.07244713442
0.07244713449
0.07244713456
0.07244713457
0.07244713455
0.0724471345
0.07244713443
0.07244713432
0.0724471342
0.0724471341
0.07244713403
0.07244713399
0.07244713397
0.07244713394
0.07244713391
0.07244713386
0.07244713428
0.07244713478
0.07244713424
0.0724471327
0.07244713335
0.07244713401
0.07244713408
0.07244713399
0.07244713374
0.07244713448
0.07244713452
0.07244713454
0.07244713441
0.07244713447
0.07244713457
0.07244713461
0.07244713461
0.07244713458
0.07244713455
0.07244713449
0.07244713442
0.07244713436
0.07244713431
0.07244713427
0.07244713424
0.0724471342
0.07244713415
0.07244713409
0.07244713403
0.07244713432
0.07244713483
0.07244713481
0.07244713478
0.07244713471
0.07244713451
0.07244713426
0.07244713406
0.07244713383
0.07244713434
0.07244713435
0.07244713445
0.07244713443
0.07244713452
0.0724471346
0.07244713462
0.07244713461
0.07244713459
0.07244713456
0.07244713451
0.07244713447
0.07244713443
0.07244713441
0.07244713438
0.07244713435
0.07244713432
0.07244713426
0.0724471342
0.07244713413
0.07244713436
0.07244713483
0.0724471348
0.07244713475
0.07244713462
0.07244713437
0.07244713414
0.07244713393
0.07244713368
0.07244713402
0.07244713413
0.07244713432
0.07244713445
0.07244713456
0.07244713462
0.07244713462
0.0724471346
0.07244713458
0.07244713455
0.07244713451
0.07244713449
0.07244713447
0.07244713445
0.07244713443
0.0724471344
0.07244713436
0.07244713431
0.07244713424
0.07244713418
0.07244713439
0.07244713481
0.07244713476
0.07244713464
0.07244713439
0.07244713413
0.07244713494
0.07244713438
0.07244713351
0.07244713342
0.07244713394
0.07244713425
0.07244713446
0.07244713457
0.07244713461
0.07244713461
0.07244713458
0.07244713455
0.07244713452
0.0724471345
0.07244713449
0.07244713448
0.07244713446
0.07244713444
0.07244713441
0.07244713436
0.07244713431
0.07244713425
0.07244713419
0.07244713441
0.07244713479
0.07244713467
0.07244713442
0.07244713417
0.07244713401
0.07244713459
0.07244713392
0.07244713325
0.072447133
0.07244713379
0.07244713421
0.07244713448
0.07244713458
0.0724471346
0.07244713458
0.07244713455
0.07244713452
0.0724471345
0.07244713449
0.07244713449
0.07244713448
0.07244713446
0.07244713443
0.07244713439
0.07244713434
0.07244713428
0.07244713423
0.07244713418
0.07244713441
0.07244713472
0.07244713449
0.07244713424
0.07244713412
0.07244713398
0.07244713407
0.07244713363
0.07244713337
0.07244713324
0.07244713377
0.07244713416
0.07244713448
0.07244713457
0.07244713458
0.07244713455
0.0724471345
0.07244713447
0.07244713447
0.07244713448
0.07244713448
0.07244713447
0.07244713444
0.0724471344
0.07244713436
0.0724471343
0.07244713425
0.0724471342
0.07244713418
0.07244713441
0.07244713454
0.07244713434
0.07244713421
0.07244713412
0.07244713398
0.07244713386
0.07244713375
0.07244713375
0.07244713371
0.07244713389
0.07244713414
0.07244713447
0.07244713455
0.07244713455
0.0724471345
0.07244713445
0.07244713443
0.07244713445
0.07244713447
0.07244713447
0.07244713445
0.07244713442
0.07244713437
0.07244713432
0.07244713427
0.07244713422
0.07244713419
0.07244713419
0.07244713439
0.07244713438
0.0724471343
0.07244713419
0.0724471341
0.07244713399
0.07244713391
0.07244713399
0.07244713409
0.07244713407
0.07244713408
0.07244713416
0.07244713446
0.07244713453
0.07244713451
0.07244713445
0.0724471344
0.0724471344
0.07244713444
0.07244713446
0.07244713446
0.07244713443
0.07244713439
0.07244713435
0.0724471343
0.07244713425
0.07244713422
0.07244713421
0.07244713422
0.07244713436
0.07244713452
0.07244713455
0.07244713428
0.07244713455
0.07244713459
0.0724471346
0.07244713459
0.07244713457
0.07244713452
0.07244713448
0.07244713445
0.07244713444
0.07244713443
0.0724471344
0.07244713438
0.07244713437
0.07244713438
0.07244713439
0.0724471344
0.0724471344
0.07244713439
0.07244713438
0.07244713437
0.07244713435
0.07244713434
0.07244713433
0.07244713435
0.07244713444
0.07244713452
0.07244713725
0.07244714042
0.0724471353
0.07244714125
0.07244713519
0.07244714169
0.07244719493
0.0724472135
0.07244713495
0.07244713488
0.07244732275
0.07244734878
0.07244713485
0.07244713485
0.07244734279
0.07244736072
0.07244713483
0.07244713484
0.07244734079
0.0724473374
0.07244713512
0.07244714445
0.07244736588
0.07244736722
0.07244713538
0.07244713551
0.07244713538
0.07244713523
0.07244713523
0.07244713512
0.0724471351
0.07244713504
0.07244713494
0.07244713511
0.07244713501
0.07244713505
0.07244713537
0.07244713516
0.07244713544
0.07244713546
0.07244713571
0.0724471358
0.07244713543
0.07244713584
0.07244713585
0.07244713548
0.07244713585
0.07244713581
0.0724471359
0.07244713574
0.07244713577
0.07244713743
0.07244713557
0.07244713576
0.07244713533
0.07244713534
0.0724471353
0.07244713554
0.07244713543
0.07244713545
0.07244713525
0.07244713517
0.07244713525
0.07244713537
0.07244713505
0.07244713494
0.07244713494
0.07244713491
0.07244713528
0.07244713523
0.07244713524
0.07244713487
0.07244713495
0.07244713489
0.07244713499
0.07244713518
0.07244713515
0.07244713514
0.07244713559
0.07244713539
0.07244713547
0.07244713508
0.07244713528
0.07244713522
0.07244713523
0.07244713548
0.07244713599
0.07244713573
0.07244713583
0.07244713536
0.07244713529
0.07244713523
0.07244713522
0.07244713524
0.07244713546
0.0724471355
0.07244713582
0.07244713528
0.07244713524
0.07244713538
0.07244713674
0.07244713689
0.07244713783
0.07244713546
0.07244713528
0.07244713547
0.0724471376
0.07244713711
0.0724471374
0.07244713547
0.07244713534
0.0724471355
0.07244713727
0.07244713674
0.07244713707
0.0724471356
0.07244713546
0.07244713576
0.07244713681
0.07244713642
0.07244713668
0.07244713592
0.07244713565
0.07244713607
0.07244713643
0.07244713628
0.07244713584
0.07244713618
0.07244713623
0.07244713505
0.07244713514
0.07244713499
0.07244720678
0.07244713501
0.07244721438
0.07244725153
0.07244726051
0.07244727496
0.0724472886
0.07244713508
0.07244713515
0.07244713505
0.07244713493
0.07244713497
0.07244713492
0.07244713506
0.07244713502
0.07244713506
0.07244713548
0.07244713519
0.0724471355
0.07244713594
0.07244713586
0.07244713608
0.07244713599
0.07244713618
0.07244713605
0.07244713578
0.07244713587
0.07244713569
0.07244713558
0.07244713554
0.07244713549
0.07244713494
0.07244722159
0.07244729558
0.07244713501
0.07244731168
0.07244732486
0.07244713502
0.07244713505
0.07244713498
0.07244713491
0.07244713493
0.0724471349
0.07244713507
0.07244713502
0.07244713507
0.07244713552
0.0724471352
0.07244713554
0.07244713618
0.07244713595
0.07244713626
0.07244713601
0.0724471363
0.07244713587
0.07244713557
0.07244713561
0.07244713546
0.07244713541
0.07244713537
0.07244713534
0.07244713488
0.07244713492
0.07244713487
0.07244724053
0.07244713486
0.07244724331
0.07244733671
0.0724471349
0.07244713489
0.07244713492
0.07244713509
0.07244713503
0.0724471354
0.07244713562
0.07244713559
0.07244713589
0.07244713632
0.07244713612
0.07244713636
0.07244713567
0.07244713607
0.07244713547
0.07244713535
0.07244713534
0.07244713526
0.07244713484
0.07244713485
0.07244724435
0.07244713484
0.07244723714
0.07244735278
0.07244734565
0.07244713583
0.07244713516
0.07244713577
0.07244713603
0.07244713583
0.07244713587
0.07244713636
0.07244713602
0.07244713624
0.07244713528
0.07244713538
0.07244713514
0.07244713488
0.07244713568
0.07244713527
0.07244713524
0.07244713726
0.07244713555
0.07244713766
0.07244717978
0.07244713782
0.0724471954
0.07244713524
0.07244713523
0.07244713513
0.07244713564
0.07244713523
0.07244713523
0.07244713533
0.07244713508
0.07244713523
0.0724471361
0.0724471352
0.07244713526
0.07244713715
0.07244713547
0.0724471353
0.07244713695
0.07244713544
0.07244713539
0.07244713654
0.07244713546
0.07244713555
0.0724471364
0.07244713589
0.0724471358
0.07244713655
0.07244713698
0.0724471366
0.07244713542
0.0724471352
0.07244713509
0.07244723811
0.07244713518
0.072447135
0.07244713501
0.07244713518
0.07244713579
0.07244713602
0.07244713591
0.07244713564
0.07244713548
0.07244713512
0.07244713507
0.07244713496
0.07244713492
0.07244728085
0.07244729703
0.07244730915
0.0724471351
0.07244713495
0.07244713502
0.07244713519
0.07244713591
0.07244713628
0.07244713576
0.07244713545
0.07244713539
0.072447135
0.07244713491
0.07244713502
0.07244713525
0.07244713602
0.07244713623
0.07244713547
0.07244713529
0.07244713531
0.07244713516
0.07244713515
0.0724471423
0.07244725408
0.07244727592
0.07244728471
0.07244713488
0.07244713506
0.07244713597
0.07244713614
0.07244713579
0.07244713523
0.07244713518
0.0724471351
0.07244714275
0.07244736135
0.07244713543
0.07244713483
0.07244713485
0.07244714781
0.07244733444
0.07244732249
0.0724473231
0.07244713536
0.07244713485
0.07244715223
0.07244733029
0.07244731652
0.07244713549
0.0724471349
0.07244716475
0.07244734634
0.07244733048
0.07244713511
0.07244713527
0.07244715079
0.07244735616
0.07244734943
0.07244713547
0.07244713524
0.07244713527
0.07244713531
0.07244713527
0.07244713511
0.07244713758
0.07244717356
0.07244713598
0.07244713669
0.0724471352
0.0724471979
0.07244713773
0.07244718732
0.07244713686
0.07244713705
0.07244721808
0.07244723008
0.07244713723
0.07244724199
0.07244713657
0.07244713738
0.07244713603
0.0724471364
0.07244713541
0.07244713625
0.07244713611
0.07244714115
0.07244713619
0.07244713525
0.07244713617
0.07244714145
0.07244717098
0.07244718111
0.07244718805
0.07244719586
0.07244713492
0.07244722869
0.07244713517
0.07244713618
0.07244713617
0.07244719342
0.07244718141
0.07244714193
0.07244721056
0.0724472037
0.07244722113
0.0724472328
0.07244733018
0.0724473431
0.07244735405
0.07244713485
0.07244713509
0.07244713625
0.07244713639
0.07244714244
0.07244724424
0.07244732863
0.0724473423
0.07244730671
0.07244735403
0.07244713621
0.07244722625
0.0724472691
0.07244729134
0.07244735107
0.07244735439
0.07244713485
0.07244723227
0.07244713484
0.07244723816
0.07244734051
0.07244733196
0.07244732874
0.07244713695
0.07244713512
0.07244713678
0.07244733275
0.07244714313
0.07244714382
0.0724473215
0.07244733543
0.07244737261
0.07244737652
0.07244737459
0.0724473766
0.07244713655
0.07244728928
0.07244736951
0.07244713644
0.07244713485
0.0724471369
0.07244733042
0.07244715103
0.07244732631
0.07244732912
0.07244732838
0.07244732226
0.07244731605
0.07244713739
0.07244713486
0.07244713837
0.07244733167
0.07244715574
0.07244734597
0.07244732309
0.07244734023
0.07244733146
0.07244732386
0.07244714006
0.07244713543
0.07244714191
0.07244735072
0.07244717834
0.07244734935
0.07244733784
0.07244735163
0.07244734547
0.072447339
0.07244713848
0.07244713521
0.07244713767
0.07244733793
0.07244714741
0.07244733597
0.0724473546
0.07244736246
0.07244736396
0.07244736874
0.07244736039
)
;

boundaryField
{
    walls
    {
        type            zeroGradient;
    }
    wallFilmFace_top
    {
        type            zeroGradient;
    }
    region0_to_wallFilmRegion_wallFilmFace
    {
        type            zeroGradient;
    }
    mirrorFace_top
    {
        type            zeroGradient;
    }
    region0_to_wallFilmRegion_mirrorFace
    {
        type            zeroGradient;
    }
    procBoundary2to0
    {
        type            processor;
        value           nonuniform List<scalar> 
26
(
0.07244713767
0.07244712934
0.07244713667
0.07244713164
0.07244713154
0.07244713445
0.07244713437
0.07244713387
0.07244713194
0.07244712258
0.0724471319
0.07244712983
0.07244712222
0.07244713159
0.0724471166
0.07244710424
0.07244713457
0.07244713468
0.07244713468
0.07244713463
0.07244713447
0.07244713395
0.07244713331
0.07244713325
0.07244713331
0.07244713434
)
;
    }
    procBoundary2to1
    {
        type            processor;
        value           nonuniform List<scalar> 
33
(
0.07244677284
0.07244677284
0.07244713465
0.07244713465
0.07244713164
0.07244713135
0.07244712794
0.07244712794
0.07244680614
0.07244713219
0.07244713393
0.07244713429
0.07244713394
0.07244713411
0.0724471354
0.07244713548
0.0724471354
0.07244713572
0.07244713653
0.07244713634
0.07244713525
0.07244713396
0.07244713249
0.07244713149
0.07244713152
0.0724471348
0.0724471348
0.07244713475
0.07244713465
0.07244713442
0.07244713426
0.07244713438
0.07244713461
)
;
    }
    procBoundary2to3
    {
        type            processor;
        value           nonuniform List<scalar> 
64
(
0.07244714652
0.07244716258
0.07244716987
0.07244718122
0.07244722416
0.07244735897
0.07244736686
0.07244733252
0.07244736452
0.07244713601
0.07244713626
0.07244713536
0.0724471354
0.07244713626
0.07244713789
0.07244713841
0.07244713834
0.07244713798
0.07244713778
0.07244713771
0.07244713753
0.07244713711
0.07244713702
0.07244713665
0.07244713665
0.07244713667
0.0724471366
0.0724471366
0.07244713629
0.0724471366
0.07244726455
0.07244730091
0.07244726455
0.07244732115
0.07244733628
0.0724471379
0.07244720372
0.07244713601
0.0724471358
0.07244726455
0.07244730051
0.07244731455
0.0724473171
0.0724473108
0.07244732425
0.07244734366
0.0724471374
0.07244725336
0.07244713602
0.07244715655
0.07244716258
0.07244717521
0.07244720446
0.07244724523
0.07244736305
0.07244732163
0.07244736416
0.07244735622
0.07244737835
0.07244737573
0.07244731031
0.0724473174
0.07244733298
0.07244735551
)
;
    }
}


// ************************************************************************* //
