/*--------------------------------*- C++ -*----------------------------------*\
  =========                 |
  \\      /  F ield         | OpenFOAM: The Open Source CFD Toolbox
   \\    /   O peration     | Website:  https://openfoam.org
    \\  /    A nd           | Version:  8
     \\/     M anipulation  |
\*---------------------------------------------------------------------------*/
FoamFile
{
    version     2.0;
    format      ascii;
    class       volScalarField;
    location    "0.5/wallFilmRegion";
    object      T;
}
// * * * * * * * * * * * * * * * * * * * * * * * * * * * * * * * * * * * * * //

dimensions      [0 0 0 1 0 0 0];

internalField   nonuniform List<scalar> 
1342
(
299.9999891
300.0000139
299.9999937
300.0000164
300.0000262
300.0000011
300.0000014
300.0000026
300.0000059
300.0000188
300.0000244
300.0000549
300.0001551
300.0004843
300.0008857
300.0007154
300.0000031
300.0000014
300.0000014
300.000002
300.0000047
300.0000086
300.0000079
300.0000059
300.000005
300.0000024
299.9999964
299.9999923
299.9999888
299.9999733
300.0000191
300.0000401
300.0000007
300.0000011
300.0000021
300.0000041
300.0000107
300.0000303
300.0000884
300.0002806
300.0008079
300.0012211
300.001025
300.000004
300.0000024
300.0000025
300.0000037
300.0000088
300.0000117
300.0000078
300.0000049
300.0000038
300.0000018
300.000011
300.0000056
300.0000006
299.9999967
299.9999747
300.0000252
300.0000261
300.0000005
300.0000011
300.0000022
300.0000044
300.0000099
300.0000288
300.0000914
300.0003005
300.0008045
300.0012306
300.0011146
300.0000064
300.0000044
300.0000047
300.000007
300.0000172
300.0000176
300.0000091
300.000005
300.0000035
300.0000019
300.0000153
300.0000114
300.0000071
300.0000009
299.9999888
300.0000162
300.0000106
300.0000005
300.0000895
300.0000434
300.0000195
300.0000383
300.0001084
300.0004838
300.0011849
300.0014405
300.0013513
300.0012645
300.0000189
300.0000095
300.0000101
300.0000157
300.0000351
300.0000237
300.0000109
300.0000058
300.0000038
300.000002
300.0000031
299.9999906
299.9999873
300.0000031
300.0000009
300.0000013
300.0000012
300.0000003
300.0000004
300.0000004
300.0000005
300.0000006
300.0000008
300.0000011
300.0000018
300.0000035
300.0000095
300.000034
300.0000788
300.0000279
300.0000273
300.0000399
300.0000578
300.0000282
300.0000129
300.0000068
300.0000043
300.0000021
300.0016919
300.0000768
299.9999992
299.9999976
300.0000056
300.0000048
300.0000034
300.0000014
300.0000002
300.0000004
300.0000004
300.0000004
300.0000007
300.000001
300.0000015
300.0000027
300.0000063
300.0000194
300.0000692
300.0002064
300.0001144
300.0001078
300.0001124
300.0000587
300.0000306
300.0000155
300.0000083
300.000005
300.0000021
300.0000197
300.0000037
300.0000138
299.9999958
300.0000056
300.0000094
300.0000172
300.0000048
300.0000003
300.0000007
300.0000008
300.0000009
300.0000012
300.0000018
300.0000028
300.0000058
300.0000156
300.0000511
300.0001704
300.0004126
300.0000026
300.0000032
300.0000058
300.0000109
300.0000189
300.0000176
300.0000107
300.0000064
300.0000021
300.0000089
300.0000009
299.9999995
300.0000035
300.0000142
300.000012
300.0000093
300.0000098
300.0000002
300.0000007
300.0000011
300.0000019
300.0000028
300.0000046
300.0000076
300.0000168
300.000047
300.0001537
300.000405
300.0005091
300.0000023
300.0000024
300.0000068
300.0000163
300.0000152
300.000009
300.0000057
300.0000039
300.0000018
300.0000066
300.0000103
300.0000413
300.0000404
300.0000082
300.0000027
300.0000008
300.0000004
300.0000003
300.0000001
300.0000002
300.0000003
300.0000005
300.0000008
300.0000012
300.0000026
300.000012
300.0001088
300.0000071
300.0000594
300.0000029
300.0000015
300.0000201
300.0000176
300.0000102
300.0000063
300.0000041
300.000003
300.0000017
300.0000113
300.0000492
300.0032221
300.0034139
300.0000241
300.0000279
300.0000365
300.0000492
300.0000118
300.0000002
300.0000008
300.0000012
300.0000016
300.0000022
300.0000033
300.0000088
300.0000483
300.0003184
300.000003
300.0000101
300.0000047
300.0000015
300.0000012
300.0000015
300.0000023
300.0000032
300.000003
300.0000025
300.0000016
300.0000481
300.0029929
300.0034634
300.0033924
300.0000188
300.0000327
300.0000498
300.0000695
300.0000152
300.0000003
300.0000014
300.0000032
300.000005
300.0000083
300.0000189
300.0000643
300.0001631
300.0000878
300.0000017
300.0000053
300.0000007
300.0000003
300.0000003
300.0000003
300.0000005
300.0000007
300.0000009
300.0000011
300.0000016
299.9999983
300.0000074
300.0008065
300.0002144
300.0000139
300.0000501
300.0000779
300.0001168
300.0000231
300.0000004
300.0000018
300.0000055
300.0000138
300.0000296
300.0000473
300.0000408
300.0000219
300.0000126
300.000001
300.0000036
300.0000037
300.0000021
300.0000012
300.0000009
300.0000009
300.000001
300.0000011
300.0000012
300.0000017
299.9999961
299.9999973
300.0000185
300.0000157
300.000006
300.00001
300.0000209
300.0000389
300.0000083
300.0000006
300.0000019
300.0000041
300.0000066
300.0000083
300.0000095
300.0000046
300.000001
300.0000004
300
300.0000003
300.0000009
300.0000015
300.0000015
300.0000013
300.0000014
300.0000015
300.0000016
300.0000017
300.0000019
299.9999961
299.9999987
300.0000153
300.0000077
300.0000047
300.0000048
300.0000093
300.0000174
300.0000044
300.0000009
300.0000017
300.0000022
300.0000027
300.0000032
300.0000038
300.0000041
300.0000036
300.0000034
300.0000004
300.0000008
300.0000017
300.0000019
300.0000017
300.0000018
300.000002
300.0000022
300.0000023
300.0000022
300.0000022
299.9999821
300.0000009
300.0000341
300.0000236
300.0000063
300.0000038
300.0000064
300.0000108
300.0000031
300.0000012
300.0000013
300.0000014
300.0000016
300.0000018
300.0000023
300.0000027
300.0000027
300.0000029
300.0000008
300.0000016
300.0000024
300.000002
300.000002
300.0000023
300.0000026
300.0000028
300.0000028
300.0000027
300.0000023
299.9999855
300.0000054
300.0000787
300.0001133
300.0000137
300.0000044
300.000006
300.0000086
300.0000026
300.0000013
300.0000011
300.000001
300.0000011
300.0000012
300.0000016
300.0000021
300.0000025
300.0000031
300.0000015
300.0000031
300.0000028
300.0000023
300.0000024
300.0000028
300.0000033
300.0000034
300.0000032
300.0000031
300.0000025
299.9999916
300.0000124
300.0001599
300.0003905
300.0000402
300.0000061
300.0000073
300.000009
300.0000026
300.0000013
300.0000011
300.0000009
300.0000011
300.0000015
300.0000019
300.0000023
300.000003
300.0000038
300.0000036
300.0000052
300.0000034
300.0000029
300.0000031
300.0000036
300.000004
300.0000039
300.0000037
300.0000036
300.0000027
300.000001
300.0000255
300.0002797
300.001043
300.0001199
300.0000101
300.0000106
300.0000118
300.0000032
300.0000015
300.0000012
300.0000011
300.0000013
300.000002
300.0000032
300.0000043
300.0000051
300.0000058
300.0000064
300.0000067
300.0000046
300.000004
300.0000043
300.000005
300.0000051
300.0000046
300.0000043
300.0000042
300.0000029
300.0000091
300.000029
300.0000623
300.0000967
300.000125
300.0000238
300.00002
300.0000196
300.0000041
300.0000019
300.0000015
300.0000014
300.0000019
300.0000029
300.0000045
300.0000063
300.0000079
300.0000093
300.0000104
300.0000109
300.000008
300.0000062
300.0000065
300.0000069
300.0000064
300.0000057
300.0000052
300.0000051
300.000003
299.9999987
300.0000011
300.0000104
300.0000316
300.0000509
300.0000305
300.0000219
300.0000189
300.0000014
300.0000012
300.0000014
300.0000016
300.000002
300.0000023
300.0000021
300.000002
300.000002
300.0000022
300.0000029
300.0000039
300.0000052
300.0000059
300.0000063
300.0000063
300.000006
300.0000057
300.0000055
300.0000055
300.0000029
300.0000003
300.0000033
300.0000128
300.0000197
300.0000138
300.0000099
300.0000087
300.0000091
300.0000014
300.0000012
300.0000013
300.0000018
300.000002
300.0000017
300.0000013
300.0000013
300.0000014
300.0000016
300.000002
300.0000025
300.0000031
300.0000036
300.000004
300.0000042
300.0000043
300.0000044
300.0000046
300.0000048
300.0000027
300.0000002
300.0000029
300.0000106
300.0000074
300.0000041
300.0000037
300.0000042
300.0000054
300.0000017
300.0000015
300.0000014
300.0000021
300.0000018
300.0000013
300.0000011
300.0000011
300.0000012
300.0000014
300.0000017
300.000002
300.0000023
300.0000026
300.0000028
300.0000029
300.0000031
300.0000034
300.0000037
300.000004
300.0000025
300
300
300.0000002
300.0000006
300.0000016
300.0000028
300.0000038
300.000005
300.0000024
300.0000024
300.0000019
300.000002
300.0000015
300.0000011
300.000001
300.0000011
300.0000012
300.0000013
300.0000016
300.0000018
300.000002
300.0000021
300.0000022
300.0000024
300.0000025
300.0000028
300.0000031
300.0000035
300.0000023
300
300.0000001
300.0000004
300.000001
300.0000023
300.0000034
300.0000045
300.0000057
300.000004
300.0000035
300.0000025
300.0000019
300.0000013
300.000001
300.000001
300.0000011
300.0000012
300.0000014
300.0000016
300.0000017
300.0000018
300.0000019
300.000002
300.0000021
300.0000023
300.0000026
300.0000029
300.0000032
300.0000022
300
300.0000003
300.0000009
300.0000022
300.0000035
299.9999994
300.0000022
300.0000066
300.000007
300.0000044
300.0000029
300.0000018
300.0000013
300.0000011
300.0000011
300.0000012
300.0000014
300.0000015
300.0000016
300.0000017
300.0000017
300.0000018
300.0000019
300.0000021
300.0000023
300.0000026
300.0000029
300.0000032
300.0000021
300.0000002
300.0000008
300.000002
300.0000033
300.0000041
300.0000012
300.0000045
300.0000079
300.0000091
300.0000052
300.0000031
300.0000017
300.0000012
300.0000011
300.0000012
300.0000014
300.0000015
300.0000016
300.0000017
300.0000017
300.0000017
300.0000018
300.000002
300.0000022
300.0000024
300.0000027
300.000003
300.0000032
300.0000021
300.0000005
300.0000017
300.0000029
300.0000035
300.0000042
300.0000038
300.000006
300.0000073
300.000008
300.0000053
300.0000033
300.0000017
300.0000013
300.0000012
300.0000014
300.0000016
300.0000018
300.0000018
300.0000017
300.0000017
300.0000018
300.0000019
300.0000021
300.0000023
300.0000026
300.0000029
300.0000031
300.0000033
300.0000021
300.0000014
300.0000024
300.0000031
300.0000035
300.0000042
300.0000048
300.0000054
300.0000054
300.0000056
300.0000047
300.0000034
300.0000017
300.0000013
300.0000014
300.0000016
300.0000019
300.000002
300.0000019
300.0000018
300.0000018
300.0000019
300.000002
300.0000023
300.0000025
300.0000028
300.000003
300.0000032
300.0000032
300.0000022
300.0000022
300.0000026
300.0000032
300.0000036
300.0000042
300.0000046
300.0000042
300.0000037
300.0000038
300.0000037
300.0000033
300.0000018
300.0000015
300.0000016
300.0000019
300.0000021
300.0000021
300.0000019
300.0000018
300.0000018
300.000002
300.0000021
300.0000024
300.0000026
300.0000029
300.000003
300.0000031
300.000003
300.0000023
300.0000015
300.0000014
300.0000027
300.0000014
300.0000012
300.0000011
300.0000012
300.0000013
300.0000015
300.0000017
300.0000019
300.0000019
300.000002
300.0000021
300.0000022
300.0000023
300.0000022
300.0000022
300.0000021
300.0000021
300.0000022
300.0000022
300.0000023
300.0000024
300.0000024
300.0000025
300.0000024
300.0000019
300.0000015
299.9999878
299.9999719
299.9999976
299.9999678
299.9999981
299.9999656
299.9996987
299.9996057
299.9999994
299.9999997
299.9990581
299.9989277
299.9999999
299.9999999
299.9989577
299.9988678
300
299.9999999
299.9989677
299.9989847
299.9999985
299.9999518
299.998842
299.9988353
299.9999972
299.9999966
299.9999972
299.999998
299.999998
299.9999985
299.9999986
299.9999989
299.9999994
299.9999986
299.9999991
299.9999988
299.9999972
299.9999983
299.9999969
299.9999968
299.9999956
299.9999951
299.9999969
299.9999949
299.9999948
299.9999967
299.9999948
299.999995
299.9999946
299.9999954
299.9999953
299.9999869
299.9999963
299.9999953
299.9999975
299.9999974
299.9999976
299.9999964
299.999997
299.9999968
299.9999979
299.9999983
299.9999979
299.9999972
299.9999989
299.9999994
299.9999994
299.9999996
299.9999977
299.999998
299.9999979
299.9999997
299.9999994
299.9999997
299.9999992
299.9999982
299.9999984
299.9999984
299.9999962
299.9999972
299.9999968
299.9999987
299.9999977
299.999998
299.999998
299.9999967
299.9999941
299.9999955
299.999995
299.9999973
299.9999977
299.999998
299.999998
299.9999979
299.9999968
299.9999966
299.999995
299.9999977
299.9999979
299.9999972
299.9999904
299.9999897
299.9999849
299.9999968
299.9999977
299.9999967
299.9999861
299.9999886
299.9999871
299.9999967
299.9999974
299.9999966
299.9999877
299.9999904
299.9999887
299.9999961
299.9999968
299.9999953
299.99999
299.999992
299.9999907
299.9999945
299.9999959
299.9999938
299.9999919
299.9999927
299.9999949
299.9999932
299.999993
299.9999989
299.9999984
299.9999992
299.9996394
299.9999991
299.9996013
299.9994151
299.9993701
299.9992977
299.9992293
299.9999987
299.9999984
299.9999989
299.9999995
299.9999992
299.9999995
299.9999988
299.999999
299.9999988
299.9999967
299.9999982
299.9999966
299.9999944
299.9999948
299.9999937
299.9999941
299.9999932
299.9999938
299.9999952
299.9999948
299.9999957
299.9999962
299.9999964
299.9999967
299.9999994
299.9995651
299.9991943
299.9999991
299.9991136
299.9990476
299.999999
299.9999988
299.9999992
299.9999996
299.9999995
299.9999996
299.9999988
299.999999
299.9999988
299.9999965
299.9999981
299.9999964
299.9999932
299.9999943
299.9999928
299.9999941
299.9999926
299.9999948
299.9999963
299.999996
299.9999968
299.9999971
299.9999973
299.9999974
299.9999997
299.9999995
299.9999998
299.9994702
299.9999998
299.9994563
299.9989882
299.9999996
299.9999997
299.9999995
299.9999986
299.999999
299.9999971
299.999996
299.9999962
299.9999946
299.9999925
299.9999935
299.9999923
299.9999957
299.9999937
299.9999968
299.9999973
299.9999974
299.9999978
299.9999999
299.9999999
299.9994511
299.9999999
299.9994872
299.9989076
299.9989434
299.9999949
299.9999983
299.9999952
299.999994
299.999995
299.9999948
299.9999923
299.999994
299.9999929
299.9999977
299.9999972
299.9999984
299.9999997
299.9999957
299.9999978
299.9999979
299.9999878
299.9999964
299.9999858
299.9997747
299.999985
299.9996964
299.9999979
299.999998
299.9999984
299.9999959
299.999998
299.999998
299.9999974
299.9999987
299.999998
299.9999936
299.9999981
299.9999978
299.9999884
299.9999967
299.9999976
299.9999894
299.9999969
299.9999972
299.9999914
299.9999968
299.9999964
299.9999921
299.9999946
299.9999951
299.9999913
299.9999892
299.9999911
299.999997
299.9999981
299.9999987
299.9994823
299.9999982
299.9999991
299.9999991
299.9999982
299.9999951
299.999994
299.9999946
299.9999959
299.9999967
299.9999985
299.9999988
299.9999993
299.9999995
299.9992682
299.999187
299.9991263
299.9999986
299.9999994
299.999999
299.9999982
299.9999946
299.9999927
299.9999953
299.9999969
299.9999972
299.9999991
299.9999996
299.999999
299.9999979
299.999994
299.9999929
299.9999968
299.9999977
299.9999976
299.9999983
299.9999984
299.9999625
299.9994023
299.9992928
299.9992488
299.9999997
299.9999988
299.9999942
299.9999934
299.9999952
299.999998
299.9999982
299.9999986
299.9999603
299.9988647
299.999997
299.9999999
299.9999999
299.9999349
299.9989996
299.9990594
299.9990564
299.9999973
299.9999999
299.9999128
299.9990204
299.9990894
299.9999967
299.9999996
299.99985
299.9989399
299.9990194
299.9999986
299.9999978
299.99992
299.9988907
299.9989244
299.9999968
299.9999979
299.9999978
299.9999976
299.9999978
299.9999985
299.9999862
299.9998058
299.9999942
299.9999907
299.9999981
299.9996839
299.9999854
299.9997369
299.9999898
299.9999888
299.9995828
299.9995226
299.9999879
299.9994629
299.9999913
299.9999872
299.9999939
299.9999921
299.9999971
299.9999929
299.9999936
299.9999683
299.9999931
299.9999979
299.9999932
299.9999668
299.9998188
299.999768
299.9997332
299.9996941
299.9999995
299.9995296
299.9999983
299.9999932
299.9999932
299.9997063
299.9997665
299.9999644
299.9996204
299.9996548
299.9995674
299.999509
299.9990209
299.9989562
299.9989013
299.9999998
299.9999987
299.9999929
299.9999921
299.9999618
299.9994516
299.9990287
299.9989601
299.9991385
299.9989014
299.999993
299.9995418
299.9993271
299.9992156
299.9989162
299.9988996
299.9999999
299.9995116
299.9999999
299.9994821
299.9989692
299.999012
299.9990281
299.9999894
299.9999985
299.9999902
299.999008
299.9999584
299.9999549
299.9990644
299.9989946
299.9988083
299.9987886
299.9987983
299.9987883
299.9999913
299.9992259
299.9988238
299.9999919
299.9999999
299.9999896
299.9990197
299.9999188
299.9990403
299.9990262
299.9990299
299.9990606
299.9990917
299.9999871
299.9999998
299.9999822
299.9990134
299.9998952
299.9989418
299.9990564
299.9989706
299.9990145
299.9990526
299.9999738
299.999997
299.9999645
299.998918
299.9997819
299.9989248
299.9989825
299.9989134
299.9989443
299.9989767
299.9999817
299.9999981
299.9999857
299.9989821
299.9999369
299.9989919
299.9988985
299.9988591
299.9988516
299.9988277
299.9988695
)
;

boundaryField
{
    walls
    {
        type            zeroGradient;
    }
    wallFilmFace_top
    {
        type            zeroGradient;
    }
    region0_to_wallFilmRegion_wallFilmFace
    {
        type            zeroGradient;
    }
    mirrorFace_top
    {
        type            zeroGradient;
    }
    region0_to_wallFilmRegion_mirrorFace
    {
        type            zeroGradient;
    }
    procBoundary2to0
    {
        type            processor;
        value           nonuniform List<scalar> 
26
(
299.9999857
300.0000275
299.9999907
300.000016
300.0000164
300.0000019
300.0000023
300.0000048
300.0000145
300.0000613
300.0000147
300.000025
300.0000631
300.0000162
300.0000913
300.0001533
300.0000013
300.0000007
300.0000007
300.000001
300.0000018
300.0000044
300.0000076
300.0000079
300.0000076
300.0000024
)
;
    }
    procBoundary2to1
    {
        type            processor;
        value           nonuniform List<scalar> 
33
(
300.0018142
300.0018142
300.0000009
300.0000009
300.0000159
300.0000174
300.0000345
300.0000345
300.0016473
300.0000132
300.0000045
300.0000027
300.0000044
300.0000036
299.9999971
299.9999967
299.9999971
299.9999955
299.9999915
299.9999924
299.9999979
300.0000043
300.0000117
300.0000167
300.0000166
300.0000001
300.0000001
300.0000003
300.0000009
300.000002
300.0000028
300.0000022
300.0000011
)
;
    }
    procBoundary2to3
    {
        type            processor;
        value           nonuniform List<scalar> 
64
(
299.9999414
299.9998609
299.9998243
299.9997675
299.9995523
299.9988766
299.9988371
299.9990092
299.9988488
299.999994
299.9999928
299.9999973
299.9999971
299.9999928
299.9999846
299.999982
299.9999824
299.9999842
299.9999852
299.9999855
299.9999865
299.9999885
299.999989
299.9999909
299.9999909
299.9999907
299.9999911
299.9999911
299.9999926
299.9999911
299.9993498
299.9991676
299.9993498
299.9990662
299.9989903
299.9999846
299.9996547
299.999994
299.9999951
299.9993498
299.9991696
299.9990993
299.9990865
299.9991181
299.9990506
299.9989533
299.9999871
299.9994059
299.999994
299.9998911
299.9998609
299.9997976
299.999651
299.9994467
299.9988561
299.9990638
299.9988506
299.9988904
299.9987795
299.9987926
299.9991205
299.999085
299.9990069
299.9988939
)
;
    }
}


// ************************************************************************* //
