/*--------------------------------*- C++ -*----------------------------------*\
  =========                 |
  \\      /  F ield         | OpenFOAM: The Open Source CFD Toolbox
   \\    /   O peration     | Website:  https://openfoam.org
    \\  /    A nd           | Version:  8
     \\/     M anipulation  |
\*---------------------------------------------------------------------------*/
FoamFile
{
    version     2.0;
    format      ascii;
    class       volScalarField;
    location    "0.6";
    object      epsilon;
}
// * * * * * * * * * * * * * * * * * * * * * * * * * * * * * * * * * * * * * //

dimensions      [0 2 -3 0 0 0 0];

internalField   nonuniform List<scalar> 
67451
(
0.2659135899
0.2439622184
0.2270068557
0.2495847652
0.272079248
0.2621235169
0.1643907119
0.1009606333
0.09990623353
0.0864078176
0.08758229509
0.03984825913
0.07713721313
0.1244871854
0.1727415154
0.202190055
0.2136558819
0.1959266591
0.2091302921
0.2022623316
0.1807661344
0.1188686705
0.06813713838
0.05555560898
0.06286491877
0.0817951707
0.08962257236
0.09495035216
0.1116955573
0.1304711065
0.1390023542
0.1387244985
0.1375781351
0.1385207748
0.1375856502
0.1249826464
0.1055931226
0.003117698591
0.004055403051
0.02838261268
0.04855912673
0.07366953628
0.09934460789
0.116796025
0.1204101276
0.1087913995
0.1199923323
0.105655679
0.08798390555
0.09240038188
0.04277740427
0.041459225
0.05689666672
0.08743523962
0.1005841408
0.1167067456
0.1640624489
0.1853942312
0.177620536
0.1591937799
0.1439180891
0.1359677126
0.1307387046
0.1134866802
0.09116143572
0.02408541708
0.03056143454
0.03748252691
0.04619215524
0.05417824846
0.06060394089
0.07053737764
0.09133433244
0.1277791369
0.08483521395
0.05917547312
0.03521594396
0.0259313628
0.032600857
0.04104606952
0.05399602781
0.08272986677
0.1016331666
0.1123614982
0.1264944343
0.1408361843
0.1412092272
0.1335346422
0.1258800076
0.1197400574
0.1062108169
0.08059317112
0.05633597774
0.04971759588
0.05511884865
0.06080212751
0.06763889619
0.07518477937
0.09168793023
0.1279106169
0.199189588
0.1389269815
0.0899635138
0.05210458893
0.03296350603
0.03128697783
0.03333148903
0.04125373391
0.05926892087
0.09207422145
0.1148496772
0.1247679187
0.1286946713
0.130253894
0.1295775173
0.1258926681
0.1166106679
0.09726524029
0.06909086481
0.04778284772
0.06263348832
0.06615538745
0.06745730596
0.07270247334
0.07845336566
0.09048797963
0.1083657144
0.133078605
0.2004387634
0.1414357275
0.08933057018
0.0519033364
0.03351494602
0.03347788016
0.04403081793
0.08038226063
0.1052524027
0.1264022458
0.1423464818
0.1466485215
0.134386422
0.116039174
0.1010518702
0.08539949226
0.06488608156
0.0455579112
0.03640528788
0.0670838197
0.06977915142
0.0675090296
0.0716717712
0.07765348712
0.09671949546
0.1378534908
0.199764174
0.287867546
0.2615426428
0.1549464636
0.09233860363
0.05864120268
0.06608030511
0.08199017911
0.167934497
0.216036821
0.2524036401
0.2743031368
0.2668754462
0.2321904241
0.1736947735
0.1177503124
0.0810499349
0.05942195858
0.04547091714
0.03830566603
0.07361597739
0.06893197388
0.06343841795
0.06554355151
0.06717825658
0.08585477257
0.1158673068
0.1914566453
0.2974393938
0.2108589259
0.1355069998
0.09504965169
0.07583977712
0.1189039686
0.1541188847
0.2075019875
0.2790431024
0.3444475194
0.383277505
0.3714243751
0.3357477619
0.2669235652
0.1873564466
0.1240007591
0.08360965592
0.05733263761
0.04232897524
0.07598354541
0.06938519078
0.05946016418
0.06029406719
0.06187669603
0.100662223
0.08960581181
0.09704290951
0.1767759047
0.1157552633
0.08696430213
0.07552938566
0.0924365752
0.1704513464
0.2518289041
0.3032571293
0.386341732
0.4596125667
0.4925617348
0.4758025496
0.4188089855
0.336978832
0.2524372322
0.1812582625
0.1285607271
0.08753167277
0.05965979645
0.0894230029
0.07771735854
0.05955465946
0.05567200854
0.06392558973
0.1926017866
0.1415546225
0.09668369355
0.1066013739
0.101358902
0.0959289579
0.08900116346
0.1572824093
0.2161256914
0.3028940086
0.3865936598
0.5216547861
0.5999437703
0.6007237728
0.5462060499
0.4625123809
0.3736449179
0.2967900376
0.2321496949
0.1786865317
0.1309389303
0.0946592329
0.1004888852
0.07947461993
0.05805292855
0.06413196965
0.1239718457
0.3475170866
0.2897797616
0.1590643396
0.1201813822
0.104423086
0.09191160583
0.1493910735
0.4355751428
0.4383751013
0.474848622
0.5528462487
0.7172176325
0.7301497735
0.677958125
0.5879848928
0.4892458175
0.4015691359
0.3304138989
0.2758087331
0.2273370884
0.177090684
0.135344528
0.08172704108
0.07639867685
0.08057847812
0.1219363076
0.2254391604
0.4825704608
0.5947639808
0.3740050584
0.2144930007
0.1323913909
0.1665971014
0.5549230601
1.031810518
0.7711732746
0.6364086823
0.7124742955
0.7447903111
0.7174655487
0.6597676084
0.5812760605
0.5009379793
0.4327808767
0.3736075974
0.3193400813
0.2708056325
0.2188815312
0.1764309893
0.07896224578
0.07540593758
0.07889718418
0.1130566524
0.2002126258
0.4075817975
0.4404068795
0.2510553323
0.1491829375
0.1415132155
0.8261291458
1.427852631
1.684737534
1.270660104
0.7758058327
0.7145035467
0.7058187061
0.6687830031
0.6212397871
0.5636703078
0.504711137
0.4515399236
0.4020077871
0.351009999
0.3009083262
0.2526712211
0.2131084156
0.07938683791
0.07821377322
0.07690813512
0.09409787626
0.1482165506
0.2611832613
0.2548486159
0.1728221028
0.1403218203
0.6058581935
1.527777453
2.113695594
2.288488788
1.903661202
1.272030054
0.70755232
0.6696291715
0.6425475583
0.6003310803
0.5503176185
0.4992390787
0.4502434845
0.4006373096
0.3470429143
0.2932641978
0.2434952861
0.2059800818
0.07717175296
0.08011211896
0.07890324948
0.087382174
0.1166446323
0.1767884749
0.2181583342
0.6788485291
0.7678913937
1.410535259
2.094860351
2.49334414
2.517450119
2.313673724
1.889171164
1.335036458
0.8728251261
0.6675434329
0.5819649946
0.5257727702
0.4777222086
0.4312945294
0.3822175058
0.3287561246
0.2759593934
0.2245336553
0.1910273998
0.09238537145
0.1703493833
0.08596967513
0.1201566799
0.2067519289
0.3566437149
0.6185474101
1.187474997
1.039044326
1.534552802
2.060346601
2.308063401
2.282834324
2.138014567
1.86724706
1.522691538
1.165636511
0.8742555581
0.6734947205
0.5520634532
0.474608409
0.415321442
0.361434487
0.3076626348
0.2569022308
0.2088233392
0.1796307546
0.2567699043
0.6175233235
0.1010935034
0.1604634506
0.3037194169
0.4893928619
0.6740843127
1.113848467
1.13525312
1.23701117
1.749296108
1.947289571
1.968959964
1.874449865
1.679020781
1.436141298
1.208033566
0.9726670563
0.7651695874
0.597066299
0.4814496511
0.4021781025
0.3405244751
0.2856135751
0.2353369647
0.1909147133
0.166396311
0.8363656354
1.693859581
0.5745779185
0.1579178174
0.2425683799
0.4239639601
0.5920022533
0.9197514629
0.9123449692
1.162419671
1.480486329
1.612319736
1.666234468
1.61956082
1.486736036
1.3250218
1.15318786
0.9776475807
1.282105356
0.8006438502
0.4948992297
0.3864004143
0.3160718127
0.2591028577
0.2117724981
0.1721623853
0.1519522424
0.9823226207
1.644883154
0.8387149233
0.3560592458
0.1456606332
0.2500891824
0.4392612682
0.6620628176
0.7330615831
1.03702875
1.514043514
2.064045303
1.464344295
1.402391796
1.32922359
1.180861298
1.050809197
0.9116810833
0.7897231156
0.5891706002
0.4467859675
0.3502403794
0.2810416894
0.2283708668
0.1874787444
0.1538240053
0.1371775508
0.5738530351
1.110508532
0.5354654037
0.213524444
0.1145258722
0.1459685341
0.2522584963
0.4301720328
0.5147429353
0.864380608
1.390518287
3.125816689
1.726086141
1.294984759
1.220039542
1.060802412
0.9191478939
0.8106746752
0.6670172263
0.5147376394
0.3909787143
0.3028045022
0.2413376832
0.1972063988
0.1643285347
0.1366119389
0.1225419314
0.3654178714
0.6712498002
0.262542019
0.1281810602
0.1177906215
0.115013128
0.1436725011
0.2312063612
0.2656702411
0.5184405941
0.8428481911
1.591573498
1.13471647
1.025957592
0.9783822493
0.9131800593
0.7768158431
0.6814602365
0.5616696785
0.4309323464
0.3246615377
0.2512995888
0.2023033386
0.1684748269
0.1433199217
0.1206490284
0.1082335898
0.3221523589
0.3775257517
0.1439554888
0.1112384239
0.1210912112
0.1070302027
0.1097865636
0.1322257543
0.1263190963
0.255043869
0.4863982242
0.8610651071
0.8146631437
0.8114795336
0.7583636267
0.7145017137
0.6349921206
0.5564325811
0.447433799
0.3386593714
0.2563792333
0.2024128245
0.1675620636
0.1435729923
0.1247507052
0.1058897034
0.09441161198
0.2971938334
0.2385933117
0.1149887795
0.1031606537
0.1173153601
0.1046927033
0.09809629775
0.09863166831
0.07912709837
0.1270601826
0.2583280205
0.4759850023
0.5757318716
0.6131178267
0.6011973701
0.5638017804
0.5083397642
0.4275359944
0.3332023883
0.2521726735
0.1962110251
0.1612888527
0.1390280736
0.1229128413
0.1086139381
0.09228243614
0.08119256672
0.2618246064
0.1876750289
0.1056336941
0.09191099208
0.1098293026
0.105318122
0.08915962469
0.08500494559
0.06783572353
0.08474237712
0.1468311505
0.2598912876
0.3760366237
0.4287781505
0.4482459504
0.4251151167
0.3727757001
0.303036899
0.2349168754
0.1830576555
0.1498559937
0.1299265393
0.1169096097
0.1061067783
0.09447606992
0.0794667839
0.06839209052
0.2101191771
0.1536839486
0.09321721885
0.08319072276
0.09960593547
0.1043583933
0.08067478887
0.07531372162
0.06578743803
0.07395890882
0.1042863826
0.1575312414
0.2359097405
0.280666435
0.3012549654
0.2871716081
0.249182141
0.2030699845
0.1626269249
0.1343084932
0.1172576177
0.107200824
0.09978945927
0.09175724816
0.08106462274
0.06645076961
0.05535484106
0.1674093138
0.1210633337
0.08209433711
0.084569899
0.09020502745
0.0984561717
0.0754187248
0.06933531405
0.06593648627
0.07293771886
0.09043654693
0.1160113181
0.1561667967
0.1823298951
0.1926204464
0.1822694651
0.1598478429
0.1349816348
0.114957962
0.1019620994
0.09455076757
0.08978736342
0.08476257513
0.07724923698
0.06616393431
0.05179356917
0.04114052785
0.1350380571
0.09529891882
0.08042642346
0.09231163201
0.08620353733
0.08979722989
0.07374560057
0.06759989986
0.06718793289
0.07384067179
0.08584664916
0.09903019761
0.1156786324
0.1253020182
0.125666617
0.1164294385
0.1041823558
0.0924935843
0.08422057222
0.07930372573
0.07621625103
0.07292915259
0.0676029576
0.05905304734
0.0474653663
0.03457473902
0.01567940856
0.105978315
0.07915834076
0.08167922964
0.09246026723
0.08218134978
0.08141856752
0.07228577741
0.06733891178
0.06771325943
0.07353844747
0.08224773065
0.08896223209
0.09306159515
0.09185250591
0.08595846165
0.07800385256
0.07066598923
0.06545447603
0.06218458391
0.0595856737
0.05623375194
0.05122887965
0.04423539679
0.03562512714
0.02622224321
0.004297593204
0.00386606412
0.08289332041
0.06949893717
0.07886477233
0.08525985493
0.07493796565
0.07337764941
0.06905952669
0.06618971144
0.06671266315
0.0708916651
0.07622468297
0.07815409347
0.07513097003
0.06796833632
0.05983127262
0.05347707087
0.04920871965
0.04628299798
0.04312007779
0.03810755946
0.03170160094
0.02514347607
0.01939581183
0.003705312959
0.00285702956
0.002066415241
0.00174818789
0.0650388022
0.05957496946
0.06939180622
0.07526320223
0.06723030699
0.06473532468
0.06270285517
0.06147061024
0.06183020999
0.06378431663
0.06528700674
0.06296719296
0.05619648721
0.04782937856
0.04126752209
0.03733600766
0.0345758473
0.03113980479
0.02564200027
0.004390668024
0.003132245585
0.002191569273
0.001669831673
0.001278326918
0.0009306801687
0.0006022087198
0.0004723870465
0.05239221737
0.04934294823
0.05417836122
0.05913610186
0.05623390645
0.05522778427
0.05462281429
0.05409543867
0.05368352731
0.05304606913
0.05094326765
0.04607939594
0.03941105129
0.03353912787
0.02978871476
0.027443725
0.02498268677
0.0128200473
0.003949698244
0.002531156209
0.001216162757
0.0005169556943
0.0002958214149
0.0002113419327
0.0001478731226
8.684722989e-05
6.285324826e-05
0.1589531866
0.1680254301
0.1598517427
0.1578627279
0.1917721085
0.1975838609
0.1348834511
0.07970614426
0.06994278439
0.0704016738
0.08179666991
0.02136944264
0.04490938893
0.07789157731
0.1131864871
0.1374380903
0.1479224171
0.1516741008
0.1420828635
0.148797396
0.1321404515
0.1012545374
0.05688145419
0.04518528923
0.04854216329
0.06584654844
0.08181305541
0.08912538775
0.09919079935
0.1124187965
0.1140291846
0.1057177907
0.1003829482
0.103453619
0.1040454372
0.08540220115
0.08217243551
0.0036493218
0.006523787163
0.01682695282
0.03300482729
0.05479221844
0.08153953435
0.1043623788
0.1126676636
0.11569293
0.1131131947
0.1075450386
0.126923365
0.09008100829
0.04464887558
0.03374180704
0.04591250485
0.06269240048
0.07947993409
0.1311809173
0.1689060605
0.1615757959
0.139863332
0.1110365513
0.08810930676
0.07722737331
0.06788907981
0.05866142669
0.06562048539
0.01022923669
0.0146994065
0.02125716825
0.02979589226
0.03797744022
0.04604088045
0.06153457222
0.08680215317
0.1127309758
0.0820594953
0.05865162411
0.03278766817
0.02478018444
0.01988662751
0.02861404697
0.06523775452
0.09069224808
0.1029864651
0.1104606603
0.1390194163
0.1410204497
0.1129711677
0.0841892859
0.06645989665
0.05603253007
0.04829111443
0.039896034
0.04377095146
0.02412494531
0.03161546113
0.03961060259
0.04540863542
0.04966117245
0.066181323
0.1193831641
0.1490657658
0.1018508569
0.08952596866
0.03447112805
0.02109056744
0.0216055661
0.03987647556
0.05370550427
0.07335286799
0.1150881586
0.1376913574
0.1486507199
0.1239556865
0.09956714598
0.07627632006
0.05980313494
0.05355943164
0.04541654605
0.03452578933
0.03812124437
0.02990986486
0.0414508396
0.04810916669
0.05404504448
0.05546990615
0.06533247995
0.09679842166
0.1486672265
0.1626618322
0.07138797051
0.04107432064
0.02806581956
0.02599885668
0.03640707836
0.05820294116
0.09446589154
0.1310311123
0.1472161506
0.1404488267
0.1204845109
0.1031021774
0.08340759791
0.06411283916
0.05265976316
0.04196767989
0.03119076914
0.03474744536
0.03766029377
0.05066538291
0.05226375428
0.06126386808
0.06546951457
0.08464958558
0.1419218112
0.2086191347
0.2053937176
0.2210868805
0.08542935378
0.05137760308
0.05064441785
0.07165291775
0.08713269909
0.1130196736
0.1617241961
0.1962014939
0.1971103351
0.1744404264
0.1445139961
0.110195808
0.08005010487
0.06209454807
0.05327294931
0.04124466301
0.03736563623
0.04568723797
0.04883781939
0.05193324292
0.066434643
0.07110955573
0.09186838586
0.1180276603
0.1803799565
0.2126045843
0.1448991385
0.06504016989
0.05136834562
0.09281444454
0.1910021626
0.1988144489
0.2063567608
0.2368757142
0.2593920062
0.2451290591
0.2122419157
0.1774929264
0.1413046796
0.1040804043
0.07717279852
0.06294451932
0.05109838633
0.03977699466
0.05545247437
0.05925232128
0.05530991471
0.07705178718
0.1005071291
0.1358614248
0.1026111165
0.1131360996
0.1215273153
0.0818357857
0.06092753974
0.0528933974
0.07157403568
0.2064223111
0.2833535663
0.2758816542
0.3160892082
0.3348787562
0.3090303145
0.2645814374
0.2103327884
0.1571482943
0.1168602949
0.09241003474
0.07871396825
0.06354679021
0.04968103265
0.08532042449
0.08337045726
0.06265254954
0.08137282693
0.1525420733
0.4543766434
0.1912761935
0.1403758344
0.1710933551
0.1256641758
0.1003332586
0.07360661528
0.1082476136
0.1696197376
0.2510739974
0.3230117532
0.3821184993
0.4081309667
0.3743492689
0.3029555074
0.2239969847
0.157516596
0.1120253449
0.09506907639
0.09390318285
0.08453428199
0.07344782172
0.1055564039
0.09424124637
0.06957243269
0.09689757121
0.3401107573
0.7815641443
0.6503212201
0.2554341827
0.1695134618
0.13071256
0.1129091133
0.1260278524
0.2375892145
0.2879573671
0.3662951854
0.4609621638
0.5080974919
0.5084088903
0.4454852074
0.3480422169
0.2570586008
0.1924737153
0.1462428136
0.1182688306
0.1141221228
0.1089670945
0.1046566118
0.06241119119
0.07809728427
0.07074634737
0.1270547262
0.4252483587
1.113541188
1.062786293
0.3584970412
0.1533035035
0.1207731715
0.1305815982
0.2798727454
0.5377509286
0.4917173215
0.5460814955
0.4992015578
0.4622608081
0.4300381948
0.3837875881
0.3240436885
0.2667257244
0.2275278055
0.1964623804
0.1659906665
0.1477561437
0.1419704515
0.1491263663
0.05835570883
0.06812449619
0.07429101952
0.09073427027
0.2296407842
0.7806230839
0.6563093506
0.1756934748
0.1184266184
0.1622231505
0.5001055568
0.7635552068
0.8406668372
0.7444379334
0.7011023504
0.5423171666
0.4418957587
0.3912778182
0.348825672
0.3037975714
0.2625146746
0.233121869
0.2111159311
0.1868394925
0.1660574605
0.1580485587
0.1875940959
0.08567538197
0.09672552068
0.07816670785
0.09384905285
0.142073544
0.3637349395
0.2890208886
0.1615800811
0.1576768333
0.4614263545
1.046586097
1.596158675
1.51795993
1.179483025
0.9019367614
0.6889560196
0.4967581228
0.3960515563
0.3340698489
0.2875848911
0.2522916604
0.2286309906
0.2095989168
0.1865050498
0.1641421497
0.1589224023
0.1910728374
0.08370625282
0.08963616329
0.08045381099
0.09676807101
0.1403086324
0.2864118751
0.6524048638
0.6571974922
0.6054060008
0.9566211762
1.573592184
1.597557791
1.470291628
1.362874625
1.144499114
0.8396601531
0.5921677435
0.4217024739
0.3218161943
0.2624421134
0.2269915843
0.205686235
0.1886310301
0.1684717375
0.1492942006
0.1479041154
0.178889149
0.1024194362
0.13598573
0.08223521702
0.1326221964
0.2618835957
0.5288710359
0.9364838535
1.235424299
1.132123003
0.9641895808
1.446553561
1.415935576
1.269988035
1.167451552
0.9793365416
0.7339752323
0.5318617647
0.4110898933
0.3284467378
0.2545470499
0.2080225996
0.1837933869
0.1650266373
0.1462937153
0.1320440103
0.1312568494
0.1635598265
0.3347211413
0.9972513673
0.1348505204
0.1215507912
0.2400633721
0.5055009161
0.7688013487
1.102814691
1.191966789
0.9170190684
1.255178146
1.224709909
1.080125235
0.9997760135
0.8438444482
0.6436240891
0.5112243123
0.5849516136
0.6088809575
0.3674926739
0.2300212906
0.1719980532
0.1463572972
0.1291639523
0.1190706303
0.1181286166
0.1483642619
1.152294483
1.768984012
0.9078940342
0.139803878
0.1465659433
0.271294747
0.5058463564
0.820947764
0.7597689878
0.8161753119
1.169718456
1.291047779
0.9398132005
0.8690100878
0.7424489122
0.5784852169
0.498402289
0.8151217264
3.82313311
2.345639614
0.5217265202
0.1910926131
0.1376499218
0.1200912427
0.1104500303
0.1083487161
0.1343423865
1.224153966
1.663934538
0.8834478947
0.1459437399
0.1121036194
0.1444063158
0.1632985508
0.285065884
0.470997292
0.8297157426
2.331107379
2.696446595
1.325830271
0.9211990467
0.8922412379
0.6297272121
0.4341792921
0.4730836363
1.092860594
0.5282928875
0.2266221077
0.1517333349
0.1264767753
0.111142437
0.1022626554
0.09956667846
0.1213551979
0.3927389274
1.123931304
0.3189266402
0.1202530033
0.1343713752
0.1422087705
0.1236073951
0.1502681268
0.233163676
0.4581723111
1.723336975
3.404606684
1.4616422
0.9619970376
0.8618665249
0.651712629
0.4018305198
0.3291930638
0.3687726499
0.2384650401
0.1661369645
0.1334725853
0.1144842515
0.1013957653
0.0940293978
0.09076508516
0.1089674238
0.205230278
0.4265760067
0.1157738918
0.1084582336
0.1453520876
0.1140481157
0.104136284
0.1138803658
0.1087683139
0.1998650252
0.4983590929
1.301608445
0.7584135649
0.6095194954
0.6391621254
0.6196513632
0.380039919
0.2770815144
0.2346967067
0.1804200723
0.139973682
0.1158980858
0.1014623957
0.0918707628
0.08608265612
0.08183497232
0.09682825997
0.1644112511
0.192706793
0.08615647226
0.0969510707
0.1384114522
0.0964465184
0.08702405363
0.09128660677
0.06783337152
0.09776195984
0.1764063538
0.3928840569
0.3264619282
0.3363501747
0.379092229
0.4114708266
0.2904886799
0.2230437856
0.1822024115
0.1422633282
0.113613721
0.09790613755
0.08971972885
0.08391908712
0.07885406105
0.07304013902
0.08478899799
0.132608115
0.1310082802
0.07615069142
0.08093987297
0.1268936167
0.0874489267
0.07314362052
0.07449125633
0.05415753334
0.06062982148
0.09420769737
0.1691896103
0.1851763849
0.20865842
0.2317229379
0.2421586595
0.2047578491
0.1723672072
0.1382801341
0.1089577878
0.09110175861
0.08372661299
0.08120694588
0.07782023392
0.07213042098
0.06440830524
0.0727693982
0.1119283396
0.09999108222
0.07245490715
0.07635873299
0.1117578959
0.09188154835
0.06401226762
0.06011202687
0.04860335576
0.05153452123
0.07295542308
0.1127561025
0.1486338173
0.1672493479
0.1767274555
0.1725238341
0.1565894356
0.1311841406
0.1049235968
0.08565421489
0.07640661356
0.07504530238
0.07555354534
0.07224686591
0.06489331886
0.0555338948
0.06053835419
0.08458460376
0.08281489167
0.07900147797
0.08925191399
0.1021358221
0.1001384625
0.05832677988
0.04990785869
0.04583521572
0.0526109576
0.07709999454
0.1055485353
0.1341440892
0.1445353207
0.1470361463
0.1392589534
0.1214417032
0.1014957683
0.08364440112
0.07235661035
0.06873382532
0.07000667457
0.07018675391
0.06500027077
0.05584983077
0.04572882212
0.04752468983
0.07580288802
0.07682864813
0.09009524239
0.0971064222
0.0957089587
0.09090643531
0.05767111298
0.0452114793
0.04440746435
0.05564825331
0.08459469873
0.1049442007
0.1129181481
0.1142118415
0.1143483315
0.1119872554
0.09375883709
0.08008353917
0.06957340584
0.06414106579
0.06342074894
0.06421061453
0.06170346515
0.05419314148
0.04417415996
0.03413493218
0.00809684654
0.06566137493
0.07150149806
0.08837264147
0.08529672589
0.08124183201
0.07413962083
0.05438644334
0.04420124242
0.04497484105
0.05795491198
0.08372148277
0.09561065334
0.08933691373
0.0813196254
0.08240615678
0.07995776914
0.06722472897
0.06111769207
0.05696352457
0.05533192186
0.05493252787
0.05313872844
0.04765247528
0.03908197277
0.02989522417
0.0217827352
0.005846499586
0.05824036766
0.06216079153
0.07657207484
0.07175433775
0.06481666485
0.05696964478
0.04780985321
0.04389747511
0.04795937107
0.0594111321
0.07552763796
0.07902565534
0.06868633612
0.05748610369
0.05307858923
0.04704724508
0.04597348582
0.0443740432
0.04342829643
0.04214396918
0.0395279281
0.03492977188
0.02852964856
0.02141312811
0.01475945269
0.00895547824
0.003449470284
0.05170080571
0.05361795514
0.06286239402
0.06043623181
0.05176629412
0.04500821202
0.04289913234
0.04515272387
0.05086909113
0.05798254216
0.06428896716
0.06223565208
0.05236890751
0.04209841952
0.03557218554
0.03212394973
0.03123905651
0.03066537718
0.02875903114
0.02478476809
0.01953944671
0.01433788685
0.00959712743
0.0067125462
0.004597773493
0.003039984404
0.001431966985
0.04837018909
0.0485085449
0.05433661612
0.05386071663
0.04586037643
0.04116598389
0.0416752644
0.04527255889
0.04849260882
0.05037842288
0.05072441642
0.04658686607
0.03866330279
0.03113036824
0.02603374754
0.02333476391
0.02197463921
0.01962382727
0.01476955046
0.007978604135
0.004844271881
0.00308084271
0.002151778178
0.00152887096
0.001077498705
0.0006984744442
0.0003526260693
0.04939293042
0.04795294233
0.05025201183
0.05085067668
0.04704655466
0.04547211359
0.04627981475
0.04800727695
0.04862966184
0.04736888923
0.04431748316
0.03920481134
0.03328265065
0.0284944941
0.02552925369
0.005643494412
0.005165682674
0.004365083393
0.003158316548
0.001761145923
0.0007235630895
0.0002802934663
0.0001655230611
0.0001251952109
9.584579657e-05
6.204811552e-05
4.323185315e-05
0.1700731187
0.1729373101
0.1680863881
0.1502414801
0.156984826
0.2126903509
0.2146777254
0.158366878
0.09340317433
0.0805661058
0.0693749109
0.06865321412
0.07457328455
0.07933089039
0.07913150858
0.01493071961
0.03972390907
0.08549722816
0.1343511602
0.1514089627
0.1495821088
0.1413576497
0.1347325696
0.1602165698
0.1407279916
0.1095010505
0.05338795196
0.048844312
0.04916498056
0.04691081702
0.0531916283
0.08382342259
0.1056257477
0.1172114126
0.1164638026
0.103797798
0.08281853034
0.07078281072
0.06666677367
0.05309279936
0.05773883819
0.002186306883
0.003966282811
0.01014034089
0.02346692379
0.04655090711
0.07934422907
0.1068346643
0.1201802049
0.1253205121
0.1075713258
0.1286817875
0.2197507654
0.1202739961
0.04890608676
0.02778432384
0.03961947887
0.05236030053
0.08069989796
0.1502607545
0.1603017848
0.1566714312
0.1409293496
0.1092803538
0.07350698135
0.04828145135
0.03955823311
0.0343183011
0.04600646412
0.004674449605
0.006718562467
0.01081069535
0.0170747177
0.02525067618
0.04024133704
0.081137064
0.1631403448
0.230937017
0.1144042135
0.07403943589
0.04784451009
0.02376034018
0.01612385535
0.03348219707
0.08107628939
0.08377699493
0.09036629523
0.09549591752
0.1451718232
0.1493228316
0.1186170088
0.08116158298
0.0527385204
0.03448379539
0.02663338171
0.0243075863
0.03512278724
0.01096636773
0.01546454796
0.02113606102
0.02557304969
0.03256306539
0.06004754955
0.1411425145
0.1690411394
0.1364776114
0.08536403866
0.03648947741
0.01419728494
0.02371227379
0.05386618226
0.05672941245
0.08000030917
0.1378465352
0.1089741284
0.1101730895
0.117001329
0.09578775398
0.06870155302
0.04717766491
0.03302835033
0.02597130253
0.02439965134
0.00806906348
0.0140239444
0.02015280474
0.02585069385
0.02984267815
0.03238815357
0.04178226066
0.07519203895
0.1559503314
0.1817225303
0.1018304789
0.03744783935
0.01851617285
0.01966611859
0.04203991724
0.1098524898
0.1607060358
0.1414649142
0.1139766133
0.1050939852
0.1028831514
0.09059236121
0.06519668173
0.04408217181
0.03496235611
0.03086823684
0.02778532008
0.008078711219
0.01863006817
0.03004727907
0.0309834994
0.03483774022
0.03595523699
0.04646209849
0.1052337666
0.2050054202
0.1918372127
0.2365113285
0.1021510304
0.04316822825
0.04092497251
0.06158716436
0.07445498679
0.09522078456
0.1356294907
0.1538945299
0.1387650384
0.1171294308
0.09725148573
0.07845443709
0.0615775797
0.05358407616
0.04991832312
0.03840622122
0.03474685399
0.02830252759
0.03576468183
0.03905181812
0.0455174479
0.05060486055
0.06330594888
0.09533084397
0.1677609792
0.1800903695
0.1484759243
0.06861332681
0.03841964981
0.08388774918
0.1653819065
0.1738273326
0.2075064876
0.2362230409
0.234278089
0.179590189
0.1402676904
0.1102370687
0.08272155122
0.063518723
0.05377100636
0.05200183709
0.04733849067
0.03523789576
0.05181652502
0.057189188
0.05446126783
0.08056208299
0.1188676676
0.1302926707
0.1067831763
0.1006085735
0.1129354861
0.07939184719
0.05559304682
0.05231455118
0.08041232685
0.2707984006
0.3029138732
0.2579018102
0.2734380848
0.2865188149
0.2446743826
0.1825630321
0.133748373
0.09550504719
0.06952100158
0.05649541644
0.0525974461
0.04789594268
0.03984619087
0.07268930097
0.06544703142
0.04724934824
0.08750938611
0.2196701396
0.7192576726
0.2599854488
0.1189807969
0.1090658465
0.08914308043
0.0904547488
0.09149843147
0.09070893066
0.1939553577
0.3590428525
0.3525765991
0.3593763399
0.3606711514
0.3088316546
0.2279423461
0.1628472559
0.1175248662
0.08120112905
0.06109253064
0.05805704103
0.05502007286
0.05410026804
0.1041604639
0.08458472378
0.05815223803
0.1073255598
0.6446565244
1.079870112
0.893133055
0.2916927171
0.1743157698
0.149498513
0.1194346107
0.1110618665
0.1861972946
0.3058987257
0.4428452683
0.4470870807
0.4696875931
0.4631206506
0.3871690293
0.272346248
0.1860956725
0.143581757
0.1078409279
0.0756865614
0.06781980273
0.06601480612
0.07307516614
0.04988728016
0.05765334505
0.05214525314
0.1122551703
0.7145515295
1.226125293
1.530378025
0.3755326172
0.1613357799
0.1303276513
0.1420945855
0.2697326067
0.4252567055
0.5250039234
0.4994127292
0.4205706139
0.3672911484
0.3272873307
0.282095415
0.229175805
0.1870078772
0.1714277713
0.1594199233
0.1314503573
0.1051144078
0.09231140234
0.1078760003
0.03786625541
0.06891294671
0.04434387898
0.08328082125
0.2993872283
1.169281223
0.5643226622
0.1695822296
0.142342597
0.2028385658
0.4901063138
0.776863375
0.8635764319
0.7308514414
0.5608036092
0.4370100378
0.3397681923
0.2901958141
0.252309533
0.2149082265
0.1849133647
0.1707895738
0.1640778284
0.1474593364
0.1318456198
0.1193590856
0.1418237461
0.05385582903
0.06492563568
0.06114539109
0.07602947822
0.1249306873
0.2854483099
0.195407309
0.1910591979
0.2744125408
0.7345554161
1.781420198
1.757889502
1.508251935
1.174220234
0.8313577906
0.5378988052
0.3792731407
0.2990202877
0.2455614096
0.2068029135
0.1801278176
0.1651793184
0.156595246
0.1433185972
0.1306587537
0.125573724
0.1495829684
0.0650471998
0.08882469898
0.06313023929
0.09014312703
0.1870316418
0.4330192945
0.8795672438
0.9257601342
0.6740028137
1.182098409
1.568288236
1.417618396
1.216636074
1.019963315
0.7979985814
0.5850023674
0.4113864733
0.2979536055
0.2326144742
0.1837616622
0.1544251877
0.1391952895
0.1308469719
0.1219228809
0.1105986388
0.107530396
0.1408481531
0.1368178892
0.2432040336
0.08074896646
0.1220488706
0.2896924408
0.6212930785
0.7167859047
1.068259268
0.9920002715
1.077177099
1.378249958
1.207146869
1.025256108
0.8827019427
0.6991878088
0.5076572338
0.387846593
0.329672131
0.2504126466
0.1677418328
0.1284058505
0.11094629
0.1010124754
0.09389852336
0.08355206303
0.0864271857
0.1280553219
0.7048828413
2.080368284
0.3303737187
0.09865119603
0.2085989169
0.4898915853
0.6033833003
0.9293392996
0.8058302791
0.8463895313
1.09747821
1.008583289
0.8621873926
0.7607142982
0.5991973284
0.4379725388
0.3675437661
1.045928963
1.37767628
0.6739162777
0.161327773
0.0954298937
0.07848398252
0.0698834686
0.06486028542
0.07291366193
0.1156193542
1.315413972
1.746932813
1.821505691
0.160292125
0.1132687233
0.2019584095
0.367690169
0.2923227585
0.4326336897
0.6273044644
1.332219437
1.29414967
0.8054829522
0.6996668263
0.5621331462
0.3660332834
0.3761323704
1.302047896
2.866029812
1.947663062
0.7906099803
0.1508516771
0.07007415566
0.05642581227
0.05457488315
0.06483518594
0.1047391443
1.010707545
1.484882144
1.033017169
0.1359010927
0.1589818205
0.1651117592
0.1281599165
0.1153582652
0.2367946119
0.733170106
2.391785186
2.399484395
1.273369142
0.8260600296
0.7821303129
0.4717881839
0.2700488101
0.3546250364
1.449395815
0.8026150218
0.1941464455
0.07898614038
0.05570291161
0.04848475128
0.04909143755
0.05943745996
0.09538904525
0.2563594436
0.8260870423
0.321128034
0.1125262308
0.1952525408
0.1351374344
0.08542354585
0.08138732371
0.1062030685
0.3412826145
2.421022275
2.215564021
1.348150875
0.8605919762
0.7461559069
0.5415718173
0.2603215032
0.1730087723
0.3592948695
0.1721716535
0.0833274807
0.05948684412
0.04926097702
0.04477236452
0.04631783566
0.05513727256
0.08682349627
0.09609123235
0.2105125702
0.09162180879
0.1008116548
0.2010331057
0.1050611153
0.07087982106
0.06638023972
0.06505632443
0.1083301951
0.7941834515
1.212705158
0.6125297453
0.5498858017
0.5695967906
0.3931370426
0.2019016069
0.1188044593
0.1169928915
0.07900534162
0.06118221919
0.05246138142
0.04643385601
0.04335987353
0.04469434307
0.05100188834
0.07821959979
0.06253957011
0.09063152467
0.05191079512
0.07535298174
0.1682144733
0.09782951033