/*--------------------------------*- C++ -*----------------------------------*\
  =========                 |
  \\      /  F ield         | OpenFOAM: The Open Source CFD Toolbox
   \\    /   O peration     | Website:  https://openfoam.org
    \\  /    A nd           | Version:  8
     \\/     M anipulation  |
\*---------------------------------------------------------------------------*/
FoamFile
{
    version     2.0;
    format      ascii;
    class       volScalarField;
    location    "0.6";
    object      N2;
}
// * * * * * * * * * * * * * * * * * * * * * * * * * * * * * * * * * * * * * //

dimensions      [0 0 0 0 0 0 0];

internalField   nonuniform List<scalar> 
67451
(
0.7899942432
0.7899942084
0.7899941715
0.7899941792
0.7899939965
0.7899936622
0.789994013
0.7899941921
0.7899945731
0.7899948363
0.7899949361
0.7899935158
0.7899937233
0.7899938961
0.7899940465
0.7899941216
0.7899941385
0.7899941646
0.7899941201
0.789994164
0.7899940141
0.7899940126
0.7899940358
0.7899942938
0.789994624
0.7899946663
0.7899947209
0.7899947168
0.7899946189
0.789994507
0.7899944235
0.7899943488
0.7899943093
0.7899943692
0.7899945514
0.7899946994
0.7899945924
0.7899934596
0.7899935146
0.7899936521
0.7899938104
0.7899939291
0.7899940109
0.7899940774
0.7899940971
0.7899942086
0.7899940762
0.7899940113
0.7899938689
0.7899943055
0.7899939988
0.7899943226
0.7899944595
0.7899944743
0.7899946868
0.7899948815
0.7899947001
0.789994668
0.7899946089
0.7899944979
0.7899944015
0.7899943976
0.7899945156
0.7899946027
0.7899945266
0.7899939123
0.7899940048
0.7899941383
0.7899942778
0.7899943406
0.7899943271
0.7899943082
0.7899940932
0.7899945195
0.7899941778
0.7899944282
0.7899943072
0.7899943205
0.7899944498
0.7899944772
0.78999432
0.7899941955
0.7899943378
0.7899946473
0.7899947317
0.7899946348
0.7899945482
0.7899944902
0.7899944801
0.7899945319
0.7899945322
0.7899944105
0.7899942579
0.7899942774
0.7899943692
0.7899944808
0.7899945307
0.789994552
0.789994661
0.7899948063
0.7899953191
0.7899950051
0.7899951021
0.7899939869
0.789994594
0.789994577
0.7899945185
0.7899945403
0.7899945977
0.789994563
0.7899946157
0.789994845
0.7899950052
0.7899949863
0.7899948676
0.7899947372
0.7899946067
0.7899944517
0.7899943155
0.7899942877
0.7899943773
0.7899944536
0.7899945423
0.7899945459
0.7899945005
0.7899945682
0.7899947094
0.7899949071
0.7899953567
0.7899953669
0.7899953143
0.7899952115
0.7899949801
0.7899946816
0.7899945537
0.7899947339
0.789994908
0.7899949894
0.7899950093
0.7899949344
0.7899947651
0.7899945766
0.789994436
0.7899943258
0.7899942797
0.7899943298
0.7899944081
0.7899944875
0.789994545
0.7899946329
0.789994634
0.789994613
0.7899947439
0.7899950464
0.7899954233
0.7899959735
0.7899958806
0.7899955328
0.7899953662
0.7899950839
0.789994827
0.7899945607
0.7899948266
0.789995045
0.789995234
0.78999538
0.7899953754
0.7899952357
0.7899949998
0.789994712
0.789994469
0.7899943509
0.789994353
0.7899943123
0.7899947099
0.7899947465
0.7899948014
0.7899948029
0.7899946825
0.7899945091
0.7899948139
0.7899955182
0.7899962418
0.7899960439
0.7899956767
0.7899954168
0.7899950347
0.7899951412
0.7899947789
0.7899947031
0.7899949551
0.7899953883
0.7899957507
0.7899959219
0.7899957575
0.7899955387
0.7899952972
0.7899950732
0.7899948874
0.7899946816
0.789994374
0.7899950625
0.7899950828
0.789995067
0.7899950738
0.7899948726
0.7899943353
0.7899943333
0.7899948044
0.789995858
0.7899955621
0.7899953149
0.7899951368
0.7899948228
0.789995011
0.7899947768
0.7899948532
0.7899953048
0.7899958053
0.7899961314
0.789996222
0.7899960814
0.7899958758
0.7899956477
0.7899954353
0.7899952358
0.789994992
0.7899946235
0.7899956377
0.7899955454
0.7899954425
0.7899954746
0.7899952719
0.789994403
0.7899942912
0.7899944751
0.7899951246
0.789995264
0.7899952198
0.789995007
0.7899948077
0.7899950814
0.7899953565
0.7899958208
0.7899962757
0.7899964902
0.789996562
0.7899965153
0.7899963564
0.7899961373
0.7899959162
0.7899957159
0.7899955299
0.7899953107
0.7899949945
0.7899954885
0.789995422
0.7899953507
0.7899952756
0.78999483
0.7899949611
0.7899945849
0.7899946075
0.7899949331
0.7899950518
0.7899949393
0.7899948739
0.7899951719
0.7899955767
0.7899959645
0.7899962367
0.7899967057
0.7899968599
0.7899968925
0.7899968177
0.7899966515
0.7899964186
0.7899961634
0.7899959508
0.7899957736
0.7899955845
0.7899953018
0.7899950198
0.7899949362
0.7899947345
0.7899945411
0.7899941221
0.7899921626
0.7899934961
0.7899947931
0.789994416
0.7899941953
0.7899944871
0.7899952435
0.7899959543
0.7899960305
0.7899963843
0.7899967825
0.7899971488
0.7899973051
0.7899973151
0.7899972075
0.7899970156
0.7899967541
0.7899964449
0.7899961475
0.7899959236
0.7899957442
0.7899955288
0.7899948039
0.7899946694
0.7899944829
0.7899941867
0.7899941426
0.789993651
0.7899948382
0.7899942109
0.7899937052
0.7899940971
0.7899952861
0.7899960099
0.7899965406
0.7899964008
0.7899964518
0.7899968328
0.789997366
0.7899975191
0.789997517
0.789997395
0.789997213
0.7899969785
0.7899966867
0.7899963644
0.7899960762
0.7899958818
0.789995702
0.7899947617
0.7899945612
0.7899944294
0.789994102
0.7899938521
0.7899935541
0.789994013
0.7899937473
0.7899939682
0.7899950092
0.7899960666
0.7899965591
0.7899969883
0.7899968398
0.7899964442
0.7899965779
0.7899970372
0.7899972473
0.7899972393
0.7899971258
0.7899970087
0.789996828
0.7899965769
0.7899962857
0.789996016
0.7899958323
0.7899956608
0.789994795
0.7899946689
0.7899945887
0.789994293
0.7899939564
0.7899935612
0.789993903
0.7899957965
0.7899954885
0.7899961647
0.7899967614
0.7899972539
0.7899977125
0.7899974906
0.7899969403
0.7899963546
0.7899963616
0.7899966788
0.7899968218
0.7899967349
0.789996651
0.7899965126
0.7899963143
0.789996083
0.7899958757
0.7899957035
0.7899955822
0.7899947323
0.7899948404
0.7899946646
0.789994565
0.7899945095
0.7899947041
0.7899956659
0.7899966181
0.7899965045
0.7899968213
0.7899972836
0.7899977505
0.7899983612
0.789998173
0.7899976047
0.7899969849
0.7899963842
0.7899961201
0.7899957043
0.7899949982
0.7899956255
0.7899958989
0.7899959125
0.789995809
0.78999569
0.7899955715
0.7899954659
0.7899948057
0.7899956952
0.7899944884
0.7899944706
0.7899945466
0.7899949556
0.789995791
0.7899967728
0.7899972939
0.7899968841
0.7899973441
0.7899976474
0.7899983256
0.7899981109
0.7899975386
0.7899968921
0.7899962595
0.7899958037
0.7899956445
0.7899954538
0.7899954711
0.7899955178
0.7899955451
0.7899955328
0.7899954935
0.789995425
0.7899953097
0.7899954706
0.789996855
0.7899951286
0.7899944481
0.789994391
0.7899947474
0.789995503
0.7899969076
0.7899966676
0.7899963777
0.7899967709
0.7899970829
0.7899977145
0.7899974816
0.7899970654
0.7899964395
0.7899952827
0.7899942328
0.7899918821
0.7899821874
0.7899907599
0.7899937223
0.789994746
0.7899951352
0.7899952654
0.7899952613
0.7899951407
0.789995989
0.7899977753
0.7899963728
0.789994655
0.789994298
0.7899945032
0.7899950618
0.7899964432
0.7899958265
0.7899961221
0.7899961241
0.7899957397
0.7899968223
0.7899970034
0.789996449
0.7899958972
0.789995118
0.7899946049
0.7899932763
0.7899921845
0.789993666
0.7899944194
0.7899948115
0.7899950296
0.7899951373
0.7899951288
0.7899949964
0.789995149
0.7899972095
0.7899950927
0.7899939689
0.7899942815
0.7899945532
0.7899946911
0.7899954465
0.7899951604
0.789995573
0.7899940662
0.7900038207
0.789995445
0.7899953712
0.7899970584
0.7899963611
0.7899951294
0.7899945607
0.7899939557
0.7899936485
0.7899941448
0.7899945362
0.7899947872
0.7899949482
0.7899950332
0.7899950122
0.7899948771
0.7899949925
0.7899957252
0.7899941021
0.7899941334
0.7899944628
0.7899947501
0.7899947113
0.7899948009
0.7899948729
0.7899951967
0.7899943398
0.7899940181
0.7899934452
0.7899949311
0.7899962352
0.7899960282
0.7899950348
0.7899944362
0.7899941506
0.7899941475
0.789994372
0.7899945855
0.7899947523
0.7899948721
0.7899949323
0.7899949022
0.7899947685
0.789995321
0.7899946575
0.7899942551
0.7899944736
0.7899945793
0.7899947854
0.7899947841
0.7899946981
0.7899947541
0.7899949615
0.7899952127
0.7899929251
0.7899945135
0.7899949401
0.7899951332
0.7899950645
0.7899944234
0.7899941795
0.7899942129
0.7899943308
0.7899944649
0.7899945913
0.7899947045
0.7899947912
0.7899948302
0.7899947938
0.7899946499
0.7899954993
0.7899947666
0.7899946951
0.7899946662
0.7899946958
0.7899947221
0.7899947205
0.7899947673
0.7899946448
0.7899947316
0.7899951247
0.7899941358
0.7899949984
0.7899949499
0.78999464
0.7899944085
0.7899941517
0.7899942113
0.7899943319
0.7899944136
0.7899944818
0.7899945607
0.7899946427
0.7899947077
0.7899947302
0.789994679
0.7899945022
0.7899955587
0.7899951726
0.7899949981
0.7899947379
0.7899947886
0.7899946756
0.7899945842
0.7899947375
0.789994586
0.7899945535
0.7899948731
0.7899946037
0.7899950285
0.7899949573
0.7899946551
0.7899943884
0.7899943198
0.7899943887
0.7899944222
0.7899944311
0.7899944604
0.7899945172
0.7899945829
0.7899946318
0.7899946309
0.7899945415
0.789994316
0.7899955125
0.789995351
0.7899951121
0.7899947404
0.7899948154
0.7899947138
0.7899944695
0.7899946318
0.7899945302
0.7899945024
0.7899947125
0.7899947306
0.7899949523
0.7899949379
0.7899947641
0.7899945525
0.7899945009
0.789994475
0.7899944336
0.7899944147
0.7899944366
0.7899944861
0.7899945386
0.7899945611
0.7899945118
0.7899943582
0.7899940961
0.7899954525
0.7899953603
0.7899950995
0.7899947752
0.7899947517
0.7899947695
0.7899944601
0.7899945513
0.7899945193
0.7899945235
0.7899946675
0.7899947761
0.7899948971
0.7899948811
0.789994777
0.789994562
0.789994513
0.789994446
0.7899944027
0.7899944001
0.789994431
0.7899944727
0.7899944948
0.7899944581
0.7899943268
0.7899941065
0.7899938456
0.7899954112
0.7899952742
0.7899950463
0.7899948937
0.7899947019
0.7899947332
0.789994531
0.789994554
0.78999457
0.7899945981
0.7899947016
0.7899948032
0.7899948546
0.789994781
0.7899946802
0.7899943874
0.7899943877
0.7899943481
0.7899943549
0.7899943859
0.7899944187
0.7899944246
0.7899943706
0.7899942304
0.7899940108
0.7899937642
0.7899935498
0.7899952965
0.7899951491
0.7899950101
0.7899949591
0.7899946986
0.7899946593
0.7899945765
0.7899945861
0.7899946245
0.78999467
0.7899947441
0.7899947963
0.7899947636
0.7899946232
0.7899944657
0.7899943132
0.7899942536
0.7899942513
0.7899942888
0.7899943165
0.7899942908
0.7899941863
0.7899940041
0.789993779
0.7899935513
0.7899933557
0.7899931906
0.7899951487
0.7899950351
0.7899949717
0.7899949335
0.789994692
0.7899946165
0.7899945915
0.7899946101
0.7899946525
0.7899946914
0.7899947153
0.7899946763
0.7899945252
0.7899942981
0.7899941158
0.7899940188
0.7899940413
0.7899940949
0.7899941172
0.7899940407
0.7899938572
0.7899936155
0.7899933917
0.7899932144
0.7899930736
0.7899929436
0.7899928074
0.7899949928
0.7899949126
0.789994905
0.7899948899
0.7899946953
0.7899946196
0.7899946118
0.7899946259
0.7899946381
0.7899946159
0.789994534
0.7899943631
0.7899941147
0.7899938969
0.789993809
0.7899938235
0.7899938772
0.7899938841
0.7899937718
0.7899935241
0.7899932118
0.78999296
0.7899928305
0.7899927592
0.7899927007
0.7899926321
0.7899925648
0.7899948425
0.7899947663
0.789994748
0.7899947607
0.7899946914
0.7899946675
0.7899946605
0.789994632
0.7899945468
0.7899943792
0.7899941435
0.7899938874
0.7899936909
0.7899936248
0.7899936609
0.7899937126
0.7899937115
0.7899936071
0.7899933835
0.7899930599
0.7899927433
0.7899925826
0.7899925452
0.7899925385
0.7899925294
0.7899925172
0.7899925028
0.7899943885
0.7899944585
0.7899944665
0.789994449
0.7899944423
0.7899942128
0.789994036
0.7899940719
0.7899943119
0.7899946692
0.7899948972
0.7899933232
0.7899935732
0.789993808
0.7899940193
0.7899941858
0.7899942836
0.7899943204
0.7899943187
0.7899942308
0.789994112
0.7899939972
0.7899939704
0.7899940833
0.7899942343
0.7899943001
0.7899943315
0.7899942298
0.7899941268
0.7899941391
0.789994107
0.7899940101
0.7899938959
0.7899938456
0.7899939585
0.7899942034
0.7899942359
0.789993211
0.7899932557
0.7899934285
0.7899936329
0.7899937934
0.78999391
0.7899940213
0.7899940986
0.7899941395
0.7899941231
0.7899940228
0.7899940561
0.7899939681
0.7899940348
0.7899941006
0.7899941106
0.7899940253
0.7899941882
0.7899942904
0.7899943734
0.7899944985
0.7899944295
0.7899942321
0.7899940249
0.789993914
0.7899940155
0.7899942242
0.7899942516
0.7899935699
0.7899936555
0.7899938397
0.7899940419
0.789994169
0.7899942095
0.7899942124
0.7899943076
0.7899941045
0.7899943207
0.78999419
0.7899942388
0.7899941796
0.7899941767
0.7899940433
0.7899938099
0.789993701
0.7899937235
0.7899939637
0.7899941616
0.7899942536
0.7899942411
0.7899941609
0.7899940725
0.7899940419
0.7899942038
0.7899942777
0.7899941957
0.7899938576
0.7899940529
0.7899942615
0.789994385
0.7899944193
0.7899944107
0.7899943148
0.789994499
0.7899946813
0.7899948761
0.7899956875
0.7899946349
0.7899946244
0.7899943687
0.7899943447
0.7899943161
0.7899940715
0.7899939967
0.7899940996
0.789994234
0.7899942752
0.789994264
0.7899942298
0.7899942056
0.7899943135
0.7899943626
0.7899943082
0.7899939118
0.7899941108
0.7899943054
0.7899944282
0.789994462
0.7899944904
0.7899945343
0.7899945433
0.7899951268
0.7899953185
0.7899954749
0.7899952118
0.7899949422
0.7899946757
0.7899943591
0.7899941232
0.7899940251
0.7899942286
0.7899944688
0.7899945127
0.7899944291
0.7899943233
0.7899942674
0.78999423
0.7899943309
0.7899944029
0.7899943727
0.7899938767
0.7899941178
0.7899942824
0.789994399
0.7899944231
0.7899945703
0.7899948276
0.7899951721
0.7899957363
0.7899959055
0.7899958612
0.7899954785
0.7899950912
0.7899948576
0.7899945755
0.7899943483
0.7899943188
0.7899944963
0.7899947623
0.7899948656
0.789994871
0.7899946718
0.7899944199
0.7899942455
0.7899942184
0.7899942531
0.789994222
0.7899941723
0.7899943297
0.7899943717
0.789994499
0.7899945399
0.7899947188
0.7899949018
0.7899953259
0.7899958702
0.789995812
0.7899955664
0.7899952842
0.7899949055
0.7899952961
0.7899951316
0.789994602
0.7899943699
0.789994509
0.7899948767
0.7899950377
0.7899951859
0.7899951238
0.7899949433
0.7899947593
0.7899946043
0.7899943768
0.7899941556
0.7899947781
0.7899948805
0.7899947453
0.789994861
0.7899948012
0.7899949773
0.7899948856
0.7899952758
0.7899956877
0.7899955901
0.7899952956
0.7899950216
0.7899946592
0.7899945595
0.7899943668
0.7899944155
0.7899945674
0.7899948636
0.7899951877
0.7899954166
0.7899954309
0.7899953234
0.7899951641
0.7899950034
0.7899948587
0.7899946397
0.7899943251
0.7899959681
0.7899958934
0.7899956273
0.7899957425
0.7899957426
0.7899952352
0.7899948888
0.7899952742
0.7899956511
0.78999558
0.7899951959
0.7899947963
0.7899942656
0.789994779
0.7899948988
0.7899950701
0.7899953016
0.7899955298
0.7899957239
0.7899958202
0.7899957564
0.789995568
0.7899953377
0.789995143
0.7899950014
0.789994877
0.7899946735
0.7899958211
0.7899956861
0.7899956383
0.7899958401
0.789995157
0.789995585
0.7899953606
0.7899955967
0.7899954539
0.7899951937
0.789994795
0.7899946073
0.7899946772
0.7899950914
0.7899953738
0.7899957629
0.7899960857
0.7899962847
0.7899963761
0.7899963699
0.7899962553
0.7899960298
0.7899957223
0.7899954591
0.7899952473
0.789995103
0.789994948
0.7899948098
0.7899948548
0.7899950355
0.7899949403
0.7899943435
0.7899939034
0.7899902325
0.7899940753
0.7899944688
0.7899946207
0.7899944825
0.7899947397
0.7899952
0.7899955275
0.7899960367
0.7899965717
0.7899969102
0.7899970798
0.7899971052
0.7899970222
0.7899968633
0.7899966143
0.7899962349
0.7899958125
0.7899954741
0.7899952654
0.7899951897
0.7899944972
0.789994236
0.789994633
0.7899945304
0.7899943398
0.7899936746
0.7899935257
0.7899945155
0.7899944709
0.7899945168
0.789994972
0.7899953457
0.7899955579
0.789995772
0.7899961412
0.7899965784
0.7899970323
0.7899972032
0.7899972504
0.7899971539
0.7899969802
0.7899967413
0.7899963856
0.7899959411
0.7899955494
0.7899952859
0.7899952835
0.7899946364
0.7899933602
0.789994437
0.7899942432
0.7899944125
0.789994197
0.7899939169
0.7899942165
0.7899943262
0.7899948223
0.7899954271
0.7899961392
0.7899963712
0.7899961211
0.7899960458
0.7899962526
0.789996552
0.7899967606
0.7899968041
0.7899967309
0.7899966622
0.7899965223
0.7899962607
0.7899959011
0.7899955408
0.7899952551
0.7899952066
0.7899948506
0.7899944412
0.7899944424
0.7899943061
0.7899943941
0.7899942319
0.7899943883
0.7899945844
0.7899949907
0.7899954127
0.7899962023
0.7899969091
0.7899972106
0.7899970824
0.7899966189
0.7899961861
0.7899960865
0.7899962112
0.7899963865
0.7899964614
0.789996373
0.7899962263
0.7899960004
0.7899957133
0.789995412
0.7899951767
0.7899951553
0.789994731
0.7899945187
0.7899944662
0.7899945202
0.789994711
0.7899947115
0.7899951007
0.7899947338
0.7899955935
0.789995642
0.7899965793
0.7899972319
0.7899975178
0.7899973483
0.7899967576
0.7899961556
0.7899956541
0.789995661
0.7899957436
0.7899952819
0.7899954452
0.7899956219
0.7899956187
0.7899954656
0.7899952444
0.789995054
0.7899950536
0.7899945419
0.7899943326
0.7899942619
0.7899944022
0.7899946028
0.7899946751
0.7899953356
0.7899947517
0.7899954609
0.7899956753
0.7899964274
0.7899969884
0.7899972695
0.78999712
0.7899965357
0.7899959729
0.7899955223
0.7899954652
0.7899956929
0.7899958399
0.789995769
0.7899956482
0.7899954623
0.7899952745
0.7899950913
0.7899949323
0.7899949376
0.7899944585
0.7899948956
0.7899945712
0.7899944035
0.7899945941
0.7899946626
0.7899948762
0.7899947823
0.7899953666
0.7899957538
0.7899960327
0.7899963201
0.7899966801
0.7899965544
0.7899959053
0.7899955887
0.7899948366
0.789994882
0.7899995706
0.7899936209
0.7899925718
0.7899940801
0.7899946999
0.7899949186
0.7899949004
0.7899948165
0.7899948327
0.7899939571
0.7899945225
0.7899940897
0.7899940882
0.7899944098
0.7899946117
0.7899946885
0.7899947796
0.7899952833
0.7899957125
0.7899965901
0.7899963472
0.7899958619
0.7899961378
0.7899956382
0.789995247
0.7899944183
0.7899945946
0.7899942473
0.7899932034
0.7899942515
0.7899947029
0.7899948403
0.7899948593
0.7899948072
0.7899947458
0.7899947582
0.7899946877
0.7899943027
0.7899942647
0.7899941761
0.7899944793
0.7899947813
0.7899947152
0.7899948905
0.7899951261
0.7899959479
0.7899955626
0.7899933269
0.7899964569
0.7899959483
0.7899953274
0.7899952217
0.7899944869
0.789994598
0.7899943379
0.7899941932
0.7899944446
0.7899946322
0.7899947302
0.7899947439
0.7899947099
0.7899946828
0.7899946904
0.7899950789
0.7899945012
0.7899943659
0.7899942232
0.7899944231
0.7899948146
0.7899946616
0.7899946811
0.7899950076
0.7899955652
0.789995704
0.7899963914
0.7899956011
0.7899954213
0.7899950518
0.7899945382
0.7899943579
0.7899945236
0.7899944872
0.7899944431
0.7899945069
0.7899945806
0.7899946225
0.7899946246
0.7899946092
0.7899946099
0.7899946048
0.789995176
0.7899948736
0.7899945645
0.7899943225
0.7899942805
0.7899946856
0.7899946085
0.7899945377
0.7899948151
0.7899951333
0.7899953219
0.7899959558
0.7899952734
0.7899951953
0.7899948632
0.7899945314
0.7899945726
0.7899946837
0.7899945825
0.7899944979
0.7899944747
0.7899944941
0.7899945078
0.789994506
0.7899945042
0.7899945147
0.7899944823
0.7899952273
0.7899949946
0.7899947549
0.7899945064
0.7899942932
0.7899944665
0.7899944365
0.7899943951
0.7899945464
0.7899946472
0.7899948256
0.7899952425
0.7899950334
0.7899949741
0.7899948432
0.789994707
0.789994764
0.789994727
0.7899945415
0.7899944258
0.789994384
0.7899943901
0.7899943968
0.789994395
0.7899943932
0.7899943883
0.7899943173
0.7899951961
0.7899950535
0.7899948791
0.7899946393
0.789994462
0.789994303
0.7899942409
0.789994261
0.7899942969
0.7899942977
0.7899944201
0.7899947106
0.7899947562
0.789994777
0.7899948078
0.7899947896
0.7899947674
0.7899946264
0.7899944356
0.7899943277
0.7899942954
0.789994302
0.7899943057
0.7899942942
0.7899942684
0.7899942254
0.7899941194
0.7899951082
0.7899950676
0.7899949195
0.7899946863
0.7899945716
0.7899943037
0.7899941315
0.7899941368
0.7899941037
0.7899940667
0.7899941425
0.7899943734
0.7899945092
0.7899945742
0.7899946665
0.7899946147
0.7899946023
0.7899944707
0.7899943361
0.7899942621
0.7899942446
0.7899942467
0.7899942343
0.7899941887
0.7899941126
0.7899940223
0.789993901
0.7899950657
0.7899950481
0.7899949235
0.7899947843
0.7899946068
0.7899943574
0.7899941384
0.7899940727
0.789994006
0.7899939587
0.7899939974
0.7899941774
0.7899943225
0.7899943583
0.7899944712
0.7899943226
0.7899943982
0.7899943147
0.7899942603
0.789994233
0.7899942258
0.7899942064
0.7899941448
0.7899940341
0.7899938962
0.7899937697
0.7899936634
0.7899950178
0.7899949735
0.7899948956
0.789994885
0.789994586
0.7899943473
0.7899941624
0.789994077
0.7899940104
0.7899939595
0.7899939758
0.789994096
0.7899942015
0.7899941016
0.7899942473
0.7899931004
0.7899940948
0.7899941147
0.7899941706
0.7899941831
0.789994159
0.7899940787
0.7899939356
0.789993756
0.7899935848
0.7899934527
0.7899933659
0.7899949376
0.7899948845
0.7899947992
0.789994868
0.7899945385
0.7899942878
0.7899941678
0.7899941172
0.7899940771
0.7899940327
0.7899940314
0.7899940896
0.789994109
0.7899940453
0.7899940205
0.7899939743
0.789994
0.7899940177
0.7899940377
0.7899940076
0.7899938994
0.7899937225
0.7899935192
0.7899933376
0.7899931993
0.7899930857
0.7899929941
0.789994852
0.7899947944
0.7899946957
0.7899947296
0.7899944709
0.7899942649
0.7899941847
0.7899941595
0.7899941295
0.7899940872
0.7899940589
0.7899940311
0.7899939464
0.7899938335
0.7899937631
0.7899936693
0.7899937371
0.7899937725
0.7899937414
0.7899936008
0.789993381
0.7899931673
0.7899930149
0.7899929155
0.7899928419
0.7899927585
0.7899926736
0.7899947739
0.7899947111
0.7899946394
0.7899945975
0.7899944214
0.7899943001
0.7899942579
0.7899942398
0.7899941876
0.7899941007
0.789993994
0.7899938684
0.7899937381
0.7899936635
0.7899936539
0.7899936496
0.7899936222
0.7899935447
0.7899933729
0.7899931161
0.7899928619
0.7899927191
0.7899926722
0.7899926567
0.7899926382
0.7899926074
0.7899925694
0.7899947191
0.789994642
0.7899945902
0.7899945566
0.7899944896
0.7899944623
0.7899944459
0.7899943966
0.7899942639
0.789994055
0.789993834
0.7899936642
0.7899935857
0.7899935969
0.7899936346
0.7899936326
0.7899935631
0.7899933981
0.7899931308
0.78999282
0.7899926085
0.7899925563
0.7899925744
0.7899925957
0.7899926059
0.7899926121
0.7899926129
0.7899943552
0.7899945914
0.7899947208
0.7899947621
0.7899947673
0.7899949759
0.7899949213
0.7899942273
0.7899942234
0.7899945231
0.7899948696
0.7899950304
0.789994974
0.7899947854
0.7899945316
0.789993192
0.789993479
0.7899937857
0.7899940717
0.7899942983
0.789994445
0.7899945
0.7899944791
0.7899943614
0.7899941544
0.7899939658
0.7899939009
0.7899939743
0.7899940487
0.7899940482
0.7899940092
0.7899940785
0.7899942002
0.7899942475
0.7899941746
0.7899940463
0.7899939068
0.7899938391
0.7899939241
0.7899940646
0.789994068
0.7899930442
0.7899930542
0.7899932217
0.7899934567
0.7899936767
0.7899938629
0.7899940219
0.7899941268
0.7899941841
0.789994176
0.7899941235
0.7899942651
0.7899938719
0.7899938649
0.7899939134
0.7899939275
0.7899938472
0.7899939981
0.7899942336
0.7899945196
0.7899946631
0.7899945805
0.7899943453
0.7899941125
0.7899939913
0.7899940907
0.7899942413
0.789994202
0.7899933344
0.7899933771
0.7899935402
0.7899937501
0.7899939134
0.7899939932
0.7899940153
0.789994111
0.7899941553
0.7899942531
0.7899941065
0.7899939623
0.789993916
0.789993855
0.7899937645
0.7899936029
0.7899937407
0.7899936965
0.7899938721
0.789994245
0.7899944759
0.7899945181
0.789994457
0.78999432
0.7899942664
0.7899944327
0.7899945178
0.7899943516
0.7899934587
0.7899936692
0.7899939405
0.7899941054
0.78999416
0.7899941368
0.7899941621
0.789994539
0.7899944649
0.7899950996
0.7899944426
0.7899943358
0.7899942416
0.7899943653
0.7899944689
0.7899943907
0.7899940793
0.7899940336
0.7899941758
0.7899943506
0.7899945644
0.7899947002
0.7899946563
0.7899945981
0.7899947612
0.7899948228
0.7899945683
0.7899936442
0.7899938071
0.7899940412
0.7899942211
0.7899943084
0.7899943275
0.7899944264
0.7899947445
0.7899951913
0.7899955665
0.7899956059
0.7899951768
0.7899947066
0.7899943724
0.7899941148
0.7899939665
0.7899940151
0.7899941867
0.78999435
0.789994359
0.7899944518
0.7899946424
0.7899947273
0.7899946981
0.7899948087
0.7899949057
0.7899946663
0.7899936372
0.789993869
0.7899940662
0.7899942217
0.7899942994
0.7899944629
0.7899947705
0.789995071
0.7899957906
0.7899960598
0.7899958993
0.7899956247
0.7899950911
0.7899948592
0.7899945666
0.7899943165
0.7899942598
0.7899944283
0.7899946235
0.7899946787
0.789994587
0.789994415
0.789994274
0.7899941953
0.7899942749
0.7899944492
0.7899944554
0.7899939258
0.7899940778
0.7899941708
0.7899943453
0.7899945193
0.7899948166
0.7899951889
0.7899956492
0.7899960626
0.7899960322
0.789995771
0.7899953744
0.7899948822
0.7899950417
0.7899952917
0.7899948167
0.7899944778
0.7899945595
0.7899948241
0.7899948551
0.7899948631
0.7899947547
0.7899945934
0.7899944708
0.7899943635
0.7899942107
0.7899942169
0.7899946201
0.7899947564
0.7899945061
0.7899946746
0.7899949701
0.7899953382
0.7899956786
0.7899960288
0.7899961133
0.7899958844
0.7899953967
0.7899949585
0.7899944969
0.7899945489
0.7899945235
0.7899946128
0.7899946389
0.7899948125
0.7899950499
0.7899951121
0.7899947101
0.7899948838
0.7899947614
0.7899946441
0.7899945481
0.7899943646
0.7899941733
0.7899961195
0.7899960053
0.7899956882
0.7899959095
0.789996496
0.7899958721
0.789996129
0.7899961551
0.7899962354
0.7899958153
0.7899953264
0.7899948224
0.7899946738
0.7899947674
0.7899950477
0.789995248
0.7899953761
0.7899954973
0.7899956076
0.7899956574
0.7899955407
0.7899953109
0.7899949637
0.7899947098
0.7899946231
0.7899945461
0.7899943838
0.7899960055
0.7899958001
0.7899956407
0.7899960305
0.7899954537
0.7899963278
0.789996017
0.7899960078
0.7899958306
0.7899952641
0.7899946952
0.7899946734
0.7899945433
0.7899950977
0.7899955725
0.7899960216
0.7899963558
0.7899964994
0.7899965208
0.7899964438
0.7899962369
0.7899959175
0.7899954405
0.7899949989
0.7899947915
0.7899947196
0.7899946285
0.7899946107
0.7899947471
0.7899947786
0.7899951208
0.7899947873
0.7899975789
0.7899936701
0.7899948182
0.7899949443
0.7899947047
0.7899945838
0.789994787
0.7899951669
0.7899957047
0.7899963733
0.7899968997
0.7899972086
0.7899973411
0.7899973228
0.7899971867
0.7899969634
0.789996645
0.7899961234
0.7899955012
0.7899950226
0.789994865
0.7899948992
0.7899943131
0.7899944139
0.7899941721
0.7899943112
0.7899943392
0.789994126
0.7899942468
0.7899945652
0.7899946605
0.7899946784
0.7899949978
0.7899953604
0.7899956687
0.7899960882
0.7899966588
0.7899966605
0.7899972494
0.7899972996
0.7899974574
0.7899973782
0.7899971802
0.7899968725
0.7899963809
0.7899957452
0.7899952292
0.7899949605
0.7899950145
0.7899946567
0.7899942006
0.7899933833
0.7899942033
0.7899943283
0.7899945346
0.7899945608
0.7899945578
0.7899946467
0.7899950329
0.7899958825
0.7899965719
0.7899969208
0.7899969224
0.7899968547
0.7899968507
0.7899970233
0.7899971237
0.7899971753
0.7899971316
0.7899969898
0.7899967298
0.7899963102
0.7899957758
0.7899953001
0.7899949977
0.7899949638
0.7899949588
0.7899943673
0.7899941945
0.7899942329
0.789994419
0.7899945595
0.7899949418
0.7899945808
0.7899950408
0.7899955235
0.7899964717
0.7899971176
0.7899974667
0.7899974368
0.7899971823
0.7899969004
0.7899967575
0.7899967326
0.789996816
0.7899968783
0.7899967179
0.789996462
0.7899960791
0.7899956384
0.789995219
0.7899949393
0.7899949243
0.789995018
0.789994501
0.7899941505
0.7899943019
0.7899944447
0.7899942076
0.789994665
0.7899945302
0.7899952789
0.7899957612
0.7899967618
0.7899972939
0.7899976246
0.7899975557
0.7899971641
0.7899967977
0.7899963676
0.7899963309
0.7899966942
0.7899969846
0.7899964678
0.7899961421
0.7899958065
0.789995447
0.7899950663
0.7899948376
0.7899948518
0.789995003
0.7899952768
0.7899940621
0.7899942767
0.7899945495
0.7899945677
0.7899950342
0.7899947488
0.7899953319
0.7899957044
0.7899966641
0.7899970565
0.7899973031
0.7899972612
0.7899968916
0.7899965632
0.7899961182
0.789996499
0.7899957957
0.789996288
0.7899963678
0.7899960418
0.7899956409
0.7899952704
0.7899949482
0.7899947622
0.789994782
0.7899942635
0.7899950365
0.7899940923
0.789994147
0.7899945387
0.7899946296
0.7899948228
0.7899947976
0.7899952217
0.7899955405
0.7899961498
0.7899960307
0.7899964356
0.7899965509
0.7899961022
0.7899962763
0.7899953124
0.7899955483
0.7900005742
0.7900030205
0.7899969964
0.7899959879
0.7899954036
0.7899950604
0.7899948194
0.7899946923
0.7899947208
0.7899940515
0.7899946872
0.7899938847
0.7899941009
0.7899945761
0.7899945954
0.7899946431
0.7899949827
0.7899953447
0.7899955059
0.7899970627
0.789996673
0.7899960418
0.7899963115
0.78999602
0.7899960374
0.7899947514
0.7899947085
0.7899956268
0.7899954223
0.7899956198
0.7899953867
0.7899950997
0.7899948708
0.7899946992
0.7899946268
0.7899946652
0.7899943529
0.7899940626
0.789993935
0.7899941908
0.7899949032
0.7899949056
0.7899946251
0.7899950924
0.7899952973
0.789995266
0.7899960055
0.7899947993
0.7899952849
0.7899956138
0.7899953814
0.7899954995
0.7899946811
0.789994875
0.789995009
0.7899952669
0.7899951595
0.7899950015
0.7899948334
0.7899946781
0.7899945699
0.7899945496
0.7899945958
0.7899945872
0.789994302
0.7899941149
0.7899941571
0.7899947626
0.7899950047
0.7899947932
0.7899950923
0.7899952265
0.7899952008
0.7899951768
0.7899949425
0.7899949615
0.7899951531
0.789994983
0.7899950519
0.7899946503
0.7899947538
0.7899947499
0.7899948148
0.7899947848
0.7899947183
0.7899946083
0.7899944975
0.7899944357
0.7899944513
0.7899944929
0.7899946149
0.7899945535
0.7899943277
0.7899942189
0.7899944431
0.7899948209
0.7899948803
0.7899950177
0.7899950492
0.789994941
0.7899948524
0.7899947302
0.7899948312
0.7899948698
0.7899946896
0.7899947104
0.7899945539
0.7899945651
0.7899945344
0.7899945551
0.7899945574
0.7899945137
0.78999442
0.7899943317
0.7899942952
0.7899943247
0.7899943478
0.7899946737
0.7899946616
0.7899945265
0.7899943856
0.7899943457
0.789994522
0.7899947101
0.7899948253
0.7899947676
0.789994614
0.7899945255
0.7899945408
0.7899946129
0.7899946389
0.789994596
0.7899945477
0.789994466
0.7899944123
0.7899943705
0.7899943829
0.789994392
0.7899943482
0.7899942579
0.7899941751
0.7899941413
0.7899941659
0.789994166
0.7899947515
0.7899947815
0.7899946965
0.7899945296
0.7899944118
0.7899943451
0.7899944331
0.7899945384
0.7899944311
0.7899943021
0.7899942523
0.7899943384
0.7899944476
0.7899944674
0.7899944867
0.7899944032
0.7899943653
0.7899942937
0.7899942518
0.7899942597
0.7899942637