/*--------------------------------*- C++ -*----------------------------------*\
  =========                 |
  \\      /  F ield         | OpenFOAM: The Open Source CFD Toolbox
   \\    /   O peration     | Website:  https://openfoam.org
    \\  /    A nd           | Version:  8
     \\/     M anipulation  |
\*---------------------------------------------------------------------------*/
FoamFile
{
    version     2.0;
    format      ascii;
    class       volScalarField;
    location    "0.6";
    object      nut;
}
// * * * * * * * * * * * * * * * * * * * * * * * * * * * * * * * * * * * * * //

dimensions      [0 2 -1 0 0 0 0];

internalField   nonuniform List<scalar> 
67451
(
0.0001825066469
0.0001773159873
0.0001730312354
0.0001785788417
0.0001839668429
0.000181882584
0.0001554437834
0.0001321862796
0.0001316608083
0.0001254294466
0.0001259471973
9.712866386e-05
0.0001209621889
0.0001418018754
0.0001580787862
0.0001665148288
0.0001695390253
0.0001647290295
0.0001683433258
0.0001664949356
0.0001604247136
0.0001395034932
0.0001159258113
0.0001082691692
0.0001127819995
0.0001231063163
0.0001269313615
0.0001294030005
0.0001365783433
0.0001438268819
0.0001468972976
0.0001467988392
0.0001463870575
0.0001467171055
0.0001463952045
0.0001418062365
0.0001207556479
0.0002219708458
0.0002888732455
8.674368004e-05
0.0001036576512
0.0001190209591
0.0001314291458
0.0001386669937
0.0001400417082
0.000135482251
0.0001398805496
0.0001340558099
0.0001261717714
0.0001285616949
9.941205033e-05
9.819020728e-05
0.000109067782
0.0001258288657
0.0001318757266
0.0001385541856
0.0001551677956
0.0001616582369
0.0001593869353
0.0001536810354
0.0001486000576
0.0001458109455
0.0001439235245
0.0001373137027
0.0001149727205
8.206794875e-05
8.885468486e-05
9.511053848e-05
0.000101937093
0.0001074700647
0.0001115644622
0.0001173840319
0.0001280126891
0.0001430323732
0.0001248397819
0.00011069348
9.314639826e-05
8.404580204e-05
9.062912365e-05
9.783141035e-05
0.0001071778863
0.0001235140156
0.0001323122041
0.0001368347096
0.0001423316163
0.000147513978
0.0001476637809
0.0001449523954
0.0001421320392
0.0001397887373
0.000134341417
0.0001225792502
9.798443103e-05
0.0001044037358
0.0001080554057
0.0001116376495
0.0001156657839
0.0001198425626
0.0001280616646
0.0001430765942
0.0001656874004
0.0001469572525
0.0001272297605
0.000106065156
9.112963317e-05
8.940301221e-05
9.129415385e-05
9.79971999e-05
0.0001105488223
0.0001280140605
0.0001378213578
0.0001417084931
0.0001431899629
0.0001437621853
0.0001435100199
0.0001421466855
0.0001385868723
0.0001304982527
0.0001164818089
9.275938945e-05
0.0001126881211
0.0001147599396
0.000115515505
0.0001184335205
0.0001215054273
0.0001274485928
0.0001353473574
0.0001449460594
0.0001660361426
0.000147882721
0.0001269754094
0.0001060331556
9.163941892e-05
9.158602734e-05
0.0001001726097
0.0001223800575
0.0001339255562
0.0001424061227
0.0001482127045
0.0001497398853
0.000145478786
0.0001384929841
0.0001321908554
0.0001249791195
0.0001140824227
0.0001014053485
8.470379267e-05
0.0001152721049
0.0001167793897
0.0001155164091
0.0001178438182
0.0001210702021
0.000130292629
0.0001465831619
0.0001658612182
0.0001872429572
0.0001814103641
0.0001524903688
0.0001284171169
0.000110406513
0.0001148341304
0.0001233404257
0.0001564194048
0.0001701400592
0.0001792438966
0.0001843461873
0.000182749122
0.0001745807227
0.0001586114206
0.000139369609
0.0001229921289
0.0001108348001
0.000101332062
8.614771474e-05
0.0001188709301
0.0001162920158
0.0001131361233
0.0001143708138
0.0001153789238
0.0001253111471
0.0001383056831
0.0001634065361
0.0001892586724
0.0001688530537
0.0001457538775
0.0001295424604
0.0001201839608
0.0001395393401
0.000152095841
0.0001678388852
0.0001852249946
0.000198731991
0.0002059957319
0.0002039515639
0.0001972748988
0.0001828897854
0.0001626599627
0.000141785655
0.0001242870976
0.0001095455815
8.910920485e-05
0.0001201242789
0.0001165388398
0.0001107175833
0.0001112487787
0.0001123833278
0.0001325620349
0.0001272658466
0.000130367284
0.000159152437
0.0001383025719
0.0001257364882
0.0001199685845
0.000128363601
0.0001572056036
0.0001790440571
0.0001904456396
0.0002064503019
0.000218782631
0.0002239254101
0.0002214107673
0.000212272207
0.0001975480846
0.0001795236777
0.0001608179991
0.0001434228455
0.0001261641051
9.997090281e-05
0.0001268073384
0.0001210051724
0.0001107603483
0.0001084067597
0.0001138961147
0.0001647346357
0.0001485443918
0.0001305375405
0.0001344950975
0.0001322636988
0.0001298894375
0.0001267387331
0.0001534384337
0.0001704159113
0.0001905477591
0.0002065684023
0.0002282286941
0.0002390874382
0.0002392111678
0.000231787651
0.0002193545149
0.000204381217
0.0001893624422
0.0001745391258
0.0001599838828
0.0001442480938
0.0001165954546
0.0001318257695
0.0001218999129
0.0001099072853
0.0001139420199
0.0001423050994
0.0002005512989
0.0001885916199
0.0001543209612
0.0001401879799
0.0001336269799
0.0001280626183
0.0001508184832
0.0002154237199
0.0002157227575
0.000221300643
0.0002327461404
0.000253684677
0.0002551892321
0.0002489950071
0.0002375068483
0.0002234528104
0.0002092833906
0.0001961698207
0.0001847535432
0.0001732660757
0.0001594536788
0.0001313095703
0.0001230920866
0.0001204133208
0.0001228105246
0.0001411760925
0.0001734882589
0.0002243544336
0.0002394018506
0.00020494515
0.0001703815127
0.0001449918696
0.000156345272
0.0002333251511
0.0002867297867
0.0002603068865
0.0002439309158
0.000253145119
0.000256853861
0.0002536640716
0.0002466974912
0.0002365453988
0.0002251546667
0.0002144883113
0.0002042789075
0.0001939175029
0.0001835955584
0.0001710555958
0.0001433755397
0.0001216923889
0.0001198764447
0.0001219308214
0.0001376924645
0.0001665813242
0.000211230504
0.0002164187035
0.0001797056684
0.0001510553216
0.0001479732143
0.0002659832606
0.0003192827633
0.0003372650068
0.0003072060608
0.0002607670966
0.0002534561747
0.000252333607
0.0002478108846
0.0002417957341
0.0002341109042
0.0002256826614
0.0002174972286
0.0002092734926
0.0002000671864
0.0001901009053
0.0001793740541
0.0001526263633
0.0001219167943
0.0001213116008
0.0001207635072
0.0001294348587
0.0001507616085
0.0001820954015
0.0001805842011
0.0001584261736
0.0001476511666
0.0002398166812
0.0003264817823
0.0003636455424
0.0003732867631
0.0003511873977
0.0003073604212
0.0002528764688
0.0002480111778
0.000244575064
0.0002390863259
0.0002322716164
0.0002248814594
0.00021730474
0.0002090560791
0.0001993380177
0.0001885057891
0.0001771928837
0.0001509065632
0.0001207955297
0.0001222921091
0.0001217064034
0.0001260687556
0.0001390185789
0.0001597629007
0.0001710855845
0.0002489218373
0.0002597046862
0.0003179283175
0.0003625175241
0.0003840434544
0.0003851871785
0.0003745046507
0.0003502140941
0.0003122386945
0.0002711585117
0.0002478745703
0.0002367137926
0.0002288193716
0.0002216415022
0.0002142462739
0.0002058382845
0.0001958124599
0.0001847583379
0.0001724897928
0.0001471660294
0.000128549938
0.000157511693
0.000125296742
0.0001401466975
0.0001678321087
0.0002009906818
0.0002412680004
0.0002999552124
0.0002870870841
0.0003268903177
0.0003605283519
0.0003743132603
0.0003728492634
0.0003647670136
0.0003487360586
0.000325958658
0.0002983281079
0.0002711437626
0.0002485938823
0.0002326512846
0.0002212586745
0.0002116464227
0.0002021021304
0.0001915859258
0.0001804426288
0.0001683976421
0.0001441954838
0.0001810035436
0.0002414990906
0.000132449667
0.0001545120827
0.0001908786095
0.0002234179401
0.0002483378712
0.0002935573071
0.000295585335
0.0003043252603
0.0003413974067
0.0003537400623
0.0003549474674
0.00034916496
0.0003366447007
0.0003196606246
0.0003018460059
0.0002809563903
0.0002595332764
0.0002389806619
0.0002224466018
0.0002095007604
0.0001982123199
0.0001869563886
0.000175288503
0.000163468576
0.0001405841668
0.0002675796613
0.0003374815032
0.0002362442033
0.0001539051512
0.0001774215739
0.0002133403205
0.0002380948049
0.0002755896773
0.0002750846381
0.0002981324972
0.0003230745693
0.0003324354862
0.0003358364258
0.0003326619641
0.0003233679912
0.0003112650366
0.0002972350686
0.0002814385266
0.0003117765164
0.0002698746018
0.0002256523786
0.0002070025291
0.0001934796227
0.0001810637893
0.0001692741954
0.0001579556036
0.0001364125955
0.0002821804654
0.0003341137389
0.0002676192311
0.0002016885854
0.000149836229
0.0001792896179
0.0002159355762
0.0002472717932
0.0002559703705
0.0002872867104
0.0003264933344
0.0003622114481
0.0003221648149
0.0003172665147
0.0003116497934
0.0002996725661
0.0002882793598
0.0002750824596
0.0002634375683
0.000238811114
0.0002173664233
0.000200330772
0.0001861205341
0.0001736501914
0.0001625592072
0.0001521489644
0.0001318566513
0.0002363373224
0.0002936672364
0.0002310925409
0.0001705292087
0.0001379643621
0.0001497518874
0.000179854789
0.0002145706547
0.0002280851796
0.0002710928121
0.0003181696484
0.000417356906
0.000341903717
0.0003096873337
0.0003030054531
0.0002892654518
0.0002758143095
0.0002646424687
0.0002483041353
0.0002278567362
0.0002079225365
0.000190910844
0.0001769548921
0.0001653824616
0.0001555774547
0.000146254362
0.0001270040993
0.0002031393641
0.0002488843417
0.0001827833118
0.0001435014025
0.0001390195621
0.0001380438198
0.0001489980821
0.0001747292999
0.0001833626997
0.000228972039
0.0002691809916
0.0003335820069
0.0002971550654
0.0002864055453
0.0002816875355
0.0002752325556
0.0002609232851
0.0002498816096
0.0002345084768
0.0002148326438
0.0001955059213
0.0001794497909
0.0001668614409
0.0001569218543
0.0001486377375
0.0001403233427
0.0001218669255
0.0001945568997
0.0002058320011
0.0001494088753
0.0001365098273
0.0001402912521
0.0001346761133
0.0001359587409
0.0001449457044
0.0001430783651
0.0001809864704
0.0002241248281
0.0002718339798
0.0002656781157
0.0002648982638
0.0002588473371
0.0002538072395
0.0002440541242
0.0002336947809
0.0002175414774
0.0001983549282
0.0001807479417
0.0001669649299
0.0001566858849
0.0001487552042
0.0001419092778
0.00013435253
0.0001164506876
0.0001893754514
0.0001764781081
0.0001382540033
0.0001330833985
0.0001388465265
0.0001336664663
0.000130855235
0.0001312396786
0.000122085834
0.000143310062
0.0001815025381
0.0002230136126
0.0002365804334
0.000241386368
0.0002396396495
0.0002346132916
0.0002267557761
0.0002142611153
0.0001973219351
0.0001798306439
0.0001653153501
0.0001547542043
0.0001471957078
0.0001412213431
0.000135495037
0.00012833339
0.0001107477976
0.0001815703457
0.0001626707569
0.0001342869236
0.0001280867884
0.0001358578417
0.0001339317803
0.0001267529268
0.0001248141146
0.0001157787898
0.0001249037993
0.0001501693771
0.0001820219521
0.0002053291842
0.0002144004847
0.0002175174924
0.0002137588972
0.0002047325406
0.0001911986374
0.0001756719648
0.0001615897498
0.0001510512704
0.0001439348802
0.0001388922531
0.0001344427215
0.000129333203
0.0001220988355
0.000104600327
0.0001687325411
0.0001521298773
0.0001287860288
0.0001238906797
0.0001315313067
0.0001335444197
0.0001226130707
0.0001198607632
0.0001145415815
0.0001191613533
0.0001337628221
0.0001537339015
0.0001757843944
0.0001862388719
0.0001906989486
0.0001877422278
0.0001791427913
0.0001673529195
0.000155360728
0.0001456622733
0.0001391141162
0.0001349425202
0.0001317177493
0.0001280729413
0.0001229016635
0.0001150451957
9.749413446e-05
0.0001564280614
0.0001404964336
0.0001233841415
0.000124504792
0.0001272565022
0.0001310063022
0.0001198926655
0.0001165896984
0.0001146142027
0.0001185350443
0.0001274109414
0.0001385850315
0.0001531187589
0.0001612843187
0.0001643280293
0.0001613808132
0.0001544935033
0.0001459911121
0.0001383034126
0.0001327899353
0.0001294172678
0.0001271632602
0.0001247314453
0.0001209405781
0.0001148796892
0.0001059046336
8.833423249e-05
0.0001456527494
0.0001297109679
0.0001224616236
0.0001281628081
0.0001253187352
0.000127059922
0.0001189908004
0.0001155912523
0.0001153314559
0.0001190066538
0.0001251611489
0.0001313417234
0.0001384365487
0.0001422581772
0.0001424714972
0.0001389243535
0.0001338685685
0.0001286125586
0.00012458958
0.0001220559907
0.0001204145943
0.0001186475555
0.0001156970433
0.0001106254724
0.0001028918419
9.260243314e-05
0.0001269065672
0.0001343717163
0.0001218886879
0.0001230697808
0.0001282494248
0.0001233364965
0.0001229792241
0.0001181930048
0.0001154298358
0.0001156311181
0.0001188489184
0.0001233812405
0.0001266968184
0.0001286939507
0.0001282123991
0.0001254682192
0.0001214970123
0.000117538863
0.0001145345517
0.0001125573914
0.0001109490156
0.0001088336393
0.0001055264134
0.000100519343
9.354819015e-05
8.449008795e-05
0.0003060415252
0.0001987374231
0.0001237975293
0.0001166803781
0.0001216475419
0.0001248486769
0.0001196111367
0.0001187894075
0.0001164063839
0.000114766228
0.0001150630419
0.00011741872
0.000120309602
0.0001213545505
0.0001198283656
0.0001159479597
0.0001111500928
0.0001070646316
0.0001041157643
0.0001019945541
9.962104582e-05
9.562876009e-05
8.998422735e-05
8.333667391e-05
7.645382426e-05
0.0002640196004
0.0002036105131
0.0001473073432
8.996917871e-05
0.000114159744
0.0001108312669
0.0001165857528
0.0001197782621
0.0001153654469
0.0001139289157
0.0001127214729
0.0001119760832
0.0001121957042
0.0001133755957
0.0001142834295
0.0001129526346
0.0001087937509
0.0001031258875
9.816924451e-05
9.492925229e-05
9.251928706e-05
8.935847462e-05
8.378851371e-05
0.0003125870423
0.0002232466121
0.0001563287255
0.0001191269091
9.121971209e-05
6.641383648e-05
4.298758802e-05
2.434769704e-05
0.000101660478
9.963717862e-05
0.0001027855811
0.0001058236599
0.0001040598117
0.0001034357756
0.0001030566177
0.0001027267425
0.0001024736271
0.0001020830323
0.0001007417957
9.745679544e-05
9.252561362e-05
8.767438685e-05
8.425693391e-05
8.197223571e-05
7.944597506e-05
0.00012259186
0.0002459107712
0.0001577600902
7.591742216e-05
3.232228743e-05
1.85063982e-05
1.321925462e-05
9.248519477e-06
5.432428772e-06
2.940996279e-06
0.0008293980298
0.0008769109424
0.0008690774742
0.0008389466176
0.0008558468767
0.0007620549658
0.0004884365207
0.0002630170354
0.0001949326736
0.0001944795161
0.0002093456893
0.0001197058192
0.0002140286111
0.0003883299364
0.0005840709921
0.0006964224266
0.0007539735027
0.0007672128454
0.0007568253762
0.0007276084898
0.0006002472311
0.0003867165856
0.0001927984059
0.0001328545055
0.0001291770982
0.0001515889341
0.0001645406121
0.0001587614386
0.0001570317048
0.0001648731667
0.0001637297408
0.0001519981333
0.000143624574
0.0001448244209
0.0001501930443
0.0001367665213
0.0001008232678
0.0001187442678
0.0001035483382
9.710301188e-05
0.000129384515
0.0001965961136
0.0003060426497
0.0004196146132
0.0004881638387
0.0005293368685
0.0005235354437
0.0004807183729
0.0004664374842
0.0003407704241
0.0001576887376
9.898451071e-05
0.0001013295381
0.0001254980375
0.0001441804244
0.0001703715655
0.0002129718866
0.0002228423399
0.0002031156458
0.0001680136696
0.0001399279099
0.0001287792512
0.0001261034726
0.0001158532365
9.352736242e-05
0.0001013726652
8.594660469e-05
8.735129894e-05
9.711233723e-05
0.0001120752497
0.0001383161826
0.000197834872
0.0003125543986
0.0003696088703
0.0003215973344
0.00023418739
0.0001559917669
0.0001047941831
7.531462848e-05
5.624246218e-05
7.293622955e-05
0.000100414065
0.0001318657919
0.0001544940853
0.0001844123835
0.0001908278471
0.0001705382891
0.0001449850515
0.0001275988608
0.0001196849707
0.0001148416193
0.0001049429935
8.173650158e-05
8.775922536e-05
9.393192515e-05
0.0001020230574
0.0001084228779
0.0001160431296
0.0001430930048
0.0002226331017
0.0002938500525
0.0001878821236
0.0001724049819
0.0001052322958
8.010769491e-05
7.34534363e-05
5.594551214e-05
5.842126863e-05
7.488790157e-05
0.0001140077342
0.0001466904759
0.0001747115225
0.0001750586075
0.0001623668392
0.0001436611443
0.0001261023351
0.0001186069191
0.0001150656002
0.0001055427931
7.805301085e-05
0.0001022467765
0.0001081970371
0.0001115565604
0.0001172841438
0.0001215743639
0.0001340880323
0.0001669875748
0.0002254702727
0.0002356102719
0.0001782046261
0.0001357745107
0.00010405262
9.323128368e-05
8.726620663e-05
8.230169032e-05
0.0001058819741
0.0001410725155
0.0001673880232
0.0001728133762
0.0001644661254
0.0001559148176
0.0001439097488
0.0001286620923
0.0001213317266
0.0001190466001
0.0001106221566
7.566555902e-05
0.0001133722243
0.0001175352956
0.0001123711028
0.0001209210622
0.0001300780476
0.0001485694146
0.0002091427743
0.0002768518007
0.0003098896511
0.0003163407479
0.0002062883363
0.0001447931069
0.0001246386256
0.0001065871646
0.0001074302734
0.0001240071201
0.0001595312907
0.0001913286162
0.0002001471958
0.0001897478623
0.0001718061752
0.0001541618319
0.0001395756671
0.000132272094
0.0001313254827
0.0001202913617
7.753282411e-05
0.0001039263352
0.0001016501452
9.897777556e-05
0.0001116237314
0.0001233820904
0.000148009407
0.0001894215112
0.0002670211042
0.0003166763134
0.0002861641489
0.0001997388936
0.0001427321504
0.00015241593
0.0001402047865
0.0001400663041
0.0001567551336
0.0001974556239
0.0002401113525
0.000252344444
0.0002394755298
0.000207705236
0.0001766704628
0.0001532436588
0.0001391494363
0.0001342265362
0.0001267314893
7.918819089e-05
9.621495903e-05
9.92355326e-05
8.665285885e-05
9.688681644e-05
0.0001067353821
0.0001171746772
0.0001591382238
0.0001961639461
0.0002419586604
0.0002149993095
0.0001836792232
0.0001490011026
0.0001364296396
0.000182935934
0.0002083650032
0.0002290012982
0.0002766086752
0.000315284329
0.0003190893437
0.0002940224538
0.0002547915535
0.0002120268319
0.0001761656466
0.000153039183
0.0001418278139
0.0001310474659
8.531174966e-05
0.0001366588865
0.0001343132079
9.633538623e-05
7.844356857e-05
8.482189324e-05
0.0001561687482
0.0001762269724
0.0002002632045
0.0002524773497
0.0002309751431
0.0001970010508
0.0001633659743
0.0001580596621
0.000190239587
0.0002620948863
0.0003371446463
0.0003818920489
0.0004007318703
0.0003852553539
0.0003490735954
0.0003067519173
0.000261600771
0.0002189666007
0.0001809599299
0.0001594312194
0.0001431425862
9.721522183e-05
0.0001633031317
0.0001462042391
8.964350794e-05
6.473972933e-05
9.708789018e-05
0.0001810794673
0.0001974875808
0.0001881528983
0.0002236597104
0.0002138472677
0.0001896489254
0.0002074416468
0.0002123652172
0.0002544708752
0.0003700251353
0.0004435057771
0.0004617575844
0.0004570087717
0.000424874303
0.0003767379931
0.0003319496932
0.000295166426
0.0002575152148
0.0002259069378
0.0001942490151
0.0001645182152
0.0001093954652
0.0001086441926
0.0001198893456
9.052879076e-05
7.57142463e-05
0.0001167627064
0.0001939930101
0.0002473934966
0.0002092592708
0.0002095173469
0.0001850256198
0.0001747619658
0.0002325287837
0.000306644718
0.0003563418657
0.0005008302283
0.0004854318363
0.0004583804816
0.0004323814582
0.0004007110071
0.0003653351908
0.0003363391506
0.0003168409266
0.0002938046363
0.0002649363219
0.0002422924056
0.0002039623547
0.0001230456603
0.00014243496
0.0001199881876
0.0001066803508
8.920419239e-05
0.0001127464354
0.000206431165
0.0002340394924
0.0001832673786
0.0001741978287
0.0001710882102
0.0002574326403
0.0003757386045
0.0004685680977
0.0004617693305
0.0005454354043
0.0005167369407
0.0004623931198
0.0004247120882
0.0003939638646
0.0003668163749
0.0003466074634
0.0003325202656
0.0003142217804
0.0002851927806
0.0002550890576
0.0002242952301
0.0001327628375
0.000209974879
0.0001897354377
0.0001322931463
0.0001244523597
0.0001327532397
0.0001716987036
0.000205671519
0.0001768911648
0.0001752462466
0.0002627293201
0.00049262585
0.0007079144509
0.0007172176622
0.0006421683094
0.0005347579207
0.000541528961
0.0004907415226
0.0004446234971
0.0004068373943
0.0003769344465
0.0003556524205
0.0003391740927
0.0003183680601
0.0002881450504
0.0002560551858
0.0002283376259
0.0001335641486
0.0002128851841
0.0001896825606
0.0001495694345
0.000145736077
0.0001569661873
0.0001811421967
0.0002567719174
0.0002765755734
0.0002948206805
0.0004277301009
0.0007178207775
0.0007879169486
0.0007684594067
0.0007092755293
0.0006204161885
0.0005353067346
0.0004763360535
0.0004328061353
0.0003979002671
0.0003686217255
0.0003458635969
0.0003261594446
0.0003029050021
0.0002734533935
0.0002433216605
0.0002156464292
0.0001306691095
0.0001851487743
0.00015185721
0.0001385978987
0.0001283208761
0.0001338583108
0.0001643560181
0.0002086375094
0.0003181414759
0.0003735616838
0.0004468297522
0.0007158349145
0.0007665390658
0.0007381931164
0.0006836628731
0.0006004870098
0.0005114537951
0.0004471807518
0.0004136127988
0.0003886797384
0.0003580650783
0.000330623315
0.0003076727957
0.0002817468851
0.0002533214525
0.0002266968907
0.0001988788493
0.0001268413252
0.000176450423
0.0002204322023
0.0001455249302
0.0001309026176
0.0001351124369
0.0001551838638
0.0001714932433
0.0002728482831
0.0003912794903
0.0004547339561
0.0006611296528
0.0007076082199
0.0006794728587
0.0006393417364
0.0005688494648
0.0004868126836
0.0004310521016
0.0004029676218
0.0004288324163
0.0003816295343
0.000331841148
0.0002925853674
0.0002629333052
0.0002357620287
0.0002089886229
0.0001851448556
0.0001228034109
0.0002472720637
0.0003368397382
0.000180252109
0.0001304057458
0.0001373815945
0.0001443887295
0.0001552163413
0.0002444679036
0.0003222979522
0.0003893551723
0.0005857231315
0.0006602992574
0.0006117490458
0.0005883282122
0.0005341786094
0.0004597198822
0.000414789375
0.0004428018021
0.0005801280676
0.000484863326
0.0002810621139
0.0002668014709
0.0002440944908
0.0002157112812
0.0001929512386
0.0001739944573
0.0001188226285
0.0002790686654
0.0003101354769
0.0001807019141
0.0001330456132
0.0001379529503
0.0001438497488
0.000133890845
0.0001731612791
0.0002441441387
0.0003313987373
0.0005667643416
0.0006705245808
0.0005714540756
0.0005500016779
0.0005374409521
0.0004523297949
0.0003784980252
0.0003678666581
0.0003429753284
0.0002891700815
0.0002685805854
0.0002447947761
0.0002195668023
0.000196403257
0.0001788132835
0.0001639504111
0.0001148761142
0.0001883662599
0.000215855636
0.0001159291955
0.0001392336757
0.0001422231134
0.000136143998
0.0001337248106
0.0001406303048
0.0001673006273
0.0002336242908
0.0004407656415
0.0006456214105
0.0005315186638
0.0005082491357
0.0004913081567
0.0004300448437
0.0003437458437
0.0003076048561
0.0002715866823
0.0002548963254
0.0002357976667
0.0002175375996
0.0001991708252
0.0001813954511
0.0001673780652
0.0001546648334
0.0001108365366
0.0001865099248
0.0001393284297
0.0001214851938
0.0001461780795
0.0001497038836
0.0001230460558
0.0001204707477
0.0001268573365
0.000117259758
0.0001548714327
0.0002261371569
0.0003821800189
0.0003569795878
0.0003818881126
0.0003973567599
0.0003852277042
0.000311357399
0.0002701127334
0.0002422487535
0.0002229998973
0.0002082758596
0.0001963566596
0.0001840664568
0.0001707089249
0.0001585362727
0.0001461994138
0.0001065664656
0.0001858463637
0.0001481947736
0.0001287840456
0.0001486060944
0.0001578038424
0.0001168189788
0.0001098166527
0.0001146482187
9.39624895e-05
0.0001112558743
0.0001495077031
0.0002061421168
0.0002417446177
0.0002763543861
0.000291371654
0.0002981963945
0.0002617456817
0.0002295756898
0.0002076493771
0.0001936677889
0.0001854248674
0.0001801848746
0.0001737800495
0.0001636543931
0.0001516363135
0.0001384688876
0.000101960602
0.0001885909354
0.0001541704824
0.0001312507826
0.0001432683295
0.0001668533045
0.000117488697
0.0001017419586
0.0001015761938
8.424169797e-05
9.001233911e-05
0.0001217554136
0.0001608750314
0.0002031452978
0.000227302608
0.0002346639041
0.0002334463887
0.0002147660391
0.0001932638873
0.0001789623
0.0001707092919
0.0001685417397
0.0001693384885
0.0001672815493
0.0001583656885
0.0001451447104
0.0001309216156
9.690251075e-05
0.0001941984028
0.0001541859367
0.0001391758781
0.0001471492502
0.0001741883016
0.0001307752126
9.688263236e-05
8.953421675e-05
8.199338267e-05
8.737324068e-05
0.0001185377144
0.0001639984426
0.000208140649
0.0002226759283
0.0002183402022
0.0002059631034
0.0001879052984
0.0001719025459
0.0001611848889
0.0001566699851
0.0001586144047
0.0001627581079
0.0001618319355
0.000151835102
0.0001370842735
0.0001227493172
9.114651725e-05
0.000184941899
0.0001541605715
0.0001588245847
0.0001701378485
0.0001814570516
0.0001569804874
9.727037468e-05
8.315277826e-05
8.373850385e-05
9.434950801e-05
0.0001299613106
0.0001791702386
0.0002202582751
0.0002269485087
0.0002132593223
0.0001957784889
0.0001762196804
0.0001619380993
0.0001527868945
0.0001500473772
0.0001531043237
0.0001567307359
0.0001535601232
0.0001413893003
0.0001260742441
0.0001133530888
8.409611528e-05
0.0001720591869
0.0001580792104
0.0001840738322
0.0001969088932
0.0001862564939
0.000165225209
0.0001079199432
8.576426335e-05
8.826800165e-05
0.0001041232515
0.0001427343524
0.0001851023167
0.0002101534027
0.0002105475814
0.0001980031817
0.000186693951
0.0001662663708
0.000153757602
0.0001462040553
0.0001441672814
0.0001459174346
0.0001461704308
0.0001393977232
0.000126068732
0.0001119984859
0.0001030200742
0.0003142164417
0.0001514010451
0.000157432047
0.0001928743247
0.0001971461235
0.0001753731249
0.0001524888889
0.0001137455986
9.45869142e-05
9.74745159e-05
0.0001161771155
0.0001496815802
0.0001770391074
0.0001824370301
0.000174613405
0.0001682136179
0.0001623551633
0.0001462254636
0.0001386521632
0.0001340568742
0.0001324002012
0.0001314998153
0.0001276472808
0.0001186143372
0.0001066351451
9.6061357e-05
9.133639965e-05
0.0002269823418
0.0001382338387
0.0001470371518
0.0001804320217
0.0001784630886
0.0001523924533
0.0001304290774
0.0001098585105
0.0001022226322
0.0001110504524
0.000129611594
0.0001508484139
0.0001607971692
0.0001534758605
0.0001404833933
0.0001327150574
0.0001250761725
0.0001220947545
0.0001188068147
0.0001159972977
0.0001126604352
0.0001078472754
0.0001011268465
9.328616207e-05
8.657200411e-05
8.464023123e-05
9.283790465e-05
0.0001340341275
0.0001284194529
0.0001338078331
0.0001562147914
0.0001534626312
0.0001296387861
0.0001127410974
0.0001052144391
0.0001100406338
0.0001237685368
0.0001373411024
0.000145101595
0.000142719807
0.0001310883502
0.0001181279544
0.0001093142486
0.000105368205
0.0001039844055
0.0001018545343
9.739393205e-05
8.984247897e-05
8.136114969e-05
7.62829467e-05
7.844816417e-05
7.391027702e-05
6.860615376e-05
5.930304937e-05
5.571479811e-05
0.0001224742384
0.0001234821605
0.0001334857666
0.0001337373153
0.0001172668665
0.0001059530035
0.000105865356
0.0001143977429
0.0001239407237
0.0001290203691
0.0001288999663
0.0001229020551
0.0001128355312
0.0001033347818
9.781394727e-05
9.628802471e-05
9.47078228e-05
9.273810206e-05
9.219299112e-05
9.515944712e-05
6.38288668e-05
4.450746712e-05
3.788197443e-05
3.347512301e-05
2.832310384e-05
2.04347874e-05
1.374153596e-05
9.555035129e-05
9.461332616e-05
9.61084903e-05
9.649057882e-05
9.401773841e-05
9.294895133e-05
9.349090381e-05
9.464227125e-05
9.506143667e-05
9.42515505e-05
9.220327094e-05
8.852749136e-05
8.382667611e-05
7.95853116e-05
7.670701383e-05
0.0003098483522
0.000283657376
0.0002397833288
0.0001736170599
9.692923708e-05
3.988491254e-05
1.547327856e-05
9.14041131e-06
6.912308244e-06
5.291353009e-06
3.42554314e-06
1.685911782e-06
0.0008937557915
0.001004899885
0.001057512662
0.001058299921
0.001039814036
0.001021934373
0.0008920651665
0.0006629250682
0.0003596961705
0.0002475269979
0.0002086337291
0.0002035574253
0.0002047368273
0.0001942699696
0.0001734399141
0.0001231574941
0.0002694324644
0.0005148973564
0.0007456558926
0.0008737801808
0.000936185158
0.0009524832352
0.0009376261003
0.0009249844632
0.0007629063858
0.0005382808069
0.000243009125
0.0001451040069
0.0001244279672
0.0001189741957
0.0001212529175
0.0001372766237
0.0001594129996
0.0001723612331
0.0001671678469
0.0001457737549
0.0001205030505
0.0001159949763
0.0001224746238
0.0001137137885
8.966107733e-05
7.797500605e-05
6.907910631e-05
8.997973404e-05
0.0001488563789
0.0002703312037
0.0004507838913
0.0006105911214
0.0007034200372
0.0007362622049
0.0007341337104
0.0007265991892
0.0007014851063
0.0004624762335
0.0001998304417
9.444975512e-05
8.977703635e-05
0.0001045952514
0.0001318616157
0.0001878301503
0.0002245074885
0.0002371283425
0.0002162384873
0.0001683375426
0.0001202111323
9.557962172e-05
9.687164005e-05
9.762910126e-05
8.310783769e-05
9.328105284e-05
7.429824047e-05
7.415699716e-05
8.748970757e-05
0.0001174677617
0.0001834561278
0.0003153516569
0.000484069459
0.0005475209429
0.0004801075256
0.0003942135716
0.0002668654892
0.0001156666366
5.644587159e-05
5.226669385e-05
7.511003417e-05
8.71297414e-05
0.0001165887134
0.0001459299089
0.0001996940034
0.0002157971751
0.0001891852339
0.0001467321399
0.0001106209145
9.130050467e-05
8.961454447e-05
9.814306504e-05
7.594939385e-05
6.960708482e-05
7.241145582e-05
7.898236207e-05
8.483546159e-05
9.671981985e-05
0.0001408409098
0.0002733685902
0.0003414653372
0.0002375729451
0.0001935583249
0.0001176714615
6.052121775e-05
5.155466435e-05
5.014488566e-05
5.835563681e-05
7.861575488e-05
0.0001262344079
0.000141920753
0.0001680290672
0.000184958835
0.0001734874875
0.0001457614844
0.0001138192989
9.433341805e-05
9.348428257e-05
0.0001082808442
0.0003127070952
7.66696279e-05
8.011795895e-05
8.414370951e-05
8.719772848e-05
9.039983016e-05
0.0001006943846
0.0001400290348
0.0002365496483
0.0002566722232
0.0002212128689
0.0001466454649
8.950535568e-05
7.172806699e-05
6.742307759e-05
9.196234261e-05
0.0001424488788
0.0001529396535
0.0001543566376
0.0001622519706
0.0001678917856
0.000159604911
0.0001345964934
0.0001088342263
0.0001022359348
0.0001088496048
0.0001194650868
0.0003130584418
7.950432134e-05
9.217391127e-05
8.599356574e-05
8.673576932e-05
8.692068693e-05
9.936910601e-05
0.0001740862848
0.0002727182971
0.000306794947
0.0003366897806
0.0002365856344
0.0001504422057
0.0001194111737
8.768811074e-05
8.547230723e-05
0.0001079164576
0.0001451752516
0.0001736830241
0.0001780724068
0.0001715353747
0.0001587333931
0.0001439538845
0.0001314255844
0.0001316798565
0.0001394997934
0.0001308638179
7.566550044e-05
7.420840547e-05
8.074032118e-05
8.041115045e-05
8.293392938e-05
8.874614541e-05
0.0001191679276
0.0001800376578
0.0002750556481
0.0003152583155
0.0003033423304
0.0002213202694
0.0001438119451
0.0001497640393
0.0001342357799
0.0001312160352
0.0001517518262
0.0001934344888
0.0002285385886
0.0002196264619
0.0002066556034
0.0001816210727