/*--------------------------------*- C++ -*----------------------------------*\
  =========                 |
  \\      /  F ield         | OpenFOAM: The Open Source CFD Toolbox
   \\    /   O peration     | Website:  https://openfoam.org
    \\  /    A nd           | Version:  8
     \\/     M anipulation  |
\*---------------------------------------------------------------------------*/
FoamFile
{
    version     2.0;
    format      ascii;
    class       volScalarField;
    location    "0.6";
    object      O2;
}
// * * * * * * * * * * * * * * * * * * * * * * * * * * * * * * * * * * * * * //

dimensions      [0 0 0 0 0 0 0];

internalField   nonuniform List<scalar> 
67451
(
0.2100057568
0.2100057916
0.2100058285
0.2100058208
0.2100060035
0.2100063378
0.210005987
0.2100058079
0.2100054269
0.2100051637
0.2100050639
0.2100064842
0.2100062767
0.2100061039
0.2100059535
0.2100058784
0.2100058615
0.2100058354
0.2100058799
0.210005836
0.2100059859
0.2100059874
0.2100059642
0.2100057062
0.210005376
0.2100053337
0.2100052791
0.2100052832
0.2100053811
0.210005493
0.2100055765
0.2100056512
0.2100056907
0.2100056308
0.2100054486
0.2100053006
0.2100054076
0.2100065404
0.2100064854
0.2100063479
0.2100061896
0.2100060709
0.2100059891
0.2100059226
0.2100059029
0.2100057914
0.2100059238
0.2100059887
0.2100061311
0.2100056945
0.2100060012
0.2100056774
0.2100055405
0.2100055257
0.2100053132
0.2100051185
0.2100052999
0.210005332
0.2100053911
0.2100055021
0.2100055985
0.2100056024
0.2100054844
0.2100053973
0.2100054734
0.2100060877
0.2100059952
0.2100058617
0.2100057222
0.2100056594
0.2100056729
0.2100056918
0.2100059068
0.2100054805
0.2100058222
0.2100055718
0.2100056928
0.2100056795
0.2100055502
0.2100055228
0.21000568
0.2100058045
0.2100056622
0.2100053527
0.2100052683
0.2100053652
0.2100054518
0.2100055098
0.2100055199
0.2100054681
0.2100054678
0.2100055895
0.2100057421
0.2100057226
0.2100056308
0.2100055192
0.2100054693
0.210005448
0.210005339
0.2100051937
0.2100046809
0.2100049949
0.2100048979
0.2100060131
0.210005406
0.210005423
0.2100054815
0.2100054597
0.2100054023
0.210005437
0.2100053843
0.210005155
0.2100049948
0.2100050137
0.2100051324
0.2100052628
0.2100053933
0.2100055483
0.2100056845
0.2100057123
0.2100056227
0.2100055464
0.2100054577
0.2100054541
0.2100054995
0.2100054318
0.2100052906
0.2100050929
0.2100046433
0.2100046331
0.2100046857
0.2100047885
0.2100050199
0.2100053184
0.2100054463
0.2100052661
0.210005092
0.2100050106
0.2100049907
0.2100050656
0.2100052349
0.2100054234
0.210005564
0.2100056742
0.2100057203
0.2100056702
0.2100055919
0.2100055125
0.210005455
0.2100053671
0.210005366
0.210005387
0.2100052561
0.2100049536
0.2100045767
0.2100040265
0.2100041194
0.2100044672
0.2100046338
0.2100049161
0.210005173
0.2100054393
0.2100051734
0.210004955
0.210004766
0.21000462
0.2100046246
0.2100047643
0.2100050002
0.210005288
0.210005531
0.2100056491
0.210005647
0.2100056877
0.2100052901
0.2100052535
0.2100051986
0.2100051971
0.2100053175
0.2100054909
0.2100051861
0.2100044818
0.2100037582
0.2100039561
0.2100043233
0.2100045832
0.2100049653
0.2100048588
0.2100052211
0.2100052969
0.2100050449
0.2100046117
0.2100042493
0.2100040781
0.2100042425
0.2100044613
0.2100047028
0.2100049268
0.2100051126
0.2100053184
0.210005626
0.2100049375
0.2100049172
0.210004933
0.2100049262
0.2100051274
0.2100056647
0.2100056667
0.2100051956
0.210004142
0.2100044379
0.2100046851
0.2100048632
0.2100051772
0.210004989
0.2100052232
0.2100051468
0.2100046952
0.2100041947
0.2100038686
0.210003778
0.2100039186
0.2100041242
0.2100043523
0.2100045647
0.2100047642
0.210005008
0.2100053765
0.2100043623
0.2100044546
0.2100045575
0.2100045254
0.2100047281
0.210005597
0.2100057088
0.2100055249
0.2100048754
0.210004736
0.2100047802
0.210004993
0.2100051923
0.2100049186
0.2100046435
0.2100041792
0.2100037243
0.2100035098
0.210003438
0.2100034847
0.2100036436
0.2100038627
0.2100040838
0.2100042841
0.2100044701
0.2100046893
0.2100050055
0.2100045115
0.210004578
0.2100046493
0.2100047244
0.21000517
0.2100050389
0.2100054151
0.2100053925
0.2100050669
0.2100049482
0.2100050607
0.2100051261
0.2100048281
0.2100044233
0.2100040355
0.2100037633
0.2100032943
0.2100031401
0.2100031075
0.2100031823
0.2100033485
0.2100035814
0.2100038366
0.2100040492
0.2100042264
0.2100044155
0.2100046982
0.2100049802
0.2100050638
0.2100052655
0.2100054589
0.2100058779
0.2100078374
0.2100065039
0.2100052069
0.210005584
0.2100058047
0.2100055129
0.2100047565
0.2100040457
0.2100039695
0.2100036157
0.2100032175
0.2100028512
0.2100026949
0.2100026849
0.2100027925
0.2100029844
0.2100032459
0.2100035551
0.2100038525
0.2100040764
0.2100042558
0.2100044712
0.2100051961
0.2100053306
0.2100055171
0.2100058133
0.2100058574
0.210006349
0.2100051618
0.2100057891
0.2100062948
0.2100059029
0.2100047139
0.2100039901
0.2100034594
0.2100035992
0.2100035482
0.2100031672
0.210002634
0.2100024809
0.210002483
0.210002605
0.210002787
0.2100030215
0.2100033133
0.2100036356
0.2100039238
0.2100041182
0.210004298
0.2100052383
0.2100054388
0.2100055706
0.210005898
0.2100061479
0.2100064459
0.210005987
0.2100062527
0.2100060318
0.2100049908
0.2100039334
0.2100034409
0.2100030117
0.2100031602
0.2100035558
0.2100034221
0.2100029628
0.2100027527
0.2100027607
0.2100028742
0.2100029913
0.210003172
0.2100034231
0.2100037143
0.210003984
0.2100041677
0.2100043392
0.210005205
0.2100053311
0.2100054113
0.210005707
0.2100060436
0.2100064388
0.210006097
0.2100042035
0.2100045115
0.2100038353
0.2100032386
0.2100027461
0.2100022875
0.2100025094
0.2100030597
0.2100036454
0.2100036384
0.2100033212
0.2100031782
0.2100032651
0.210003349
0.2100034874
0.2100036857
0.210003917
0.2100041243
0.2100042965
0.2100044178
0.2100052677
0.2100051596
0.2100053354
0.210005435
0.2100054905
0.2100052959
0.2100043341
0.2100033819
0.2100034955
0.2100031787
0.2100027164
0.2100022495
0.2100016388
0.210001827
0.2100023953
0.2100030151
0.2100036158
0.2100038799
0.2100042957
0.2100050018
0.2100043745
0.2100041011
0.2100040875
0.210004191
0.21000431
0.2100044285
0.2100045341
0.2100051943
0.2100043048
0.2100055116
0.2100055294
0.2100054534
0.2100050444
0.210004209
0.2100032272
0.2100027061
0.2100031159
0.2100026559
0.2100023526
0.2100016744
0.2100018891
0.2100024614
0.2100031079
0.2100037405
0.2100041963
0.2100043555
0.2100045462
0.2100045289
0.2100044822
0.2100044549
0.2100044672
0.2100045065
0.210004575
0.2100046903
0.2100045294
0.210003145
0.2100048714
0.2100055519
0.210005609
0.2100052526
0.210004497
0.2100030924
0.2100033324
0.2100036223
0.2100032291
0.2100029171
0.2100022855
0.2100025184
0.2100029346
0.2100035605
0.2100047173
0.2100057672
0.2100081179
0.2100178126
0.2100092401
0.2100062777
0.210005254
0.2100048648
0.2100047346
0.2100047387
0.2100048593
0.210004011
0.2100022247
0.2100036272
0.210005345
0.210005702
0.2100054968
0.2100049382
0.2100035568
0.2100041735
0.2100038779
0.2100038759
0.2100042603
0.2100031777
0.2100029966
0.210003551
0.2100041028
0.210004882
0.2100053951
0.2100067237
0.2100078155
0.210006334
0.2100055806
0.2100051885
0.2100049704
0.2100048627
0.2100048712
0.2100050036
0.210004851
0.2100027905
0.2100049073
0.2100060311
0.2100057185
0.2100054468
0.2100053089
0.2100045535
0.2100048396
0.210004427
0.2100059338
0.2099961793
0.210004555
0.2100046288
0.2100029416
0.2100036389
0.2100048706
0.2100054393
0.2100060443
0.2100063515
0.2100058552
0.2100054638
0.2100052128
0.2100050518
0.2100049668
0.2100049878
0.2100051229
0.2100050075
0.2100042748
0.2100058979
0.2100058666
0.2100055372
0.2100052499
0.2100052887
0.2100051991
0.2100051271
0.2100048033
0.2100056602
0.2100059819
0.2100065548
0.2100050689
0.2100037648
0.2100039718
0.2100049652
0.2100055638
0.2100058494
0.2100058525
0.210005628
0.2100054145
0.2100052477
0.2100051279
0.2100050677
0.2100050978
0.2100052315
0.210004679
0.2100053425
0.2100057449
0.2100055264
0.2100054207
0.2100052146
0.2100052159
0.2100053019
0.2100052459
0.2100050385
0.2100047873
0.2100070749
0.2100054865
0.2100050599
0.2100048668
0.2100049355
0.2100055766
0.2100058205
0.2100057871
0.2100056692
0.2100055351
0.2100054087
0.2100052955
0.2100052088
0.2100051698
0.2100052062
0.2100053501
0.2100045007
0.2100052334
0.2100053049
0.2100053338
0.2100053042
0.2100052779
0.2100052795
0.2100052327
0.2100053552
0.2100052684
0.2100048753
0.2100058642
0.2100050016
0.2100050501
0.21000536
0.2100055915
0.2100058483
0.2100057887
0.2100056681
0.2100055864
0.2100055182
0.2100054393
0.2100053573
0.2100052923
0.2100052698
0.210005321
0.2100054978
0.2100044413
0.2100048274
0.2100050019
0.2100052621
0.2100052114
0.2100053244
0.2100054158
0.2100052625
0.210005414
0.2100054465
0.2100051269
0.2100053963
0.2100049715
0.2100050427
0.2100053449
0.2100056116
0.2100056802
0.2100056113
0.2100055778
0.2100055689
0.2100055396
0.2100054828
0.2100054171
0.2100053682
0.2100053691
0.2100054585
0.210005684
0.2100044875
0.210004649
0.2100048879
0.2100052596
0.2100051846
0.2100052862
0.2100055305
0.2100053682
0.2100054698
0.2100054976
0.2100052875
0.2100052694
0.2100050477
0.2100050621
0.2100052359
0.2100054475
0.2100054991
0.210005525
0.2100055664
0.2100055853
0.2100055634
0.2100055139
0.2100054614
0.2100054389
0.2100054882
0.2100056418
0.2100059039
0.2100045475
0.2100046397
0.2100049005
0.2100052248
0.2100052483
0.2100052305
0.2100055399
0.2100054487
0.2100054807
0.2100054765
0.2100053325
0.2100052239
0.2100051029
0.2100051189
0.210005223
0.210005438
0.210005487
0.210005554
0.2100055973
0.2100055999
0.210005569
0.2100055273
0.2100055052
0.2100055419
0.2100056732
0.2100058935
0.2100061544
0.2100045888
0.2100047258
0.2100049537
0.2100051063
0.2100052981
0.2100052668
0.210005469
0.210005446
0.21000543
0.2100054019
0.2100052984
0.2100051968
0.2100051454
0.210005219
0.2100053198
0.2100056126
0.2100056123
0.2100056519
0.2100056451
0.2100056141
0.2100055813
0.2100055754
0.2100056294
0.2100057696
0.2100059892
0.2100062358
0.2100064502
0.2100047035
0.2100048509
0.2100049899
0.2100050409
0.2100053014
0.2100053407
0.2100054235
0.2100054139
0.2100053755
0.21000533
0.2100052559
0.2100052037
0.2100052364
0.2100053768
0.2100055343
0.2100056868
0.2100057464
0.2100057487
0.2100057112
0.2100056835
0.2100057092
0.2100058137
0.2100059959
0.210006221
0.2100064487
0.2100066443
0.2100068094
0.2100048513
0.2100049649
0.2100050283
0.2100050665
0.210005308
0.2100053835
0.2100054085
0.2100053899
0.2100053475
0.2100053086
0.2100052847
0.2100053237
0.2100054748
0.2100057019
0.2100058842
0.2100059812
0.2100059587
0.2100059051
0.2100058828
0.2100059593
0.2100061428
0.2100063845
0.2100066083
0.2100067856
0.2100069264
0.2100070564
0.2100071926
0.2100050072
0.2100050874
0.210005095
0.2100051101
0.2100053047
0.2100053804
0.2100053882
0.2100053741
0.2100053619
0.2100053841
0.210005466
0.2100056369
0.2100058853
0.2100061031
0.210006191
0.2100061765
0.2100061228
0.2100061159
0.2100062282
0.2100064759
0.2100067882
0.21000704
0.2100071695
0.2100072408
0.2100072993
0.2100073679
0.2100074352
0.2100051575
0.2100052337
0.210005252
0.2100052393
0.2100053086
0.2100053325
0.2100053395
0.210005368
0.2100054532
0.2100056208
0.2100058565
0.2100061126
0.2100063091
0.2100063752
0.2100063391
0.2100062874
0.2100062885
0.2100063929
0.2100066165
0.2100069401
0.2100072567
0.2100074174
0.2100074548
0.2100074615
0.2100074706
0.2100074828
0.2100074972
0.2100056115
0.2100055415
0.2100055335
0.210005551
0.2100055577
0.2100057872
0.210005964
0.2100059281
0.2100056881
0.2100053308
0.2100051028
0.2100066768
0.2100064268
0.210006192
0.2100059807
0.2100058142
0.2100057164
0.2100056796
0.2100056813
0.2100057692
0.210005888
0.2100060028
0.2100060296
0.2100059167
0.2100057657
0.2100056999
0.2100056685
0.2100057702
0.2100058732
0.2100058609
0.210005893
0.2100059899
0.2100061041
0.2100061544
0.2100060415
0.2100057966
0.2100057641
0.210006789
0.2100067443
0.2100065715
0.2100063671
0.2100062066
0.21000609
0.2100059787
0.2100059014
0.2100058605
0.2100058769
0.2100059772
0.2100059439
0.2100060319
0.2100059652
0.2100058994
0.2100058894
0.2100059747
0.2100058118
0.2100057096
0.2100056266
0.2100055015
0.2100055705
0.2100057679
0.2100059751
0.210006086
0.2100059845
0.2100057758
0.2100057484
0.2100064301
0.2100063445
0.2100061603
0.2100059581
0.210005831
0.2100057905
0.2100057876
0.2100056924
0.2100058955
0.2100056793
0.21000581
0.2100057612
0.2100058204
0.2100058233
0.2100059567
0.2100061901
0.210006299
0.2100062765
0.2100060363
0.2100058384
0.2100057464
0.2100057589
0.2100058391
0.2100059275
0.2100059581
0.2100057962
0.2100057223
0.2100058043
0.2100061424
0.2100059471
0.2100057385
0.210005615
0.2100055807
0.2100055893
0.2100056852
0.210005501
0.2100053187
0.2100051239
0.2100043125
0.2100053651
0.2100053756
0.2100056313
0.2100056553
0.2100056839
0.2100059285
0.2100060033
0.2100059004
0.210005766
0.2100057248
0.210005736
0.2100057702
0.2100057944
0.2100056865
0.2100056374
0.2100056918
0.2100060882
0.2100058892
0.2100056946
0.2100055718
0.210005538
0.2100055096
0.2100054657
0.2100054567
0.2100048732
0.2100046815
0.2100045251
0.2100047882
0.2100050578
0.2100053243
0.2100056409
0.2100058768
0.2100059749
0.2100057714
0.2100055312
0.2100054873
0.2100055709
0.2100056767
0.2100057326
0.21000577
0.2100056691
0.2100055971
0.2100056273
0.2100061233
0.2100058822
0.2100057176
0.210005601
0.2100055769
0.2100054297
0.2100051724
0.2100048279
0.2100042637
0.2100040945
0.2100041388
0.2100045215
0.2100049088
0.2100051424
0.2100054245
0.2100056517
0.2100056812
0.2100055037
0.2100052377
0.2100051344
0.210005129
0.2100053282
0.2100055801
0.2100057545
0.2100057816
0.2100057469
0.210005778
0.2100058277
0.2100056703
0.2100056283
0.210005501
0.2100054601
0.2100052812
0.2100050982
0.2100046741
0.2100041298
0.210004188
0.2100044336
0.2100047158
0.2100050945
0.2100047039
0.2100048684
0.210005398
0.2100056301
0.210005491
0.2100051233
0.2100049623
0.2100048141
0.2100048762
0.2100050567
0.2100052407
0.2100053957
0.2100056232
0.2100058444
0.2100052219
0.2100051195
0.2100052547
0.210005139
0.2100051988
0.2100050227
0.2100051144
0.2100047242
0.2100043123
0.2100044099
0.2100047044
0.2100049784
0.2100053408
0.2100054405
0.2100056332
0.2100055845
0.2100054326
0.2100051364
0.2100048123
0.2100045834
0.2100045691
0.2100046766
0.2100048359
0.2100049966
0.2100051413
0.2100053603
0.2100056749
0.2100040319
0.2100041066
0.2100043727
0.2100042575
0.2100042574
0.2100047648
0.2100051112
0.2100047258
0.2100043489
0.21000442
0.2100048041
0.2100052037
0.2100057344
0.210005221
0.2100051012
0.2100049299
0.2100046984
0.2100044702
0.2100042761
0.2100041798
0.2100042436
0.210004432
0.2100046623
0.210004857
0.2100049986
0.210005123
0.2100053265
0.2100041789
0.2100043139
0.2100043617
0.2100041599
0.210004843
0.210004415
0.2100046394
0.2100044033
0.2100045461
0.2100048063
0.210005205
0.2100053927
0.2100053228
0.2100049086
0.2100046262
0.2100042371
0.2100039143
0.2100037153
0.2100036239
0.2100036301
0.2100037447
0.2100039702
0.2100042777
0.2100045409
0.2100047527
0.210004897
0.210005052
0.2100051902
0.2100051452
0.2100049645
0.2100050597
0.2100056565
0.2100060966
0.2100097675
0.2100059247
0.2100055312
0.2100053793
0.2100055175
0.2100052603
0.2100048
0.2100044725
0.2100039633
0.2100034283
0.2100030898
0.2100029202
0.2100028948
0.2100029778
0.2100031367
0.2100033857
0.2100037651
0.2100041875
0.2100045259
0.2100047346
0.2100048103
0.2100055028
0.210005764
0.210005367
0.2100054696
0.2100056602
0.2100063254
0.2100064743
0.2100054845
0.2100055291
0.2100054832
0.210005028
0.2100046543
0.2100044421
0.210004228
0.2100038588
0.2100034216
0.2100029677
0.2100027968
0.2100027496
0.2100028461
0.2100030198
0.2100032587
0.2100036144
0.2100040589
0.2100044506
0.2100047141
0.2100047165
0.2100053636
0.2100066398
0.210005563
0.2100057568
0.2100055875
0.210005803
0.2100060831
0.2100057835
0.2100056738
0.2100051777
0.2100045729
0.2100038608
0.2100036288
0.2100038789
0.2100039542
0.2100037474
0.210003448
0.2100032394
0.2100031959
0.2100032691
0.2100033378
0.2100034777
0.2100037393
0.2100040989
0.2100044592
0.2100047449
0.2100047934
0.2100051494
0.2100055588
0.2100055576
0.2100056939
0.2100056059
0.2100057681
0.2100056117
0.2100054156
0.2100050093
0.2100045873
0.2100037977
0.2100030909
0.2100027894
0.2100029176
0.2100033811
0.2100038139
0.2100039135
0.2100037888
0.2100036135
0.2100035386
0.210003627
0.2100037737
0.2100039996
0.2100042867
0.210004588
0.2100048233
0.2100048447
0.210005269
0.2100054813
0.2100055338
0.2100054798
0.210005289
0.2100052885
0.2100048993
0.2100052662
0.2100044065
0.210004358
0.2100034207
0.2100027681
0.2100024822
0.2100026517
0.2100032424
0.2100038444
0.2100043459
0.210004339
0.2100042564
0.2100047181
0.2100045548
0.2100043781
0.2100043813
0.2100045344
0.2100047556
0.210004946
0.2100049464
0.2100054581
0.2100056674
0.2100057381
0.2100055978
0.2100053972
0.2100053249
0.2100046644
0.2100052483
0.2100045391
0.2100043247
0.2100035726
0.2100030116
0.2100027305
0.21000288
0.2100034643
0.2100040271
0.2100044777
0.2100045348
0.2100043071
0.2100041601
0.210004231
0.2100043518
0.2100045377
0.2100047255
0.2100049087
0.2100050677
0.2100050624
0.2100055415
0.2100051044
0.2100054288
0.2100055965
0.2100054059
0.2100053374
0.2100051238
0.2100052177
0.2100046334
0.2100042462
0.2100039673
0.2100036799
0.2100033199
0.2100034456
0.2100040947
0.2100044113
0.2100051634
0.210005118
0.2100004294
0.2100063791
0.2100074282
0.2100059199
0.2100053001
0.2100050814
0.2100050996
0.2100051835
0.2100051673
0.2100060429
0.2100054775
0.2100059103
0.2100059118
0.2100055902
0.2100053883
0.2100053115
0.2100052204
0.2100047167
0.2100042875
0.2100034099
0.2100036528
0.2100041381
0.2100038622
0.2100043618
0.210004753
0.2100055817
0.2100054054
0.2100057527
0.2100067966
0.2100057485
0.2100052971
0.2100051597
0.2100051407
0.2100051928
0.2100052542
0.2100052418
0.2100053123
0.2100056973
0.2100057353
0.2100058239
0.2100055207
0.2100052187
0.2100052848
0.2100051095
0.2100048739
0.2100040521
0.2100044374
0.2100066731
0.2100035431
0.2100040517
0.2100046726
0.2100047783
0.2100055131
0.210005402
0.2100056621
0.2100058068
0.2100055554
0.2100053678
0.2100052698
0.2100052561
0.2100052901
0.2100053172
0.2100053096
0.2100049211
0.2100054988
0.2100056341
0.2100057768
0.2100055769
0.2100051854
0.2100053384
0.2100053189
0.2100049924
0.2100044348
0.210004296
0.2100036086
0.2100043989
0.2100045787
0.2100049482
0.2100054618
0.2100056421
0.2100054764
0.2100055128
0.2100055569
0.2100054931
0.2100054194
0.2100053775
0.2100053754
0.2100053908
0.2100053901
0.2100053952
0.210004824
0.2100051264
0.2100054355
0.2100056775
0.2100057195
0.2100053144
0.2100053915
0.2100054623
0.2100051849
0.2100048667
0.2100046781
0.2100040442
0.2100047266
0.2100048047
0.2100051368
0.2100054686
0.2100054274
0.2100053163
0.2100054175
0.2100055021
0.2100055253
0.2100055059
0.2100054922
0.210005494
0.2100054958
0.2100054853
0.2100055177
0.2100047727
0.2100050054
0.2100052451
0.2100054936
0.2100057068
0.2100055335
0.2100055635
0.2100056049
0.2100054536
0.2100053528
0.2100051744
0.2100047575
0.2100049666
0.2100050259
0.2100051568
0.210005293
0.210005236
0.210005273
0.2100054585
0.2100055742
0.210005616
0.2100056099
0.2100056032
0.210005605
0.2100056068
0.2100056117
0.2100056827
0.2100048039
0.2100049465
0.2100051209
0.2100053607
0.210005538
0.210005697
0.2100057591
0.210005739
0.2100057031
0.2100057023
0.2100055799
0.2100052894
0.2100052438
0.210005223
0.2100051922
0.2100052104
0.2100052326
0.2100053736
0.2100055644
0.2100056723
0.2100057046
0.210005698
0.2100056943
0.2100057058
0.2100057316
0.2100057746
0.2100058806
0.2100048918
0.2100049324
0.2100050805
0.2100053137
0.2100054284
0.2100056963
0.2100058685
0.2100058632
0.2100058963
0.2100059333
0.2100058575
0.2100056266
0.2100054908
0.2100054258
0.2100053335
0.2100053853
0.2100053977
0.2100055293
0.2100056639
0.2100057379
0.2100057554
0.2100057533
0.2100057657
0.2100058113
0.2100058874
0.2100059777
0.210006099
0.2100049343
0.2100049519
0.2100050765
0.2100052157
0.2100053932
0.2100056426
0.2100058616
0.2100059273
0.210005994
0.2100060413
0.2100060026
0.2100058226
0.2100056775
0.2100056417
0.2100055288
0.2100056774
0.2100056018
0.2100056853
0.2100057397
0.210005767
0.2100057742
0.2100057936
0.2100058552
0.2100059659
0.2100061038
0.2100062303
0.2100063366
0.2100049822
0.2100050265
0.2100051044
0.210005115
0.210005414
0.2100056527
0.2100058376
0.210005923
0.2100059896
0.2100060405
0.2100060242
0.210005904
0.2100057985
0.2100058984
0.2100057527
0.2100068996
0.2100059052
0.2100058853
0.2100058294
0.2100058169
0.210005841
0.2100059213
0.2100060644
0.210006244
0.2100064152
0.2100065473
0.2100066341
0.2100050624
0.2100051155
0.2100052008
0.210005132
0.2100054615
0.2100057122
0.2100058322
0.2100058828
0.2100059229
0.2100059673
0.2100059686
0.2100059104
0.210005891
0.2100059547
0.2100059795
0.2100060257
0.210006
0.2100059823
0.2100059623
0.2100059924
0.2100061006
0.2100062775
0.2100064808
0.2100066624
0.2100068007
0.2100069143
0.2100070059
0.210005148
0.2100052056
0.2100053043
0.2100052704
0.2100055291
0.2100057351
0.2100058153
0.2100058405
0.2100058705
0.2100059128
0.2100059411
0.2100059689
0.2100060536
0.2100061665
0.2100062369
0.2100063307
0.2100062629
0.2100062275
0.2100062586
0.2100063992
0.210006619
0.2100068327
0.2100069851
0.2100070845
0.2100071581
0.2100072415
0.2100073264
0.2100052261
0.2100052889
0.2100053606
0.2100054025
0.2100055786
0.2100056999
0.2100057421
0.2100057602
0.2100058124
0.2100058993
0.210006006
0.2100061316
0.2100062619
0.2100063365
0.2100063461
0.2100063504
0.2100063778
0.2100064553
0.2100066271
0.2100068839
0.2100071381
0.2100072809
0.2100073278
0.2100073433
0.2100073618
0.2100073926
0.2100074306
0.2100052809
0.210005358
0.2100054098
0.2100054434
0.2100055104
0.2100055377
0.2100055541
0.2100056034
0.2100057361
0.210005945
0.210006166
0.2100063358
0.2100064143
0.2100064031
0.2100063654
0.2100063674
0.2100064369
0.2100066019
0.2100068692
0.21000718
0.2100073915
0.2100074437
0.2100074256
0.2100074043
0.2100073941
0.2100073879
0.2100073871
0.2100056448
0.2100054086
0.2100052792
0.2100052379
0.2100052327
0.2100050241
0.2100050787
0.2100057727
0.2100057766
0.2100054769
0.2100051304
0.2100049696
0.210005026
0.2100052146
0.2100054684
0.210006808
0.210006521
0.2100062143
0.2100059283
0.2100057017
0.210005555
0.2100055
0.2100055209
0.2100056386
0.2100058456
0.2100060342
0.2100060991
0.2100060257
0.2100059513
0.2100059518
0.2100059908
0.2100059215
0.2100057998
0.2100057525
0.2100058254
0.2100059537
0.2100060932
0.2100061609
0.2100060759
0.2100059354
0.210005932
0.2100069558
0.2100069458
0.2100067783
0.2100065433
0.2100063233
0.2100061371
0.2100059781
0.2100058732
0.2100058159
0.210005824
0.2100058765
0.2100057349
0.2100061281
0.2100061351
0.2100060866
0.2100060725
0.2100061528
0.2100060019
0.2100057664
0.2100054804
0.2100053369
0.2100054195
0.2100056547
0.2100058875
0.2100060087
0.2100059093
0.2100057587
0.210005798
0.2100066656
0.2100066229
0.2100064598
0.2100062499
0.2100060866
0.2100060068
0.2100059847
0.210005889
0.2100058447
0.2100057469
0.2100058935
0.2100060377
0.210006084
0.210006145
0.2100062355
0.2100063971
0.2100062593
0.2100063035
0.2100061279
0.210005755
0.2100055241
0.2100054819
0.210005543
0.21000568
0.2100057336
0.2100055673
0.2100054822
0.2100056484
0.2100065413
0.2100063308
0.2100060595
0.2100058946
0.21000584
0.2100058632
0.2100058379
0.210005461
0.2100055351
0.2100049004
0.2100055574
0.2100056642
0.2100057584
0.2100056347
0.2100055311
0.2100056093
0.2100059207
0.2100059664
0.2100058242
0.2100056494
0.2100054356
0.2100052998
0.2100053437
0.2100054019
0.2100052388
0.2100051772
0.2100054317
0.2100063558
0.2100061929
0.2100059588
0.2100057789
0.2100056916
0.2100056725
0.2100055736
0.2100052555
0.2100048087
0.2100044335
0.2100043941
0.2100048232
0.2100052934
0.2100056276
0.2100058852
0.2100060335
0.2100059849
0.2100058133
0.21000565
0.210005641
0.2100055482
0.2100053576
0.2100052727
0.2100053019
0.2100051913
0.2100050943
0.2100053337
0.2100063628
0.210006131
0.2100059338
0.2100057783
0.2100057006
0.2100055371
0.2100052295
0.210004929
0.2100042094
0.2100039402
0.2100041007
0.2100043753
0.2100049089
0.2100051408
0.2100054334
0.2100056835
0.2100057402
0.2100055717
0.2100053765
0.2100053213
0.210005413
0.210005585
0.210005726
0.2100058047
0.2100057251
0.2100055508
0.2100055446
0.2100060742
0.2100059222
0.2100058292
0.2100056547
0.2100054807
0.2100051834
0.2100048111
0.2100043508
0.2100039374
0.2100039678
0.210004229
0.2100046256
0.2100051178
0.2100049583
0.2100047083
0.2100051833
0.2100055222
0.2100054405
0.2100051759
0.2100051449
0.2100051369
0.2100052453
0.2100054066
0.2100055292
0.2100056365
0.2100057893
0.2100057831
0.2100053799
0.2100052436
0.2100054939
0.2100053254
0.2100050299
0.2100046618
0.2100043214
0.2100039712
0.2100038867
0.2100041156
0.2100046033
0.2100050415
0.2100055031
0.2100054511
0.2100054765
0.2100053872
0.2100053611
0.2100051875
0.2100049501
0.2100048879
0.2100052899
0.2100051162
0.2100052386
0.2100053559
0.2100054519
0.2100056354
0.2100058267
0.2100038805
0.2100039947
0.2100043118
0.2100040905
0.210003504
0.2100041279
0.210003871
0.2100038449
0.2100037646
0.2100041847
0.2100046736
0.2100051776
0.2100053262
0.2100052326
0.2100049523
0.210004752
0.2100046239
0.2100045027
0.2100043924
0.2100043426
0.2100044593
0.2100046891
0.2100050363
0.2100052902
0.2100053769
0.2100054539
0.2100056162
0.2100039945
0.2100041999
0.2100043593
0.2100039695
0.2100045463
0.2100036722
0.210003983
0.2100039922
0.2100041694
0.2100047359
0.2100053048
0.2100053266
0.2100054567
0.2100049023
0.2100044275
0.2100039784
0.2100036442
0.2100035006
0.2100034792
0.2100035562
0.2100037631
0.2100040825
0.2100045595
0.2100050011
0.2100052085
0.2100052804
0.2100053715
0.2100053893
0.2100052529
0.2100052214
0.2100048792
0.2100052127
0.2100024211
0.2100063299
0.2100051818
0.2100050557
0.2100052953
0.2100054162
0.210005213
0.2100048331
0.2100042953
0.2100036267
0.2100031003
0.2100027914
0.2100026589
0.2100026772
0.2100028133
0.2100030366
0.210003355
0.2100038766
0.2100044988
0.2100049774
0.210005135
0.2100051008
0.2100056869
0.2100055861
0.2100058279
0.2100056888
0.2100056608
0.210005874
0.2100057532
0.2100054348
0.2100053395
0.2100053216
0.2100050022
0.2100046396
0.2100043313
0.2100039118
0.2100033412
0.2100033395
0.2100027506
0.2100027004
0.2100025426
0.2100026218
0.2100028198
0.2100031275
0.2100036191
0.2100042548
0.2100047708
0.2100050395
0.2100049855
0.2100053433
0.2100057994
0.2100066167
0.2100057967
0.2100056717
0.2100054654
0.2100054392
0.2100054422
0.2100053533
0.2100049671
0.2100041175
0.2100034281
0.2100030792
0.2100030776
0.2100031453
0.2100031493
0.2100029767
0.2100028763
0.2100028247
0.2100028684
0.2100030102
0.2100032702
0.2100036898
0.2100042242
0.2100046999
0.2100050023
0.2100050362
0.2100050412
0.2100056327
0.2100058055
0.2100057671
0.210005581
0.2100054405
0.2100050582
0.2100054192
0.2100049592
0.2100044765
0.2100035283
0.2100028824
0.2100025333
0.2100025632
0.2100028177
0.2100030996
0.2100032425
0.2100032674
0.210003184
0.2100031217
0.2100032821
0.210003538
0.2100039209
0.2100043616
0.210004781
0.2100050607
0.2100050757
0.210004982
0.210005499
0.2100058495
0.2100056981
0.2100055553
0.2100057924
0.210005335
0.2100054698
0.2100047211
0.2100042388
0.2100032382
0.2100027061
0.2100023754
0.2100024443
0.2100028359
0.2100032023
0.2100036324
0.2100036691
0.2100033058
0.2100030154
0.2100035322
0.2100038579
0.2100041935
0.210004553
0.2100049337
0.2100051624
0.2100051482
0.210004997
0.2100047232
0.2100059379
0.2100057233
0.2100054505
0.2100054323
0.2100049658
0.2100052512
0.2100046681
0.2100042956
0.2100033359
0.2100029435
0.2100026969
0.2100027388
0.2100031084
0.2100034368
0.2100038818
0.210003501
0.2100042043
0.210003712
0.2100036322
0.2100039582
0.2100043591
0.2100047296
0.2100050518
0.2100052378
0.210005218
0.2100057365
0.2100049635
0.2100059077
0.210005853
0.2100054613
0.2100053704
0.2100051772
0.2100052024
0.2100047783
0.2100044595
0.2100038502
0.2100039693
0.2100035644
0.2100034491
0.2100038978
0.2100037237
0.2100046876
0.2100044517
0.2099994258
0.2099969795
0.2100030036
0.2100040121
0.2100045964
0.2100049396
0.2100051806
0.2100053077
0.2100052792
0.2100059485
0.2100053128
0.2100061153
0.2100058991
0.2100054239
0.2100054046
0.2100053569
0.2100050173
0.2100046553
0.2100044941
0.2100029373
0.210003327
0.2100039582
0.2100036885
0.21000398
0.2100039626
0.2100052486
0.2100052915
0.2100043732
0.2100045777
0.2100043802
0.2100046133
0.2100049003
0.2100051292
0.2100053008
0.2100053732
0.2100053348
0.2100056471
0.2100059374
0.210006065
0.2100058092
0.2100050968
0.2100050944
0.2100053749
0.2100049076
0.2100047027
0.210004734
0.2100039945
0.2100052007
0.2100047151
0.2100043862
0.2100046186
0.2100045005
0.2100053189
0.210005125
0.210004991
0.2100047331
0.2100048405
0.2100049985
0.2100051666
0.2100053219
0.2100054301
0.2100054504
0.2100054042
0.2100054128
0.210005698
0.2100058851
0.2100058429
0.2100052374
0.2100049953
0.2100052068
0.2100049077
0.2100047735
0.2100047992
0.2100048232
0.2100050575
0.2100050385
0.2100048469
0.210005017
0.2100049481
0.2100053497
0.2100052462
0.2100052501
0.2100051852
0.2100052152
0.2100052817
0.2100053917
0.2100055025
0.2100055643
0.2100055487
0.2100055071
0.2100053851
0.2100054465
0.2100056723
0.2100057811
0.2100055569
0.2100051791
0.2100051197
0.2100049823
0.2100049508
0.210005059
0.2100051476
0.2100052698
0.2100051688
0.2100051302
0.2100053104
0.2100052896
0.2100054461
0.2100054349
0.2100054656
0.2100054449
0.2100054426
0.2100054863
0.21000558
0.2100056683
0.2100057048
0.2100056753
0.2100056522
0.2100053263
0.2100053384
0.2100054735
0.2100056144
0.2100056543
0.210005478
0.2100052899
0.2100051747
0.2100052324
0.210005386
0.2100054745
0.2100054592
0.2100053871
0.2100053611
0.210005404
0.2100054523
0.210005534
0.2100055877
0.2100056295
0.2100056171
0.210005608
0.2100056518
0.2100057421
0.2100058249
0.2100058587
0.2100058341
0.210005834
0.2100052485
0.2100052185
0.2100053035
0.2100054704
0.2100055882
0.2100056549
0.2100055669
0.2100054616
0.2100055689
0.2100056979
0.2100057477
0.2100056616
0.2100055524
0.2100055326
0.2100055133
0.2100055968
0.2100056347
0.2100057063
0.2100057482
0.2100057403
0.2100057363