/*--------------------------------*- C++ -*----------------------------------*\
  =========                 |
  \\      /  F ield         | OpenFOAM: The Open Source CFD Toolbox
   \\    /   O peration     | Website:  https://openfoam.org
    \\  /    A nd           | Version:  8
     \\/     M anipulation  |
\*---------------------------------------------------------------------------*/
FoamFile
{
    version     2.0;
    format      ascii;
    class       volScalarField;
    location    "1.9/wallFilmRegion";
    object      alpha;
}
// * * * * * * * * * * * * * * * * * * * * * * * * * * * * * * * * * * * * * //

dimensions      [0 0 0 0 0 0 0];

internalField   nonuniform List<scalar> 
1342
(
1.700437683
1.380662153
0.7468918512
1.561039524
2.234071075
0.1560173874
0.03314396729
0.02492205851
0.03126336705
0.04483267226
0.05595687438
0.05899887431
0.05565038962
0.04273212338
0.03932546499
0.04446768549
0.05407429713
0.06501702843
0.07326852202
0.07424821816
0.06616861429
0.05346301318
0.04253576994
0.05145427214
0.1674499716
5.143443605
1.226383714
1.064706148
1.200294804
0.7575256697
1.37371231
1.403013027
0.1449359539
0.01805655826
0.0306054394
0.05779597536
0.09635197359
0.125024484
0.1085367964
0.08204093087
0.06937171658
0.07416549268
0.08093048736
0.08557835015
0.08973186411
0.09970863647
0.1143900192
0.1383596777
0.1794828531
0.2389765615
0.3356748666
0.4937147758
5.898294786
1.504431274
1.213139813
1.170955493
1.132698823
1.01664149
1.246591218
0.8637436554
0.1031054849
0.01275600789
0.039369667
0.08886072366
0.1431830553
0.149139866
0.1075369204
0.07955298922
0.1063531877
0.1301967642
0.1268600028
0.1045938292
0.09133519565
0.1055057582
0.1498483321
0.1916136304
0.2078437236
0.2429284864
0.2495864909
0.2177913934
4.857102029
1.335528593
1.442763262
1.352182979
1.207710777
1.10050296
1.109064384
0.7871583013
0.2425976918
0.02001610824
0.05416500119
0.1134686015
0.1431192681
0.113697271
0.07285856725
0.05913327804
0.1459365606
0.1793364823
0.1210862303
0.07550213949
0.05598427765
0.04331680926
0.03135024451
0.02858571572
0.0288740447
0.1360929715
0.1487542667
0.08641683154
4.291534499
1.201199389
1.444991769
1.511611046
1.542555879
1.929543929
1.893921768
1.466097127
1.060659785
0.1351334508
0.08390892296
0.1139227152
0.1056409669
0.08307230445
0.1140731034
0.08850140331
0.16810526
0.1723977039
0.06533709585
0.03296441893
0.02533743859
0.02440027785
0.02777665978
0.03178609508
0.03477189073
0.1702535431
0.1830726496
0.1291017786
4.177956048
0.922540028
0.349099031
0.3303381337
0.5879818466
0.6479443755
0.3178511094
0.4646227048
0.1886588403
0.1232037337
0.2170203925
0.1440618202
0.1101753257
0.07455261816
0.06356120516
0.1977842853
0.1020354969
0.1265182193
0.1334322697
0.04990417926
0.02011768128
0.01866469636
0.02310826267
0.03097133306
0.03976066776
0.04765548771
0.2166990744
0.225596077
0.1782865454
4.135552642
1.265147569
0.3494754858
0.0482417687
0.1656380085
0.5730573956
0.1498306421
0.08350456191
0.0957294589
0.06190419051
2.087416652
0.9689897901
0.2319475304
0.07250828398
0.05009022894
0.1831740311
0.05493652
0.06086230703
0.03920106912
0.06027669007
0.1235717194
0.08779838599
0.05908148602
0.1100176382
0.1889634852
0.130660949
0.4021358934
0.4210718816
0.4439394376
4.409721179
1.042080363
0.7107756663
0.126520982
0.02549501488
0.1760483464
0.0001564962894
0.01200607692
0.02840093516
0.03516578064
0.09504891314
0.6503131008
0.462249415
0.08759059987
0.04570109429
0.12044302
0.0166453199
0.004657805012
0.01010056401
0.0174523044
0.04923366071
0.1180095181
0.1326925622
0.1083316031
0.1100718382
0.07444830509
0.2881608958
0.2982102562
0.2852604475
4.094648895
1.029583108
0.9136031795
0.9419071483
0.3383667177
0.04043789223
0.0004214469054
0.01124054586
0.03161422968
0.03470954391
0.02599059288
0.03520429336
0.5052375155
0.2112787113
0.07794582927
0.08640154633
0.005992382111
0.001774538898
0.004756871623
0.008700103311
0.01511944079
0.03981265036
0.09978774168
0.1257202421
0.1026890778
0.0732690791
0.2321925268
0.2376249348
0.2018323125
4.059940214
0.9427752475
0.4311603015
0.2793351465
0.2862540488
0.009215157729
0.0002143687846
0.02010446024
0.04956456885
0.03484619433
0.01867791741
0.02163055574
0.01807901884
0.2197236881
0.448796937
0.07589608044
0.002595016466
0.00183694655
0.004975676831
0.008311935995
0.01173130589
0.02257723035
0.07012757992
0.1756432234
0.2189962155
0.1644685535
0.2442684527
0.2308427304
0.1645454587
4.389398689
0.5131321459
0.3629452272
0.1302074035
0.07649023536
0.004157722998
0.003887588618
0.04897765603
0.07039159094
0.02096459726
0.007866215391
0.04965476177
0.01394987339
0.008652384445
0.484965889
0.05177195509
0.001205513736
0.002805554941
0.008805847586
0.01401759377
0.0149020054
0.01623908921
0.02930532133
0.09161394893
0.2350355866
0.3443067395
0.3795659752
0.3312755273
0.1894962435
5.180549237
0.3407284695
0.8093438231
0.8758630354
0.483195458
0.1618138181
0.05660276114
0.03020968904
0.01514877632
0.003912661195
0.003119773846
0.1074603205
0.03994370189
0.01136801405
0.0499171374
0.1043375382
0.2001707948
0.252108437
0.192622861
0.09762827966
0.04081827159
0.01930578612
0.01532873706
0.03213905444
0.08717223141
0.1844145846
0.2903503647
0.4877901752
0.2360980619
6.246239125
0.592579501
0.8808875922
1.271539591
1.270396333
0.5460795716
0.1648410918
0.03333993076
0.007727278464
0.002691940952
0.005564379327
0.1736506614
0.08416573121
0.03094851001
0.02925541255
0.08200189766
0.1815837592
0.2032959206
0.1329292921
0.06393808043
0.02719662942
0.01283745137
0.009196734171
0.02019107649
0.05263039798
0.1118270746
0.1904599919
0.5602642048
0.4010442366
7.017934811
0.6704691052
0.424493508
0.678121656
1.79351679
0.8896055095
0.2059495599
0.03784455548
0.007651021584
0.00356804093
0.02170712068
0.2303130329
0.1201494508
0.0533619638
0.03607536183
0.04360214867
0.04653263164
0.03797607446
0.02904911025
0.01873615644
0.009905871581
0.005286688229
0.00401474471
0.01536021653
0.04066183466
0.07579933632
0.1358131373
0.5594194391
0.8236115001
7.861210505
0.7143183061
0.318506202
0.5176249775
1.899448307
0.8799839528
0.2336668298
0.1534050085
0.2255444089
0.3358695585
0.4575684252
0.524155346
0.458099511
0.3884337912
0.284549327
0.175797195
0.09129795598
0.04601729952
0.02727357597
0.01922722617
0.01545657756
0.01406278183
0.015292553
0.02507229376
0.04013514718
0.04879032124
0.05793184086
0.2429257448
1.502010679
8.166603402
0.6195658991
0.3637441966
0.6259912223
1.762175438
0.7602021087
0.2039005611
0.09005190956
0.06493918676
0.05144491833
0.05175048745
0.5646130943
0.4420385632
0.5785559637
0.3081061221
0.1313090859
0.06338393689
0.0436217841
0.04161072228
0.04456209857
0.04597620177
0.04368761789
0.04238908147
0.04318415852
0.03718232108
0.02965960247
0.03442051536
0.2333330489
4.710549876
8.888774946
0.5096527962
0.2794201645
0.3930261727
1.050572607
0.413356731
0.03768615332
0.008376899471
0.0008838266346
0.01693140637
0.01832983427
0.4954040097
0.322539929
0.269473661
0.1282642524
0.06597727716
0.05176446891
0.06308808184
0.0867947917
0.1073456706
0.1477269406
0.1185283877
0.04578512681
0.03468049989
0.04324523862
0.06483359431
0.1393541987
1.346957984
8.346680189
11.36034444
0.07713354582
0.07373874068
0.1284215253
0.4868602345
0.2028512349
0.03447473528
0.01564027232
0.01227006743
0.01750149853
0.02168919369
0.3532922025
0.2021769226
0.1437256241
0.09861810684
0.08407194297
0.09351633331
0.1379581573
0.2201772871
0.255635841
0.3157041745
0.2027759113
0.04139158935
0.07246437548
0.3309684654
1.781377301
4.947164214
10.1879476
10.17350907
10.65177577
0.01265170077
0.03304495206
0.04384828904
0.1948030043
0.1314720842
0.0539842232
0.03445423112
0.02884951369
0.02440388454
0.03555354731
0.2032113233
0.1340880116
0.1156051696
0.1111702504
0.1231311229
0.158881265
0.2464013992
0.5488974555
1.121256149
0.8891585295
0.6676394505
0.779227671
2.136386389
5.993669387
9.13032711
7.404351213
6.672199334
6.246016965
8.128014347
0.1113891434
0.01895513154
0.01190035175
0.07411173492
0.09737637394
0.0719733135
0.05360835617
0.04278318323
0.029132118
0.04373793968
0.114967256
0.1074410765
0.1112899229
0.1225209968
0.1526012318
0.2161831231
0.3282643707
0.7373105203
1.499447266
1.990432775
4.16202363
6.202171968
8.270974467
8.429854608
6.631763053
4.442240468
5.23968009
4.946432096
6.748316773
0.09047292507
0.01011961994
0.005319619115
0.02306539859
0.05866743045
0.0723642653
0.06824922374
0.05543234475
0.03305664972
0.04960032376
0.08870677329
0.1014541028
0.1120083694
0.128117128
0.1708542644
0.2610887758
0.3729645749
0.6392872622
1.901787582
4.351290081
6.096527792
6.677150727
6.698746573
4.634209803
3.84357799
3.865933028
4.537703537
4.361082647
6.091420758
0.00514295957
0.00230481093
0.003605632029
0.01454837321
0.04504672546
0.06980238034
0.07620830445
0.06746285779
0.04006780471
0.05694549041
0.08873277697
0.1634743037
0.2256875375
0.2298201924
0.2498664098
0.3685781439
0.4692369513
0.626276387
2.068033556
2.644339319
4.674668077
5.99032613
4.503954431
3.200405244
2.910181768
3.12485247
3.872038468
4.045422598
5.445878597
0.02501467231
0.002310047834
0.004099432246
0.2470475399
0.4974399715
0.2860496147
0.1120674146
0.0695143846
0.04858619087
0.0667966365
0.1007498834
0.4133408264
0.7429570635
0.754534097
0.6395522761
0.9285309248
0.9070139314
0.7531877439
0.8911326755
2.164154583
4.493929888
7.777372793
4.841786789
3.043195857
2.838954275
3.140980176
3.712380662
3.903799585
4.710229572
0.06518673882
0.006814464874
0.005361165545
0.2975714137
0.9996613418
0.6327218109
0.1683138333
0.05922187814
0.0442860822
0.08317699199
0.126572033
0.1726239422
0.1559944113
0.3799490478
1.116464401
3.044475036
2.017512921
0.8916112203
3.104567304
5.000522966
8.527078179
5.454367392
3.245501887
2.862308142
2.976580857
3.275996767
3.755639652
4.026679161
4.200274706
0.02699863718
0.01555582072
0.009350274368
0.1400728252
1.113910619
0.8236092443
0.2738262212
0.1079932311
0.1010152158
0.149703832
0.1705059382
0.1173734313
0.09584744232
0.1697451908
0.7353649416
4.025702212
3.559092555
1.769605312
5.191511712
7.527490317
6.709584619
3.687960935
2.930835458
2.908786406
3.075570565
3.359018559
3.738753507
4.10079147
4.111320003
0.0361641342
0.02694658772
0.0190910093
0.06630204748
0.8541202766
0.7393185117
0.3328784936
0.2034347388
0.2460204319
0.281320064
0.1986553794
0.1278585244
0.1584656889
0.3107098355
0.7002633598
4.417633488
4.19286445
3.063360254
6.781517742
7.483920449
4.851259441
3.372903447
3.121589369
3.169309568
3.3375195
3.593676568
3.948064646
4.367410064
4.531617998
0.01858956688
0.03436221473
0.03403111459
0.04580426279
0.4777525694
0.4969651306
0.298626253
0.2256683702
0.338821423
0.543071148
0.2596376451
0.2145066396
0.2551566003
0.4467904975
0.8320689653
5.633703369
5.947560822
4.542919743
7.024938624
4.249461061
2.390029695
2.225927049
2.46264286
2.804102694
3.130794428
3.48690849
3.925534142
4.260485229
4.720703173
0.06461194512
0.1185641855
0.06425225813
0.04402967274
0.214999167
0.2721553014
0.2276326944
0.2288812706
0.4548687821
1.847032072
2.091199812
1.095211444
0.6072299719
2.048884901
2.882444114
8.400231161
7.104837327
6.204306718
6.624724646
3.954537228
2.772866956
2.713999457
2.928115687
3.31655099
3.753864272
4.043443745
4.409028629
4.229391387
4.875891899
0.1397131454
0.3184964177
0.09262161665
0.02258697752
0.04950502875
0.0699486542
0.08419292636
0.1307912349
0.3602758272
2.468208661
5.41151312
4.208424139
1.682538528
4.941139298
6.084173243
9.615093408
7.82874426
7.964410764
5.031790569
3.943311718
3.512503644
3.039292584
2.596289639
2.533853911
2.888810325
3.45040476
4.195431432
4.00540639
5.232484109
5.332008006
7.075971396
3.653282064
1.867729125
1.362283699
1.365142289
1.624023156
2.209049996
4.395764684
11.37166025
15.99222317
11.02576558
14.2381658
10.84732537
12.97580237
11.61025823
10.14228792
10.70118539
5.463809524
4.146677392
3.624070195
3.159230644
2.72981309
2.489830584
2.53955361
2.830883112
3.481610564
4.149937652
5.806714734
6.840130477
0.002759627887
0.007008029667
0.0006016236645
0.006418601846
0.0005291868808
0.001304360186
0.003363060941
0.0004709792189
0.0001667608043
0.0002645124626
0.0004513477147
0.0001744186784
8.89367571e-05
0.0001583357785
0.0003195682709
2.553818416e-05
1.582453412e-05
3.707336427e-05
0.000120315688
0.0007372857607
0.0002359130089
0.0003750950734
0.0007000237392
0.5343964443
0.6680838679
0.06140766152
2.588027983
0.01052506799
0.00317351136
6.067415052
0.001880148505
0.001456529093
0.002233167742
0.001018286898
0.0005515572615
0.001271110025
0.0004729372108
0.0004123836636
0.0008692008902
0.0003497134597
0.0002903092988
0.001409457349
0.0003431412106
0.0004939748339
0.002437574429
0.0007007886454
0.0009780637604
0.5554508569
0.001701964467
0.002976332303
2.078909765
0.009584050287
0.08701315343
0.05870774093
0.1630157489
0.07925338649
0.04662965736
0.01993728019
0.04344958548
0.09695465635
0.07979965194
0.03083028195
0.03419604145
0.06007741727
0.00992554378
0.02479178011
0.0119857948
0.01798656559
0.0168410931
0.03985022422
0.01288737363
0.003505845744
0.0075878069
0.005617119726
0.01749268091
0.02582569902
0.0512752716
0.00629082931
0.01376944507
0.02264902674
0.05510055463
0.2007952952
3.38162988
0.1174676985
0.2293487924
0.5075276252
0.372552355
0.9131828732
0.6644537786
0.4190448077
0.2637297752
5.452954908
2.41945429
0.07766955414
0.08227421684
2.159102143
0.6539253043
2.512539096
0.3099029201
0.09573225397
0.4743071681
0.08175118408
0.21573896
2.667705066
0.2198237314
0.1076727295
0.4692914039
0.2407321931
0.2334836316
3.627177085
0.2446580713
0.3939207447
0.5288339861
0.382883239
0.2489810414
3.604658558
0.256635083
0.2409868566
0.7254600127
0.09317893604
0.2844029147
5.02196578
0.3627733564
0.2102142786
0.3922389154
9.76684589
0.5641871022
0.1463311306
0.000365892653
0.04101096125
0.000327495555
0.0003805696976
0.0002942638117
0.000339966358
0.0004981623277
0.000399186909
0.0004700853129
0.0005519792407
0.002312012358
0.01235457103
0.004196334641
0.0009074251532
0.001706420663
0.001014528713
0.0005672101393
0.000702376595
0.0005596937251
0.0004174492194
0.0004751496366
0.0004123824291
0.0002931034201
0.0003476011988
0.0002982324901
0.0005056106599
0.0003635068537
0.0005397804237
0.001052809688
0.0008077714057
0.001181624367
0.002583653895
0.00179655671
0.003451155383
0.000254248671
0.000300742435
0.000436664059
0.0008073773823
0.0004004650765
0.0005012935062
0.005671629977
0.01738070158
0.00770482351
0.00116290481
0.003365758149
0.001472775597
0.0005566393014
0.0007810046499
0.0005607275173
0.0004115176372
0.000468443604
0.0004170996227
0.00030813957
0.0003590325284
0.0003257253895
0.0005912120208
0.0004137452202
0.0006745451006
0.001370851389
0.001058131211
0.001766588453
0.004908204081
0.003515936802
0.008208252202
0.0001264375038
0.0003758510724
0.0001032288906
0.0002084083328
0.0001376223297
0.000175104899
0.0003410919053
0.002009480041
0.005907397056
0.002629298155
0.000568469727
0.0009496717916
0.0005672651599
0.0004340340579
0.0005020529858
0.0004808377863
0.0003583765548
0.0004401877383
0.0004345562343
0.0008388629547
0.0005919542374
0.001312317195
0.002769099706
0.002360861377
0.005822963933
8.558155682e-05
3.541994515e-05
0.0001173170637
4.854347911e-05
6.686218176e-05
0.0002197931844
9.508833791e-05
0.0005888106813
0.0006670621463
0.0007318577127
0.0006375712286
0.001105261121
0.001348429263
0.0006792536343
0.001514519926
0.001738624023
0.003307123857
0.00281762397
0.01634741794
1.378912127e-05
7.013367254
34.76991286
19.11962385
5.108905605
0.008750722195
5.390753486
0.005000561127
5.711762637
0.004162121391
0.7426436517
5.094762462
0.5340707209
0.6000166608
3.241740154
3.560142111
1.185318265
0.7709268674
0.02407400968
0.8715392566
0.001436984906
1.963817462
0.4457197415
0.001087244545
3.279946837
0.4649650954
0.0009916703738
3.669020287
0.6543658679
0.001894817119
3.856955132
0.5166352885
0.006150734694
7.347637901
0.1504869016
8.970714709
0.2068251948
0.2871610454
0.03474216434
0.0003404167478
0.0004346466527
0.008349493115
0.00115770255
0.0006923648155
0.0004838100832
0.0003500035324
0.0003509571655
0.0007358312346
0.00152557011
0.01136029513
0.07510942716
0.02732670152
0.0002537343442
0.0002189658577
0.0003614258364
0.0003239380907
0.0005301135771
0.01490645908
0.00235402957
0.0007271329309
0.000469486178
0.0003497427813
0.000382862153
0.0009049475138
0.002333742781
0.0322752588
0.02118858681
0.004635703363
0.0008765132359
0.0004751352526
0.0003815466289
0.0004677186708
0.001396706737
0.006735990085
0.0398426351
0.008872135366
0.007257695214
0.0004648863482
0.0009685188368
0.0008925693789
0.008790641725
0.007048783275
0.0009132980425
0.0006057693027
0.0006366538779
0.001002624625
0.005669450348
0.03996779807
0.001195560938
0.0003815655959
0.0005754299739
0.00242961987
3.823428717e-05
6.982150519e-05
3.04308874e-05
6.31459062e-05
0.000131046004
0.0002015295971
0.01011687836
0.000115892418
6.548942549e-05
0.000125030668
0.0003098516913
0.01762678303
0.0001999496091
0.0001103776544
0.0001952440968
0.0004062940135
0.03062583197
0.0003515841337
0.0001618413685
0.0002704850742
0.0005313880812
0.8324644827
0.057646943
9.990394263
0.6726377935
0.3561979058
0.0007232156454
4.800627105
0.004471716068
0.5661680918
0.5152288432
0.0004751763268
0.0005649529842
5.699476155
0.004926463997
0.4764005188
0.7255151674
0.0006755578
0.0007720014474
1.72484379
0.0008154570072
0.5429259372
23.91299954
1.876390182
0.002752275033
0.01254397338
0.000589698263
1.112080025
0.0007086707225
0.0005091269678
0.008286030237
0.0004794359843
0.0005569226512
0.001010112556
0.00150049504
0.001938388685
0.002911526421
0.0001670753406
0.0002644759126
0.006951148337
0.0004369969313
0.0004580597676
0.0008346751396
0.000918715336
0.0005043418418
0.001158115665
0.0017658013
0.001723239452
0.004662537091
0.000226801832
0.0002996545355
0.0004089266273
6.572229997e-05
0.002304065984
0.0003727926202
0.0002950772549
0.0004400316214
0.0006322339879
0.0007571796466
0.002336853415
0.01177335796
0.01451336237
0.000404038443
0.0007017591088
0.001892623871
0.002141196954
0.0001407953605
0.0002229974003
1.152874885e-05
2.344285944e-05
1.783794658e-05
2.498373219e-05
6.294863436e-05
3.827301224e-05
6.509079036e-05
0.0001847881493
0.000786211478
0.0002068283781
0.0002948641399
0.0003225244331
0.0002649936149
0.000413765317
0.0003307598058
0.0004179428613
0.0005457231159
0.009051882499
0.0008053105906
0.0002497519879
0.000515547738
0.001440471091
2.347672196e-05
9.112727644e-05
3.548518988e-05
4.215289327e-05
4.633258118e-05
6.333143429e-05
0.0001039805203
9.237085058e-05
0.000145957309
0.0002629464287
5.004384116e-05
0.0001510238361
6.654076474e-05
8.810680698e-05
8.695148833e-05
0.0001151763191
0.0001891989118
0.0001594635204
0.0002325181333
0.0003571735112
8.478282428e-05
0.0002625600657
0.0001047517482
0.0001441029939
0.0001356582285
0.0001748464216
0.0002759910308
0.0002326474142
0.0003217403429
0.0004766500535
0.0001254942668
0.0004108566165
0.0001448461532
0.0002063741573
0.0001864366986
0.0002356908101
0.0003668100621
0.000305187042
0.0004080424717
0.0004918844785
0.0005891346355
)
;

boundaryField
{
    walls
    {
        type            zeroGradient;
    }
    wallFilmFace_top
    {
        type            zeroGradient;
    }
    region0_to_wallFilmRegion_wallFilmFace
    {
        type            zeroGradient;
    }
    mirrorFace_top
    {
        type            zeroGradient;
    }
    region0_to_wallFilmRegion_mirrorFace
    {
        type            zeroGradient;
    }
    procBoundary2to0
    {
        type            processor;
        value           nonuniform List<scalar> 
26
(
1.537677934
1.533820534
1.743096129
1.927151367
0.8112711504
0.1752408099
0.0555717266
0.02603902294
0.01666416101
0.01518140702
0.01633648154
0.01889478472
0.0210457162
0.02151625468
0.02399909147
0.02990928989
0.03697868947
0.04429258851
0.05275280548
0.06007031466
0.06156442874
0.05578462842
0.04677492404
0.05206608718
0.142192897
3.994939845
)
;
    }
    procBoundary2to1
    {
        type            processor;
        value           nonuniform List<scalar> 
33
(
1.58332721
1.58332721
1.589999314
1.589999314
1.859541192
1.274383669
1.070365791
1.070365791
1.057209513
1.052958583
1.2118801
1.26821
1.558925118
1.115463096
1.199788557
1.374517789
0.9166143519
0.6571833145
0.1419726852
0.02363142632
0.03161626843
0.01043226093
0.08253325819
0.08683811051
0.02606955646
0.02395813371
0.03944667866
0.0383141041
0.03692594404
0.03195767535
0.07802952925
0.1622776992
4.469408738
)
;
    }
    procBoundary2to3
    {
        type            processor;
        value           nonuniform List<scalar> 
64
(
0.004975282119
0.001108988876
0.001739956913
0.002963282176
0.01031540631
0.0006319740863
0.000513614607
0.0002970797871
0.001676703287
1.241799098
0.8031161125
0.06569355324
0.2011984914
0.8031161125
0.4219739489
0.0265129858
0.02324077144
0.02874726035
0.04711712307
0.0988994609
0.1176749177
0.1373249423
0.1109815276
0.06332030579
0.06332030579
0.03090143749
0.09931880366
0.09931880366
0.05105110637
0.09931880366
0.0005662055895
0.0006404702939
0.0005662055895
0.0006483948917
0.0006440510194
5.354605335
0.003309434825
1.241799098
0.1654425645
0.0005662055895
0.02918577486
0.0003622872779
0.0006302582583
0.0005417663718
0.0006338926159
0.001150729123
1.255786952
0.0008219933019
1.036975642
0.001239005224
0.001108988876
0.002211158062
0.006456433321
0.01610229349
0.0005993004278
0.03600018374
0.04107086659
0.0004085494458
0.02995054182
0.002307533202
0.0007145162363
0.0005440823611
0.001104053064
0.001432855374
)
;
    }
}


// ************************************************************************* //
