/*--------------------------------*- C++ -*----------------------------------*\
  =========                 |
  \\      /  F ield         | OpenFOAM: The Open Source CFD Toolbox
   \\    /   O peration     | Website:  https://openfoam.org
    \\  /    A nd           | Version:  8
     \\/     M anipulation  |
\*---------------------------------------------------------------------------*/
FoamFile
{
    version     2.0;
    format      ascii;
    class       volScalarField;
    location    "1.9/wallFilmRegion";
    object      kappa;
}
// * * * * * * * * * * * * * * * * * * * * * * * * * * * * * * * * * * * * * //

dimensions      [1 1 -3 -1 0 0 0];

internalField   nonuniform List<scalar> 
1342
(
0.6088099928
0.6088099928
0.6088099941
0.608809995
0.6088099962
0.6088099989
0.6088100003
0.6088100003
0.6088099995
0.6088099988
0.6088099984
0.6088099985
0.6088099988
0.6088099998
0.6088100008
0.6088100012
0.6088100013
0.6088100013
0.6088100014
0.6088100015
0.6088100017
0.608810002
0.6088100023
0.6088100023
0.6088100017
0.6088100022
0.6088099939
0.6088099936
0.608809993
0.6088099938
0.6088099941
0.6088099967
0.6088099993
0.6088100013
0.6088099995
0.6088099979
0.6088099971
0.6088099967
0.6088099968
0.6088099974
0.6088099991
0.6088100004
0.6088100009
0.6088100011
0.6088100012
0.6088100014
0.6088100015
0.6088100014
0.6088100013
0.6088100012
0.6088100013
0.6088100014
0.6088100015
0.6088099957
0.6088099952
0.6088099951
0.6088099944
0.6088099942
0.6088099948
0.6088099973
0.6088099996
0.6088100023
0.6088099988
0.6088099972
0.6088099964
0.6088099961
0.6088099963
0.608809997
0.6088099994
0.6088100005
0.608810001
0.6088100013
0.6088100015
0.6088100016
0.6088100015
0.6088100013
0.6088100012
0.6088100011
0.6088100013
0.6088100016
0.6088100016
0.6088099972
0.6088099962
0.6088099962
0.6088099961
0.6088099962
0.6088099971
0.6088099984
0.60881
0.6088100021
0.6088099985
0.6088099969
0.6088099962
0.608809996
0.6088099964
0.6088099975
0.60881
0.6088100009
0.6088100014
0.6088100017
0.6088100022
0.6088100027
0.6088100031
0.6088100031
0.6088100029
0.6088100007
0.6088100009
0.6088100018
0.6088100018
0.608809999
0.6088099983
0.6088099976
0.6088099975
0.6088099974
0.6088099986
0.6088099991
0.6088100008
0.608810001
0.6088099988
0.6088099971
0.6088099964
0.6088099965
0.6088099994
0.6088100009
0.6088100009
0.6088100015
0.6088100019
0.6088100026
0.6088100034
0.6088100035
0.608810003
0.6088100025
0.6088100022
0.6088100004
0.6088100005
0.6088100009
0.6088100019
0.6088099989
0.6088099983
0.6088099999
0.6088099991
0.6088099987
0.6088100009
0.6088100005
0.6088100013
0.6088100008
0.6088100008
0.6088099989
0.6088099975
0.608809997
0.6088099974
0.6088100015
0.6088100023
0.6088100016
0.6088100028
0.6088100043
0.6088100046
0.6088100044
0.6088100035
0.6088100027
0.6088100022
0.608810002
0.6088100002
0.6088100002
0.6088100005
0.6088100021
0.6088099978
0.6088099965
0.6088100016
0.6088099986
0.6088099951
0.6088099966
0.6088099993
0.6088100002
0.6088100005
0.6088100005
0.6088100003
0.6088099995
0.6088099987
0.608809999
0.6088100025
0.6088100033
0.6088100027
0.6088100049
0.6088100056
0.6088100045
0.6088100038
0.6088100032
0.6088100016
0.6088100005
0.6088100003
0.60881
0.60881
0.6088100001
0.608810002
0.6088099977
0.6088099971
0.6088099976
0.6088100022
0.6088099953
0.6088103181
0.6088100032
0.608810001
0.6088100006
0.6088100005
0.6088100007
0.608810001
0.6088100009
0.6088100012
0.6088100035
0.6088100052
0.6088100131
0.6088100093
0.6088100067
0.6088100046
0.6088100037
0.6088100033
0.6088100029
0.6088100018
0.6088100011
0.6088100001
0.6088100001
0.6088100004
0.6088100021
0.608809996
0.6088099958
0.6088099962
0.6088099966
0.6088099973
0.6088100893
0.6088100031
0.6088100005
0.6088100003
0.6088100009
0.6088100013
0.608810001
0.6088100022
0.6088100034
0.6088100047
0.6088100098
0.608810017
0.6088100106
0.6088100078
0.6088100059
0.608810004
0.6088100031
0.6088100029
0.6088100026
0.6088100024
0.6088100004
0.6088100004
0.6088100008
0.6088100021
0.6088099942
0.6088099953
0.6088099971
0.6088099978
0.6088100052
0.6088103179
0.6088100012
0.6088099996
0.6088100001
0.6088100011
0.6088100017
0.6088100026
0.6088100026
0.6088100031
0.6088100051
0.6088100203
0.608810014
0.6088100084
0.6088100068
0.608810006
0.6088100045
0.608810003
0.6088100025
0.6088100024
0.6088100024
0.608810001
0.608810001
0.6088100016
0.6088100021
0.6088099931
0.6088099962
0.6088099979
0.6088099992
0.6088100214
0.608810027
0.6088099998
0.6088099991
0.6088100004
0.6088100026
0.6088100009
0.6088100026
0.6088100047
0.6088100023
0.6088100068
0.6088100478
0.60881001
0.6088100053
0.6088100045
0.6088100047
0.6088100048
0.6088100037
0.6088100025
0.6088100022
0.6088100023
0.608810002
0.6088100021
0.6088100027
0.6088100022
0.6088099943
0.6088099957
0.6088099968
0.6088099988
0.6088099993
0.6088099999
0.6088100001
0.6088100008
0.6088100057
0.6088100088
0.6088100004
0.6088100013
0.6088100038
0.6088100025
0.6088100026
0.6088100021
0.6088100019
0.608810002
0.6088100023
0.6088100031
0.6088100043
0.6088100048
0.608810003
0.608810002
0.608810002
0.6088100022
0.6088100027
0.6088100033
0.6088100022
0.6088099945
0.6088099954
0.6088099955
0.6088099976
0.6088099984
0.608809999
0.6088100003
0.6088100025
0.6088100088
0.6088100073
0.6088100002
0.6088100007
0.6088100021
0.6088100025
0.6088100018
0.6088100016
0.6088100017
0.608810002
0.6088100026
0.6088100036
0.6088100052
0.6088100062
0.6088100032
0.6088100018
0.6088100016
0.6088100018
0.6088100026
0.6088100033
0.6088100023
0.6088099932
0.6088099948
0.6088099956
0.6088099962
0.6088099978
0.6088099989
0.6088100004
0.6088100032
0.6088100092
0.6088100033
0.6088100002
0.6088100004
0.6088100012
0.608810002
0.6088100019
0.6088100019
0.6088100021
0.6088100026
0.6088100034
0.6088100049
0.6088100072
0.6088100089
0.608810003
0.6088100016
0.6088100014
0.6088100015
0.6088100019
0.6088100024
0.6088100025
0.6088099934
0.6088099946
0.6088099962
0.6088099963
0.6088099977
0.6088099993
0.6088100004
0.6088100003
0.6088100002
0.6088100001
0.60881
0.6088100001
0.6088100001
0.6088100003
0.6088100006
0.6088100012
0.6088100018
0.6088100023
0.6088100025
0.6088100027
0.6088100028
0.6088100028
0.6088100022
0.6088100016
0.6088100013
0.6088100014
0.6088100018
0.6088100022
0.6088100027
0.608809994
0.608809995
0.6088099967
0.6088099967
0.6088099978
0.6088099992
0.6088100003
0.6088100009
0.6088100007
0.6088100008
0.6088100001
0.6088100002
0.6088099905
0.6088099901
0.6088099932
0.608809998
0.6088100009
0.6088100015
0.6088100014
0.6088100014
0.6088100015
0.6088100017
0.6088100017
0.6088100016
0.6088100016
0.6088100015
0.6088100016
0.6088100022
0.6088100029
0.6088099944
0.6088099966
0.6088099974
0.6088099971
0.6088099979
0.6088099998
0.608810003
0.6088100358
0.6088100025
0.6088100017
0.6088100001
0.6088100004
0.6088099917
0.6088099921
0.6088099964
0.6088100002
0.6088100011
0.608810001
0.6088100009
0.6088100009
0.608810001
0.6088100015
0.6088100014
0.6088100009
0.6088100006
0.6088100004
0.608810001
0.6088100022
0.6088100029
0.6088099979
0.6088099995
0.6088099983
0.6088099977
0.6088099987
0.6088100008
0.6088100019
0.6088100023
0.6088100025
0.6088100012
0.6088100002
0.6088100005
0.6088099968
0.6088099981
0.6088100001
0.6088100009
0.6088100008
0.6088100007
0.6088100007
0.6088100008
0.6088100009
0.6088100014
0.6088100007
0.6088100005
0.608810001
0.6088100015
0.6088100018
0.6088100025
0.608810003
0.6088100015
0.6088100001
0.6088100003
0.6088099987
0.6088099997
0.6088100008
0.6088100012
0.6088100013
0.6088100017
0.6088100008
0.6088100003
0.6088100006
0.6088099998
0.6088100003
0.6088100007
0.6088100008
0.6088100007
0.6088100005
0.6088100003
0.6088100004
0.6088100004
0.6088100006
0.608810001
0.6088100015
0.6088100019
0.6088100022
0.6088100025
0.6088100029
0.608810003
0.6088099993
0.6088100007
0.6088100033
0.6088099999
0.6088100004
0.6088100009
0.608810001
0.608810001
0.6088100013
0.6088100007
0.6088100005
0.6088100005
0.6088100005
0.6088100007
0.6088100008
0.6088100008
0.6088100007
0.6088100004
0.6088100007
0.6088100006
0.608810001
0.6088100014
0.6088100016
0.6088100019
0.6088100022
0.6088100025
0.6088100027
0.6088100029
0.6088100029
0.6088099995
0.6088100017
0.6088100062
0.6088100018
0.6088100012
0.6088100011
0.608810001
0.608810001
0.6088100011
0.6088100006
0.6088100005
0.6088100006
0.6088100007
0.6088100008
0.6088100009
0.6088100008
0.6088100007
0.6088100005
0.6088100014
0.6088100019
0.608810002
0.6088100021
0.6088100021
0.6088100022
0.6088100023
0.6088100025
0.6088100026
0.6088100028
0.6088100028
0.6088100047
0.6088100057
0.6088100086
0.6088100039
0.6088100016
0.6088100011
0.6088100011
0.6088100011
0.6088100012
0.6088100006
0.6088100005
0.6088100006
0.6088100008
0.608810001
0.608810001
0.6088100008
0.6088100008
0.6088100005
0.6088100015
0.6088100019
0.608810002
0.608810002
0.608810002
0.6088100021
0.6088100023
0.6088100024
0.6088100026
0.6088100027
0.6088100028
0.6088100025
0.6088100125
0.6088100089
0.6088099995
0.6088099992
0.6088099994
0.6088100001
0.6088100012
0.6088100013
0.6088100007
0.6088100006
0.6088100006
0.6088100008
0.608810001
0.608810001
0.6088100005
0.6088100004
0.6088100002
0.6088100008
0.6088100016
0.6088100018
0.6088100019
0.608810002
0.6088100021
0.6088100022
0.6088100024
0.6088100025
0.6088100026
0.6088100027
0.6088100003
0.6088100087
0.608810008
0.6088099995
0.6088099991
0.6088099991
0.6088099997
0.6088100012
0.6088100017
0.6088100008
0.6088100007
0.6088100006
0.6088100007
0.6088100009
0.6088100007
0.60881
0.6088100003
0.6088100002
0.6088100017
0.6088100019
0.6088100019
0.6088100019
0.608810002
0.6088100021
0.6088100022
0.6088100023
0.6088100024
0.6088100026
0.6088100026
0.6088100022
0.6088100059
0.6088100052
0.6088099998
0.608809999
0.6088099991
0.6088099996
0.608810001
0.6088100013
0.6088100007
0.6088100007
0.6088100004
0.6088100003
0.6088100003
0.6088100005
0.60881
0.6088100009
0.6088100013
0.6088100019
0.6088100019
0.6088100018
0.6088100019
0.6088100019
0.608810002
0.6088100021
0.6088100022
0.6088100023
0.6088100025
0.6088100025
0.6088100012
0.6088100037
0.608810003
0.6088100004
0.6088099991
0.6088099992
0.6088099997
0.6088100004
0.6088100009
0.6088100007
0.6088100006
0.6088100002
0.6088100002
0.6088100004
0.6088100006
0.6088100006
0.6088100015
0.6088100016
0.6088100019
0.6088100018
0.6088100018
0.6088100018
0.6088100018
0.6088100019
0.608810002
0.6088100021
0.6088100021
0.6088100023
0.6088100024
0.608810002
0.6088100027
0.6088100019
0.608810001
0.6088099992
0.6088099994
0.6088099997
0.6088100002
0.6088100005
0.6088100006
0.6088100007
0.6088100002
0.6088100002
0.6088100005
0.6088100009
0.6088100013
0.6088100017
0.6088100017
0.6088100019
0.6088100018
0.6088100018
0.6088100017
0.6088100017
0.6088100017
0.6088100017
0.6088100017
0.6088100017
0.6088100017
0.6088100017
0.6088100018
0.6088100016
0.6088100012
0.6088100015
0.6088099996
0.6088099996
0.6088099999
0.6088100002
0.6088100003
0.6088100008
0.6088100012
0.6088100009
0.6088100007
0.6088100015
0.6088100015
0.6088100017
0.6088100019
0.6088100018
0.608810002
0.608810002
0.6088100018
0.6088100017
0.6088100016
0.6088100016
0.6088100016
0.6088100016
0.6088100016
0.6088100016
0.6088100016
0.6088100016
0.6088100011
0.6088100009
0.6088100022
0.6088100003
0.6088100001
0.6088100003
0.6088100003
0.6088100003
0.6088100009
0.6088100013
0.6088100014
0.6088100013
0.6088100018
0.6088100017
0.6088100019
0.608810002
0.6088100019
0.6088100021
0.6088100021
0.608810002
0.6088100018
0.6088100017
0.6088100016
0.6088100016
0.6088100015
0.6088100016
0.6088100016
0.6088100016
0.6088100008
0.6088100008
0.6088100008
0.6088100009
0.6088100008
0.6088100007
0.6088100007
0.6088100006
0.6088100005
0.6088100004
0.6088100003
0.6088100008
0.6088100013
0.6088100014
0.6088100016
0.6088100017
0.6088100016
0.6088100017
0.6088100016
0.6088100014
0.6088100014
0.6088100014
0.6088100014
0.6088100014
0.6088100014
0.6088100014
0.6088100015
0.6088100015
0.6088100016
0.6088099904
0.6088099944
0.6088099952
0.6088099905
0.608809995
0.6088099882
0.6088099917
0.6088099955
0.6088099245
0.6088099351
0.6088099593
0.6088099768
0.6088098799
0.6088099214
0.6088099554
0.6088099774
0.6088097177
0.6088098457
0.6088099338
0.608809976
0.6088099669
0.6088099748
0.6088099838
0.6088099899
0.608809996
0.6088099992
0.608809999
0.6088099901
0.6088099983
0.6088099972
0.6088099805
0.6088099966
0.6088099962
0.6088099957
0.6088099956
0.6088099948
0.6088099949
0.6088099942
0.6088099937
0.6088099949
0.6088099933
0.6088099941
0.6088099958
0.6088099948
0.6088099956
0.608809996
0.6088099962
0.6088099967
0.6088099957
0.6088099971
0.6088099974
0.6088099912
0.6088099982
0.6088099982
0.6088099988
0.6088099988
0.6088099987
0.6088099984
0.6088099983
0.6088099983
0.6088099984
0.6088099978
0.6088099966
0.6088099983
0.6088099972
0.6088099971
0.6088099956
0.6088099961
0.6088099981
0.6088099977
0.6088099979
0.6088099939
0.6088099957
0.6088099913
0.6088099937
0.6088099974
0.608809997
0.6088099971
0.6088099914
0.6088099949
0.6088099959
0.6088099965
0.6088099937
0.6088099936
0.6088099914
0.6088099885
0.6088099863
0.6088099835
0.6088099871
0.6088099834
0.6088099859
0.608809984
0.6088099851
0.6088099858
0.6088099824
0.6088099872
0.6088099855
0.6088099949
0.6088099963
0.6088099952
0.6088099921
0.6088099939
0.6088099937
0.6088099954
0.6088099967
0.6088099961
0.608809994
0.6088099949
0.6088099945
0.6088099967
0.6088099973
0.6088099972
0.6088099951
0.6088099965
0.6088099958
0.6088099975
0.6088099977
0.6088099977
0.6088099961
0.6088099971
0.6088099955
0.6088099977
0.6088099978
0.6088099971
0.6088099963
0.6088099942
0.6088099954
0.6088099857
0.608809978
0.608809947
0.6088099973
0.608809941
0.6088099592
0.6088099481
0.6088099562
0.6088099709
0.6088099635
0.6088099699
0.6088099756
0.6088099974
0.6088099982
0.6088099976
0.6088099961
0.6088099968
0.6088099962
0.6088099947
0.6088099954
0.6088099947
0.6088099933
0.6088099939
0.608809993
0.6088099939
0.6088099919
0.6088099938
0.6088099957
0.6088099948
0.6088099958
0.608809997
0.6088099966
0.6088099972
0.6088099979
0.6088099977
0.6088099981
0.6088099356
0.6088099539
0.6088099695
0.608809945
0.6088099693
0.6088099762
0.6088099977
0.6088099977
0.6088099975
0.6088099963
0.6088099972
0.6088099964
0.6088099946
0.6088099954
0.6088099946
0.6088099927
0.6088099939
0.6088099927
0.6088099936
0.6088099907
0.6088099933
0.6088099959
0.6088099946
0.6088099961
0.6088099973
0.6088099969
0.6088099974
0.6088099982
0.6088099979
0.6088099981
0.6088099202
0.6088099145
0.6088099146
0.6088099482
0.6088099316
0.6088099463
0.6088099688
0.6088099965
0.6088099966
0.6088099963
0.6088099946
0.6088099951
0.6088099946
0.6088099929
0.6088099944
0.6088099933
0.6088099932
0.6088099911
0.608809993
0.6088099962
0.6088099946
0.6088099964
0.6088099975
0.608809997
0.6088099975
0.6088098368
0.6088098716
0.6088099402
0.6088099036
0.6088099296
0.6088099677
0.6088099499
0.608809994
0.6088099915
0.6088099925
0.6088099937
0.6088099947
0.6088099945
0.6088099935
0.6088099948
0.6088099948
0.6088099966
0.6088099956
0.6088099968
0.6088098027
0.6088099981
0.608809997
0.6088099965
0.6088099938
0.60880999
0.6088099932
0.6088099866
0.6088099932
0.6088099855
0.6088099939
0.6088099954
0.6088099896
0.6088099858
0.6088099866
0.6088099905
0.6088099806
0.6088099805
0.6088099854
0.6088099939
0.6088099952
0.6088099965
0.6088099943
0.6088099947
0.608809997
0.6088099958
0.6088099954
0.6088099975
0.6088099969
0.608809996
0.6088099978
0.6088099971
0.6088099938
0.6088099971
0.608809995
0.6088099916
0.608809973
0.6088099991
0.6088099964
0.6088099527
0.6088099654
0.6088099983
0.6088099966
0.6088099954
0.6088099941
0.6088099926
0.6088099948
0.6088099964
0.6088099974
0.6088099983
0.6088099979
0.6088099968
0.6088099445
0.6088099415
0.6088099622
0.6088099613
0.6088099758
0.6088099981
0.608809997
0.6088099954
0.6088099938
0.6088099912
0.6088099947
0.6088099967
0.6088099978
0.6088099982
0.6088099969
0.6088099971
0.6088099954
0.6088099941
0.6088099906
0.6088099946
0.608809997
0.6088099979
0.6088099982
0.6088099944
0.6088099937
0.6088099849
0.6088099899
0.6088099896
0.6088099979
0.6088099952
0.6088099943
0.6088099946
0.6088099931
0.6088099948
0.6088099971
0.6088099975
0.6088099776
0.6088099813
0.608809987
0.6088099827
0.6088097458
0.6088098158
0.6088098933
0.6088099525
0.6088099786
0.6088099817
0.6088099938
0.608809884
0.6088099405
0.6088099709
0.6088099859
0.6088099955
0.6088099256
0.6088099624
0.6088099794
0.6088099883
0.6088099962
0.6088099492
0.6088099705
0.6088099824
0.6088099895
0.6088099939
0.6088099959
0.6088099963
0.6088099948
0.6088099976
0.6088099593
0.6088099934
0.6088099863
0.6088099935
0.6088099928
0.60880996
0.6088099648
0.6088099931
0.6088099863
0.6088099918
0.60880999
0.6088099694
0.6088099735
0.6088099931
0.6088099772
0.608809971
0.6088099895
0.6088099745
0.6088099933
0.6088099954
0.6088099901
0.608809981
0.6088099917
0.6088099887
0.6088099953
0.6088099874
0.6088099893
0.6088099912
0.6088099925
0.6088099935
0.6088099949
0.60880993
0.608809952
0.6088099944
0.608809985
0.6088099862
0.6088099893
0.6088099902
0.6088099871
0.608809991
0.6088099932
0.6088099933
0.6088099966
0.6088099586
0.6088099688
0.6088099773
0.608809899
0.6088099859
0.6088099812
0.6088099778
0.6088099838
0.6088099866
0.6088099889
0.6088099955
0.6088099983
0.6088099986
0.6088099826
0.6088099875
0.608809994
0.6088099948
0.6088099655
0.6088099771
0.6088097799
0.6088098968
0.6088098616
0.6088099069
0.6088099594
0.60880994
0.6088099633
0.6088099682
0.6088099708
0.6088099702
0.6088099799
0.6088099787
0.608809976
0.6088099827
0.6088099806
0.6088099843
0.6088099873
0.6088099982
0.6088099902
0.6088099742
0.6088099847
0.6088099939
0.6088098481
0.6088098535
0.6088098878
0.6088099278
0.6088099211
0.6088099459
0.6088099698
0.6088099634
0.6088099756
0.6088099842
0.6088099156
0.6088099069
0.6088099344
0.6088099584
0.6088099535
0.6088099668
0.6088099798
0.608809976
0.6088099826
0.6088099873
0.6088099478
0.6088099395
0.6088099561
0.6088099724
0.6088099677
0.6088099757
0.6088099845
0.6088099814
0.6088099857
0.6088099893
0.6088099606
0.6088099559
0.6088099634
0.6088099774
0.608809972
0.6088099783
0.6088099862
0.6088099829
0.6088099865
0.608809987
0.6088099897
)
;

boundaryField
{
    walls
    {
        type            zeroGradient;
    }
    wallFilmFace_top
    {
        type            zeroGradient;
    }
    region0_to_wallFilmRegion_wallFilmFace
    {
        type            zeroGradient;
    }
    mirrorFace_top
    {
        type            zeroGradient;
    }
    region0_to_wallFilmRegion_mirrorFace
    {
        type            zeroGradient;
    }
    procBoundary2to0
    {
        type            processor;
        value           nonuniform List<scalar> 
26
(
0.6088099927
0.6088099932
0.6088099942
0.608809997
0.6088099976
0.6088099992
0.6088099998
0.6088100007
0.6088100019
0.6088100027
0.6088100029
0.6088100028
0.6088100028
0.6088100028
0.6088100026
0.6088100022
0.6088100019
0.6088100016
0.6088100016
0.6088100016
0.6088100017
0.6088100019
0.6088100022
0.6088100023
0.6088100021
0.6088100025
)
;
    }
    procBoundary2to1
    {
        type            processor;
        value           nonuniform List<scalar> 
33
(
0.6088099916
0.6088099916
0.6088099942
0.6088099942
0.6088099967
0.6088099983
0.6088099992
0.6088099992
0.6088099987
0.6088099985
0.6088099978
0.6088099964
0.6088099939
0.6088099928
0.6088099934
0.6088099933
0.6088099951
0.6088099955
0.6088099966
0.6088099994
0.6088099993
0.6088100024
0.6088099995
0.6088099995
0.6088100006
0.6088100016
0.6088100008
0.6088100007
0.6088100008
0.6088100011
0.6088100014
0.6088100016
0.6088100007
)
;
    }
    procBoundary2to3
    {
        type            processor;
        value           nonuniform List<scalar> 
64
(
0.6088099954
0.6088099922
0.6088099934
0.6088099949
0.6088099977
0.6088099836
0.6088099847
0.6088099856
0.6088099943
0.6088099912
0.6088099838
0.6088099919
0.6088099854
0.6088099838
0.6088099855
0.6088099937
0.6088099938
0.608809994
0.6088099944
0.6088099947
0.608809995
0.6088099952
0.6088099952
0.6088099953
0.6088099953
0.6088099922
0.6088099895
0.6088099895
0.6088099747
0.6088099895
0.6088099758
0.6088099808
0.6088099758
0.6088099816
0.6088099824
0.6088099935
0.6088099853
0.6088099912
0.6088099774
0.6088099758
0.608809999
0.6088099877
0.6088099912
0.6088099902
0.6088099915
0.608809994
0.6088099936
0.6088099809
0.6088099846
0.6088099932
0.6088099922
0.6088099942
0.6088099968
0.6088099984
0.6088099842
0.6088099991
0.6088099993
0.6088099851
0.6088099991
0.6088099947
0.6088099921
0.6088099904
0.6088099942
0.6088099944
)
;
    }
}


// ************************************************************************* //
