/*--------------------------------*- C++ -*----------------------------------*\
  =========                 |
  \\      /  F ield         | OpenFOAM: The Open Source CFD Toolbox
   \\    /   O peration     | Website:  https://openfoam.org
    \\  /    A nd           | Version:  8
     \\/     M anipulation  |
\*---------------------------------------------------------------------------*/
FoamFile
{
    version     2.0;
    format      ascii;
    class       volScalarField;
    location    "1.9/wallFilmRegion";
    object      mu;
}
// * * * * * * * * * * * * * * * * * * * * * * * * * * * * * * * * * * * * * //

dimensions      [1 -1 -1 0 0 0 0];

internalField   nonuniform List<scalar> 
1342
(
0.000886147511
0.0008861475107
0.0008861474932
0.0008861474801
0.0008861474633
0.0008861474252
0.0008861474067
0.0008861474064
0.0008861474171
0.0008861474276
0.0008861474321
0.0008861474318
0.0008861474268
0.0008861474131
0.000886147399
0.0008861473932
0.0008861473924
0.0008861473923
0.0008861473913
0.0008861473893
0.0008861473863
0.0008861473824
0.0008861473784
0.0008861473787
0.0008861473862
0.0008861473799
0.0008861474956
0.000886147499
0.0008861475074
0.0008861474967
0.000886147492
0.0008861474568
0.0008861474198
0.0008861473918
0.0008861474178
0.000886147439
0.000886147451
0.0008861474558
0.0008861474546
0.0008861474467
0.0008861474229
0.0008861474051
0.0008861473981
0.0008861473955
0.0008861473935
0.0008861473914
0.00088614739
0.0008861473902
0.0008861473918
0.0008861473931
0.0008861473929
0.0008861473915
0.000886147389
0.0008861474704
0.0008861474769
0.0008861474782
0.000886147489
0.0008861474912
0.0008861474831
0.0008861474481
0.0008861474153
0.0008861473785
0.0008861474271
0.0008861474497
0.0008861474608
0.0008861474645
0.0008861474622
0.0008861474517
0.0008861474186
0.000886147403
0.0008861473962
0.0008861473925
0.0008861473891
0.0008861473875
0.0008861473896
0.0008861473921
0.0008861473933
0.000886147395
0.0008861473928
0.0008861473878
0.0008861473874
0.0008861474497
0.0008861474628
0.0008861474637
0.0008861474641
0.0008861474639
0.0008861474512
0.0008861474329
0.0008861474108
0.0008861473805
0.0008861474311
0.0008861474533
0.0008861474632
0.0008861474655
0.0008861474608
0.0008861474448
0.00088614741
0.0008861473975
0.0008861473915
0.000886147386
0.0008861473795
0.0008861473733
0.0008861473666
0.000886147367
0.0008861473694
0.0008861474001
0.0008861473973
0.0008861473859
0.000886147385
0.0008861474238
0.0008861474343
0.0008861474438
0.0008861474456
0.0008861474461
0.0008861474302
0.0008861474235
0.0008861473987
0.0008861473962
0.0008861474275
0.0008861474513
0.0008861474602
0.0008861474595
0.0008861474193
0.0008861473981
0.0008861473983
0.0008861473893
0.0008861473832
0.0008861473736
0.0008861473627
0.0008861473612
0.0008861473685
0.0008861473756
0.0008861473794
0.0008861474049
0.000886147404
0.0008861473976
0.0008861473832
0.0008861474254
0.000886147434
0.0008861474123
0.0008861474227
0.0008861474285
0.0008861473978
0.0008861474041
0.0008861473916
0.0008861473989
0.0008861473996
0.0008861474263
0.0008861474456
0.0008861474521
0.0008861474463
0.0008861473893
0.0008861473788
0.0008861473882
0.0008861473716
0.0008861473501
0.0008861473462
0.0008861473484
0.0008861473613
0.0008861473728
0.0008861473795
0.0008861473826
0.0008861474069
0.000886147407
0.0008861474029
0.0008861473809
0.0008861474409
0.0008861474595
0.000886147388
0.0008861474293
0.0008861474786
0.0008861474575
0.0008861474201
0.000886147407
0.0008861474029
0.0008861474033
0.0008861474058
0.0008861474171
0.0008861474282
0.0008861474236
0.0008861473751
0.000886147364
0.0008861473725
0.0008861473416
0.0008861473315
0.0008861473481
0.0008861473568
0.0008861473661
0.0008861473875
0.0008861474039
0.0008861474066
0.0008861474103
0.0008861474099
0.0008861474085
0.0008861473818
0.000886147443
0.0008861474514
0.0008861474442
0.0008861473793
0.000886147476
0.0008861429696
0.0008861473658
0.0008861473963
0.0008861474017
0.0008861474028
0.0008861474006
0.0008861473961
0.0008861473972
0.0008861473929
0.0008861473611
0.0008861473376
0.0008861472274
0.0008861472811
0.0008861473172
0.0008861473459
0.0008861473586
0.0008861473642
0.0008861473704
0.0008861473848
0.0008861473948
0.000886147409
0.0008861474083
0.0008861474055
0.0008861473804
0.000886147466
0.0008861474691
0.0008861474637
0.0008861474575
0.0008861474477
0.0008861461632
0.0008861473672
0.0008861474037
0.0008861474061
0.0008861473981
0.0008861473924
0.0008861473962
0.0008861473798
0.000886147363
0.0008861473447
0.0008861472732
0.0008861471725
0.0008861472625
0.0008861473017
0.0008861473278
0.000886147355
0.0008861473674
0.0008861473705
0.0008861473736
0.0008861473775
0.0008861474052
0.0008861474048
0.0008861473993
0.0008861473806
0.0008861474917
0.0008861474756
0.0008861474514
0.0008861474413
0.0008861473375
0.0008861429728
0.0008861473941
0.0008861474158
0.000886147409
0.0008861473956
0.0008861473867
0.0008861473737
0.0008861473737
0.0008861473676
0.0008861473387
0.0008861471273
0.0008861472148
0.0008861472926
0.0008861473155
0.000886147327
0.0008861473478
0.0008861473683
0.0008861473755
0.0008861473768
0.0008861473766
0.0008861473967
0.0008861473964
0.0008861473877
0.0008861473807
0.0008861475067
0.0008861474633
0.0008861474395
0.0008861474218
0.0008861471123
0.0008861470337
0.0008861474133
0.0008861474234
0.000886147405
0.0008861473736
0.0008861473975
0.0008861473743
0.0008861473449
0.0008861473784
0.000886147316
0.0008861467437
0.000886147271
0.0008861473357
0.0008861473472
0.0008861473443
0.0008861473428
0.0008861473582
0.0008861473749
0.0008861473793
0.0008861473788
0.0008861473826
0.0008861473804
0.0008861473731
0.0008861473802
0.0008861474899
0.0008861474699
0.0008861474543
0.0008861474271
0.0008861474204
0.0008861474124
0.0008861474083
0.0008861473996
0.0008861473302
0.0008861472874
0.0008861474042
0.0008861473923
0.0008861473574
0.0008861473754
0.0008861473738
0.0008861473815
0.0008861473835
0.0008861473822
0.0008861473778
0.0008861473675
0.0008861473503
0.0008861473428
0.0008861473684
0.0008861473817
0.0008861473829
0.0008861473797
0.0008861473721
0.0008861473641
0.0008861473793
0.0008861474871
0.000886147475
0.0008861474729
0.0008861474439
0.0008861474329
0.0008861474248
0.0008861474061
0.0008861473751
0.0008861472869
0.0008861473087
0.0008861474071
0.0008861474007
0.0008861473816
0.0008861473752
0.0008861473858
0.0008861473886
0.0008861473867
0.0008861473823
0.0008861473742
0.0008861473598
0.0008861473381
0.0008861473242
0.0008861473655
0.0008861473848
0.0008861473881
0.0008861473859
0.0008861473742
0.0008861473645
0.0008861473776
0.0008861475051
0.0008861474823
0.0008861474713
0.0008861474636
0.0008861474417
0.0008861474263
0.0008861474045
0.0008861473656
0.0008861472814
0.0008861473641
0.0008861474082
0.000886147405
0.0008861473938
0.0008861473822
0.0008861473832
0.0008861473835
0.0008861473803
0.0008861473741
0.0008861473627
0.000886147342
0.0008861473094
0.0008861472863
0.0008861473679
0.0008861473875
0.0008861473914
0.0008861473899
0.0008861473836
0.0008861473766
0.000886147375
0.0008861475023
0.0008861474857
0.0008861474628
0.0008861474616
0.0008861474427
0.0008861474207
0.0008861474049
0.0008861474062
0.0008861474078
0.0008861474085
0.0008861474103
0.0008861474096
0.0008861474083
0.0008861474059
0.0008861474015
0.000886147394
0.0008861473851
0.0008861473788
0.0008861473751
0.0008861473727
0.0008861473713
0.0008861473711
0.0008861473803
0.0008861473886
0.0008861473916
0.0008861473913
0.000886147385
0.0008861473792
0.0008861473721
0.0008861474948
0.0008861474802
0.0008861474562
0.000886147456
0.0008861474409
0.0008861474216
0.0008861474057
0.0008861473975
0.0008861474009
0.0008861473986
0.0008861474095
0.0008861474078
0.0008861475426
0.0008861475489
0.0008861475054
0.0008861474384
0.0008861473977
0.0008861473899
0.0008861473907
0.000886147391
0.0008861473898
0.0008861473871
0.0008861473871
0.000886147388
0.000886147388
0.0008861473894
0.0008861473877
0.0008861473797
0.0008861473694
0.0008861474885
0.0008861474577
0.0008861474465
0.0008861474512
0.0008861474395
0.0008861474133
0.0008861473685
0.0008861469101
0.0008861473752
0.0008861473859
0.0008861474085
0.0008861474049
0.0008861475259
0.0008861475205
0.0008861474602
0.0008861474078
0.0008861473955
0.0008861473968
0.0008861473979
0.0008861473977
0.0008861473966
0.0008861473901
0.0008861473914
0.0008861473976
0.0008861474021
0.0008861474047
0.0008861473958
0.0008861473798
0.0008861473693
0.0008861474399
0.0008861474174
0.0008861474346
0.0008861474421
0.0008861474279
0.0008861473996
0.0008861473839
0.0008861473786
0.0008861473756
0.0008861473935
0.0008861474073
0.0008861474031
0.0008861474551
0.0008861474365
0.0008861474095
0.0008861473984
0.0008861473989
0.0008861474007
0.0008861474004
0.0008861473985
0.0008861473977
0.0008861473909
0.0008861474011
0.0008861474029
0.0008861473959
0.00088614739
0.0008861473847
0.0008861473748
0.0008861473684
0.0008861473893
0.0008861474095
0.0008861474064
0.0008861474284
0.0008861474144
0.0008861473988
0.000886147394
0.0008861473917
0.000886147387
0.0008861473988
0.0008861474057
0.0008861474026
0.0008861474128
0.0008861474063
0.0008861474003
0.0008861473989
0.0008861474006
0.0008861474034
0.0008861474057
0.0008861474051
0.0008861474041
0.0008861474016
0.0008861473966
0.0008861473899
0.0008861473844
0.0008861473801
0.0008861473752
0.00088614737
0.0008861473685
0.0008861474199
0.0008861474011
0.0008861473646
0.0008861474122
0.0008861474045
0.0008861473978
0.0008861473967
0.0008861473957
0.0008861473925
0.0008861474009
0.000886147404
0.0008861474027
0.0008861474033
0.0008861474009
0.0008861473991
0.0008861473995
0.0008861474009
0.0008861474044
0.0008861474005
0.0008861474025
0.0008861473961
0.0008861473907
0.0008861473876
0.0008861473837
0.00088614738
0.0008861473755
0.0008861473731
0.0008861473693
0.0008861473695
0.0008861474174
0.0008861473864
0.000886147324
0.0008861473853
0.0008861473934
0.0008861473945
0.0008861473961
0.0008861473962
0.0008861473944
0.0008861474017
0.0008861474032
0.0008861474025
0.0008861474013
0.0008861473992
0.0008861473983
0.0008861473994
0.0008861474005
0.0008861474038
0.0008861473903
0.0008861473842
0.0008861473821
0.0008861473816
0.0008861473816
0.0008861473801
0.000886147378
0.0008861473758
0.0008861473737
0.0008861473707
0.0008861473707
0.0008861473441
0.0008861473308
0.0008861472898
0.0008861473557
0.0008861473884
0.0008861473948
0.0008861473957
0.0008861473944
0.000886147394
0.0008861474018
0.0008861474028
0.0008861474016
0.000886147399
0.0008861473967
0.0008861473966
0.0008861473987
0.0008861473997
0.0008861474034
0.0008861473899
0.0008861473832
0.0008861473826
0.0008861473828
0.0008861473821
0.0008861473805
0.0008861473785
0.0008861473762
0.0008861473744
0.0008861473723
0.0008861473717
0.0008861473755
0.0008861472365
0.0008861472861
0.0008861474173
0.0008861474209
0.0008861474188
0.0008861474084
0.0008861473935
0.0008861473915
0.0008861474012
0.0008861474024
0.0008861474014
0.0008861473985
0.0008861473963
0.000886147397
0.0008861474035
0.0008861474049
0.0008861474071
0.0008861473986
0.0008861473873
0.0008861473851
0.0008861473842
0.0008861473829
0.0008861473811
0.0008861473791
0.000886147377
0.0008861473751
0.0008861473736
0.0008861473727
0.000886147406
0.0008861472882
0.0008861472993
0.0008861474176
0.0008861474235
0.0008861474223
0.0008861474147
0.0008861473936
0.0008861473867
0.0008861473998
0.0008861474006
0.0008861474022
0.0008861474004
0.000886147398
0.0008861474
0.0008861474107
0.0008861474061
0.0008861474074
0.0008861473861
0.0008861473845
0.0008861473844
0.0008861473841
0.000886147383
0.0008861473816
0.0008861473799
0.0008861473781
0.0008861473762
0.0008861473746
0.0008861473737
0.0008861473802
0.0008861473283
0.0008861473373
0.000886147413
0.0008861474239
0.0008861474222
0.0008861474154
0.0008861473965
0.0008861473927
0.0008861474003
0.0008861474007
0.0008861474053
0.0008861474065
0.0008861474057
0.0008861474031
0.000886147411
0.0008861473978
0.0008861473927
0.0008861473843
0.0008861473844
0.0008861473848
0.0008861473845
0.0008861473835
0.0008861473824
0.0008861473809
0.0008861473794
0.0008861473776
0.0008861473757
0.0008861473748
0.0008861473932
0.0008861473587
0.0008861473683
0.0008861474045
0.0008861474232
0.0008861474212
0.0008861474151
0.0008861474049
0.0008861473972
0.0008861474007
0.0008861474019
0.0008861474071
0.0008861474072
0.0008861474051
0.0008861474016
0.0008861474022
0.0008861473899
0.0008861473882
0.0008861473839
0.0008861473847
0.0008861473852
0.0008861473851
0.0008861473846
0.0008861473838
0.0008861473829
0.0008861473817
0.0008861473804
0.0008861473787
0.0008861473775
0.0008861473818
0.0008861473722
0.0008861473845
0.0008861473963
0.0008861474212
0.0008861474192
0.0008861474141
0.0008861474082
0.0008861474027
0.0008861474014
0.0008861474008
0.0008861474074
0.0008861474069
0.0008861474034
0.0008861473975
0.0008861473925
0.0008861473865
0.0008861473865
0.0008861473838
0.0008861473846
0.0008861473855
0.0008861473861
0.0008861473864
0.0008861473865
0.0008861473866
0.0008861473867
0.0008861473868
0.0008861473868
0.000886147387
0.0008861473847
0.0008861473882
0.0008861473939
0.0008861473892
0.0008861474161
0.0008861474153
0.0008861474113
0.0008861474082
0.0008861474064
0.0008861473987
0.0008861473933
0.0008861473976
0.0008861474007
0.0008861473893
0.0008861473892
0.0008861473865
0.0008861473839
0.0008861473849
0.0008861473826
0.0008861473831
0.0008861473855
0.000886147387
0.0008861473876
0.0008861473877
0.0008861473876
0.0008861473877
0.0008861473877
0.0008861473876
0.0008861473877
0.0008861473883
0.0008861473954
0.0008861473982
0.0008861473793
0.0008861474065
0.0008861474088
0.0008861474066
0.000886147406
0.0008861474066
0.0008861473984
0.000886147392
0.0008861473904
0.0008861473925
0.0008861473857
0.0008861473869
0.0008861473837
0.0008861473823
0.0008861473834
0.0008861473815
0.0008861473817
0.0008861473829
0.0008861473847
0.0008861473863
0.0008861473877
0.0008861473885
0.0008861473887
0.0008861473884
0.0008861473881
0.0008861473879
0.000886147399
0.0008861473994
0.000886147399
0.0008861473978
0.0008861473988
0.0008861474003
0.0008861474012
0.0008861474019
0.000886147403
0.0008861474049
0.0008861474056
0.0008861473991
0.0008861473926
0.0008861473915
0.0008861473886
0.0008861473872
0.0008861473873
0.0008861473862
0.0008861473884
0.0008861473903
0.000886147391
0.0008861473913
0.0008861473913
0.0008861473911
0.0008861473908
0.0008861473905
0.00088614739
0.0008861473893
0.0008861473884
0.0008861475439
0.0008861474886
0.0008861474776
0.0008861475424
0.0008861474808
0.000886147575
0.0008861475264
0.0008861474726
0.0008861484638
0.0008861483162
0.0008861479781
0.0008861477345
0.0008861490875
0.0008861485076
0.000886148033
0.0008861477263
0.0008861513513
0.0008861495649
0.0008861483349
0.0008861477456
0.0008861478722
0.0008861477623
0.0008861476362
0.0008861475516
0.0008861474656
0.0008861474219
0.0008861474246
0.000886147548
0.000886147434
0.0008861474496
0.0008861476826
0.0008861474583
0.0008861474639
0.0008861474705
0.0008861474717
0.0008861474827
0.000886147481
0.0008861474907
0.0008861474982
0.0008861474814
0.0008861475042
0.0008861474933
0.0008861474694
0.0008861474823
0.0008861474721
0.0008861474659
0.0008861474635
0.0008861474569
0.0008861474699
0.0008861474514
0.0008861474459
0.0008861475336
0.0008861474359
0.0008861474356
0.0008861474265
0.000886147427
0.0008861474289
0.0008861474332
0.0008861474345
0.0008861474335
0.0008861474321
0.0008861474413
0.0008861474571
0.0008861474343
0.0008861474497
0.0008861474505
0.0008861474712
0.0008861474647
0.0008861474375
0.0008861474418
0.0008861474398
0.0008861474951
0.0008861474704
0.0008861475316
0.0008861474987
0.0008861474463
0.0008861474523
0.0008861474502
0.0008861475311
0.0008861474819
0.0008861474678
0.0008861474594
0.0008861474978
0.0008861474993
0.0008861475309
0.0008861475713
0.0008861476018
0.000886147641
0.0008861475908
0.0008861476426
0.0008861476073
0.0008861476335
0.0008861476189
0.000886147609
0.0008861476563
0.0008861475896
0.0008861476132
0.0008861474812
0.0008861474621
0.000886147477
0.000886147521
0.0008861474961
0.0008861474989
0.0008861474748
0.0008861474565
0.0008861474649
0.0008861474945
0.0008861474812
0.0008861474875
0.0008861474558
0.0008861474485
0.0008861474493
0.0008861474783
0.0008861474589
0.0008861474692
0.000886147445
0.0008861474422
0.0008861474424
0.0008861474648
0.0008861474514
0.0008861474727
0.0008861474427
0.0008861474417
0.0008861474508
0.0008861474617
0.0008861474911
0.0008861474749
0.0008861476093
0.0008861477171
0.0008861481509
0.0008861474482
0.0008861482338
0.0008861479799
0.0008861481353
0.0008861480223
0.0008861478165
0.0008861479193
0.00088614783
0.0008861477513
0.0008861474464
0.0008861474349
0.0008861474438
0.000886147465
0.0008861474544
0.0008861474637
0.0008861474837
0.0008861474746
0.000886147485
0.0008861475033
0.0008861474956
0.0008861475086
0.0008861474951
0.0008861475236
0.0008861474974
0.0008861474701
0.0008861474831
0.0008861474684
0.0008861474526
0.0008861474577
0.0008861474496
0.0008861474395
0.0008861474427
0.0008861474369
0.0008861483094
0.0008861480541
0.0008861478366
0.0008861481785
0.0008861478396
0.0008861477421
0.000886147443
0.0008861474428
0.0008861474447
0.0008861474621
0.00088614745
0.0008861474602
0.0008861474858
0.0008861474747
0.0008861474858
0.0008861475121
0.0008861474959
0.0008861475125
0.0008861475002
0.00088614754
0.0008861475032
0.0008861474669
0.0008861474854
0.0008861474653
0.0008861474475
0.0008861474542
0.000886147446
0.0008861474361
0.0008861474401
0.0008861474363
0.0008861485237
0.000886148604
0.000886148603
0.0008861481336
0.0008861483647
0.0008861481601
0.0008861478464
0.0008861474589
0.0008861474583
0.0008861474615
0.0008861474851
0.0008861474782
0.000886147486
0.0008861475098
0.0008861474881
0.0008861475044
0.0008861475059
0.000886147534
0.0008861475077
0.0008861474634
0.000886147486
0.0008861474609
0.0008861474451
0.0008861474517
0.0008861474449
0.0008861496891
0.0008861492029
0.0008861482458
0.0008861487563
0.0008861483934
0.0008861478616
0.0008861481098
0.0008861474937
0.0008861475289
0.0008861475145
0.0008861474977
0.0008861474847
0.0008861474872
0.0008861475013
0.0008861474823
0.0008861474827
0.0008861474573
0.0008861474724
0.0008861474552
0.0008861501652
0.0008861474362
0.0008861474529
0.0008861474595
0.0008861474964
0.0008861475503
0.0008861475056
0.0008861475969
0.0008861475048
0.0008861476127
0.0008861474959
0.0008861474742
0.0008861475561
0.000886147609
0.0008861475977
0.0008861475431
0.0008861476811
0.0008861476829
0.0008861476144
0.000886147496
0.0008861474775
0.0008861474597
0.0008861474906
0.0008861474836
0.0008861474525
0.0008861474686
0.0008861474749
0.000886147445
0.0008861474538
0.0008861474662
0.0008861474405
0.0008861474503
0.0008861474974
0.0008861474504
0.0008861474801
0.0008861475276
0.0008861477877
0.0008861474235
0.0008861474611
0.0008861480706
0.0008861478933
0.0008861474338
0.0008861474574
0.0008861474743
0.000886147493
0.000886147513
0.0008861474823
0.0008861474603
0.0008861474461
0.0008861474341
0.000886147439
0.0008861474554
0.0008861481853
0.0008861482265
0.0008861479375
0.0008861479511
0.0008861477479
0.0008861474374
0.0008861474517
0.0008861474748
0.0008861474968
0.0008861475335
0.0008861474843
0.0008861474558
0.0008861474409
0.0008861474357
0.000886147453
0.0008861474514
0.0008861474748
0.0008861474928
0.0008861475422
0.0008861474859
0.0008861474529
0.0008861474402
0.0008861474354
0.0008861474879
0.0008861474987
0.0008861476205
0.0008861475508
0.0008861475551
0.0008861474403
0.0008861474778
0.0008861474905
0.000886147485
0.000886147507
0.0008861474825
0.0008861474508
0.0008861474451
0.0008861477237
0.0008861476713
0.0008861475921
0.0008861476525
0.0008861509592
0.000886149982
0.0008861488998
0.0008861480729
0.0008861477087
0.0008861476662
0.0008861474963
0.0008861490298
0.0008861482405
0.0008861478161
0.000886147607
0.0008861474732
0.0008861484484
0.0008861479352
0.000886147698
0.0008861475731
0.0008861474629
0.0008861481197
0.0008861478228
0.0008861476563
0.0008861475568
0.0008861474954
0.0008861474679
0.0008861474618
0.0008861474834
0.0008861474444
0.0008861479779
0.000886147502
0.0008861476011
0.0008861475011
0.0008861475112
0.0008861479692
0.0008861479016
0.0008861475066
0.0008861476017
0.0008861475248
0.0008861475506
0.0008861478379
0.0008861477807
0.0008861475066
0.0008861477281
0.0008861478153
0.0008861475564
0.0008861477662
0.0008861475041
0.0008861474753
0.0008861475492
0.0008861476754
0.0008861475258
0.0008861475679
0.0008861474757
0.0008861475857
0.000886147559
0.0008861475333
0.0008861475153
0.0008861475004
0.0008861474813
0.0008861483878
0.0008861480799
0.0008861474885
0.0008861476193
0.0008861476027
0.00088614756
0.000886147547
0.0008861475901
0.0008861475357
0.0008861475054
0.0008861475045
0.0008861474581
0.0008861479887
0.0008861478456
0.000886147727
0.0008861488208
0.0008861476076
0.0008861476733
0.0008861477202
0.0008861476369
0.0008861475979
0.0008861475657
0.0008861474737
0.0008861474343
0.0008861474303
0.0008861476533
0.0008861475854
0.0008861474938
0.0008861474831
0.000886147892
0.0008861477305
0.0008861504828
0.0008861488507
0.000886149342
0.0008861487095
0.0008861479775
0.0008861482484
0.000886147923
0.0008861478542
0.000886147818
0.0008861478267
0.0008861476913
0.0008861477078
0.0008861477455
0.0008861476524
0.0008861476809
0.0008861476297
0.0008861475877
0.0008861474359
0.0008861475473
0.0008861477702
0.000886147624
0.000886147496
0.0008861495306
0.0008861494554
0.0008861489765
0.0008861484181
0.0008861485116
0.0008861481662
0.0008861478315
0.0008861479219
0.0008861477507
0.0008861476303
0.0008861485881
0.0008861487095
0.0008861483265
0.000886147991
0.0008861480594
0.0008861478741
0.0008861476928
0.0008861477454
0.0008861476531
0.0008861475875
0.0008861481389
0.0008861482556
0.0008861480238
0.0008861477954
0.0008861478615
0.0008861477496
0.0008861476262
0.0008861476702
0.0008861476099
0.0008861475597
0.00088614796
0.0008861480264
0.0008861479217
0.0008861477261
0.0008861478009
0.0008861477135
0.0008861476024
0.0008861476491
0.0008861475989
0.0008861475918
0.0008861475546
)
;

boundaryField
{
    walls
    {
        type            zeroGradient;
    }
    wallFilmFace_top
    {
        type            zeroGradient;
    }
    region0_to_wallFilmRegion_wallFilmFace
    {
        type            zeroGradient;
    }
    mirrorFace_top
    {
        type            zeroGradient;
    }
    region0_to_wallFilmRegion_mirrorFace
    {
        type            zeroGradient;
    }
    procBoundary2to0
    {
        type            processor;
        value           nonuniform List<scalar> 
26
(
0.0008861475124
0.0008861475047
0.0008861474915
0.0008861474524
0.0008861474445
0.000886147421
0.0008861474129
0.0008861474
0.0008861473833
0.0008861473729
0.0008861473703
0.0008861473712
0.0008861473716
0.000886147371
0.0008861473737
0.0008861473793
0.0008861473843
0.0008861473873
0.0008861473885
0.000886147388
0.0008861473862
0.0008861473832
0.0008861473798
0.0008861473787
0.0008861473817
0.0008861473754
)
;
    }
    procBoundary2to1
    {
        type            processor;
        value           nonuniform List<scalar> 
33
(
0.0008861475278
0.0008861475278
0.0008861474918
0.0008861474918
0.0008861474569
0.0008861474343
0.0008861474211
0.0008861474211
0.0008861474291
0.0008861474316
0.0008861474417
0.0008861474609
0.000886147496
0.0008861475103
0.0008861475031
0.0008861475041
0.0008861474794
0.0008861474729
0.000886147458
0.0008861474183
0.0008861474201
0.0008861473765
0.0008861474179
0.0008861474175
0.0008861474017
0.0008861473886
0.0008861473991
0.0008861473999
0.0008861473995
0.0008861473956
0.0008861473903
0.0008861473886
0.0008861474003
)
;
    }
    procBoundary2to3
    {
        type            processor;
        value           nonuniform List<scalar> 
64
(
0.0008861474746
0.0008861475191
0.0008861475031
0.0008861474809
0.0008861474422
0.0008861476399
0.0008861476235
0.0008861476113
0.0008861474897
0.0008861475327
0.0008861476371
0.000886147523
0.0008861476145
0.0008861476371
0.0008861476123
0.0008861474987
0.000886147497
0.0008861474939
0.0008861474888
0.000886147484
0.0008861474796
0.0008861474769
0.0008861474767
0.0008861474757
0.0008861474757
0.0008861475196
0.0008861475575
0.0008861475575
0.0008861477638
0.0008861475575
0.0008861477482
0.0008861476789
0.0008861477482
0.0008861476677
0.0008861476557
0.0008861475009
0.0008861476149
0.0008861475327
0.0008861477257
0.0008861477482
0.0008861474247
0.0008861475827
0.0008861475328
0.0008861475474
0.0008861475292
0.0008861474947
0.0008861474999
0.000886147677
0.000886147626
0.0008861475056
0.0008861475191
0.0008861474919
0.0008861474556
0.000886147433
0.0008861476305
0.0008861474223
0.0008861474205
0.0008861476188
0.0008861474233
0.0008861474845
0.0008861475211
0.0008861475445
0.000886147491
0.0008861474882
)
;
    }
}


// ************************************************************************* //
