/*--------------------------------*- C++ -*----------------------------------*\
  =========                 |
  \\      /  F ield         | OpenFOAM: The Open Source CFD Toolbox
   \\    /   O peration     | Website:  https://openfoam.org
    \\  /    A nd           | Version:  8
     \\/     M anipulation  |
\*---------------------------------------------------------------------------*/
FoamFile
{
    version     2.0;
    format      ascii;
    class       scalarField;
    location    "0.8/lagrangian/reactingCloud1";
    object      mass0;
}
// * * * * * * * * * * * * * * * * * * * * * * * * * * * * * * * * * * * * * //


145
(
1.424351023e-07
7.401547041e-08
1.474533161e-07
7.375888446e-08
9.556674163e-08
6.814138014e-08
2.758995622e-07
1.935639351e-07
1.302480104e-07
7.002578406e-07
1.117523629e-07
7.851057902e-08
3.861803993e-07
7.50084276e-08
3.814784904e-07
3.395031539e-07
1.856075395e-07
3.704626665e-07
1.813399807e-07
1.322978632e-07
1.25628436e-07
2.800934463e-07
8.106620589e-07
2.148659661e-07
9.134552749e-08
3.896019993e-07
1.695234508e-07
5.280233872e-07
2.427521926e-07
5.481909919e-07
2.087315611e-07
4.409034536e-07
8.388414219e-08
3.346621981e-07
2.214446499e-07
2.530939893e-07
1.270650964e-07
1.319671813e-07
3.103050742e-07
7.459343494e-08
1.234556787e-07
1.075515123e-07
7.365692096e-08
8.577140257e-08
1.082252024e-07
6.745932199e-08
1.958622721e-07
8.507248242e-08
2.246302214e-07
1.328236747e-07
1.003935792e-07
1.726664828e-07
8.796940932e-07
7.52636974e-08
1.459940384e-07
7.10616167e-08
5.187704707e-07
7.24222461e-08
4.066313758e-07
1.193570829e-07
3.883642307e-07
2.06219337e-07
2.62580692e-07
8.465359791e-07
3.146602681e-07
1.359075915e-07
9.826069683e-08
1.466261248e-07
8.190893222e-08
2.226228937e-07
9.585762527e-08
7.775655968e-08
8.744651641e-07
3.323329893e-07
2.237462176e-07
8.858529179e-08
1.253854391e-07
7.595416252e-08
8.845489668e-07
2.233808145e-07
5.395640373e-07
8.103938671e-08
6.562641215e-08
8.858529187e-08
3.766099703e-07
5.850453516e-07
8.172603098e-08
2.221547818e-07
1.93440015e-07
2.369174002e-07
1.005359776e-07
1.693469738e-07
6.54101288e-08
1.204377282e-07
1.18227506e-07
1.880255416e-07
1.784009068e-07
1.696133626e-07
1.198572281e-07
2.233556002e-07
1.318292501e-07
1.395979231e-07
2.622157961e-07
6.027024002e-07
2.469645396e-07
2.762113549e-07
1.397731142e-07
4.937071566e-07
1.614290064e-07
1.953757555e-07
7.615672848e-08
9.330823614e-08
9.7425872e-08
8.796407421e-08
1.799020505e-07
9.815866729e-08
1.746656183e-07
7.145379308e-08
3.794209652e-07
9.845008024e-08
8.687334146e-08
9.203112732e-08
4.089110876e-07
4.40458923e-07
1.68679605e-07
1.179402314e-07
3.284837283e-07
3.368997983e-07
1.652666196e-07
2.181151248e-07
1.382835331e-07
3.297677008e-07
7.489866067e-07
1.260774189e-07
7.899039762e-07
3.423671103e-07
6.805421965e-07
2.258699153e-07
1.208164522e-07
2.3638443e-07
6.95651248e-08
2.16429814e-07
8.783292113e-08
7.238831689e-07
3.276906217e-07
)


// ************************************************************************* //
