/*--------------------------------*- C++ -*----------------------------------*\
  =========                 |
  \\      /  F ield         | OpenFOAM: The Open Source CFD Toolbox
   \\    /   O peration     | Website:  https://openfoam.org
    \\  /    A nd           | Version:  8
     \\/     M anipulation  |
\*---------------------------------------------------------------------------*/
FoamFile
{
    version     2.0;
    format      ascii;
    class       Cloud<basicReactingMultiphaseParcel>;
    location    "0.8/lagrangian/reactingCloud1";
    object      positions;
}
// * * * * * * * * * * * * * * * * * * * * * * * * * * * * * * * * * * * * * //

145
(
(0.08632118107 0.09907458613 0.2908015648 0.523802668) 3621 10616 1
(0.03649149715 0.1580805839 0.7737911277 0.03163679125) 4369 12803 2
(0.3238302551 0.02503376236 0.4994683155 0.151667667) 3742 10893 1
(0.1407833391 0.189129898 0.5586837765 0.1114029864) 11405 33408 1
(0.3860781091 0.2486596274 0.01786106558 0.3474011979) 11288 33063 1
(0.1041280349 0.1399648516 0.7302831151 0.02562399841) 12225 35716 2
(0.2544545776 0.679384429 0.03449423612 0.03166675734) 11711 34315 1
(0.05460090894 0.05525596081 0.01276576537 0.8773773649) 11350 33247 2
(0.05852166815 0.3086634418 0.6018645942 0.03095029584) 5351 15683 2
(0.6840746418 0.254799931 0.008032369507 0.05309305765) 12783 37460 2
(0.001564029785 0.4762724594 0.514991723 0.007171787793) 14652 40236 2
(0.6182539965 0.06895639168 0.3127181104 7.150137893e-05) 11597 33977 2
(0.3625705284 0.1664844209 0.3667998229 0.1041452277) 13865 40636 1
(0.264985198 0.02921276059 0.6706053295 0.03519671183) 14708 43018 1
(0.06866775767 0.6526623508 0.2289241464 0.04974574517) 14837 43477 1
(0.1665807508 0.5947811106 0.1395423292 0.09909580946) 188 477 1
(0.08089134237 0.3324778851 0.2519439029 0.3346868697) 11413 33341 1
(0.01467878751 0.540859355 0.2105578446 0.233904013) 5255 15316 2
(0.1223399963 0.4193963765 0.2246967386 0.2335668885) 263 699 1
(0.5751010497 0.2052009269 0.08164563821 0.1380523852) 235 696 2
(0.166193391 0.1617853107 0.2444419214 0.4275793769) 16715 46283 1
(0.3284703706 0.09916555108 0.4133999891 0.1589640892) 263 775 2
(0.02263348345 0.07906813746 0.193952417 0.7043459621) 16859 46710 1
(0.05293717199 0.4120513835 0.1394971507 0.3955142938) 7853 23008 1
(0.2628155232 0.003314922965 0.1694285471 0.5644410068) 1083 3100 1
(0.1708658961 0.6028998048 0.06980677843 0.1564275207) 17807 49488 1
(0.1106969945 0.1240043056 0.1596984941 0.6056002058) 1881 3098 2
(0.2554421743 0.3734385727 0.3680532178 0.003066035236) 17647 51666 2
(0.3589385308 0.53370283 0.1023523926 0.005006246647) 18727 54836 1
(0.2392618692 0.6897402864 0.03077283021 0.04022501417) 16024 46922 1
(0.6008278964 0.2900915873 0.09400537708 0.01507513922) 17845 52256 1
(0.1248398663 0.03409860692 0.6696958409 0.1713656859) 18533 207103 1
(0.05371750326 0.5090787796 0.2562873288 0.1809163883) 18536 54271 1
(0.7093464097 0.04351122523 0.07586354364 0.1712788214) 12426 33744 2
(0.1185702799 0.2134346647 0.3944101115 0.2735849439) 18647 54601 1
(0.5637907382 0.168103582 0.1624831042 0.1056225756) 18538 54279 2
(0.1640403577 0.1256715367 0.5127613034 0.1975268022) 19560 54596 2
(0.06400554405 0.1501884024 0.7315596638 0.05424638981) 18555 54329 1
(0.0718190296 0.6938601167 0.1943845654 0.03993628827) 18538 54279 2
(0.2081485774 0.04032781931 0.6297213808 0.1218022225) 19559 57515 1
(0.502063859 0.1479096061 0.01847352646 0.3315530084) 19555 57494 2
(0.4909719445 0.04531878773 0.03552101069 0.4281882571) 19584 57480 2
(0.2774188036 0.1316890934 0.1835365258 0.4073555772) 19559 57516 3
(0.1090746818 0.6915052216 0.1897626108 0.009657485864) 19452 54276 2
(0.1114601549 0.1622816514 0.6248625474 0.1013956464) 19584 57610 2
(0.1013975425 0.09930309574 0.7389386901 0.0603606717) 19614 57748 1
(0.6318188995 0.01877009497 0.01871903015 0.3306919753) 19613 57741 2
(0.2624861619 0.560991312 0.1036846299 0.07283789618) 19502 57135 2
(0.2914662081 0.1729946987 0.2852850172 0.2502540759) 19642 57865 2
(0.0065366042 0.3220478748 0.3813609237 0.2900545973) 19450 57030 1
(0.3951739811 0.3119468925 0.1735530866 0.1193260398) 19500 57259 3
(0.2764257327 0.4551089498 0.1758296253 0.09263569215) 18139 53124 2
(0.01116964987 0.2445933557 0.4318562669 0.3123807276) 19585 57616 3
(0.09834931495 0.1606240759 0.2745667932 0.466459816) 58145 159550 1
(0.09201867947 0.2211229519 0.1612548424 0.5256035262) 19468 57117 2
(0.1997866941 0.1019311189 0.4321140359 0.266168151) 19645 57882 1
(0.1602061959 0.1089618372 0.4161892565 0.3146427104) 19646 57887 3
(0.4782533683 0.2504273609 0.1689140152 0.1024052555) 53082 162798 2
(0.2543971751 0.03028758703 0.6255759093 0.08973932854) 19559 57519 2
(0.0754528714 0.3671629908 0.3468402275 0.2105439103) 52913 57394 2
(0.2150273717 0.6915208341 0.05829814931 0.03515364496) 52717 57132 2
(0.1898817597 0.1220677541 0.5135761885 0.1744742978) 17802 49473 2
(0.009673883184 0.6259529928 0.3481518285 0.01622129553) 20443 60544 2
(0.3596518706 0.1143767881 0.07381118508 0.4521601562) 53082 162798 2
(0.02435603187 0.4557471998 0.07548694156 0.4444098268) 20382 60300 2
(0.3030687527 0.1062226623 0.3467551892 0.2439533958) 52915 162374 1
(0.07832967922 0.3617993914 0.2996430528 0.2602278766) 52911 162360 2
(0.2570795298 0.1718474866 0.2827142186 0.2883587651) 21410 63973 2
(0.5958808602 0.009407364201 0.06281385271 0.3318979229) 53632 164184 2
(0.5775354438 0.2731630374 0.1264826459 0.02281887284) 21382 63853 1
(0.1761843771 0.3514744085 0.2784547009 0.1938865134) 22631 68520 1
(0.3211661207 0.4135132677 0.07706663104 0.1882539805) 20544 60946 2
(0.2996808726 0.2880300281 0.2423760673 0.169913032) 54559 166500 1
(0.3566951329 0.1936426846 0.2694097447 0.1802524378) 25057 77191 2
(0.2473375557 0.4673972932 0.1436373046 0.1416278465) 63304 187989 1
(0.06308051577 0.1437886003 0.5899754135 0.2031554703) 6898 20208 1
(0.0007467058931 0.8211575356 0.1445828848 0.03351287373) 57027 172679 1
(0.1691581335 0.4249051521 0.2458926182 0.1600440962) 57025 172662 2
(0.6269251951 0.002667722262 0.001655007115 0.3687520755) 53359 163497 1
(0.6782536436 0.1301135905 0.02821809987 0.163414666) 64851 191835 1
(0.2789921534 0.06115842306 0.4229576895 0.236891734) 58322 175499 2
(0.001082236857 0.8479907988 0.07550630692 0.07542065738) 51900 204530 2
(0.1207869412 0.452610136 0.08823362015 0.3383693027) 58334 175758 2
(0.06121642948 0.7286138423 0.1863087337 0.02386099447) 25104 77378 2
(0.7429324833 0.0605156835 0.183278506 0.01327332713) 58124 175266 2
(0.2218158893 0.1589006689 0.2429429075 0.3763405342) 51865 159640 1
(0.02339759941 0.1767739774 0.5700640633 0.2297643599) 51935 77276 2
(0.2438429072 0.3883687369 0.3495995165 0.01818883944) 24989 76873 2
(0.866209975 0.05527195737 0.001182106617 0.07733596097) 51705 159221 2
(0.008208079221 0.7746089962 0.05696309875 0.1602198258) 64658 191344 2
(0.8059612409 0.03056571182 0.1139308295 0.04954221778) 51705 159221 2
(0.8301725717 0.008809032738 0.1350422363 0.02597615922) 51705 159227 1
(0.6958325199 0.08434730041 0.1328661943 0.08695398537) 51705 159227 1
(0.6479995778 0.1368778709 0.0893092515 0.1258132999) 51705 159227 1
(0.5384188114 0.2251036868 0.04213737768 0.1943401241) 51705 159227 1
(0.3066523328 0.1981640045 0.4244422869 0.07074137585) 38255 118468 1
(0.3703239072 0.3069575484 0.2469759261 0.07574261842) 51705 159227 2
(0.1304555433 0.3643186004 0.2650225152 0.2402033411) 51705 159227 2
(0.104056525 0.282417528 0.458799902 0.154726045) 51709 159227 2
(0.01230522167 0.1932467555 0.758180312 0.03626771076) 51925 159779 2
(0.1364878895 0.2458983145 0.2130650124 0.4045487836) 51858 159621 2
(0.1924213795 0.5882996103 0.02300894525 0.1962700649) 34989 111236 2
(0.2068237785 0.2671132855 0.01723190422 0.5088310318) 51869 159639 2
(0.5689010902 0.0439126481 0.2063071228 0.1808791389) 59226 77383 2
(0.5746111567 0.1403317578 0.230790085 0.05426700055) 59226 177946 1
(0.5919295843 0.002147681649 0.3314419526 0.07448078143) 51919 159763 2
(0.03997136367 0.06421009177 0.1912981306 0.704520414) 38168 118210 1
(0.7489515949 0.0869151927 0.0276975169 0.1364356955) 51926 159781 1
(0.08068171507 0.378023406 0.2649545422 0.2763403367) 51919 159773 2
(0.3220203481 0.2888578645 0.08632014916 0.3028016382) 51931 159806 1
(0.2874050242 0.2684181176 0.2940034867 0.1501733715) 51909 159749 2
(0.2398208431 0.2853135274 0.4628045021 0.01206112735) 51863 159631 1
(0.2768167785 0.1231320871 0.1540270448 0.4460240896) 59166 177800 2
(0.02369587104 0.3741637032 0.002304331758 0.599836094) 51939 159825 1
(0.5339720163 0.3062139314 0.06255865583 0.09725539643) 51931 159803 2
(0.2835161702 0.1143505384 0.3333768115 0.26875648) 51888 159699 1
(0.02214095528 0.6285141544 0.2382027229 0.1111421674) 51772 159400 2
(0.5156786676 0.1593266811 0.2586285313 0.06636612007) 34289 109192 1
(0.2371500755 0.4132278261 0.1693260835 0.1802960149) 38925 122726 2
(0.2101467871 0.5207943155 0.1562127088 0.1128461886) 51763 159220 1
(0.3419215106 0.3813281969 0.158184005 0.1185662875) 51862 159631 2
(0.4062931275 0.2711450733 0.04867100041 0.2738907988) 51911 159737 1
(0.4128897022 0.03818362951 0.4390412357 0.1098854326) 51931 159670 2
(0.1137404441 0.1346529277 0.3024200864 0.4491865417) 58949 177269 1
(0.1790942206 0.05581380178 0.1380733055 0.6270186721) 58951 158504 2
(0.0004075454515 0.05554027769 0.6948939148 0.2491582621) 58951 177269 1
(0.2563756322 0.2565912733 0.1365986949 0.3504343996) 51869 159633 1
(0.267002932 0.5344432946 0.08470680265 0.1138469708) 51870 159649 2
(0.02473792739 0.3302726005 0.01797098574 0.6270184863) 51894 205582 2
(0.5780782248 0.06615536372 0.2896846527 0.06608175888) 35721 113377 2
(0.3125949254 0.1697620307 0.1578862182 0.3597568257) 51919 203337 1
(0.2413400557 0.06506960556 0.3214447257 0.372145613) 51926 159789 1
(0.3723319796 0.4648967318 0.1083870623 0.05438422626) 51926 159791 1
(0.07804697747 0.205994455 0.6452103594 0.07074820815) 35724 113387 1
(0.4589104537 0.1425834483 0.2198878323 0.1786182657) 51770 203300 1
(0.3288921322 0.4691752017 0.1306827159 0.07124995022) 51937 203251 1
(0.3699496015 0.3113388672 0.2738220537 0.04488947771) 51931 159670 2
(0.5367527672 0.2237016303 0.2326959599 0.006849642615) 41356 205176 1
(0.2584930339 0.1723695089 0.1836374179 0.3855000392) 51919 203337 1
(0.3139906004 0.2355713847 0.05906079395 0.3913772209) 51931 203348 2
(0.2125872079 0.2136264288 0.1292047777 0.4445815856) 51931 203348 2
(0.2383321821 0.1811723133 0.0299669934 0.5505285112) 51931 159803 1
(0.1970470251 0.4631136374 0.008005377777 0.3318339597) 51931 159806 2
(0.4930159457 0.2216502423 0.0351706506 0.2501631615) 51876 203178 1
(0.3482801765 0.1073222146 0.3025759432 0.2418216656) 51930 203249 1
)


// ************************************************************************* //
