/*--------------------------------*- C++ -*----------------------------------*\
  =========                 |
  \\      /  F ield         | OpenFOAM: The Open Source CFD Toolbox
   \\    /   O peration     | Website:  https://openfoam.org
    \\  /    A nd           | Version:  8
     \\/     M anipulation  |
\*---------------------------------------------------------------------------*/
FoamFile
{
    version     2.0;
    format      ascii;
    class       scalarField;
    location    "0.8/lagrangian/reactingCloud1";
    object      rho;
}
// * * * * * * * * * * * * * * * * * * * * * * * * * * * * * * * * * * * * * //


145
(
994.5114713
994.5114719
1000
994.5114712
994.5114698
994.5114706
994.5114707
994.5114718
1000
994.5114707
994.5114708
994.5114711
994.5114711
994.5114711
994.5114714
1000
994.5114715
994.511474
994.5114717
994.5114717
994.5114701
994.5114716
994.51147
1000
994.5114715
994.5114691
994.511471
994.5114701
994.5114701
1000
994.5114691
994.5114701
994.5114701
1000
994.5114687
994.5114699
994.5114687
994.5114699
994.5114694
994.5114687
994.51147
994.51147
994.5114687
994.5114692
994.51147
994.51147
994.51147
994.5114687
994.51147
994.5114692
994.5114687
1000
994.5114699
994.5114687
994.5114693
994.5114688
994.5114693
994.5114697
994.5114687
994.5114687
994.5114686
1000
994.5114688
994.5114696
994.5114686
994.5114689
994.511469
994.5114697
994.5114701
994.5114694
1000
994.5114709
994.5114702
1000
1000
994.511469
994.5114687
994.5114686
1000
1000
994.5114694
994.51147
994.5114693
994.5114699
994.5114694
994.5114694
994.5114695
994.5114685
994.5114685
1000
994.5114685
994.5114685
994.5114685
994.5114685
994.5114685
1000
994.5114685
994.5114685
994.5114686
994.5114695
994.51147
1000
994.5114695
994.5114695
994.5114696
994.5114698
1000
994.511469
994.5114698
994.5114693
994.5114696
994.5114698
994.5114699
994.5114699
994.5114693
994.5114692
994.5114689
1000
1000
994.511469
994.5114697
994.5114686
994.5114698
994.5114702
994.5114703
994.5114704
994.5114696
994.5114695
994.51147
1000
994.5114686
994.5114688
994.511469
1000
994.5114692
994.5114696
994.5114695
1000
994.5114687
994.5114695
994.5114695
994.5114694
994.5114694
994.5114695
994.5114694
)


// ************************************************************************* //
