/*--------------------------------*- C++ -*----------------------------------*\
  =========                 |
  \\      /  F ield         | OpenFOAM: The Open Source CFD Toolbox
   \\    /   O peration     | Website:  https://openfoam.org
    \\  /    A nd           | Version:  8
     \\/     M anipulation  |
\*---------------------------------------------------------------------------*/
FoamFile
{
    version     2.0;
    format      ascii;
    class       volScalarField;
    location    "1.8/wallFilmRegion";
    object      alpha;
}
// * * * * * * * * * * * * * * * * * * * * * * * * * * * * * * * * * * * * * //

dimensions      [0 0 0 0 0 0 0];

internalField   nonuniform List<scalar> 
1369
(
8.751172566
9.099016581
8.268521878
6.962657338
6.231997112
5.967509811
5.800734194
5.530122053
5.247818797
4.981139508
4.79928371
4.746669023
4.831157763
5.145714725
2.93531186
2.277048142
1.815709717
1.611686084
1.663500791
1.926091597
2.227173904
2.046028162
0.9949801044
0.04444962366
0.001350965442
0.0003366156992
0.03986434204
1.380043332
3.144767227
3.763137882
2.473417184
2.000150209
2.019322967
2.4531162
2.941754747
4.450515052
4.853399664
4.25228486
4.532079196
4.63923732
4.178301344
3.447002935
2.898089457
2.852898232
3.769558247
7.359926888
12.78377035
8.529297853
7.659036327
8.462249804
7.989776054
7.697798099
6.956869974
6.414992157
6.267362978
6.878250656
8.026098275
9.307443464
9.473220358
8.947220586
7.252211702
7.587905434
6.698668
5.365540294
4.210918994
3.6756208
3.065888156
2.269819359
1.840548597
1.678536971
1.621097558
1.624460503
2.032926474
2.842307602
0.8005491503
0.4412110483
0.1391566812
0.05313450873
0.05049181834
0.07198520949
0.1269686996
0.2521022963
0.3942843287
0.2446908377
0.01558254571
0.001820371123
0.07528072399
0.7528758905
1.008049719
0.9182851659
0.2227365343
0.08228461701
0.1012946692
0.06488369793
0.04853927595
0.09922151079
0.6440060886
1.156734516
0.8516591438
0.7410211238
0.5333520047
0.305417921
0.176322492
0.1245706111
0.154804186
1.266216726
3.90235247
2.196485821
0.8018853658
3.638975151
3.178939688
3.571490175
2.072564611
3.115041666
5.842653951
6.716843087
6.934748276
7.769837574
8.388355596
8.766994498
6.468933353
6.522850223
6.351677454
5.644143736
5.197489932
5.355490836
5.12318753
4.107414733
3.515212369
2.914799692
2.557827803
2.537410523
3.299808609
1.560307266
2.624148878
1.211041122
0.3757683305
0.0366799615
0.02807336589
0.03792335124
0.05326452769
0.07595546577
0.1197735706
0.3823231066
0.6286033267
0.008974814783
0.1021629741
0.6091938428
1.393716144
0.5282357108
0.3892153494
0.4594499733
0.1457220436
0.04435698849
0.02071684636
0.02003508042
0.3966472259
0.8025178027
0.913162819
0.68815471
0.3912085112
0.1938065518
0.1155360444
0.1000234715
0.1198249478
1.670561548
4.688313056
7.295515796
7.301167314
5.291413227
5.475091389
5.874082263
7.953223903
8.107978532
7.323391834
6.663594693
6.604039366
6.963634457
7.128328278
8.078263091
5.740382573
4.812520372
5.582252377
4.906476824
4.364532099
3.915978612
3.272460008
2.688429289
2.788143379
2.596764435
2.640628082
2.98782503
1.742327701
0.1950372919
0.4998340343
0.9083351045
0.9599852289
0.02032480387
0.0123048361
0.0157698318
0.01933132308
0.02038496907
0.0144074315
0.00449345191
0.05495706249
0.04753941821
0.1825744827
0.6519524556
0.4583109284
0.3201057366
0.2803582556
0.2695641949
0.1943275517
0.06545170956
0.007584450206
0.06392149331
0.9215637134
0.01256461553
0.03142837002
0.06607158648
0.0823936668
0.07618222285
0.07648855741
0.09242708392
0.08204312813
0.08280372052
0.2008774819
4.44578955
5.648156904
4.638676291
4.617260673
5.197373402
5.818417815
5.273633774
5.527147131
5.599362492
5.667724622
5.984451103
6.19149311
7.490020295
5.365340597
4.189011182
5.079507199
4.478502336
4.024543261
3.586563383
3.220842235
2.951363475
2.94082614
3.056502771
4.665710481
3.236460873
0.9137970176
0.02760454301
0.2338301836
0.7090022699
1.403557637
0.006621394726
0.003481454991
0.004309574706
0.005175259147
0.005207252797
0.003458351243
0.0007024835068
0.002088836359
0.1479094993
0.4491676432
0.3547525632
0.1698160086
0.2065834864
0.1530044012
0.2125923137
0.2682168794
0.373904725
0.2159570315
0.7305383878
0.1649847493
0.004024591991
0.01599720514
0.03947496597
0.05632607966
0.05965357809
0.07130469451
0.1066454813
0.08791603476
0.05399686213
0.05778605122
0.4173868379
5.500035338
5.697666673
5.53242751
5.834496553
6.437818041
7.148267818
6.296961768
5.600131863
5.512088371
5.876125018
5.959338198
7.157689965
5.056690204
5.516025092
4.880700997
4.019467201
3.725503465
3.341850966
3.03155795
2.839381676
2.78188307
2.685851203
2.593413914
2.536085297
2.349456147
0.5018438895
0.8458024645
0.8502067663
0.01658599684
0.000383177067
0.0004207011972
0.0004443436104
0.000480500163
0.0004753557848
0.0004604634699
0.0006377494388
0.002297013796
0.173826666
0.2257269244
0.002192639224
0.004722052386
0.03280655347
0.004583020454
0.1595597184
0.2643499738
0.3113818258
0.5730937834
1.901698062
0.01220699019
0.002376979363
0.0109420806
0.02916172959
0.04385125768
0.04652800917
0.06257234591
0.10715278
0.07908142699
0.04609590733
0.03295300825
0.04564261959
0.2032496454
5.021612466
4.623661323
3.92721733
4.760083034
6.258269159
6.134180248
5.430224804
5.125586896
5.42877624
5.265169533
6.459009589
4.645433495
3.179452545
5.079714312
3.318620651
3.394140968
3.134435789
2.936226728
2.822189521
2.793115585
2.878720674
3.177011091
3.495301358
2.958928258
3.078732544
2.668346876
0.3224630065
0.04455316737
0.0007168046578
0.000560780192
0.00123330938
0.00201382105
0.002019732867
0.001794388266
0.002367352959
0.007584431313
0.2293436818
0.2087989618
0.0003260524208
0.002693467832
0.04494561413
0.00913096402
0.2200319193
0.3582906473
0.1079602792
0.03930812337
0.03535480961
0.003351167339
0.00143191169
0.00619543011
0.01954258796
0.03312817824
0.03445980036
0.0523083256
0.08602763009
0.06044412452
0.04239018853
0.03518262106
0.03164037312
0.05189534952
0.2037742218
5.586193198
5.993325271
4.946521989
5.958606631
6.157536114
5.70223587
5.213784578
4.893055979
4.608857964
5.718916253
5.18347699
2.303073505
4.409413882
2.686172294
3.017535054
2.90034726
2.864725479
2.858496779
2.868323137
3.115213499
3.34999853
2.822786054
2.697217992
6.841931282
2.171550192
0.4625640218
0.1561741564
0.007546949421
0.001370999798
0.0028654282
0.004284052537
0.004592992499
0.003976670662
0.005107456111
0.01675260744
0.2955408988
0.174295107
0.0001639012151
0.002009375489
0.04931382468
0.05066076401
0.367941976
0.3034455908
0.08401065438
0.01989541469
0.0045794717
0.001951953548
0.000834311747
0.00258234212
0.01332893795
0.02679680376
0.02447981071
0.03926655617
0.05723304986
0.05123710047
0.05024708787
0.04536031397
0.03725729818
0.02994248023
0.03846323135
0.2035432002
5.134606154
5.247556347
5.115430275
5.584613357
5.300982843
4.535003592
4.43238947
3.910090654
5.118073843
6.527556465
2.173904725
3.221594097
2.530408192
2.894171509
2.87127192
2.974838802
3.08132561
3.140972637
3.540038872
3.698173605
3.536234323
3.786648572
2.043270947
0.602535787
0.3804884218
0.2634875937
0.1127694255
0.004392252893
0.005173574221
0.006834261294
0.007778013154
0.00681656181
0.008615782693
0.02944686027
0.3496305952
0.1105958175
0.002405822332
0.01206786716
0.1852368403
0.5022281083
0.5295788807
0.4356107682
0.1989650958
0.03480091555
0.003583010678
0.001442661016
0.0005530651899
0.0006330845873
0.01381552446
0.0240147706
0.0160846464
0.02522712973
0.03724435084
0.04972023624
0.06216368925
0.06096549864
0.04746471679
0.03261118674
0.02335348222
0.04544305176
0.4426269183
6.181691642
4.887652168
5.149868001
4.599405271
4.175072616
4.210327657
3.247259377
4.796420566
8.27643422
2.861847963
2.864632676
2.184749057
2.779413882
2.794896338
3.121844628
3.422337508
3.599627151
4.103147378
4.89184943
4.73522356
2.029123004
0.3356729766
0.1827953076
0.2060732365
0.2282892737
0.4273769964
0.533743263
0.1589245782
0.0273062827
0.01283562938
0.01359290555
0.01554510418
0.05384237571
0.3912202756
0.06823169217
0.0743507788
0.2230790044
0.506727119
0.9164476252
0.7071770235
0.6151629463
0.3803242335
0.08260177928
0.005940734055
0.002085512206
0.0007702027065
0.0002803602501
0.03902175906
0.01629131773
0.009067457672
0.01372115744
0.0281334168
0.04664673849
0.0663607599
0.07392997182
0.06152032964
0.03987827759
0.024216551
0.02474127939
0.1292770174
5.256680675
5.947291272
5.092761842
4.606500161
4.046775422
3.779906383
2.54612276
4.74356225
9.750459334
3.140575681
3.23376683
2.732473522
2.957304029
2.898673891
3.088235484
3.748732041
3.736781586
4.449899992
4.731022005
4.384901838
0.4474662361
0.2429419655
0.05143121329
0.03422416853
0.04224120288
0.05102248745
0.1260230245
0.1632665489
0.02526046761
0.0535739219
0.1371955623
0.7376030006
0.7976099804
0.5386411453
0.07341988454
0.1252378842
0.0692457952
0.1028109351
0.5926337357
0.5176901145
0.3743437232
0.2564626726
0.09877646469
0.01972926969
0.004816351335
0.001825793191
0.001952478055
0.09699814336
0.007024436438
0.002621839214
0.009663481125
0.02268539492
0.0379446726
0.05849478746
0.07863813439
0.07876067917
0.0580369272
0.034960161
0.02680904395
0.08213590574
0.6782368854
6.910691224
5.628596809
4.745205321
3.929033684
3.182440985
2.142199662
4.982641922
7.358652935
0.5972702872
0.8573830937
1.144417924
2.139381325
3.278867518
4.543552366
5.028611492
4.131261127
2.99237445
0.3088742837
0.4423214397
0.2835002588
0.2896685101
0.0279447324
0.03518593948
0.09379745377
0.03157337576
0.07953779734
0.1032081438
0.00979566312
0.3013092039
0.9368820417
1.99567288
1.94549896
1.207319388
0.1776946038
0.2073498566
0.08011365262
0.05557526395
0.2934579873
0.4002603103
0.3966768354
0.381523045
0.2188225772
0.08246732337
0.007635442726
0.00252498638
0.005891660104
0.02556661763
0.001808875232
0.0001079143289
0.008492957539
0.01884508326
0.02955864702
0.04591440374
0.07572271319
0.1029892089
0.1015491577
0.07962445711
0.06194571478
0.0933481795
0.2135095613
1.204727602
5.50532356
4.598846204
3.755968514
3.076877281
2.434578671
5.437021362
0.7433827849
0.1323360713
0.04929963958
0.04043895387
0.08356513873
0.2052185603
0.2756980168
0.01722991375
0.04814339834
0.200673384
0.0152620154
0.04213844175
0.05181530923
0.004444131394
0.5545004344
1.26765024
1.433993344
1.328565838
1.036513597
0.4199900231
0.2340843894
0.09659739776
0.07739062303
0.05372020748
0.114345003
0.3248122031
0.5489121324
0.4687266369
0.4022694848
0.0882382698
0.02471015893
0.02968592432
0.01856336683
0.002254373189
0.0004130919033
0.01797128203
0.02333657156
0.02816991627
0.03787201778
0.06212973057
0.1089250595
0.1585937376
0.1811009364
0.1617726267
0.1364919412
0.1371116077
0.2602943732
2.889265104
4.538790258
3.692031853
3.416259107
2.742954519
5.989988351
0.03001596099
0.1162629072
0.2141569784
0.007460494838
0.02575929596
0.2792918569
0.0004959234885
3.518787004e-08
2.976026514e-07
1.033987677e-05
0.8894837551
1.352932933
1.346713458
1.468101424
1.170929935
0.5252979269
0.1432467866
0.06521040571
0.07134225345
0.07725994245
0.006807816642
0.04290222316
0.5948797529
0.4993554634
0.7937167934
0.5752300043
0.3272841176
0.1685156621
0.01876109068
0.004106953553
0.03676977737
0.04781748703
0.04006524046
0.03445169795
0.03659374778
0.04687928355
0.07254161291
0.1226761946
0.1643301366
0.1552048975
0.1218817322
0.1033137079
0.1079195807
0.2432711135
3.699409704
4.946406492
4.08396421
3.122033237
6.34084112
0.06396707529
0.004581968531
0.003037483448
0.001754388757
0.0006216258908
1.070355763e-09
3.675445619e-09
2.324770386e-05
1.050985274
1.169404699
1.334188635
1.424298247
1.266027849
0.6983465802
0.2053671941
0.007110393629
0.01487321218
0.02962726965
0.02233271055
0.3203661513
0.1343281471
0.2123505981
0.765208797
0.3286428392
0.3199359272
0.3354753084
0.04403036517
0.008752747412
0.08135125943
0.0844179822
0.06409167998
0.04508167116
0.03803151343
0.0387870305
0.04569216302
0.07503660719
0.1013751151
0.06701434816
0.05815825669
0.06630952391
0.07703480457
0.08999925294
0.1673423032
0.4265581298
1.382302234
1.098541182
5.527343956
0.0009588409585
9.462063907e-10
6.920572022e-09
0.02684005967
0.5222798859
1.034689725
1.354260982
1.551968479
1.806551258
1.661993028
0.7957409055
0.04638963116
0.02202897055
0.04509636621
0.09018866863
0.2365942989
0.04689696051
0.08978765498
0.7626675279
0.2194383193
0.08421095566
0.06460278666
0.05864780716
0.01733371924
0.07232136618
0.102707963
0.08586832996
0.05692929424
0.03922651395
0.03309420863
0.03802653552
0.0895933801
0.1306324616
0.03086127575
0.03123656453
0.04893159023
0.06557461388
0.07879713754
0.0985606249
0.1460225441
0.2659515398
0.4683033471
5.228172248
1.823636215e-06
0.3209857634
0.9362535571
0.8361564486
0.8549152631
1.555436266
2.08572437
2.142379009
1.10417164
0.4490191043
0.09751862301
0.3345364143
0.3527793655
0.2982576916
0.0341015366
0.05862319668
0.6064791075
0.4099121436
0.1490162309
0.07492631717
0.1291704241
0.02666458397
0.07864562621
0.1214444445
0.1085205273
0.0713183446
0.04137875011
0.02707443798
0.03128070903
0.1196276341
0.1136235719
0.01401773676
0.0183479416
0.03712352081
0.05347634416
0.06780896837
0.08837275219
0.1274007881
0.2168563912
0.4009551205
5.253142662
0.7829416825
1.262278902
1.369057563
1.99440361
1.732828136
2.647217878
0.6560094416
2.160426757
0.9735603845
0.6139661613
0.0398273689
0.0834968154
0.3157305178
0.4720509788
0.3331879317
0.1506079453
0.1623878853
0.04315883208
0.09092110074
0.1323624285
0.1280421456
0.09003094116
0.04770999983
0.02295324423
0.02180407794
0.08341516672
0.03408098365
0.007461581559
0.01126098132
0.02165946731
0.03098418128
0.04299481446
0.06932292421
0.1226607172
0.2247476047
0.3838996576
4.956634233
1.383028018
1.110821299
2.785216799
4.232601151
1.954644206
2.392192907
2.019132718
0.995704422
0.4049462579
0.522934143
0.07555786461
0.197147749
0.3364692529
0.2862633686
0.08068271157
0.06655001171
0.1066283007
0.1296274344
0.1369369671
0.1180593825
0.06438836194
0.02510709172
0.008913090057
0.004691730933
0.003983565891
0.005509307897
0.008596423926
0.01385833374
0.02208141478
0.03970440315
0.0782532109
0.1330581503
0.2016096988
0.2588559313
4.123020096
2.389429296
2.540635891
1.042200212
3.235921917
2.074025052
2.373387912
1.700998482
1.147314277
0.5387573846
0.01550704966
0.04747029082
0.226567308
0.3046760299
0.3709739399
0.2645473853
0.1373602064
0.1206278464
0.1349708745
0.1681068801
0.1041004744
0.043781441
0.01268807684
0.004047030977
0.00218733195
0.00420384401
0.01056314129
0.02314738543
0.0471097596
0.09228471251
0.1437544039
0.1527173576
0.1601360199
0.1532787822
3.342108795
2.148342963
0.923303476
0.2931594032
0.7724414475
2.338566139
2.250378318
1.176778977
0.7517667577
0.07650850612
0.004318738395
0.02552344996
0.4895426527
0.5836020648
0.3542933872
0.210402607
0.1083760325
0.09702789482
0.1219532192
0.2426657826
0.1843229546
0.09913789733
0.03862008996
0.01361994231
0.009241716059
0.01593359392
0.04620518173
0.1054927016
0.206592033
0.2672510363
0.2212508055
0.1307846533
0.1081029614
0.10097362
3.009100872
1.339913946
1.246456911
0.9145953757
1.233749303
1.287773666
1.442551
0.7640506262
0.5053870282
0.2631356609
0.4751120954
1.436277928
1.183371949
0.1149292845
0.06323945045
0.06879411092
0.07393149758
0.1002732333
0.2220965165
0.2972567712
0.2291653803
0.09949537751
0.04032985136
0.04781505724
0.0500428032
0.1493522315
0.2798776263
0.3026181642
0.2281544655
0.142709446
0.08024688075
0.07551393126
0.1468445668
3.19516642
0.8350990139
0.776816375
0.7369959691
0.8810274985
0.5647507108
1.019270637
0.9233812841
0.5711838459
0.6902352658
1.553991817
1.919748861
1.985724564
0.06084832784
0.04021752932
0.06603396321
0.06812368006
0.0839079885
0.2190626508
0.5924181492
0.6827875268
0.4777039613
0.3021783607
0.1612231061
0.06685127507
0.05818106888
0.08024126546
0.09249956028
0.08765428719
0.0738860715
0.05683459098
0.07093716913
0.271769248
3.526919354
0.7315628379
1.239987854
0.9620678612
1.251557019
0.7847476613
0.4858979192
1.165121128
0.7305763932
0.9999630012
1.059381472
1.797825828
2.183126577
0.04687278915
0.0282859807
0.07074793769
0.07690924572
0.07116102974
0.2111660919
0.7352934708
0.8796437429
0.5203293231
0.232357031
0.09233063771
0.02776898282
0.03392977102
0.05470657277
0.06884693974
0.07197486639
0.06682137498
0.05745251003
0.08444795646
0.4090896747
3.762032174
0.9409037263
0.6894747585
1.419523694
1.451851563
1.016621868
0.7310324473
0.1420035032
0.1525762089
0.3014501439
1.586206784
2.099163146
0.0533757416
0.01588131874
0.07966898313
0.1704453019
0.1387508118
0.1463387551
0.1568766245
0.1291961218
0.1201039874
0.1633692491
0.07676217335
0.01132477529
0.02876924285
0.05738676467
0.07641171229
0.08099187658
0.07605694887
0.06656839317
0.1049806754
0.4953380469
3.96375978
0.9993347073
0.8471388202
0.7376559941
0.8120225272
0.4730645295
0.2442768343
0.1376028962
0.7355145425
2.323104484
1.123296661
0.0697490847
0.008211981602
0.05632187487
0.2830290413
0.339143926
0.3404003258
0.3141502827
0.2740291765
0.2783501424
0.4273340302
0.1090740781
0.01495743673
0.03072733284
0.06399372999
0.08646117289
0.09329556205
0.08906210801
0.07828865792
0.1286466423
0.5320007111
4.262035714
0.3552165292
0.2334175188
0.3010009225
0.5212356101
0.3469920652
0.6210743556
1.046003106
2.589125287
1.302843717
0.3504322569
0.1009236367
0.004948444746
0.01571089726
0.259869408
0.2185874061
0.1955815728
0.2338757782
0.2802763461
0.3532161877
0.5827199988
0.2210602919
0.0387586571
0.04391410728
0.07160665362
0.09097599416
0.09662253297
0.09312221324
0.0852764939
0.1454319272
0.5003665482
4.622075495
0.3309506111
0.2262629245
0.2156936017
0.3383354418
0.3769326619
0.7317438735
0.7587692352
2.126886632
1.288449998
0.9453132842
0.4439520658
0.04972321282
0.03336314709
0.2715407254
0.2140398058
0.1262806632
0.06753193828
0.03870614859
0.03179205057
0.03843403489
0.05135772148
0.06006244688
0.05959737232
0.06172204292
0.06544217177
0.06441634664
0.05940384104
0.05249723595
0.07588280493
0.4054080624
3.84403688
0.7706944653
1.331579497
2.023836979
1.517403626
1.415233828
0.6811659425
0.1293652777
0.08614723704
0.283940296
0.2315566505
0.151968866
0.09038227679
0.05549908496
0.04144647072
0.03957432382
0.04532492835
0.05723712216
0.06499697034
0.0705382985
0.07370480696
0.07117394608
0.06434436493
0.05286363928
0.0720711085
0.3717888677
3.609471483
1.046447483
1.543909456
1.758498106
1.4089262
1.669100667
1.191321405
0.4601446757
0.3090569626
0.2967744298
0.3011455937
0.2561115455
0.2130780288
0.1612883018
0.1090953572
0.06563426832
0.04711667024
0.05559438665
0.1004902375
0.1218422691
0.1219138715
0.1076777609
0.08549183274
0.05856066255
0.09830496764
0.4839197049
3.93961167
)
;

boundaryField
{
    walls
    {
        type            zeroGradient;
    }
    wallFilmFace_top
    {
        type            zeroGradient;
    }
    region0_to_wallFilmRegion_wallFilmFace
    {
        type            zeroGradient;
    }
    mirrorFace_top
    {
        type            zeroGradient;
    }
    region0_to_wallFilmRegion_mirrorFace
    {
        type            zeroGradient;
    }
    procBoundary0to1
    {
        type            processor;
        value           nonuniform List<scalar> 
52
(
5.30540088
0.211430074
0.3321036458
0.3551727383
0.5187211929
0.768343878
1.026781698
1.026781698
0.2077348475
0.03770630003
0.01897498841
0.01607296686
0.01607296686
0.01064737873
0.01718212671
0.01718212671
0.006951090264
0.004448901713
0.003117400304
0.001976395129
0.001976395129
0.001771391534
2.032719885e-07
2.032719885e-07
0.2211307213
1.26995188
1.586270818
0.8778598073
0.8778598073
0.8867784012
1.575584383
1.575584383
2.472954719
2.472954719
2.695147253
1.480415046
1.480415046
0.635077641
0.4545011442
0.7148568932
0.7148568932
0.68910097
0.68910097
0.7958399455
0.4613653676
0.2856625379
0.5397767657
0.3435788327
0.5366201474
0.6414900824
0.6414900824
1.416738946
)
;
    }
    procBoundary0to2
    {
        type            processor;
        value           nonuniform List<scalar> 
26
(
0.9012063219
1.432786728
1.789732719
1.766667537
2.136574182
0.7968368588
0.31233232
0.1882736763
0.2074965134
0.1709657593
0.1047415369
0.04125813815
0.01739399536
0.01709184267
0.02252793551
0.02976108144
0.06197291867
0.1300161946
0.2711838591
0.3334845061
0.2908233788
0.2182645528
0.1556246713
0.7750691029
0.3363670381
3.967945599
)
;
    }
}


// ************************************************************************* //
