/*--------------------------------*- C++ -*----------------------------------*\
  =========                 |
  \\      /  F ield         | OpenFOAM: The Open Source CFD Toolbox
   \\    /   O peration     | Website:  https://openfoam.org
    \\  /    A nd           | Version:  8
     \\/     M anipulation  |
\*---------------------------------------------------------------------------*/
FoamFile
{
    version     2.0;
    format      ascii;
    class       volScalarField;
    location    "1.8/wallFilmRegion";
    object      mu;
}
// * * * * * * * * * * * * * * * * * * * * * * * * * * * * * * * * * * * * * //

dimensions      [1 -1 -1 0 0 0 0];

internalField   nonuniform List<scalar> 
1369
(
0.0008861473676
0.0008861473677
0.0008861473727
0.000886147377
0.0008861473805
0.0008861473838
0.0008861473869
0.0008861473897
0.0008861473922
0.0008861473944
0.0008861473964
0.0008861473979
0.000886147397
0.0008861473924
0.0008861473969
0.0008861473928
0.0008861473934
0.0008861473949
0.0008861473975
0.0008861474006
0.0008861474028
0.0008861474039
0.0008861474037
0.0008861473951
0.0008861472635
0.0008861469531
0.0008861473909
0.0008861473958
0.0008861473969
0.0008861473988
0.0008861473994
0.0008861473999
0.0008861473987
0.0008861473958
0.0008861473968
0.0008861474015
0.0008861473991
0.0008861473964
0.000886147395
0.0008861473949
0.0008861473951
0.000886147395
0.0008861473944
0.0008861473939
0.0008861473936
0.0008861473935
0.0008861473903
0.00088614739
0.0008861473904
0.0008861473905
0.0008861473908
0.0008861473915
0.0008861473921
0.0008861473925
0.0008861473929
0.0008861473934
0.0008861473943
0.0008861473966
0.0008861474007
0.0008861474037
0.0008861473702
0.000886147368
0.0008861473684
0.000886147369
0.0008861473704
0.0008861473741
0.0008861473803
0.0008861473859
0.000886147388
0.0008861473879
0.000886147386
0.000886147381
0.0008861473738
0.0008861473734
0.0008861473551
0.0008861473468
0.0008861473632
0.0008861473795
0.0008861473894
0.0008861473962
0.0008861474011
0.0008861474031
0.000886147403
0.0008861474012
0.0008861473817
0.0008861472728
0.0008861473939
0.0008861473925
0.0008861473904
0.0008861474027
0.0008861473931
0.000886147389
0.000886147397
0.000886147401
0.0008861474013
0.0008861474066
0.0008861474029
0.0008861473858
0.0008861473889
0.0008861473921
0.0008861473927
0.0008861473917
0.000886147389
0.0008861473847
0.0008861473778
0.0008861473852
0.0008861473861
0.0008861473856
0.0008861473859
0.000886147389
0.0008861473891
0.0008861473921
0.0008861473945
0.0008861473947
0.0008861473966
0.0008861474002
0.0008861474013
0.0008861474013
0.0008861474012
0.0008861473994
0.000886147371
0.0008861473686
0.0008861473676
0.0008861473671
0.000886147367
0.0008861473671
0.0008861473669
0.0008861473686
0.0008861473726
0.0008861473752
0.0008861473749
0.0008861473709
0.0008861473669
0.0008861473772
0.0008861473566
0.0008861473526
0.0008861473582
0.0008861473624
0.0008861473773
0.0008861473876
0.0008861473949
0.0008861473994
0.0008861474014
0.0008861474017
0.0008861474026
0.0008861473686
0.0008861473951
0.0008861473897
0.0008861473909
0.0008861474075
0.0008861473961
0.0008861473975
0.0008861473986
0.0008861473979
0.0008861473973
0.0008861473983
0.0008861473986
0.0008861474003
0.0008861474001
0.0008861473995
0.0008861473984
0.0008861473962
0.0008861473923
0.0008861473876
0.0008861473809
0.0008861473857
0.000886147387
0.0008861473874
0.0008861473883
0.0008861473901
0.0008861473901
0.0008861473926
0.0008861473955
0.000886147399
0.0008861474001
0.0008861474008
0.0008861474002
0.0008861473986
0.0008861473957
0.000886147389
0.0008861473715
0.0008861473691
0.0008861473674
0.0008861473666
0.0008861473661
0.0008861473658
0.0008861473649
0.0008861473643
0.0008861473657
0.0008861473675
0.0008861473669
0.0008861473661
0.000886147371
0.0008861473879
0.0008861473666
0.0008861473636
0.0008861473629
0.000886147321
0.0008861473442
0.0008861473659
0.00088614738
0.0008861473869
0.0008861473854
0.0008861473571
0.0008861473969
0.0008861473959
0.0008861473963
0.0008861473963
0.0008861474076
0.0008861474097
0.0008861474043
0.0008861474017
0.0008861473999
0.0008861473871
0.0008861473526
0.0008861474035
0.0008861473898
0.0008861473261
0.0008861473823
0.0008861473913
0.0008861473932
0.0008861473922
0.0008861473904
0.0008861473878
0.0008861473821
0.0008861473742
0.0008861473813
0.0008861473888
0.0008861473905
0.0008861473925
0.0008861473946
0.0008861473967
0.0008861473994
0.0008861474002
0.0008861474001
0.0008861473994
0.0008861473976
0.0008861473947
0.0008861473899
0.0008861473849
0.0008861473718
0.0008861473677
0.0008861473667
0.0008861473661
0.0008861473657
0.0008861473652
0.0008861473646
0.0008861473637
0.0008861473632
0.0008861473632
0.0008861473643
0.0008861473681
0.0008861473713
0.0008861473884
0.0008861473721
0.0008861473675
0.0008861473658
0.0008861471732
0.0008861472046
0.0008861472819
0.0008861473315
0.0008861473557
0.0008861473482
0.0008861472201
0.0008861473288
0.0008861474029
0.0008861474055
0.0008861474086
0.0008861474092
0.0008861474101
0.0008861474092
0.0008861474077
0.0008861474071
0.0008861474022
0.0008861474009
0.0008861474057
0.0008861473726
0.0008861472513
0.0008861473719
0.0008861473862
0.0008861473895
0.0008861473894
0.0008861473888
0.0008861473875
0.0008861473816
0.0008861473726
0.000886147369
0.000886147388
0.000886147391
0.0008861473921
0.0008861473941
0.0008861473961
0.0008861473989
0.0008861473999
0.0008861473992
0.0008861473976
0.000886147395
0.0008861473908
0.0008861473843
0.000886147383
0.0008861473721
0.0008861473666
0.000886147365
0.0008861473649
0.0008861473648
0.0008861473646
0.0008861473642
0.0008861473635
0.0008861473628
0.0008861473621
0.0008861473615
0.0008861473607
0.0008861473612
0.0008861473701
0.0008861473615
0.0008861473534
0.0008861472019
0.0008861451882
0.0008861459604
0.0008861463503
0.0008861466066
0.0008861467808
0.0008861468911
0.0008861472115
0.0008861473823
0.0008861474056
0.000886147407
0.0008861469942
0.0008861472947
0.000886147402
0.0008861473329
0.0008861474067
0.0008861474112
0.0008861474031
0.0008861473979
0.0008861474009
0.0008861473102
0.0008861471726
0.0008861473586
0.0008861473797
0.0008861473842
0.0008861473848
0.0008861473859
0.0008861473858
0.0008861473789
0.0008861473691
0.0008861473635
0.0008861473679
0.000886147386
0.0008861473904
0.0008861473927
0.000886147396
0.0008861473983
0.0008861473988
0.0008861473975
0.000886147395
0.000886147391
0.0008861473852
0.0008861473811
0.0008861473822
0.0008861473732
0.0008861473661
0.000886147362
0.0008861473631
0.0008861473636
0.0008861473638
0.0008861473637
0.0008861473632
0.0008861473625
0.0008861473618
0.0008861473611
0.0008861473603
0.0008861473627
0.0008861473678
0.0008861473618
0.0008861473477
0.0008861473138
0.0008861463841
0.0008861465248
0.0008861469488
0.0008861471034
0.0008861471592
0.0008861472088
0.0008861473435
0.0008861474174
0.0008861474101
0.0008861474104
0.0008861464552
0.0008861472852
0.0008861474046
0.0008861472938
0.0008861474087
0.0008861474146
0.0008861473963
0.000886147369
0.0008861473598
0.000886147189
0.0008861470564
0.0008861473309
0.0008861473685
0.0008861473756
0.0008861473777
0.0008861473815
0.0008861473826
0.0008861473738
0.0008861473664
0.0008861473635
0.0008861473632
0.0008861473688
0.0008861473848
0.0008861473886
0.0008861473938
0.000886147397
0.0008861473977
0.0008861473962
0.000886147393
0.0008861473886
0.0008861473829
0.0008861473798
0.0008861473821
0.000886147374
0.0008861473655
0.0008861473594
0.000886147361
0.0008861473623
0.0008861473628
0.0008861473629
0.0008861473626
0.0008861473621
0.0008861473614
0.0008861473608
0.0008861473602
0.0008861473621
0.0008861473683
0.0008861473643
0.0008861473635
0.0008861473534
0.0008861472161
0.0008861468048
0.0008861470688
0.0008861472057
0.0008861472638
0.000886147299
0.000886147383
0.0008861474323
0.0008861474162
0.0008861474124
0.0008861457165
0.000886147208
0.0008861473983
0.000886147344
0.0008861474235
0.0008861474258
0.0008861474139
0.0008861473752
0.0008861472241
0.0008861470734
0.0008861468701
0.0008861472637
0.0008861473526
0.0008861473641
0.0008861473685
0.0008861473752
0.0008861473765
0.0008861473702
0.0008861473684
0.000886147367
0.0008861473645
0.0008861473614
0.0008861473629
0.0008861473808
0.0008861473867
0.000886147395
0.0008861473966
0.0008861473953
0.0008861473914
0.0008861473862
0.0008861473811
0.0008861473789
0.0008861473822
0.0008861473747
0.0008861473641
0.0008861473578
0.0008861473589
0.0008861473611
0.0008861473619
0.0008861473621
0.0008861473619
0.0008861473614
0.0008861473608
0.0008861473601
0.0008861473592
0.0008861473622
0.0008861473781
0.0008861473781
0.0008861473773
0.0008861473711
0.0008861473379
0.0008861469555
0.0008861470827
0.0008861472287
0.0008861472915
0.000886147321
0.0008861473848
0.0008861474369
0.0008861474232
0.0008861474082
0.0008861469238
0.0008861472704
0.0008861473807
0.0008861474408
0.0008861474424
0.0008861474387
0.0008861474311
0.0008861474013
0.0008861472048
0.0008861470014
0.0008861467179
0.0008861470618
0.0008861473432
0.0008861473515
0.0008861473568
0.0008861473638
0.0008861473665
0.0008861473685
0.0008861473711
0.0008861473711
0.0008861473677
0.0008861473611
0.0008861473529
0.0008861473588
0.0008861473745
0.0008861473911
0.0008861473954
0.0008861473949
0.0008861473918
0.0008861473861
0.0008861473798
0.000886147378
0.0008861473824
0.0008861473757
0.0008861473638
0.0008861473581
0.0008861473575
0.0008861473596
0.0008861473608
0.000886147361
0.0008861473608
0.0008861473602
0.0008861473593
0.0008861473587
0.0008861473653
0.0008861473768
0.0008861473954
0.0008861473855
0.0008861473839
0.0008861473817
0.0008861473407
0.0008861473339
0.0008861473757
0.0008861472347
0.0008861472785
0.00088614729
0.0008861473053
0.0008861474193
0.0008861474305
0.0008861473779
0.0008861473704
0.0008861473256
0.0008861473258
0.0008861474454
0.0008861474477
0.0008861474453
0.00088614744
0.0008861474209
0.0008861472674
0.0008861470781
0.0008861468501
0.0008861466103
0.0008861473449
0.0008861473245
0.0008861473337
0.0008861473374
0.0008861473547
0.0008861473652
0.0008861473717
0.0008861473738
0.0008861473715
0.0008861473642
0.0008861473514
0.0008861473443
0.000886147364
0.0008861473837
0.0008861473922
0.0008861473938
0.000886147392
0.0008861473852
0.000886147379
0.0008861473768
0.0008861473826
0.0008861473782
0.0008861473693
0.0008861473657
0.0008861473624
0.0008861473611
0.0008861473608
0.0008861473607
0.0008861473607
0.000886147361
0.0008861473631
0.0008861473664
0.0008861473626
0.0008861473758
0.000886147389
0.00088614734
0.0008861473433
0.0008861474388
0.0008861475615
0.0008861475865
0.00088614759
0.0008861474763
0.0008861472913
0.0008861473481
0.0008861473968
0.0008861474177
0.0008861474345
0.0008861473823
0.0008861474593
0.0008861473839
0.0008861473812
0.0008861474459
0.0008861474474
0.0008861474422
0.0008861474344
0.0008861474205
0.0008861473617
0.0008861472047
0.000886147061
0.0008861471609
0.0008861473357
0.0008861472102
0.0008861472531
0.0008861473068
0.0008861473403
0.0008861473583
0.0008861473698
0.0008861473751
0.0008861473751
0.0008861473701
0.0008861473588
0.0008861473458
0.0008861473605
0.0008861473684
0.0008861473838
0.0008861473894
0.0008861473905
0.0008861473867
0.0008861473813
0.0008861473757
0.0008861473825
0.0008861473833
0.0008861473804
0.000886147374
0.0008861473689
0.0008861473658
0.0008861473644
0.000886147364
0.0008861473647
0.0008861473634
0.0008861473642
0.0008861473578
0.0008861473624
0.0008861473782
0.0008861473878
0.0008861473126
0.0008861473753
0.0008861474498
0.0008861475602
0.0008861475876
0.0008861475904
0.000886147512
0.0008861473641
0.0008861473987
0.0008861474199
0.0008861474289
0.0008861474328
0.0008861474323
0.0008861474729
0.0008861474267
0.0008861473294
0.0008861474344
0.0008861474433
0.0008861474378
0.0008861474336
0.0008861474327
0.0008861474201
0.0008861472845
0.0008861471526
0.000886147289
0.0008861472629
0.0008861466266
0.000886144043
0.0008861472827
0.0008861473258
0.0008861473493
0.0008861473656
0.0008861473752
0.0008861473779
0.000886147376
0.00088614737
0.0008861473612
0.0008861473668
0.0008861473735
0.0008861473693
0.0008861473827
0.000886147387
0.0008861473857
0.0008861473818
0.0008861473771
0.0008861473821
0.0008861473766
0.0008861473511
0.0008861473253
0.0008861473164
0.0008861473474
0.0008861473735
0.000886147384
0.0008861472843
0.0008861474081
0.0008861474535
0.000886147521
0.0008861475861
0.0008861475893
0.0008861474534
0.0008861473731
0.0008861474084
0.0008861474335
0.0008861474372
0.0008861474365
0.0008861474428
0.0008861474765
0.0008861474579
0.0008861473746
0.0008861473724
0.0008861474284
0.0008861474317
0.0008861474305
0.0008861474373
0.0008861474373
0.0008861474172
0.0008861473891
0.0008861473657
0.0008861472546
0.0008861469167
0.000886145714
0.0008861473273
0.0008861473363
0.0008861473479
0.0008861473617
0.0008861473731
0.0008861473786
0.000886147379
0.0008861473764
0.0008861473719
0.0008861473734
0.0008861473799
0.0008861473823
0.0008861473766
0.0008861473825
0.0008861473832
0.0008861473799
0.0008861473762
0.0008861473818
0.0008861472987
0.0008861473542
0.0008861473739
0.0008861471362
0.0008861473824
0.0008861474625
0.0008861457736
0.0008860970852
0.0008860981225
0.000886116902
0.0008861473819
0.0008861474323
0.0008861474382
0.0008861474393
0.000886147439
0.0008861474437
0.0008861474762
0.0008861474622
0.0008861474386
0.0008861473965
0.0008861472453
0.0008861473908
0.0008861474261
0.0008861474385
0.000886147443
0.0008861474339
0.0008861474286
0.0008861473987
0.0008861473207
0.0008861471552
0.0008861473506
0.0008861473715
0.0008861473656
0.0008861473594
0.0008861473622
0.0008861473692
0.0008861473752
0.0008861473779
0.0008861473779
0.0008861473748
0.0008861473775
0.000886147385
0.0008861473904
0.000886147388
0.0008861473802
0.0008861473805
0.0008861473783
0.0008861473755
0.000886147382
0.0008861473345
0.0008861470107
0.0008861468531
0.00088614659
0.0008861462999
0.0008860961564
0.000886097489
0.0008861234054
0.000886147387
0.0008861474376
0.0008861474441
0.000886147442
0.000886147439
0.000886147431
0.0008861474298
0.0008861472732
0.0008861473159
0.0008861473157
0.0008861473216
0.0008861474103
0.0008861474156
0.0008861474395
0.000886147451
0.0008861474183
0.000886147416
0.0008861474109
0.0008861473802
0.000886147279
0.000886147393
0.0008861473973
0.0008861473903
0.0008861473767
0.0008861473674
0.0008861473663
0.0008861473683
0.0008861473735
0.0008861473778
0.0008861473736
0.0008861473818
0.000886147391
0.0008861473952
0.000886147396
0.0008861473926
0.0008861473832
0.0008861473771
0.0008861473751
0.0008861473838
0.0008861467256
0.0008860953566
0.000886096783
0.0008861472428
0.0008861473916
0.00088614744
0.000886147451
0.0008861474462
0.0008861474427
0.0008861474388
0.0008861474253
0.0008861473463
0.0008861473053
0.0008861473176
0.0008861473831
0.0008861474039
0.0008861474006
0.0008861474387
0.0008861474598
0.0008861474241
0.0008861473816
0.0008861473824
0.0008861473967
0.000886147341
0.0008861474115
0.0008861474109
0.0008861474043
0.0008861473913
0.0008861473749
0.0008861473647
0.0008861473626
0.0008861473738
0.0008861473823
0.0008861473714
0.0008861473866
0.0008861473948
0.0008861473978
0.0008861473982
0.0008861473965
0.0008861473925
0.0008861473868
0.0008861473823
0.0008861473852
0.0008861016731
0.0008861474111
0.0008861474346
0.0008861474521
0.0008861474543
0.0008861474592
0.0008861474481
0.0008861474462
0.0008861474264
0.0008861473923
0.0008861473496
0.0008861473827
0.000886147402
0.000886147416
0.0008861473892
0.0008861474325
0.0008861474628
0.0008861474517
0.0008861474272
0.0008861474155
0.0008861474297
0.0008861473865
0.0008861474175
0.0008861474153
0.0008861474102
0.0008861474005
0.0008861473834
0.0008861473637
0.0008861473546
0.000886147376
0.0008861473859
0.0008861473619
0.0008861473866
0.0008861473952
0.0008861473982
0.0008861473986
0.0008861473967
0.0008861473929
0.000886147388
0.0008861473841
0.0008861473856
0.0008861474585
0.0008861474582
0.0008861474571
0.0008861474569
0.0008861474328
0.0008861474184
0.0008861473889
0.0008861474142
0.0008861474136
0.0008861474403
0.00088614738
0.0008861474134
0.0008861474611
0.000886147463
0.0008861474563
0.0008861474385
0.0008861474384
0.0008861474199
0.0008861474224
0.0008861474172
0.0008861474125
0.0008861474058
0.0008861473923
0.0008861473673
0.0008861473423
0.0008861473752
0.0008861473728
0.000886147317
0.0008861473722
0.0008861473896
0.0008861473951
0.0008861473962
0.0008861473933
0.0008861473882
0.0008861473835
0.0008861473807
0.0008861473849
0.0008861474902
0.0008861474633
0.0008861474414
0.0008861474435
0.0008861474106
0.0008861474515
0.0008861474526
0.0008861474513
0.0008861474383
0.000886147438
0.0008861474521
0.0008861474679
0.0008861474728
0.0008861474634
0.0008861474393
0.0008861474434
0.000886147427
0.0008861474176
0.0008861474127
0.0008861474087
0.0008861473991
0.0008861473779
0.0008861473319
0.00088614726
0.0008861472016
0.0008861472033
0.0008861472875
0.0008861473468
0.0008861473716
0.000886147378
0.0008861473761
0.0008861473722
0.0008861473683
0.0008861473671
0.0008861473827
0.0008861474601
0.0008861474638
0.0008861474618
0.0008861474377
0.0008861474572
0.0008861474681
0.0008861474593
0.000886147472
0.0008861474609
0.0008861474177
0.0008861474571
0.0008861474858
0.0008861474813
0.0008861474688
0.000886147454
0.0008861474297
0.0008861474159
0.0008861474113
0.0008861474106
0.0008861474035
0.0008861473873
0.0008861473417
0.0008861472163
0.0008861470087
0.0008861471008
0.0008861472894
0.0008861473571
0.0008861473766
0.0008861473776
0.000886147372
0.0008861473641
0.0008861473515
0.0008861473453
0.0008861473802
0.0008861474731
0.0008861475132
0.0008861474676
0.0008861474672
0.0008861474785
0.0008861474764
0.0008861474632
0.0008861474701
0.0008861474504
0.0008861473339
0.0008861474559
0.0008861474984
0.0008861474823
0.0008861474484
0.0008861474314
0.0008861474154
0.0008861474088
0.0008861474081
0.0008861474117
0.0008861474058
0.0008861473941
0.0008861473661
0.0008861473016
0.0008861472158
0.0008861472432
0.0008861473309
0.0008861473654
0.0008861473731
0.0008861473689
0.0008861473591
0.0008861473447
0.0008861473119
0.0008861473144
0.0008861473793
0.000886147546
0.0008861475003
0.0008861474699
0.0008861474719
0.0008861474881
0.0008861474797
0.0008861474742
0.0008861474712
0.0008861474663
0.0008861474939
0.0008861475012
0.0008861474749
0.0008861473971
0.0008861473957
0.0008861473986
0.0008861474012
0.0008861474046
0.0008861474085
0.0008861474029
0.0008861473966
0.0008861473831
0.0008861473402
0.0008861473076
0.0008861473075
0.0008861473568
0.0008861473688
0.0008861473698
0.0008861473661
0.0008861473576
0.0008861473419
0.0008861472884
0.0008861473207
0.0008861473798
0.0008861475211
0.000886147466
0.0008861474734
0.0008861474833
0.000886147527
0.0008861474853
0.0008861474691
0.0008861474685
0.0008861474626
0.0008861474816
0.0008861474921
0.0008861474764
0.0008861473945
0.0008861473926
0.0008861473981
0.0008861473997
0.0008861474026
0.0008861474043
0.0008861474002
0.000886147396
0.0008861473868
0.0008861473694
0.0008861473561
0.0008861473431
0.0008861473707
0.0008861473867
0.0008861473902
0.000886147388
0.0008861473813
0.000886147369
0.0008861473247
0.0008861473371
0.0008861473796
0.0008861474889
0.0008861474632
0.0008861474699
0.0008861475069
0.000886147554
0.0008861474891
0.0008861474813
0.0008861474841
0.0008861474674
0.0008861474765
0.0008861474771
0.0008861474706
0.0008861473932
0.0008861473881
0.0008861473983
0.0008861473995
0.0008861474003
0.0008861474018
0.0008861473981
0.0008861473949
0.0008861473919
0.0008861473882
0.0008861473806
0.0008861473589
0.000886147385
0.0008861473952
0.0008861473973
0.0008861473959
0.0008861473917
0.000886147384
0.0008861473557
0.0008861473483
0.0008861473791
0.0008861474628
0.0008861474674
0.000886147494
0.0008861475047
0.000886147505
0.0008861474827
0.0008861474581
0.0008861474611
0.0008861474655
0.0008861474784
0.0008861474733
0.0008861473991
0.0008861473782
0.0008861473994
0.0008861474027
0.0008861474022
0.0008861474004
0.0008861473972
0.0008861473943
0.0008861473924
0.0008861473928
0.0008861473883
0.0008861473535
0.0008861473932
0.0008861473995
0.0008861474007
0.0008861473999
0.0008861473974
0.0008861473929
0.0008861473761
0.0008861473558
0.0008861473782
0.0008861474945
0.0008861475041
0.0008861475091
0.0008861475208
0.0008861475019
0.0008861474677
0.0008861474533
0.0008861474692
0.0008861474744
0.000886147457
0.0008861474091
0.0008861473609
0.0008861473986
0.0008861474049
0.0008861474043
0.000886147403
0.0008861474011
0.0008861473992
0.0008861473974
0.0008861473967
0.0008861473941
0.0008861473716
0.0008861473975
0.0008861474019
0.0008861474029
0.0008861474025
0.000886147401
0.0008861473984
0.0008861473891
0.0008861473626
0.0008861473767
0.0008861475045
0.0008861474938
0.0008861475076
0.0008861475163
0.0008861475028
0.0008861474857
0.0008861474702
0.0008861474692
0.0008861474461
0.0008861474293
0.0008861474266
0.0008861473292
0.0008861473804
0.0008861474067
0.0008861474043
0.0008861474024
0.0008861474021
0.000886147401
0.0008861473989
0.0008861473974
0.000886147394
0.0008861473738
0.000886147396
0.0008861474027
0.0008861474041
0.0008861474041
0.0008861474033
0.0008861474018
0.0008861473968
0.0008861473696
0.0008861473748
0.0008861474933
0.0008861475001
0.000886147516
0.0008861475181
0.000886147516
0.000886147506
0.0008861474846
0.0008861475046
0.0008861474581
0.0008861474421
0.0008861474408
0.0008861474156
0.0008861474036
0.0008861474083
0.0008861474052
0.0008861473968
0.0008861473777
0.0008861473491
0.0008861473311
0.0008861473377
0.0008861473506
0.0008861473596
0.0008861473785
0.0008861473928
0.0008861473984
0.0008861473989
0.0008861473963
0.0008861473904
0.0008861473605
0.0008861473563
0.0008861473754
0.0008861475081
0.000886147503
0.0008861474983
0.0008861474513
0.0008861474481
0.0008861474517
0.0008861474277
0.0008861474116
0.0008861474092
0.0008861474072
0.0008861474027
0.0008861473935
0.0008861473771
0.000886147357
0.0008861473468
0.0008861473516
0.0008861473601
0.0008861473767
0.0008861473907
0.0008861473966
0.0008861473968
0.0008861473925
0.0008861473829
0.0008861473416
0.0008861473598
0.0008861473756
0.000886147523
0.0008861475221
0.0008861475067
0.0008861474597
0.0008861474589
0.0008861474475
0.0008861474155
0.0008861474113
0.0008861474098
0.0008861474094
0.0008861474087
0.0008861474068
0.0008861474018
0.0008861473904
0.000886147371
0.0008861473588
0.0008861473645
0.0008861473806
0.0008861473912
0.0008861473958
0.0008861473952
0.0008861473896
0.0008861473777
0.0008861473392
0.0008861473632
0.0008861473763
)
;

boundaryField
{
    walls
    {
        type            zeroGradient;
    }
    wallFilmFace_top
    {
        type            zeroGradient;
    }
    region0_to_wallFilmRegion_wallFilmFace
    {
        type            zeroGradient;
    }
    mirrorFace_top
    {
        type            zeroGradient;
    }
    region0_to_wallFilmRegion_mirrorFace
    {
        type            zeroGradient;
    }
    procBoundary0to1
    {
        type            processor;
        value           nonuniform List<scalar> 
52
(
0.000886147384
0.0008861473878
0.0008861473883
0.000886147388
0.0008861473865
0.0008861473841
0.0008861473814
0.0008861473814
0.0008861473749
0.0008861473369
0.0008861473041
0.0008861472609
0.0008861472609
0.0008861471974
0.0008861472325
0.0008861472325
0.0008861471046
0.0008861470356
0.0008861469271
0.0008861467774
0.0008861467774
0.0008861470438
0.0008860941017
0.0008860941017
0.0008861474162
0.000886147433
0.0008861474533
0.0008861474647
0.0008861474647
0.0008861474609
0.0008861474672
0.0008861474672
0.0008861474704
0.0008861474704
0.000886147467
0.000886147497
0.000886147497
0.0008861474824
0.0008861474742
0.0008861474654
0.0008861474654
0.0008861474838
0.0008861474838
0.0008861474992
0.0008861475063
0.000886147504
0.0008861474837
0.0008861475162
0.000886147526
0.0008861475298
0.0008861475298
0.0008861475442
)
;
    }
    procBoundary0to2
    {
        type            processor;
        value           nonuniform List<scalar> 
26
(
0.000886147504
0.0008861475153
0.0008861475059
0.0008861474876
0.0008861474701
0.0008861474443
0.000886147417
0.000886147409
0.0008861474089
0.0008861474078
0.0008861474024
0.0008861473754
0.0008861473142
0.0008861473117
0.0008861473386
0.0008861473559
0.0008861473778
0.0008861473805
0.0008861473906
0.0008861473974
0.0008861474013
0.000886147403
0.0008861474025
0.0008861473901
0.0008861473712
0.000886147377
)
;
    }
}


// ************************************************************************* //
