/*--------------------------------*- C++ -*----------------------------------*\
  =========                 |
  \\      /  F ield         | OpenFOAM: The Open Source CFD Toolbox
   \\    /   O peration     | Website:  https://openfoam.org
    \\  /    A nd           | Version:  8
     \\/     M anipulation  |
\*---------------------------------------------------------------------------*/
FoamFile
{
    version     2.0;
    format      ascii;
    class       volScalarField;
    location    "1.8/wallFilmRegion";
    object      sigma;
}
// * * * * * * * * * * * * * * * * * * * * * * * * * * * * * * * * * * * * * //

dimensions      [1 0 -2 0 0 0 0];

internalField   nonuniform List<scalar> 
1369
(
0.07244713438
0.07244713438
0.07244713443
0.07244713448
0.07244713451
0.07244713455
0.07244713458
0.07244713461
0.07244713464
0.07244713466
0.07244713468
0.07244713469
0.07244713468
0.07244713464
0.07244713468
0.07244713464
0.07244713465
0.07244713466
0.07244713469
0.07244713472
0.07244713475
0.07244713476
0.07244713475
0.07244713467
0.0724471333
0.07244713008
0.07244713462
0.07244713467
0.07244713468
0.0724471347
0.07244713471
0.07244713471
0.0724471347
0.07244713467
0.07244713468
0.07244713473
0.07244713471
0.07244713468
0.07244713466
0.07244713466
0.07244713467
0.07244713466
0.07244713466
0.07244713465
0.07244713465
0.07244713465
0.07244713462
0.07244713461
0.07244713462
0.07244713462
0.07244713462
0.07244713463
0.07244713463
0.07244713464
0.07244713464
0.07244713465
0.07244713466
0.07244713468
0.07244713472
0.07244713475
0.07244713441
0.07244713438
0.07244713439
0.07244713439
0.07244713441
0.07244713445
0.07244713451
0.07244713457
0.07244713459
0.07244713459
0.07244713457
0.07244713452
0.07244713444
0.07244713444
0.07244713425
0.07244713416
0.07244713433
0.0724471345
0.07244713461
0.07244713468
0.07244713473
0.07244713475
0.07244713475
0.07244713473
0.07244713453
0.07244713339
0.07244713465
0.07244713464
0.07244713462
0.07244713474
0.07244713464
0.0724471346
0.07244713468
0.07244713473
0.07244713473
0.07244713478
0.07244713475
0.07244713457
0.0724471346
0.07244713463
0.07244713464
0.07244713463
0.0724471346
0.07244713456
0.07244713449
0.07244713456
0.07244713457
0.07244713457
0.07244713457
0.0724471346
0.0724471346
0.07244713463
0.07244713466
0.07244713466
0.07244713468
0.07244713472
0.07244713473
0.07244713473
0.07244713473
0.07244713471
0.07244713441
0.07244713439
0.07244713438
0.07244713437
0.07244713437
0.07244713438
0.07244713437
0.07244713439
0.07244713443
0.07244713446
0.07244713446
0.07244713441
0.07244713437
0.07244713448
0.07244713427
0.07244713422
0.07244713428
0.07244713433
0.07244713448
0.07244713459
0.07244713466
0.07244713471
0.07244713473
0.07244713473
0.07244713474
0.07244713439
0.07244713467
0.07244713461
0.07244713462
0.07244713479
0.07244713468
0.07244713469
0.0724471347
0.07244713469
0.07244713469
0.0724471347
0.0724471347
0.07244713472
0.07244713472
0.07244713471
0.0724471347
0.07244713468
0.07244713464
0.07244713459
0.07244713452
0.07244713457
0.07244713458
0.07244713459
0.0724471346
0.07244713461
0.07244713461
0.07244713464
0.07244713467
0.07244713471
0.07244713472
0.07244713472
0.07244713472
0.0724471347
0.07244713467
0.0724471346
0.07244713442
0.0724471344
0.07244713438
0.07244713437
0.07244713436
0.07244713436
0.07244713435
0.07244713435
0.07244713436
0.07244713438
0.07244713437
0.07244713436
0.07244713441
0.07244713459
0.07244713437
0.07244713434
0.07244713433
0.0724471339
0.07244713414
0.07244713436
0.07244713451
0.07244713458
0.07244713456
0.07244713427
0.07244713468
0.07244713467
0.07244713468
0.07244713468
0.0724471348
0.07244713482
0.07244713476
0.07244713473
0.07244713472
0.07244713458
0.07244713422
0.07244713475
0.07244713461
0.07244713395
0.07244713453
0.07244713463
0.07244713465
0.07244713464
0.07244713462
0.07244713459
0.07244713453
0.07244713445
0.07244713452
0.0724471346
0.07244713462
0.07244713464
0.07244713466
0.07244713468
0.07244713471
0.07244713472
0.07244713472
0.07244713471
0.07244713469
0.07244713466
0.07244713461
0.07244713456
0.07244713442
0.07244713438
0.07244713437
0.07244713436
0.07244713436
0.07244713436
0.07244713435
0.07244713434
0.07244713433
0.07244713433
0.07244713435
0.07244713438
0.07244713442
0.0724471346
0.07244713443
0.07244713438
0.07244713436
0.07244713236
0.07244713269
0.07244713349
0.072447134
0.07244713426
0.07244713418
0.07244713285
0.07244713398
0.07244713475
0.07244713477
0.07244713481
0.07244713481
0.07244713482
0.07244713481
0.0724471348
0.07244713479
0.07244713474
0.07244713473
0.07244713478
0.07244713443
0.07244713317
0.07244713442
0.07244713457
0.07244713461
0.07244713461
0.0724471346
0.07244713459
0.07244713452
0.07244713443
0.07244713439
0.07244713459
0.07244713462
0.07244713463
0.07244713466
0.07244713468
0.0724471347
0.07244713471
0.07244713471
0.07244713469
0.07244713466
0.07244713462
0.07244713455
0.07244713454
0.07244713443
0.07244713437
0.07244713435
0.07244713435
0.07244713435
0.07244713435
0.07244713434
0.07244713434
0.07244713433
0.07244713432
0.07244713432
0.07244713431
0.07244713431
0.07244713441
0.07244713432
0.07244713423
0.07244713266
0.07244711175
0.07244711977
0.07244712382
0.07244712648
0.07244712829
0.07244712943
0.07244713276
0.07244713453
0.07244713477
0.07244713479
0.0724471305
0.07244713362
0.07244713474
0.07244713402
0.07244713479
0.07244713483
0.07244713475
0.07244713469
0.07244713473
0.07244713378
0.07244713236
0.07244713429
0.07244713451
0.07244713455
0.07244713456
0.07244713457
0.07244713457
0.0724471345
0.0724471344
0.07244713434
0.07244713438
0.07244713457
0.07244713462
0.07244713464
0.07244713467
0.0724471347
0.0724471347
0.07244713469
0.07244713466
0.07244713462
0.07244713456
0.07244713452
0.07244713453
0.07244713444
0.07244713436
0.07244713432
0.07244713433
0.07244713434
0.07244713434
0.07244713434
0.07244713433
0.07244713433
0.07244713432
0.07244713431
0.0724471343
0.07244713433
0.07244713438
0.07244713432
0.07244713417
0.07244713382
0.07244712417
0.07244712563
0.07244713003
0.07244713164
0.07244713222
0.07244713273
0.07244713413
0.0724471349
0.07244713482
0.07244713482
0.07244712491
0.07244713352
0.07244713476
0.07244713361
0.07244713481
0.07244713487
0.07244713468
0.07244713439
0.0724471343
0.07244713253
0.07244713115
0.072447134
0.07244713439
0.07244713446
0.07244713448
0.07244713452
0.07244713454
0.07244713444
0.07244713437
0.07244713434
0.07244713433
0.07244713439
0.07244713456
0.0724471346
0.07244713465
0.07244713468
0.07244713469
0.07244713468
0.07244713464
0.0724471346
0.07244713454
0.07244713451
0.07244713453
0.07244713445
0.07244713436
0.07244713429
0.07244713431
0.07244713432
0.07244713433
0.07244713433
0.07244713433
0.07244713432
0.07244713432
0.07244713431
0.0724471343
0.07244713432
0.07244713439
0.07244713434
0.07244713434
0.07244713423
0.07244713281
0.07244712854
0.07244713128
0.0724471327
0.0724471333
0.07244713367
0.07244713454
0.07244713505
0.07244713488
0.07244713485
0.07244711724
0.07244713272
0.0724471347
0.07244713413
0.07244713496
0.07244713498
0.07244713486
0.07244713446
0.07244713289
0.07244713132
0.07244712921
0.0724471333
0.07244713422
0.07244713434
0.07244713439
0.07244713446
0.07244713447
0.07244713441
0.07244713439
0.07244713437
0.07244713435
0.07244713431
0.07244713433
0.07244713452
0.07244713458
0.07244713466
0.07244713468
0.07244713467
0.07244713463
0.07244713457
0.07244713452
0.0724471345
0.07244713453
0.07244713445
0.07244713434
0.07244713428
0.07244713429
0.07244713431
0.07244713432
0.07244713432
0.07244713432
0.07244713432
0.07244713431
0.0724471343
0.07244713429
0.07244713432
0.07244713449
0.07244713449
0.07244713448
0.07244713442
0.07244713407
0.0724471301
0.07244713142
0.07244713294
0.07244713359
0.0724471339
0.07244713456
0.0724471351
0.07244713496
0.0724471348
0.07244712977
0.07244713337
0.07244713452
0.07244713514
0.07244713516
0.07244713512
0.07244713504
0.07244713473
0.07244713269
0.07244713058
0.07244712763
0.0724471312
0.07244713413
0.07244713421
0.07244713427
0.07244713434
0.07244713437
0.07244713439
0.07244713442
0.07244713442
0.07244713438
0.07244713431
0.07244713423
0.07244713429
0.07244713445
0.07244713462
0.07244713467
0.07244713466
0.07244713463
0.07244713457
0.07244713451
0.07244713449
0.07244713453
0.07244713446
0.07244713434
0.07244713428
0.07244713427
0.0724471343
0.07244713431
0.07244713431
0.07244713431
0.0724471343
0.07244713429
0.07244713429
0.07244713436
0.07244713448
0.07244713467
0.07244713457
0.07244713455
0.07244713453
0.0724471341
0.07244713403
0.07244713446
0.072447133
0.07244713345
0.07244713357
0.07244713373
0.07244713492
0.07244713503
0.07244713449
0.07244713441
0.07244713394
0.07244713395
0.07244713519
0.07244713521
0.07244713519
0.07244713513
0.07244713493
0.07244713334
0.07244713137
0.07244712901
0.07244712652
0.07244713414
0.07244713393
0.07244713403
0.07244713407
0.07244713425
0.07244713435
0.07244713442
0.07244713444
0.07244713442
0.07244713434
0.07244713421
0.07244713414
0.07244713434
0.07244713455
0.07244713463
0.07244713465
0.07244713463
0.07244713456
0.0724471345
0.07244713448
0.07244713454
0.07244713449
0.0724471344
0.07244713436
0.07244713433
0.07244713431
0.07244713431
0.07244713431
0.07244713431
0.07244713431
0.07244713433
0.07244713437
0.07244713433
0.07244713447
0.0724471346
0.07244713409
0.07244713413
0.07244713512
0.07244713639
0.07244713665
0.07244713669
0.07244713551
0.07244713359
0.07244713418
0.07244713468
0.0724471349
0.07244713507
0.07244713453
0.07244713533
0.07244713455
0.07244713452
0.07244713519
0.07244713521
0.07244713515
0.07244713507
0.07244713493
0.07244713432
0.07244713269
0.0724471312
0.07244713223
0.07244713405
0.07244713275
0.07244713319
0.07244713375
0.0724471341
0.07244713428
0.0724471344
0.07244713446
0.07244713446
0.07244713441
0.07244713429
0.07244713415
0.07244713431
0.07244713439
0.07244713455
0.07244713461
0.07244713462
0.07244713458
0.07244713452
0.07244713446
0.07244713453
0.07244713454
0.07244713451
0.07244713445
0.07244713439
0.07244713436
0.07244713435
0.07244713434
0.07244713435
0.07244713434
0.07244713434
0.07244713428
0.07244713433
0.07244713449
0.07244713459
0.07244713381
0.07244713446
0.07244713523
0.07244713638
0.07244713666
0.07244713669
0.07244713588
0.07244713434
0.0724471347
0.07244713492
0.07244713502
0.07244713506
0.07244713505
0.07244713547
0.07244713499
0.07244713398
0.07244713507
0.07244713517
0.07244713511
0.07244713506
0.07244713506
0.07244713493
0.07244713352
0.07244713215
0.07244713356
0.07244713329
0.07244712669
0.07244709986
0.0724471335
0.07244713395
0.07244713419
0.07244713436
0.07244713446
0.07244713449
0.07244713447
0.0724471344
0.07244713431
0.07244713437
0.07244713444
0.0724471344
0.07244713454
0.07244713458
0.07244713457
0.07244713453
0.07244713448
0.07244713453
0.07244713447
0.07244713421
0.07244713394
0.07244713385
0.07244713417
0.07244713444
0.07244713455
0.07244713351
0.0724471348
0.07244713527
0.07244713597
0.07244713665
0.07244713668
0.07244713527
0.07244713444
0.0724471348
0.07244713506
0.0724471351
0.0724471351
0.07244713516
0.07244713551
0.07244713532
0.07244713445
0.07244713443
0.07244713501
0.07244713505
0.07244713503
0.0724471351
0.0724471351
0.0724471349
0.0724471346
0.07244713436
0.07244713321
0.0724471297
0.07244711721
0.07244713396
0.07244713405
0.07244713418
0.07244713432
0.07244713444
0.07244713449
0.0724471345
0.07244713447
0.07244713442
0.07244713444
0.07244713451
0.07244713453
0.07244713447
0.07244713453
0.07244713454
0.07244713451
0.07244713447
0.07244713453
0.07244713366
0.07244713424
0.07244713444
0.07244713198
0.07244713453
0.07244713537
0.07244711783
0.07244661225
0.07244662302
0.07244681803
0.07244713453
0.07244713505
0.07244713511
0.07244713512
0.07244713512
0.07244713517
0.07244713551
0.07244713536
0.07244713512
0.07244713468
0.07244713311
0.07244713462
0.07244713499
0.07244713512
0.07244713516
0.07244713507
0.07244713501
0.0724471347
0.07244713389
0.07244713217
0.0724471342
0.07244713442
0.07244713436
0.07244713429
0.07244713432
0.0724471344
0.07244713446
0.07244713449
0.07244713449
0.07244713445
0.07244713448
0.07244713456
0.07244713462
0.07244713459
0.07244713451
0.07244713451
0.07244713449
0.07244713446
0.07244713453
0.07244713404
0.07244713067
0.07244712904
0.07244712631
0.07244712329
0.0724466026
0.07244661644
0.07244688556
0.07244713458
0.07244713511
0.07244713517
0.07244713515
0.07244713512
0.07244713504
0.07244713503
0.0724471334
0.07244713384
0.07244713384
0.0724471339
0.07244713482
0.07244713488
0.07244713513
0.07244713525
0.07244713491
0.07244713488
0.07244713483
0.07244713451
0.07244713346
0.07244713464
0.07244713469
0.07244713461
0.07244713447
0.07244713438
0.07244713437
0.07244713439
0.07244713444
0.07244713449
0.07244713444
0.07244713453
0.07244713462
0.07244713467
0.07244713467
0.07244713464
0.07244713454
0.07244713448
0.07244713446
0.07244713455
0.07244712771
0.0724465943
0.07244660911
0.07244713308
0.07244713463
0.07244713513
0.07244713525
0.0724471352
0.07244713516
0.07244713512
0.07244713498
0.07244713416
0.07244713373
0.07244713386
0.07244713454
0.07244713476
0.07244713472
0.07244713512
0.07244713534
0.07244713497
0.07244713453
0.07244713453
0.07244713468
0.0724471341
0.07244713484
0.07244713483
0.07244713476
0.07244713463
0.07244713446
0.07244713435
0.07244713433
0.07244713444
0.07244713453
0.07244713442
0.07244713458
0.07244713466
0.07244713469
0.0724471347
0.07244713468
0.07244713464
0.07244713458
0.07244713453
0.07244713456
0.07244665989
0.07244713483
0.07244713508
0.07244713526
0.07244713528
0.07244713533
0.07244713522
0.0724471352
0.07244713499
0.07244713464
0.07244713419
0.07244713454
0.07244713474
0.07244713488
0.0724471346
0.07244713505
0.07244713537
0.07244713525
0.072447135
0.07244713488
0.07244713502
0.07244713458
0.0724471349
0.07244713488
0.07244713482
0.07244713472
0.07244713454
0.07244713434
0.07244713424
0.07244713447
0.07244713457
0.07244713432
0.07244713458
0.07244713467
0.0724471347
0.0724471347
0.07244713468
0.07244713464
0.07244713459
0.07244713455
0.07244713457
0.07244713532
0.07244713532
0.07244713531
0.07244713531
0.07244713506
0.07244713491
0.0724471346
0.07244713486
0.07244713486
0.07244713513
0.07244713451
0.07244713486
0.07244713535
0.07244713537
0.0724471353
0.07244713512
0.07244713512
0.07244713492
0.07244713495
0.0724471349
0.07244713485
0.07244713478
0.07244713464
0.07244713438
0.07244713412
0.07244713446
0.07244713443
0.07244713385
0.07244713443
0.07244713461
0.07244713466
0.07244713468
0.07244713465
0.07244713459
0.07244713454
0.07244713452
0.07244713456
0.07244713565
0.07244713537
0.07244713515
0.07244713517
0.07244713483
0.07244713525
0.07244713526
0.07244713525
0.07244713511
0.07244713511
0.07244713526
0.07244713542
0.07244713547
0.07244713537
0.07244713512
0.07244713517
0.072447135
0.0724471349
0.07244713485
0.07244713481
0.07244713471
0.07244713449
0.07244713401
0.07244713326
0.07244713266
0.07244713267
0.07244713355
0.07244713416
0.07244713442
0.07244713449
0.07244713447
0.07244713443
0.07244713439
0.07244713437
0.07244713454
0.07244713534
0.07244713538
0.07244713536
0.07244713511
0.07244713531
0.07244713542
0.07244713533
0.07244713546
0.07244713535
0.0724471349
0.07244713531
0.07244713561
0.07244713556
0.07244713543
0.07244713528
0.07244713503
0.07244713488
0.07244713483
0.07244713483
0.07244713475
0.07244713458
0.07244713411
0.07244713281
0.07244713065
0.07244713161
0.07244713357
0.07244713427
0.07244713447
0.07244713448
0.07244713443
0.07244713434
0.07244713421
0.07244713415
0.07244713451
0.07244713548
0.07244713589
0.07244713542
0.07244713541
0.07244713553
0.07244713551
0.07244713537
0.07244713544
0.07244713524
0.07244713403
0.0724471353
0.07244713574
0.07244713557
0.07244713522
0.07244713504
0.07244713488
0.07244713481
0.0724471348
0.07244713484
0.07244713478
0.07244713466
0.07244713436
0.07244713369
0.0724471328
0.07244713309
0.072447134
0.07244713436
0.07244713444
0.07244713439
0.07244713429
0.07244713414
0.0724471338
0.07244713383
0.0724471345
0.07244713623
0.07244713576
0.07244713544
0.07244713546
0.07244713563
0.07244713554
0.07244713549
0.07244713546
0.0724471354
0.07244713569
0.07244713577
0.07244713549
0.07244713469
0.07244713467
0.0724471347
0.07244713473
0.07244713476
0.0724471348
0.07244713475
0.07244713468
0.07244713454
0.0724471341
0.07244713376
0.07244713376
0.07244713427
0.07244713439
0.0724471344
0.07244713436
0.07244713428
0.07244713411
0.07244713356
0.07244713389
0.07244713451
0.07244713597
0.0724471354
0.07244713548
0.07244713558
0.07244713603
0.0724471356
0.07244713543
0.07244713543
0.07244713537
0.07244713556
0.07244713567
0.07244713551
0.07244713466
0.07244713464
0.0724471347
0.07244713471
0.07244713474
0.07244713476
0.07244713472
0.07244713467
0.07244713458
0.0724471344
0.07244713426
0.07244713413
0.07244713441
0.07244713458
0.07244713461
0.07244713459
0.07244713452
0.07244713439
0.07244713393
0.07244713406
0.0724471345
0.07244713564
0.07244713537
0.07244713544
0.07244713583
0.07244713631
0.07244713564
0.07244713556
0.07244713559
0.07244713542
0.07244713551
0.07244713552
0.07244713545
0.07244713465
0.07244713459
0.0724471347
0.07244713471
0.07244713472
0.07244713474
0.0724471347
0.07244713466
0.07244713463
0.07244713459
0.07244713451
0.07244713429
0.07244713456
0.07244713467
0.07244713469
0.07244713467
0.07244713463
0.07244713455
0.07244713426
0.07244713418
0.0724471345
0.07244713537
0.07244713542
0.07244713569
0.0724471358
0.07244713581
0.07244713558
0.07244713532
0.07244713535
0.0724471354
0.07244713553
0.07244713548
0.07244713471
0.07244713449
0.07244713471
0.07244713474
0.07244713474
0.07244713472
0.07244713469
0.07244713466
0.07244713464
0.07244713464
0.07244713459
0.07244713423
0.07244713465
0.07244713471
0.07244713472
0.07244713472
0.07244713469
0.07244713464
0.07244713447
0.07244713426
0.07244713449
0.0724471357
0.0724471358
0.07244713585
0.07244713597
0.07244713577
0.07244713542
0.07244713527
0.07244713544
0.07244713549
0.07244713531
0.07244713481
0.07244713431
0.0724471347
0.07244713477
0.07244713476
0.07244713475
0.07244713473
0.07244713471
0.07244713469
0.07244713468
0.07244713465
0.07244713442
0.07244713469
0.07244713474
0.07244713475
0.07244713474
0.07244713473
0.0724471347
0.0724471346
0.07244713433
0.07244713447
0.0724471358
0.07244713569
0.07244713583
0.07244713592
0.07244713578
0.07244713561
0.07244713545
0.07244713543
0.0724471352
0.07244713502
0.07244713499
0.07244713398
0.07244713451
0.07244713479
0.07244713476
0.07244713474
0.07244713474
0.07244713473
0.0724471347
0.07244713469
0.07244713465
0.07244713444
0.07244713467
0.07244713474
0.07244713476
0.07244713476
0.07244713475
0.07244713474
0.07244713468
0.0724471344
0.07244713445
0.07244713568
0.07244713576
0.07244713592
0.07244713594
0.07244713592
0.07244713582
0.0724471356
0.0724471358
0.07244713532
0.07244713515
0.07244713514
0.07244713488
0.07244713475
0.0724471348
0.07244713477
0.07244713468
0.07244713448
0.07244713419
0.072447134
0.07244713407
0.0724471342
0.0724471343
0.07244713449
0.07244713464
0.0724471347
0.0724471347
0.07244713468
0.07244713462
0.07244713431
0.07244713426
0.07244713446
0.07244713584
0.07244713579
0.07244713574
0.07244713525
0.07244713522
0.07244713525
0.072447135
0.07244713484
0.07244713481
0.07244713479
0.07244713474
0.07244713465
0.07244713448
0.07244713427
0.07244713416
0.07244713421
0.0724471343
0.07244713447
0.07244713462
0.07244713468
0.07244713468
0.07244713464
0.07244713454
0.07244713411
0.0724471343
0.07244713446
0.07244713599
0.07244713598
0.07244713582
0.07244713534
0.07244713533
0.07244713521
0.07244713488
0.07244713483
0.07244713482
0.07244713481
0.07244713481
0.07244713479
0.07244713473
0.07244713462
0.07244713442
0.07244713429
0.07244713435
0.07244713451
0.07244713463
0.07244713467
0.07244713467
0.07244713461
0.07244713448
0.07244713408
0.07244713433
0.07244713447
)
;

boundaryField
{
    walls
    {
        type            zeroGradient;
    }
    wallFilmFace_top
    {
        type            zeroGradient;
    }
    region0_to_wallFilmRegion_wallFilmFace
    {
        type            zeroGradient;
    }
    mirrorFace_top
    {
        type            zeroGradient;
    }
    region0_to_wallFilmRegion_mirrorFace
    {
        type            zeroGradient;
    }
    procBoundary0to1
    {
        type            processor;
        value           nonuniform List<scalar> 
52
(
0.07244713455
0.07244713459
0.07244713459
0.07244713459
0.07244713458
0.07244713455
0.07244713452
0.07244713452
0.07244713446
0.07244713406
0.07244713372
0.07244713327
0.07244713327
0.07244713261
0.07244713298
0.07244713298
0.07244713165
0.07244713093
0.07244712981
0.07244712825
0.07244712825
0.07244713102
0.07244658127
0.07244658127
0.07244713488
0.07244713506
0.07244713527
0.07244713539
0.07244713539
0.07244713535
0.07244713541
0.07244713541
0.07244713545
0.07244713545
0.07244713541
0.07244713572
0.07244713572
0.07244713557
0.07244713549
0.0724471354
0.0724471354
0.07244713559
0.07244713559
0.07244713575
0.07244713582
0.0724471358
0.07244713559
0.07244713592
0.07244713602
0.07244713606
0.07244713606
0.07244713621
)
;
    }
    procBoundary0to2
    {
        type            processor;
        value           nonuniform List<scalar> 
26
(
0.0724471358
0.07244713591
0.07244713582
0.07244713563
0.07244713544
0.07244713518
0.07244713489
0.07244713481
0.07244713481
0.0724471348
0.07244713474
0.07244713446
0.07244713382
0.0724471338
0.07244713408
0.07244713426
0.07244713449
0.07244713451
0.07244713462
0.07244713469
0.07244713473
0.07244713475
0.07244713474
0.07244713461
0.07244713442
0.07244713448
)
;
    }
}


// ************************************************************************* //
