/*--------------------------------*- C++ -*----------------------------------*\
  =========                 |
  \\      /  F ield         | OpenFOAM: The Open Source CFD Toolbox
   \\    /   O peration     | Website:  https://openfoam.org
    \\  /    A nd           | Version:  8
     \\/     M anipulation  |
\*---------------------------------------------------------------------------*/
FoamFile
{
    version     2.0;
    format      ascii;
    class       volScalarField;
    location    "0.4";
    object      htcConv;
}
// * * * * * * * * * * * * * * * * * * * * * * * * * * * * * * * * * * * * * //

dimensions      [1 0 -1 1 0 0 0];

internalField   uniform 0;

boundaryField
{
    walls
    {
        type            calculated;
        value           uniform 0;
    }
    region0_to_wallFilmRegion_wallFilmFace
    {
        type            convectiveHeatTransfer;
        L               1;
        value           nonuniform List<scalar> 
983
(
2.828035044
2.585049329
2.33271868
2.232396461
2.047258268
2.409654368
2.723119544
2.908526258
2.990160511
2.992743924
2.949710622
2.863650463
2.780618763
2.678237203
2.475233553
2.641986561
2.721923316
2.569151852
2.304528815
2.018487826
1.765204035
1.551617009
1.369247243
1.209634302
1.06596049
0.9321872838
0.8024500379
0.6708045653
0.5294463425
0.3868192735
2.927431596
2.77928499
2.403007207
2.398293225
2.338421163
2.558209714
2.804323458
2.953757967
3.004549508
2.968818903
2.865244482
2.67657807
2.555130718
2.437830553
2.354920042
2.992952204
3.015255471
2.828112614
2.532309763
2.1829388
1.871393894
1.620119444
1.415560898
1.243057211
1.091689284
0.9532006358
0.8206126962
0.6878846252
0.5486666124
0.4175961466
3.101571451
3.017345955
2.548321367
2.517676587
2.577328588
2.72693628
2.917337514
3.028804143
3.071090208
3.009872271
2.842566767
2.573622981
2.529774163
2.541902148
2.768646116
3.706601499
3.546094099
3.247527134
2.899667042
2.481325782
2.058237077
1.721477914
1.468808664
1.271016463
1.106890796
0.9626661439
0.8287544282
0.6986302388
0.5696862289
0.4604707193
3.05682578
3.053096752
2.519105276
2.334211291
2.52893158
2.724059612
2.924360695
3.040441153
3.072914571
2.986346153
2.702532535
2.38618942
2.482203327
2.738060387
3.272962552
4.389081838
4.118487112
3.658494722
3.228599422
2.782363503
2.292204945
1.85870567
1.539310577
1.306300217
1.125590569
0.9748504115
0.8405166406
0.7155051148
0.6003441816
0.5127168765
2.919671325
3.006254376
2.468521133
2.096395693
2.44335349
2.72560689
2.942330376
3.065532786
3.080999379
2.9325458
2.414086986
2.16542843
2.453369972
3.020677879
3.672855298
4.819416894
4.595657093
4.113517324
3.547852005
3.029894929
2.506925765
2.003180477
1.616986542
1.344964146
1.145559334
0.9886988441
0.8560381182
0.7392073971
0.6400565786
0.5706200943
2.636796106
2.837689071
2.304724339
1.763128054
2.317033397
2.719733358
2.964519355
3.097514089
3.067227115
2.827606396
1.924889397
1.863225825
2.430023511
3.221012154
3.926525447
4.924251743
4.777515787
4.45551275
3.875258106
3.234259218
2.641422326
2.086423676
1.652609852
1.360788439
1.156410241
1.001506553
0.8755305324
0.7704624153
0.6880643166
0.6329281281
2.081277446
2.193306614
1.685229203
1.655864528
2.311581821
2.694345079
2.946699151
3.072788553
3.006238945
2.687119883
1.499898018
1.291360846
2.425996809
3.281513126
4.022232261
5.004851431
4.864540108
4.569682434
3.951848169
3.247464449
2.666464761
2.14057858
1.691697558
1.381629978
1.170408387
1.018815912
0.9028030488
0.8115571011
0.7447176311
0.6999778623
2.342592858
2.119573926
2.024755111
1.996625041
2.337588641
2.622455878
2.830130256
2.930413456
2.873606678
2.584195322
2.021087073
1.876306129
1.874371889
2.365488762
3.738441112
3.939948014
3.760428443
3.100015331
2.467636772
2.191720125
1.989095219
1.758025443
1.525706094
1.323344194
1.164285715
1.04014297
0.9417771146
0.8650772509
0.8106671449
0.7726283498
2.659538362
2.175024763
2.233761453
2.286341924
2.356808923
2.48225642
2.586753475
2.640160693
2.581514008
2.310782737
2.046568021
2.063259579
2.04265834
1.644934703
2.844696066
3.346087501
3.014846068
2.797271894
2.632383285
2.408808679
2.171728739
1.917264463
1.653511326
1.408623824
1.224955934
1.096584427
1.003695339
0.9345952771
0.8867873824
0.8517227458
3.138423744
2.397004238
2.315150685
2.425064861
2.372190473
2.423618741
2.514111894
2.464982268
2.258675048
1.948525845
2.06273363
2.032880239
2.07736799
2.14579252
1.76953449
2.495610431
2.621726537
2.538325008
2.375975599
2.235440425
2.098872483
1.914760504
1.700931953
1.477251357
1.300094314
1.176416564
1.087536743
1.020677262
0.9737437806
0.9382429997
2.864639885
2.684603496
2.50316848
2.478618677
2.392927662
2.38605671
2.438908573
2.288145574
1.926312142
1.903624762
2.064515993
1.950775618
2.517289387
2.52848463
2.148201217
2.303056868
2.479612915
2.487076835
2.393817734
2.278774264
2.146429938
1.960301898
1.76285735
1.571893589
1.413312792
1.293322913
1.200299469
1.126690057
1.073312389
1.033631406
2.775871861
2.711642691
2.602012965
2.351462444
2.371649155
2.343223914
2.274820834
1.978320879
1.832599868
2.038307998
2.051431933
2.460634947
2.793594443
2.829385531
2.533347486
2.469992135
2.509525671
2.496424336
2.402448493
2.27610661
2.124944347
1.934498642
1.789848239
1.691758105
1.586021721
1.466759194
1.353970788
1.258903974
1.18863349
1.139890528
2.66699483
2.605083876
2.581456981
2.285245798
2.204855287
2.243384627
2.054152796
1.861764004
2.003196493
2.092119288
2.462280953
2.730335587
2.869230544
3.061825849
2.784302976
2.66648094
2.618802215
2.573895106
2.471201496
2.319228372
2.118291895
1.927211671
1.91520729
1.952983813
1.885014815
1.736281183
1.570685762
1.428223153
1.324527395
1.259464471
2.447117157
2.392115052
2.423248307
2.208685206
1.898211992
2.106837636
1.94678603
1.911384259
2.061732054
2.415294334
2.739804678
2.828046958
2.86803282
3.372777855
3.039807033
2.836991601
2.743226468
2.688372124
2.545784263
2.390228992
2.1839797
2.076526154
2.221895332
2.321437506
2.275003534
2.107085948
1.872973911
1.651178714
1.488604963
1.395722904
2.183539993
2.127874989
2.16983146
1.988833993
1.92128513
2.063027657
1.955733768
1.933454289
2.270235103
2.629398839
2.863672502
2.721133266
2.854654332
4.057169887
3.407796454
3.069085127
2.928285011
2.771366844
2.490213818
2.476043487
2.353994023
2.36856527
2.556263996
2.647729573
2.625610573
2.489253529
2.247045999
1.945042129
1.692854276
1.55404849
1.955342854
1.869918862
1.886185983
1.76097393
2.054544877
1.859302832
1.898251498
1.917153008
2.159784644
2.568421262
2.834557531
2.501320811
3.159162687
5.843439151
4.128417223
3.388753334
3.011561168
2.627361343
2.311727309
2.742829423
2.611656085
2.700623089
2.835109104
2.903835104
2.916052631
2.816499047
2.602928966
2.290503242
1.946311467
1.741264124
1.775336121
1.63070809
1.607210536
1.485718444
1.689624283
1.588699091
1.673383084
1.725058988
1.864841287
2.190904745
2.744940728
2.705507323
4.647947377
8.361113147
5.831552928
4.025818127
2.953309896
2.568969555
2.271501947
3.176129948
2.993013589
3.012410109
3.037376408
3.095186981
3.150710244
3.097110173
2.912754091
2.616157958
2.233483665
1.957940089
1.589360193
1.405580232
1.353034243
1.260714164
1.375155251
1.324003666
1.408602153
1.517700349
1.758053855
2.201859322
2.743397749
3.526029492
4.246995313
6.207491038
4.756723648
3.900540101
2.856109351
2.48787114
2.190634102
3.696766855
3.457467608
3.262180098
3.160724919
3.221829851
3.328351951
3.327949336
3.174838559
2.890700517
2.493635744
2.178962645
1.393941533
1.218074038
1.165866153
1.094637642
1.182188064
1.146360945
1.241423907
1.359797914
1.594395251
1.947122701
2.305522158
2.785578818
3.401709206
4.85878501
3.387011604
2.412744332
1.50134316
2.266909805
2.568648902
4.427549317
3.970266493
3.512407648
3.260903653
3.305580763
3.443043821
3.501625421
3.381639785
3.108292795
2.698241322
2.36753756
1.209544043
1.072285744
1.018128977
0.967898288
1.015680955
1.03859968
1.165513433
1.352172511
1.606157012
1.893689453
2.15833856
2.41249816
2.701159655
3.19670678
2.055817796
1.334235437
1.379888047
2.095572131
3.382734757
4.868291178
4.349732141
3.797829701
3.371481013
3.314826606
3.476601243
3.59778267
3.512518783
3.2440559
2.7875632
2.416229688
1.059274031
0.9524255195
0.8896450659
0.8600166442
0.9120268417
1.008719658
1.192712228
1.400144971
1.577255508
1.733678614
1.958313779
2.201913225
2.362355895
2.554681065
1.707547113
1.35800997
1.470430796
2.490572297
3.725178448
5.354183556
4.750611616
3.974092282
3.359619225
3.138197737
3.394447749
3.641280044
3.585442306
3.348630203
2.84256228
2.500265089
0.9507817909
0.8578027975
0.7903368833
0.7820969227
0.8539410048
1.014870897
1.219798302
1.380031024
1.50336402
1.550715777
1.481559204
1.765209277
1.985920402
1.997505412
1.70763069
1.710824839
1.705207525
2.491505989
3.251980531
3.764897067
2.922155963
1.897811556
1.944671556
2.566131699
3.057321985
3.32924182
3.391520125
3.268119903
2.640161941
2.119155122
0.8685281572
0.7629709604
0.6821440689
0.7163356465
0.8639181831
1.100402316
1.296551395
1.443610986
1.607981999
1.707048873
1.526121414
1.380800294
1.513462903
1.686869626
1.60880816
1.66105646
1.793874604
1.832079752
2.87773068
3.067620896
2.645495432
2.76828853
2.462864511
2.765361565
3.187123218
3.455154606
3.564723843
3.483921618
2.994935689
2.3738893
0.8173453649
0.7058184044
0.6468122528
0.7591897987
1.001627467
1.253036357
1.40942716
1.581631526
1.723309328
1.860358419
1.794502471
1.612346076
1.364246073
1.468454721
1.572741956
1.665177648
1.857253568
2.321549305
2.882607926
2.738447665
3.510940262
4.582490821
3.272222973
2.776342159
3.276157562
3.532503281
3.478945321
3.101619969
2.368319438
2.073745813
0.7532489028
0.6356466567
0.6715283598
0.9166491538
1.175352475
1.366291665
1.545179593
1.713835722
1.8629066
1.995673471
1.954188624
1.83832202
1.621380914
1.424432531
1.546312498
1.637498487
1.671849087
2.173636034
2.726393432
3.378783013
4.488463685
5.157661288
5.034427954
4.322198068
3.849754463
3.661031974
3.335925071
2.844117121
2.312218005
1.908627188
0.7431270728
0.6805737601
0.8558493762
1.119045553
1.314526663
1.494351754
1.671085366
1.862320997
2.036179683
2.083022857
2.045559515
1.958943906
1.780237813
1.534129486
1.426707497
2.026997953
2.492429635
2.979567206
3.614294865
4.131465308
5.259767948
4.838158424
4.568043505
4.167205946
3.740851167
3.464329396
3.171924177
2.759743321
2.188517865
1.649065738
0.7202803783
0.7804887592
1.01970175
1.262501995
1.458204093
1.627994765
1.813363141
2.031390821
2.105734067
2.126703099
2.085601541
2.025008889
1.91021621
1.774089696
1.569851545
1.776011358
2.066029789
2.22812904
2.333971262
2.788118552
4.220134746
3.783078379
3.501640361
3.335373452
3.163406802
3.037448304
2.860399451
2.550288392
2.088500702
1.641192756
0.7283903033
1.030031209
1.345060376
1.548590969
1.729556117
1.848764567
1.996059997
2.064130808
2.08577255
2.094902162
2.090761106
2.049937509
2.016509834
1.881639075
1.670291379
1.990124146
2.368334409
2.664993481
2.885642697
2.896565336
2.942083925
2.49734591
3.21055609
3.291944888
3.160525297
3.038428182
2.883615567
2.61715834
2.171726376
1.717790423
0.70689243
0.9485645226
1.194232281
1.438869097
1.692990266
1.852446168
1.956558033
1.950056423
1.909051767
1.868253781
1.905686222
1.894677339
1.859691972
1.766139566
2.036034157
2.289030138
2.501844707
2.763800941
2.912414627
2.484926732
4.056625136
3.800969749
3.410020888
3.113797344
2.924948934
2.734993881
2.42843795
1.975392182
1.568553726
0.8272815075
1.072857787
1.365078072
1.633780052
1.864422155
2.0064713
2.033566577
1.909519056
1.551454342
1.418689962
1.816971825
1.937278129
1.86308303
1.775043626
2.074901638
2.31995452
2.647832584
3.046109468
3.283867553
4.04910785
5.142831924
4.840499225
4.452634371
3.915192799
3.411945487
3.03770468
2.678044952
2.202949466
1.803378636
0.8766680621
1.167583788
1.551300321
1.853054591
2.054198226
2.127084588
2.066984195
1.802945602
1.434895748
1.78172843
1.804654383
1.812958545
1.690146498
1.780695582
2.211887968
2.103135931
2.105450591
2.210309461
2.263018445
3.14954011
4.132795082
3.794088334
3.383439743
3.114921456
2.958658028
2.8257369
2.61492672
2.24816705
1.916058422
1.195952941
1.573971935
1.84035602
2.035600921
2.119583613
2.128139594
2.062836543
1.92656758
1.895089561
1.909754101
1.796298382
1.67846381
1.509616295
1.969361556
2.385599156
2.011979832
1.937108543
2.041008669
2.215603942
2.654696346
3.35180407
3.266223654
3.19994479
3.154987754
3.08378092
2.915961469
2.63663899
2.222524295
1.898387875
1.632577939
1.834803628
1.947418429
1.961505122
1.964224299
1.960897244
1.906897685
1.830876601
1.593044576
1.274905103
1.454712725
2.14179395
2.409886685
2.307944813
1.252708443
2.099898518
2.38964662
2.733986899
3.115417116
3.191350822
3.195366764
3.158362799
3.071940713
2.937516922
2.756051831
2.381467047
2.06280259
)
;
    }
    region0_to_wallFilmRegion_mirrorFace
    {
        type            convectiveHeatTransfer;
        L               1;
        value           nonuniform List<scalar> 
428
(
2.562358301
2.732394317
2.763790824
2.772427206
2.791100758
2.824715131
2.879975914
2.973375523
3.142651992
3.071648218
3.2601079
3.330655206
3.387052198
3.448294208
3.522477227
3.613957595
3.738791955
3.90089573
3.409930668
3.610616437
3.715794059
3.802409325
3.886768839
3.977391075
4.080783032
4.202029017
4.336179747
3.913062351
3.687560987
3.731442472
3.778000242
3.824861591
3.882609149
3.949872982
3.994678819
4.106733803
1.886539689
1.78490036
1.813452036
2.846753343
1.950013934
1.710475562
2.857207534
1.599401123
1.677444508
1.771126307
1.740982747
1.521445406
1.71669549
1.554733949
2.176476404
2.817464143
2.482533995
2.406536843
2.442342341
2.961411634
2.600064662
3.166832505
3.426387661
3.944009835
1.831762812
2.477998486
1.761147198
1.215787818
1.364637221
1.241555203
0.9477410778
1.063466622
0.951094245
0.7904491577
0.8600568803
0.7853908855
0.6731653775
0.722511741
0.6693001946
0.5929744676
0.6261921836
0.5911180493
0.581541815
0.5821071266
0.5842406471
1.324836961
2.530970111
1.479256375
1.081730084
1.310435686
1.258080653
0.8365776612
0.9655026225
0.8463925511
0.6382832472
0.7433091399
0.657076455
0.4455731154
0.569615818
0.5061869357
0.4239691536
0.4620869002
0.4707400532
0.5607966158
0.5163603581
0.605797845
1.78994192
2.995952214
1.385699835
1.009230291
2.272368373
2.25798625
0.8408574129
0.6462447456
0.7631644416
0.8125750122
0.8210668197
0.7981057271
0.8200458231
0.7742205017
0.7931361072
0.8860740344
0.8081600531
0.8484154311
0.9409361442
0.8512555573
0.9481153939
1.779630088
1.891894578
1.821090929
1.441637758
1.774036155
1.666268901
1.072260231
1.469336562
1.125447479
1.872569863
2.011698462
1.903562317
1.674570236
1.803201906
1.646601558
1.162749282
1.367548432
1.684276212
1.921878918
1.874752982
1.845811423
1.538717926
1.539851478
1.676358292
1.579053545
2.848824421
1.85582738
2.622746152
1.301368757
1.049701307
0.8626924925
0.7279346636
0.6300130197
0.5849009716
2.011239218
3.349607896
1.144917131
0.9379554883
0.7368503421
0.5382540022
0.3791264092
0.477847607
3.334128533
3.141309047
1.283821998
0.7201795271
0.8207861592
0.7960187539
0.8158458314
0.8611310185
1.967562697
2.020786982
1.076790491
2.144917304
1.485721951
1.360995622
1.400558741
1.340229194
1.830793689
1.735300611
1.09962978
0.9761485317
1.96475444
1.800723765
1.463252279
2.031123381
2.005766914
1.78754666
1.631292093
2.922964337
3.651039392
3.701437706
3.862139444
3.989671914
4.026673882
4.095845331
4.194407949
4.228124002
4.293645725
4.396561941
4.429320342
4.497910072
4.591686235
4.604257045
1.794997103
3.08847236
3.816133001
3.943483163
4.003586325
4.344058066
4.25911329
4.47317521
4.509328169
3.333099806
3.205780405
3.171226214
3.15208909
3.160506162
3.199948934
3.250782284
3.626151365
1.620327819
2.404769123
3.454152749
2.691689881
2.83724554
2.956132345
2.173185207
4.211160752
3.269501799
2.765120497
2.991160497
3.021304108
1.560114654
2.088933289
1.891995893
2.766408322
3.039308361
3.054455653
1.391544012
1.426409008
1.376265991
2.780290281
3.071667193
3.090988811
1.387586022
1.273241659
1.246201031
2.805614486
3.11304029
3.138681213
1.472631575
1.294558898
1.352738066
2.849179747
3.168762593
3.204226479
1.404503288
1.261600216
1.18568214
2.918485633
3.24554426
3.297150967
3.052524307
3.361535364
3.439453939
3.527956081
3.207802447
3.275177709
3.415646174
3.299477848
3.482047665
3.530933286
3.358628571
3.572011366
3.609752563
3.416510445
3.646371533
3.683261216
3.483447261
3.721742166
3.762823121
3.565653317
3.807171853
3.854903965
3.671395752
3.907199586
3.966265734
3.815385262
4.032511103
4.104690161
3.997105557
4.182626728
4.265472874
3.524099772
3.630917894
3.53871325
3.77811585
3.666676034
3.710491675
3.836445403
3.760462421
3.885989843
3.934038617
3.981896283
3.844351757
3.930846569
4.028615318
4.076357558
4.126209514
4.178629599
4.027123944
4.232888267
4.287829961
4.138872126
4.267603792
4.343776474
4.400386673
4.45533324
4.509056605
4.406543896
3.780250335
3.812905092
3.858994741
3.901230396
3.968015999
4.059276905
4.108012589
4.130436254
4.154668521
4.246723359
4.277109557
4.294205465
4.327339233
4.378454518
4.448322712
4.499247352
4.526109847
4.544256567
4.602196894
4.634816897
4.622953402
3.772209442
3.93101917
4.043499357
4.080294503
4.145475584
4.179259367
4.243624456
4.344916045
4.44773605
4.479146596
4.546681083
4.567761541
4.633479843
3.658699115
3.875230345
3.791432523
3.707438382
3.906969062
3.830293366
3.958574148
3.858329373
3.887754191
3.917167118
4.085217341
3.946450678
3.976677179
4.166276418
4.009332958
4.210491917
4.046166411
4.08932454
4.1399924
3.977374126
4.368215979
4.196747546
4.257517899
4.320099765
4.491209458
4.317868774
4.126498775
4.341500368
4.353174997
3.832521819
4.005584024
4.045052566
4.200731315
4.125175405
4.395678307
4.312069264
4.423325436
4.575851621
4.52168774
3.884972244
3.595404474
3.248070466
3.524947547
3.483874101
3.184073151
3.467828562
3.464315101
3.755005092
3.160849681
3.466370317
3.470770068
3.800891727
3.150638962
3.476235989
3.485857192
3.851311362
3.177961209
3.501701221
3.520501742
3.91693342
3.221502413
3.539000525
3.555285977
3.364387238
3.569460848
3.642036996
4.042726221
3.473276796
3.772907544
3.770976251
)
;
    }
    procBoundary0to1
    {
        type            processor;
        value           uniform 0;
    }
    procBoundary0to2
    {
        type            processor;
        value           uniform 0;
    }
    procBoundary0to3
    {
        type            processor;
        value           uniform 0;
    }
}


// ************************************************************************* //
