/*--------------------------------*- C++ -*----------------------------------*\
  =========                 |
  \\      /  F ield         | OpenFOAM: The Open Source CFD Toolbox
   \\    /   O peration     | Website:  https://openfoam.org
    \\  /    A nd           | Version:  8
     \\/     M anipulation  |
\*---------------------------------------------------------------------------*/
FoamFile
{
    version     2.0;
    format      ascii;
    class       volScalarField;
    location    "0.4";
    object      k;
}
// * * * * * * * * * * * * * * * * * * * * * * * * * * * * * * * * * * * * * //

dimensions      [0 2 -2 0 0 0 0];

internalField   nonuniform List<scalar> 
67286
(
0.01514141131
0.01439092168
0.01416364841
0.01379926638
0.01386661978
0.01422569136
0.0139988013
0.01198590829
0.01541275928
0.01881245303
0.01583754908
0.01279085181
0.009789580177
0.007329462935
0.005397861213
0.0038126187
0.002439932556
0.001230432399
0.0004262489128
9.561067967e-05
1.814441535e-05
7.496641942e-06
6.587359355e-06
6.537586437e-06
6.534129027e-06
6.555603445e-06
8.158143542e-06
8.35394135e-05
0.01558823929
0.01514583007
0.01531986304
0.0158729268
0.01719449485
0.01804375209
0.0182201874
0.01352694768
0.01131937696
0.01297947799
0.01178940945
0.0101871437
0.00844640647
0.006690918363
0.004837401322
0.002993377715
0.001427039765
0.0004663296648
0.0001068675285
2.152922344e-05
8.086407366e-06
6.648179047e-06
6.539918307e-06
6.534369959e-06
6.564025561e-06
9.987899829e-06
8.54524159e-05
0.0007532216635
5.76229495e-05
3.224663714e-05
0.0001479875252
0.0009689267596
0.01603343931
0.01522165701
0.01460396028
0.01440834895
0.0151435561
0.01640289935
0.01602818744
0.01345007786
0.01063539272
0.009087001207
0.008449226709
0.008127953565
0.007445602339
0.006179287834
0.004321651068
0.002334433399
0.0008525740901
0.0001946542102
3.368722342e-05
9.228347572e-06
6.727584404e-06
6.547459633e-06
6.544092811e-06
6.696166089e-06
1.243316515e-05
0.0001152270758
0.0006914248826
0.002094820178
0.00048534497
0.0003226608023
0.0008242164405
0.002542748745
0.01699351906
0.01688738044
0.01585336887
0.01450038531
0.0137533222
0.01366819877
0.01333534673
0.01262764283
0.01059916839
0.008125106598
0.007149982011
0.006832088087
0.006377656019
0.005242476553
0.003386685453
0.00151463641
0.0004079260298
7.13039278e-05
1.34532307e-05
7.059456253e-06
6.577649925e-06
6.639598086e-06
7.587277241e-06
1.624661902e-05
0.0001305588675
0.000743675355
0.001961228506
0.003290595652
0.001711683822
0.001481710968
0.002265339588
0.003937594302
0.003140084524
0.01811949029
0.01873522605
0.01666970938
0.01478554981
0.01352739778
0.01272502737
0.01185826131
0.01049234949
0.008008247282
0.006033411898
0.005023150261
0.004869108009
0.005104965287
0.00445714556
0.002908863931
0.001516906184
0.0004975300538
9.583146803e-05
1.629038814e-05
7.23261812e-06
6.974326745e-06
1.012647785e-05
3.205378618e-05
0.0001732436796
0.0007979898847
0.001996952293
0.003068442768
0.00403462805
0.003143025464
0.003193377462
0.003790770004
0.004969669068
0.004487502573
0.01851278393
0.01860703702
0.01684771188
0.01480323211
0.01311075647
0.01175128762
0.01028766252
0.008254055134
0.005376536406
0.00426191044
0.003924364557
0.004161068708
0.00440383278
0.003781684503
0.00249648508
0.00109691123
0.0002887150426
4.821952731e-05
1.028007577e-05
7.287623257e-06
1.519395239e-05
6.263371677e-05
0.0002781909586
0.0009649253968
0.002104643404
0.003138538483
0.003693468648
0.004351058962
0.004025058981
0.004420764769
0.004926565457
0.005664185747
0.005300809674
0.01885847673
0.01840766581
0.01693315409
0.0149622649
0.01309361041
0.01146121987
0.009760978254
0.007521206648
0.004628669933
0.003925366406
0.003992049388
0.004160766688
0.00385905548
0.002898759464
0.001723028966
0.0008193988974
0.0002383450697
4.632710114e-05
1.171072277e-05
1.56735559e-05
0.0001002976369
0.0004364460315
0.001237786896
0.002302187595
0.003221680612
0.003798321737
0.004092248381
0.004709124635
0.004349890381
0.005051121187
0.005575061575
0.006101227542
0.005561693935
0.01910158924
0.01814716229
0.01686435823
0.01510069217
0.01325163316
0.01150547288
0.009786253939
0.007565021141
0.004715710438
0.00405424974
0.004028064761
0.003679454029
0.002850636944
0.002306926966
0.003045949598
0.002483458763
0.001019114069
0.0002489619539
5.211775974e-05
9.443049446e-05
0.0005545141301
0.001519184126
0.002527658594
0.003283136209
0.003774333403
0.00425891283
0.004912927997
0.005380681215
0.004682995841
0.005359336852
0.005929982518
0.00659557088
0.005726678177
0.01921184618
0.01788346514
0.01657365674
0.01493867561
0.01316138806
0.01143602314
0.009819973251
0.007730019414
0.005016084971
0.004068427102
0.00351964773
0.002772122232
0.003201742473
0.004854519921
0.00634423065
0.005731573462
0.003001369369
0.001106828795
0.0003231487506
0.0004913477284
0.001540256244
0.002649667141
0.003363761569
0.003670633503
0.004027514689
0.004908694216
0.006901163641
0.006938781877
0.005483640285
0.005642989278
0.006345598696
0.007992059886
0.006282632349
0.01909550714
0.01743592193
0.01604736618
0.01442848227
0.01272761986
0.01111717066
0.009577822657
0.007640923334
0.005225690942
0.003855248488
0.002927051769
0.004151338189
0.006147466369
0.007641988072
0.008594790158
0.008470631036
0.005698069797
0.003245609109
0.001493729889
0.001439215638
0.002373109099
0.003210613378
0.003827457288
0.003956013104
0.004126156062
0.004682729889
0.006260599958
0.006804970654
0.005204462213
0.005486117887
0.007506816477
0.009574374342
0.00810015585
0.01863555058
0.01664875809
0.01516867767
0.01366394043
0.0123904281
0.01150699992
0.01003027856
0.007841087606
0.00558734512
0.004170949861
0.004848108356
0.00686786621
0.008114558372
0.009213711357
0.01024170515
0.01028343848
0.008500528723
0.006902255901
0.004215451203
0.003150778757
0.003163475949
0.002974138462
0.003728935129
0.004043299576
0.004143331787
0.004278276744
0.004848180448
0.005671386421
0.005362732659
0.005918132402
0.006819727802
0.008206983371
0.006286536607
0.01772873343
0.01574425539
0.01500499645
0.01514343319
0.01628927945
0.01775056501
0.01848961806
0.01350116008
0.01044151413
0.007927399191
0.007396463758
0.008383763046
0.009076107881
0.01075910739
0.01357606665
0.01422555181
0.01260827112
0.01231212676
0.007971090955
0.005796789106
0.004955557008
0.0032860418
0.003405580068
0.00401873087
0.00425786064
0.004300025615
0.00422630289
0.004785066307
0.005627624683
0.005616622306
0.005343930219
0.005883268071
0.004878983923
0.01622062518
0.01481944663
0.01523490967
0.01604616093
0.01680459631
0.01886684264
0.02303469342
0.01580097861
0.01019832138
0.008294190642
0.009201349574
0.009594289588
0.01027311734
0.01228896496
0.0147402179
0.015595851
0.01704986054
0.02251384494
0.01119914607
0.007920708713
0.006631384876
0.005003869825
0.002970522366
0.003709654297
0.004202847848
0.004411558437
0.004445871605
0.00488601897
0.005675178795
0.005301442267
0.004689128196
0.004702414292
0.005337456605
0.01361202741
0.01230897619
0.01297825185
0.01430651287
0.01844019894
0.02676546615
0.03739164725
0.02585886587
0.01039943966
0.008021017493
0.009047092504
0.009629735239
0.0102609961
0.01143230579
0.0131101034
0.01556492497
0.02498007806
0.0235906527
0.01509725854
0.009059926235
0.007509188364
0.006549298754
0.003884191401
0.00318017613
0.003929903057
0.00441124415
0.004816420466
0.005271912907
0.005539271515
0.005196251163
0.005084628138
0.006406256762
0.01093413195
0.009776597652
0.009481755832
0.0116147934
0.01653589299
0.02691744499
0.04292860977
0.05801333695
0.05694733848
0.02899081726
0.0129471517
0.008614390585
0.009287853344
0.009704976696
0.01020675064
0.01096108134
0.01151579898
0.01352067287
0.01545535484
0.009012098485
0.007269351437
0.008423084091
0.007776984723
0.005951646749
0.004006024548
0.003375961081
0.003991570296
0.004674599967
0.005199805006
0.005667232499
0.007201797476
0.01106144802
0.01620909585
0.02136480583
0.006385024516
0.008347458153
0.01270904286
0.01933377169
0.0293937297
0.04411495356
0.05672193961
0.04434848785
0.02553600015
0.01236929747
0.008377331622
0.00885709629
0.009147584675
0.009417722164
0.009732569047
0.009891742137
0.01011905255
0.009847194625
0.007081724623
0.007950312081
0.009767918148
0.009038163961
0.007446537415
0.006374219724
0.004474331451
0.003899121361
0.004328736176
0.006118163801
0.009209250567
0.01338168981
0.01665439452
0.01859625259
0.02087998241
0.003618915366
0.005789160974
0.009268234898
0.01403306739
0.02048545855
0.02871533461
0.03576540101
0.0243105471
0.01510969547
0.008953556226
0.008078117797
0.008364657017
0.008500953162
0.008678000893
0.008985483589
0.008990638219
0.007912351688
0.007041642002
0.007149554341
0.008389986245
0.01037566901
0.01031015039
0.008411367703
0.007435546121
0.00628144574
0.008017178776
0.005989931168
0.008516207077
0.01068043453
0.01385141954
0.01610028833
0.01828556684
0.02103768246
0.001589493277
0.003222049863
0.00594430359
0.009172231472
0.01339331328
0.01815030436
0.02192738609
0.01268965047
0.009174285333
0.007670459016
0.007745343209
0.007838034666
0.007862282803
0.008075999006
0.008357922701
0.00747737316
0.006412862578
0.006543714926
0.007421596015
0.009669547295
0.01532041385
0.01636551162
0.009477868611
0.007327424259
0.007360658846
0.02044051958
0.01066507217
0.01254497411
0.01381127635
0.01723619721
0.01463977657
0.01175676938
0.01251397078
0.0004802689915
0.00129441932
0.003057556164
0.005356458858
0.008044183534
0.01114219397
0.01377817834
0.007385709096
0.007188257554
0.007188886104
0.007294569049
0.007246011446
0.007183728151
0.007223563396
0.00706233604
0.005930783391
0.005972106617
0.007021045725
0.01000806363
0.01718184479
0.03183799693
0.04493037911
0.01555790325
0.009636604699
0.01740562705
0.04256651447
0.01697059196
0.01622884158
0.01853939913
0.0303298377
0.02010977099
0.01434230651
0.01107302975
0.0001004221679
0.0003289751854
0.001089632322
0.002427566366
0.004130915542
0.00603374058
0.00774848968
0.005132093851
0.006160633715
0.00654946251
0.006654710003
0.006482054926
0.006177153429
0.005787966658
0.005396235276
0.005813249058
0.009110883385
0.01544060831
0.02441758748
0.03811495514
0.05911981736
0.0410990995
0.02082817209
0.01818094491
0.0371244112
0.06962911662
0.0338736407
0.02345097568
0.02749146708
0.06242822095
0.02852591904
0.01788161695
0.01236724762
1.880530002e-05
5.656326197e-05
0.0002362566767
0.0007168797665
0.001558981506
0.002589245175
0.003609495119
0.003343778809
0.004701391477
0.005411085969
0.005652622041
0.005386618898
0.004744469839
0.003979450736
0.003947099649
0.005608797811
0.008857330452
0.01292356198
0.01879817253
0.02787982822
0.04231057998
0.0206447014
0.01865238277
0.03982308325
0.06283350947
0.08756387405
0.08308551956
0.04665796836
0.04715762421
0.1030635817
0.0547391967
0.02849967258
0.01740611546
7.173899194e-06
1.156621367e-05
3.597690482e-05
0.0001275457508
0.0003590156349
0.0007438671381
0.001262963912
0.001645164458
0.002834058237
0.003712836419
0.004130270341
0.003887480992
0.003123682348
0.002816372438
0.004482235692
0.007192447264
0.009496650009
0.01158018496
0.01471351049
0.01982632827
0.02694808954
0.01732615609
0.02122904061
0.03900236486
0.07271062844
0.08094966602
0.05201660647
0.02823953878
0.04950222483
0.09993733464
0.05056953862
0.02824600465
0.01810052909
6.013818442e-06
6.831717945e-06
8.968525743e-06
1.900103682e-05
5.312264598e-05
0.0001308711233
0.0002849152386
0.0005178519088
0.001164345377
0.001870790645
0.002322221646
0.002232751361
0.001941228282
0.00293487988
0.005282086528
0.007406558288
0.008843525247
0.01009683124
0.01213087271
0.01524063616
0.01895499156
0.01547978196
0.01855706982
0.02693950928
0.04420589421
0.0574404715
0.03165039591
0.01955524784
0.03110700344
0.06371919051
0.03179872554
0.02061708318
0.01557191288
5.925553236e-06
6.488873009e-06
6.66527813e-06
7.372626051e-06
1.039303708e-05
1.956519789e-05
4.520444978e-05
0.0001041971069
0.0002869157964
0.0005750604334
0.0008444768586
0.0009058301149
0.001218783145
0.002817596596
0.005271022145
0.007317277156
0.008661694606
0.009707617268
0.01117656098
0.01325359806
0.01559363964
0.01675978156
0.02096108521
0.02834224595
0.02828087696
0.03538650083
0.01951764409
0.01527201556
0.01953801434
0.03704719345
0.01999199743
0.01570870104
0.01372793237
5.917511155e-06
6.467849559e-06
6.527267189e-06
6.567738317e-06
6.74733835e-06
7.455423079e-06
1.008570056e-05
1.832071991e-05
4.689812898e-05
0.0001059486837
0.0001820926313
0.000254316255
0.0006301794398
0.002047411548
0.004421143281
0.006742233858
0.008334212438
0.009401277037
0.01043431267
0.01184058197
0.01364264935
0.01553608319
0.01930549873
0.02847277212
0.02356251725
0.022248646
0.01461021972
0.01340894922
0.01460565207
0.02203008642
0.01478173893
0.01318715519
0.01273874164
5.915254983e-06
6.464528184e-06
6.517506039e-06
6.525064918e-06
6.534200532e-06
6.573440203e-06
6.753070056e-06
7.460895756e-06
1.018062533e-05
1.70319944e-05
2.884003983e-05
5.453859168e-05
0.0002276188107
0.001044553233
0.002928759968
0.005381166724
0.007419434834
0.008764435117
0.009705686244
0.01060408358
0.01174346701
0.01270941344
0.01619309595
0.02395602903
0.02032257359
0.01626286002
0.0122714742
0.01222542302
0.01261943165
0.01497905925
0.01281814215
0.01205662645
0.01203603643
5.914130611e-06
6.462702965e-06
6.514210585e-06
6.520118032e-06
6.521829609e-06
6.52458324e-06
6.534296827e-06
6.574964314e-06
6.742320854e-06
7.23627913e-06
8.382191203e-06
1.317619773e-05
5.660838175e-05
0.0003408966203
0.001369340089
0.003324455919
0.00562260643
0.007417223967
0.008579000443
0.009321269962
0.009833532506
0.009874830071
0.01280810981
0.01746973408
0.01484382342
0.01157939629
0.01009879905
0.01094357412
0.01093456794
0.01207556836
0.01196759218
0.01099202884
0.01094187807
5.913493482e-06
6.460808305e-06
6.510009086e-06
6.514824434e-06
6.515961727e-06
6.51710867e-06
6.518732072e-06
6.521783416e-06
6.530224634e-06
6.554986519e-06
6.630817667e-06
7.171416026e-06
1.358575839e-05
7.057715824e-05
0.0003875672407
0.001393676391
0.003158843978
0.005153126445
0.006675374173
0.007584491381
0.008081081319
0.008126744689
0.01015899802
0.01110173343
0.008404856728
0.007023362375
0.007620793602
0.009021951156
0.008158584812
0.009607895495
0.01057996136
0.00898303141
0.009256829664
5.908501396e-06
6.443170787e-06
6.479313019e-06
6.481594995e-06
6.482177188e-06
6.482847544e-06
6.483714503e-06
6.484840039e-06
6.486379999e-06
6.488768345e-06
6.494084047e-06
6.533576357e-06
7.091163769e-06
1.348790013e-05
6.412426922e-05
0.000320915143
0.001095556935
0.00244406238
0.003903810333
0.004968260477
0.005383150231
0.005537981077
0.007429327708
0.004835213004
0.003023839864
0.003102549045
0.004471005031
0.005949950526
0.004241892868
0.005927383979
0.007753475595
0.005817080497
0.00683572593
5.767338844e-06
6.187364232e-06
6.204763809e-06
6.205390042e-06
6.205592621e-06
6.20586482e-06
6.20624166e-06
6.20676896e-06
6.207542733e-06
6.208720107e-06
6.210631668e-06
6.214917391e-06
6.244067242e-06
6.60363471e-06
1.034395331e-05
3.793631017e-05
0.000172589832
0.0005800179797
0.001314588994
0.002041358469
0.002267634297
0.001857704707
0.003530672934
0.001191085052
0.0004819058043
0.0006553780496
0.00140846999
0.00236865863
0.0009990499461
0.001978065655
0.003522974652
0.00234180382
0.003777909602
0.01655663574
0.01570934904
0.01390359401
0.01106917673
0.01057170587
0.01146401183
0.01356583816
0.01315893653
0.01056504414
0.01274018806
0.01392236783
0.009537637175
0.004070371013
0.001476466588
0.001228793147
0.001077831825
0.0006504000996
0.0002806645135
8.688315365e-05
2.617628403e-05
1.524124771e-05
1.424124181e-05
1.396823755e-05
1.394146297e-05
1.36346648e-05
1.356097969e-05
1.361754117e-05
1.99558248e-05
0.0174421861
0.01792896317
0.01550467489
0.01511883437
0.01740392497
0.01862296134
0.0213978868
0.02133858381
0.01164065093
0.01049276679
0.01046003513
0.007872458076
0.004443352671
0.002507463509
0.001652406433
0.0008840971214
0.0003241900137
9.132470253e-05
2.776176641e-05
1.580903046e-05
1.422027879e-05
1.407106133e-05
1.369121322e-05
1.340765612e-05
1.310758553e-05
1.277940387e-05
1.895481625e-05
0.0001196595894
1.706386183e-05
1.623122768e-05
2.898709907e-05
0.0001823734894
0.01866453783
0.02200116327
0.01888776502
0.01763747555
0.01865891987
0.02081750921
0.02286500918
0.0211175187
0.01298119492
0.007584941154
0.006916290103
0.006245838969
0.004797629323
0.003315289894
0.001955690421
0.0007578804064
0.0002092322378
4.701592482e-05
1.822850005e-05
1.4892884e-05
1.426005952e-05
1.395212527e-05
1.352010491e-05
1.297472395e-05
1.323775968e-05
2.12735499e-05
9.834724444e-05
0.000519086014
7.72884842e-05
5.756598889e-05
0.0001614060469
0.0008361119082
0.02026876906
0.02675184616
0.02209666425
0.01934499047
0.01772796977
0.01743831194
0.01721326147
0.01534400578
0.01202424749
0.006312175287
0.004667821303
0.004411705893
0.003902812724
0.002802798942
0.001633973504
0.0004667892683
0.0001004605024
2.567075064e-05
1.590247602e-05
1.484690503e-05
1.427355365e-05
1.36768714e-05
1.317682463e-05
1.281608889e-05
2.33199327e-05
0.0001207827163
0.0004003599186
0.001077678913
0.000370105438
0.0003799415945
0.0006938878771
0.001812524226
0.001023742147
0.02084932083
0.02635950185
0.02050810955
0.01750384373
0.01589190277
0.01481477721
0.01340679446
0.01117367237
0.00802229015
0.005011721965
0.00331237594
0.002378246789
0.002248670505
0.00211607592
0.001030183759
0.0004026491933
0.0001118497849
3.108525297e-05
1.678719996e-05
1.521993428e-05
1.42964893e-05
1.379148008e-05
1.537894584e-05
2.895202737e-05
0.0001334185802
0.0004604786325
0.0007029225952
0.001033868245
0.0008899833601
0.001424246503
0.00179619997
0.002075566511
0.001682219696
0.02114625071
0.02551482618
0.02028637935
0.01660621356
0.01394201955
0.01183539475
0.009409945927
0.006191819139
0.003333325681
0.002185432076
0.001556382258
0.00140932813
0.001761710591
0.00166886205
0.000878943917
0.0002800672824
6.63586018e-05
2.208438666e-05
1.603857448e-05
1.499169303e-05
1.509968209e-05
2.012517373e-05
4.945859228e-05
0.0001783918693
0.000490810712
0.0008333134049
0.0009363968857
0.001140484034
0.001124305074
0.002335443643
0.00260755589
0.002144644446
0.001755244775
0.02105012083
0.0239431279
0.01980025415
0.01632059451
0.01329822074
0.01083362512
0.008149730477
0.004963118138
0.001915253953
0.0007152294197
0.001435690098
0.002005468039
0.001916923736
0.001199902399
0.0005967951127
0.0001978539674
5.265260064e-05
2.101123421e-05
1.548571006e-05
1.599624967e-05
3.038596914e-05
9.157647519e-05
0.0002664997117
0.0005926606155
0.0008563364913
0.001108265001
0.000787423174
0.001078247971
0.001036768107
0.002612099625
0.00283088612
0.001811322328
0.001452645795
0.02071313707
0.02199254603
0.01899869272
0.01639686994
0.01366606909
0.01103222025
0.008496028136
0.005771796482
0.002727252568
0.001644702032
0.002025491272
0.001857419212
0.001426472219
0.001012110049
0.0009210042167
0.000540852518
0.0001719002731
4.611042941e-05
2.065257827e-05
3.281226768e-05
0.0001461532974
0.0004153080456
0.00073365258
0.0009751090121
0.001122431857
0.0009677098436
0.00163979422
0.003536768396
0.001504617234
0.002631577211
0.003215058978
0.002808245817
0.001238953467
0.02015114412
0.01973004071
0.01783605302
0.01613702775
0.01408446469
0.01197385945
0.01003198103
0.007616628376
0.004446133689
0.002607848778
0.001946181072
0.001667012376
0.001848432801
0.00199672033
0.001710663155
0.001146396935
0.0005367814251
0.0001703891455
6.107192166e-05
0.0001515494873
0.0005360816449
0.001004204519
0.001151900198
0.001160503237
0.0007893891683
0.001379569726
0.007387554897
0.006571063708
0.004138814119
0.003159738555
0.005629922142
0.007755654833
0.00278938959
0.01940891596
0.01753846288
0.01579517263
0.01471640724
0.01383504521
0.01336978872
0.01286330706
0.01007510836
0.00614676176
0.003152436208
0.002070108746
0.002618169307
0.003034032929
0.002893432198
0.001840520505
0.001040719146
0.0010053659
0.0006648522838
0.0003248079246
0.0005854647669
0.001100371617
0.001509127405
0.001519414463
0.001562677
0.001051842422
0.001929942934
0.006267925536
0.006483842289
0.003654668103
0.004788560694
0.009847908038
0.01036883568
0.008266791408
0.01849277891
0.01548430056
0.01360182288
0.01276602496
0.01261304045
0.01343623822
0.0169081889
0.01498134159
0.007423108667
0.003836177353
0.003317061928
0.003653579565
0.003278335469
0.00352280111
0.003450073253
0.003807385139
0.002255824305
0.001492223024
0.001193598731
0.001563125524
0.001702033254
0.001539104647
0.001750233876
0.001739768046
0.001611333712
0.001241860432
0.003042942068
0.00462435584
0.003346684826
0.004898703697
0.006949839282
0.008531783742
0.005437396943
0.01739921801
0.01382632387
0.01232816228
0.01257903108
0.01519087916
0.01990464038
0.02437138679
0.02436160224
0.01108914825
0.006912156442
0.005205424241
0.004386110421
0.003659162102
0.006661677293
0.01266503559
0.01350378795
0.01328077564
0.005191987695
0.002655055301
0.00297564543
0.002576994442
0.001876057006
0.001810495544
0.001942802772
0.002437295981
0.002155243088
0.00130417768
0.002663090285
0.003405961718
0.003684604365
0.003124091903
0.004420267878
0.002133550118
0.01581074775
0.01218449328
0.01146863906
0.0127791658
0.01669148043
0.02137208949
0.0243861897
0.01929542962
0.01004267376
0.006784822543
0.00569835911
0.006181636422
0.005900229098
0.01038034103
0.01517828159
0.0193153278
0.02785148329
0.03570739257
0.00765596227
0.004373401513
0.003129298111
0.002641640991
0.001783057218
0.002098816163
0.002149484563
0.002505163652
0.00210280703
0.002088228067
0.003854176708
0.003161233502
0.001418005036
0.002011419436
0.001446278074
0.01327891549
0.009557553894
0.00898300692
0.009885473121
0.01566430155
0.02804546823
0.04650903756
0.04663259537
0.02235932282
0.006994866416
0.004842993102
0.006388298777
0.007131822932
0.008499444877
0.01240578586
0.01427987564
0.03710582006
0.02696372316
0.02511047735
0.005931180269
0.004227211107
0.003477303634
0.002222551712
0.002003864435
0.002294488782
0.002354182884
0.002754336988
0.003572649537
0.004149022337
0.003700339375
0.00237552474
0.002841318268
0.008538878292
0.009375978154
0.006702395959
0.006741847141
0.0105153035
0.02334089697
0.04657373895
0.06476899751
0.06404430483
0.03712570874
0.008996337872
0.00644659854
0.007396404317
0.007659070394
0.007392602919
0.008018971755
0.007305322917
0.008849498059
0.018965137
0.007151285679
0.006107129472
0.008980498285
0.006844080936
0.002904463206
0.002433913964
0.002241316937
0.002551740693
0.002904202854
0.00371157283
0.004278008068
0.004721879671
0.004680744267
0.005742495235
0.01726142426
0.005309845298
0.004523243133
0.005301504429
0.007877727222
0.01883777468
0.04144291626
0.05604414751
0.05077039392
0.01680569717
0.007020593836
0.006619938142
0.007091157093
0.007229679264
0.006868737913
0.006487255597
0.004731163534
0.005514192207
0.007850488919
0.006272035726
0.008480132524
0.01095946321
0.008774215747
0.004872086011
0.002888851167
0.002718645221
0.002701544301
0.003064248537
0.004173009075
0.005628981671
0.008120266338
0.007500184529
0.006838469199
0.01432087516
0.002378269369
0.002606378237
0.003587146391
0.004752935197
0.008058092847
0.01814207488
0.02399923651
0.01716365316
0.007545509512
0.005570920412
0.005533960381
0.005949874329
0.006143810107
0.005568858299
0.005071435543
0.005013501305
0.004908257221
0.00502891707
0.005063276299
0.00788204586
0.0115017496
0.01129822126
0.005663886864
0.003226027149
0.003235080063
0.004074113809
0.003720289487
0.005418750411
0.006085044404
0.008692375754
0.01080301357
0.01111574089
0.009567878793
0.0007718941078
0.001178359819
0.002170304977
0.003192100674
0.003807990396
0.005495739707
0.006614926674
0.005195083713
0.005375642509
0.004269480431
0.004210514349
0.004371216044
0.004383742351
0.003979206125
0.004812567948
0.004680181227
0.004066434781
0.003984081655
0.004901125742
0.00742416172
0.01406295381
0.01984341921
0.004848435088
0.004238557132
0.004045614817
0.008065531004
0.006402045812
0.008501715228
0.00748589641
0.01002809655
0.01182397166
0.01068714922
0.008683314725
0.0001771282794
0.0003505768397
0.0009431481699
0.0018389812
0.002616315977
0.003127135576
0.003908707906
0.003630344578
0.004127705223
0.003281765897
0.003003238398
0.002738453094
0.002598452594
0.003294680225
0.00431013535
0.003853033274
0.003598849121
0.003823827304
0.005371446736
0.01472569294
0.04476108898
0.05903725216
0.01362826041
0.006485316076
0.006536674537
0.01791408364
0.01097498544
0.01334906952
0.01049795947
0.02310778074
0.0233373307
0.01548350391
0.008136956759
3.279811863e-05
7.680420055e-05
0.0002497572056
0.0006460307351
0.001268693508
0.001895794474
0.002804597185
0.002517024579
0.00308247654
0.00274191158
0.002434598473
0.002076194216
0.002239062685
0.002949843988
0.003456543263
0.003616105153
0.004614961583
0.006065033023
0.008816381147
0.03067819083
0.06050542845
0.06804102185
0.01414711055
0.01015454349
0.02223856106
0.07312437462
0.04805852642
0.02584122361
0.03429758176
0.1023777006
0.04297755273
0.02008419223
0.009192049236
8.995655911e-06
2.266853198e-05
5.487317805e-05
0.0001441995777
0.0003451244426
0.0006665722311
0.001237692991
0.00140739026
0.002082847435
0.002228102621
0.002188081422
0.002015615267
0.001957699595
0.002180178093
0.00237354699
0.00301903882
0.0043246294
0.00582355768
0.008567382656
0.01960305632
0.04126500802
0.03368441002
0.01318044427
0.02015363733
0.05278377784
0.08141350279
0.1065469888
0.04911297843
0.1104134633
0.1208759109
0.0717854899
0.02961436488
0.01416646398
6.170278752e-06
1.472166868e-05
2.189159996e-05
3.445650099e-05
7.030090678e-05
0.0001483681655
0.0003290161259
0.0005242012199
0.001032810828
0.001451590594
0.001710149938
0.001719664718
0.001429466564
0.001281227662
0.001938087227
0.002785830818
0.003277629848
0.004215830739
0.006853694405
0.0125882482
0.02106820368
0.02163919889
0.0181985824
0.02315639078
0.07992919822
0.08080373713
0.05385943459
0.02709276943
0.06367953857
0.1138980975
0.05322297206
0.0230313628
0.0141809005
5.8908516e-06
1.300457247e-05
1.670471599e-05
1.862013849e-05
2.265840915e-05
3.351385033e-05
6.801320776e-05
0.0001332210722
0.000318657183
0.0005666646761
0.0008004974992
0.0008690768451
0.000767080057
0.0009716992636
0.001803223632
0.002244692744
0.002230343895
0.003458054986
0.006340577979
0.01118154692
0.0169403536
0.01839104022
0.02349184008
0.03422471715
0.0359192763
0.04481082138
0.02233903843
0.01904023225
0.02129811484
0.06035773594
0.02498039343
0.01647868872
0.01181446342
5.843887116e-06
1.21495809e-05
1.496876493e-05
1.580166686e-05
1.636639735e-05
1.730056078e-05
2.133016725e-05
3.242536237e-05
6.96929275e-05
0.0001387912784
0.0002258812826
0.0002786464396
0.000341391383
0.000797112324
0.001768942488
0.002398642098
0.002338171397
0.003070085352
0.005201838244
0.008724038327
0.01310958237
0.0151059186
0.01993366626
0.03404114094
0.02082074322
0.02068990128
0.0124868635
0.01386255786
0.01227234184
0.02022734515
0.01273646706
0.01088445567
0.009415816444
5.820700637e-06
1.158216901e-05
1.392725805e-05
1.454998993e-05
1.479825756e-05
1.496086739e-05
1.538465657e-05
1.64419543e-05
2.075766709e-05
3.119455086e-05
4.794075795e-05
6.666725174e-05
0.0001318325582
0.000493589746
0.001421846681
0.002355865096
0.002830848177
0.002833864787
0.003527846171
0.005574853797
0.00851043865
0.01110594343
0.01580205746
0.02865468953
0.01444796966
0.01210361726
0.008907351857
0.009440593912
0.008823635823
0.009883875522
0.008039801382
0.00724494405
0.008069310059
5.805493663e-06
1.119416462e-05
1.323157938e-05
1.375081034e-05
1.393811661e-05
1.407748928e-05
1.425760615e-05
1.446887082e-05
1.493747935e-05
1.602925029e-05
1.812814829e-05
2.263040756e-05
4.828145595e-05
0.0002133782275
0.0008161878307
0.00186539908
0.002807466706
0.003379157024
0.003159461069
0.003272957758
0.00493958842
0.00650214898
0.01198312881
0.02052805367
0.009554319019
0.00909821398
0.007533142118
0.007207142961
0.00708951891
0.007019592854
0.006000636841
0.005657154226
0.007049548178
5.79573775e-06
1.093127624e-05
1.275761986e-05
1.319888699e-05
1.335478546e-05
1.349172953e-05
1.366173349e-05
1.386731238e-05
1.414224183e-05
1.454397315e-05
1.516639077e-05
1.651427678e-05
2.274111732e-05
6.736553772e-05
0.0002983609253
0.0009946894691
0.002025196953
0.002955701824
0.003475725377
0.003506103862
0.003393393683
0.002712856158
0.006663291023
0.009785496092
0.00639060451
0.006658600566
0.006108923535
0.006042875652
0.005963474469
0.005642565733
0.005447349562
0.005468012558
0.006388086178
5.788918999e-06
1.072998025e-05
1.232099154e-05
1.263297894e-05
1.274743262e-05
1.286774919e-05
1.302446125e-05
1.322710553e-05
1.349381769e-05
1.385517564e-05
1.435737216e-05
1.514095035e-05
1.684056229e-05
2.497891567e-05
7.58987416e-05
0.0003091156694
0.0009484355042
0.001915786103
0.002703837774
0.003213644867
0.002922042226
0.001545736954
0.00256417863
0.002559663334
0.003353246427
0.003868471079
0.004107701244
0.004642929876
0.003963966708
0.004206988376
0.005049062596
0.004657509341
0.005706391491
5.760962459e-06
1.010590744e-05
1.099011355e-05
1.10989483e-05
1.1155456e-05
1.122798405e-05
1.132595781e-05
1.145676386e-05
1.163041615e-05
1.186096297e-05
1.216698091e-05
1.258466825e-05
1.320048127e-05
1.458922886e-05
2.125865914e-05
6.039511363e-05
0.0002249283068
0.000671708378
0.001382861458
0.001996031935
0.002131488377
0.001314026193
0.001681736909
0.0008835911308
0.0008987521531
0.001394235833
0.00203691545
0.002732438731
0.001618101262
0.002223487405
0.003477643704
0.002801434938
0.00389832247
5.53467953e-06
6.349687052e-06
6.42570142e-06
6.431433023e-06
6.433908089e-06
6.437159456e-06
6.441493599e-06
6.44734061e-06
6.45558665e-06
6.467470489e-06
6.484743237e-06
6.510701843e-06
6.550660282e-06
6.632470143e-06
7.034871832e-06
1.003574523e-05
2.796019467e-05
0.0001028378403
0.0003028323946
0.0005844994488
0.0007576842865
0.0002465273526
0.0009518238784
0.0001619933798
8.438597504e-05
0.000188708902
0.0004431840051
0.0008560715719
0.0002428937963
0.0005240946971
0.001325132217
0.0008071879296
0.001826533202
0.01598912665
0.01248586265
0.008326280102
0.006903125526
0.007458920954
0.00638478616
0.007022310862
0.009559512434