/*--------------------------------*- C++ -*----------------------------------*\
  =========                 |
  \\      /  F ield         | OpenFOAM: The Open Source CFD Toolbox
   \\    /   O peration     | Website:  https://openfoam.org
    \\  /    A nd           | Version:  8
     \\/     M anipulation  |
\*---------------------------------------------------------------------------*/
FoamFile
{
    version     2.0;
    format      ascii;
    class       volScalarField;
    location    "0.4";
    object      O2;
}
// * * * * * * * * * * * * * * * * * * * * * * * * * * * * * * * * * * * * * //

dimensions      [0 0 0 0 0 0 0];

internalField   nonuniform List<scalar> 
67286
(
0.2100048923
0.2100049091
0.2100049858
0.2100050011
0.2100049512
0.2100049561
0.2100053158
0.2100055816
0.210005303
0.2100048651
0.2100053224
0.210005394
0.2100054019
0.2100053934
0.2100055086
0.2100057869
0.2100061251
0.210006483
0.2100067425
0.2100068442
0.2100068586
0.210006855
0.2100068524
0.2100068541
0.2100068538
0.2100068617
0.2100068639
0.2100068607
0.2100045762
0.2100045722
0.2100046346
0.2100045514
0.2100043328
0.2100042187
0.2100046254
0.2100049575
0.2100051119
0.2100052289
0.2100054581
0.2100054787
0.2100054421
0.21000547
0.2100056783
0.2100060406
0.2100064453
0.210006736
0.2100068426
0.2100068572
0.2100068521
0.210006848
0.210006847
0.2100068494
0.2100068522
0.2100068622
0.2100068471
0.2100066714
0.2100068703
0.2100068936
0.2100068721
0.2100066967
0.2100045346
0.2100046476
0.2100048727
0.2100050447
0.2100050405
0.2100049325
0.2100049608
0.2100049297
0.2100049081
0.2100050029
0.2100051556
0.2100053182
0.2100054408
0.2100055978
0.2100059098
0.2100062972
0.2100066635
0.2100068356
0.2100068613
0.2100068535
0.2100068466
0.210006844
0.2100068448
0.2100068494
0.2100068564
0.21000684
0.2100066704
0.2100063081
0.2100067503
0.2100068254
0.2100067086
0.2100063341
0.2100043285
0.210004293
0.2100043812
0.2100045212
0.2100046718
0.2100046831
0.2100046086
0.2100045
0.2100046269
0.2100049305
0.2100050658
0.2100051706
0.210005374
0.2100056733
0.2100060929
0.2100065264
0.2100067976
0.2100068607
0.2100068552
0.2100068466
0.210006843
0.2100068433
0.2100068476
0.2100068551
0.2100068356
0.2100066511
0.2100063119
0.2100060197
0.2100063884
0.2100064761
0.2100063184
0.2100060029
0.2100061506
0.2100044869
0.210004162
0.2100040338
0.2100040646
0.2100041575
0.2100041625
0.2100040584
0.2100040423
0.2100042473
0.2100046434
0.2100050381
0.2100052824
0.2100053586
0.210005654
0.2100063382
0.2100064799
0.2100067983
0.2100068712
0.2100068593
0.2100068493
0.2100068459
0.2100068477
0.2100068514
0.210006822
0.2100066297
0.2100062856
0.2100060338
0.2100058311
0.2100059971
0.2100059853
0.2100058818
0.2100056917
0.2100057921
0.2100044849
0.2100042333
0.2100040722
0.210004038
0.2100040922
0.2100041549
0.2100042185
0.2100044048
0.2100048561
0.2100051828
0.2100053954
0.2100054734
0.2100054453
0.2100056618
0.210006112
0.2100065732
0.2100068239
0.2100068651
0.2100068541
0.2100068489
0.2100068503
0.210006844
0.2100067882
0.2100065714
0.2100062413
0.2100060014
0.2100058871
0.2100057391
0.2100057713
0.2100056626
0.2100055509
0.2100054463
0.2100055564
0.2100045248
0.210004362
0.2100042126
0.2100041504
0.2100041748
0.2100042517
0.2100043837
0.2100046385
0.2100051895
0.2100054248
0.2100054769
0.2100054489
0.2100055414
0.2100059099
0.2100064643
0.2100067701
0.2100068836
0.2100068882
0.2100068664
0.2100068599
0.2100068411
0.2100067348
0.2100064776
0.2100061718
0.2100059617
0.210005845
0.2100057331
0.2100055219
0.2100056817
0.210005529
0.2100053878
0.2100052762
0.2100054489
0.2100045912
0.2100045217
0.2100044079
0.2100043333
0.2100043228
0.2100043738
0.2100045144
0.2100048057
0.2100053525
0.2100054815
0.2100054328
0.2100055279
0.2100058914
0.2100064164
0.2100064846
0.2100065706
0.2100067705
0.2100068657
0.2100068672
0.2100068591
0.2100067102
0.2100063818
0.2100060945
0.210005928
0.2100058288
0.2100056801
0.2100054179
0.2100050898
0.2100054838
0.2100054154
0.2100052905
0.2100050863
0.2100053414
0.2100046844
0.2100047123
0.2100046274
0.2100045459
0.2100044866
0.2100044839
0.210004577
0.2100048429
0.2100052988
0.2100054315
0.2100055588
0.2100059653
0.2100063753
0.2100062177
0.210006001
0.2100061016
0.2100065059
0.2100067899
0.2100068645
0.2100068001
0.210006427
0.2100060586
0.2100058858
0.2100058272
0.210005694
0.210005385
0.2100047804
0.2100045547
0.210005125
0.2100052246
0.2100051628
0.2100047168
0.2100051283
0.2100048169
0.2100049438
0.2100049202
0.2100048555
0.2100047822
0.2100047403
0.210004777
0.2100049165
0.2100052887
0.2100055812
0.2100060245
0.2100062907
0.210006014
0.2100057626
0.2100056397
0.2100056641
0.210006142
0.2100065168
0.2100066978
0.2100066496
0.2100062898
0.2100059416
0.2100057779
0.2100057235
0.2100055509
0.2100052147
0.2100046953
0.2100043328
0.2100049426
0.2100051035
0.2100049261
0.2100043496
0.2100047581
0.2100050071
0.2100052308
0.2100053197
0.210005362
0.2100053936
0.210005452
0.2100055482
0.2100054566
0.2100057113
0.2100061355
0.2100062573
0.2100058731
0.2100056542
0.210005464
0.2100052732
0.2100052819
0.2100058221
0.2100061361
0.2100063482
0.2100064514
0.2100063253
0.2100060607
0.2100057763
0.2100056557
0.2100055552
0.2100053333
0.2100049897
0.2100046204
0.2100049685
0.210004826
0.2100047365
0.2100042989
0.2100048422
0.2100052425
0.2100054854
0.2100056109
0.2100056806
0.2100057015
0.2100056773
0.2100056256
0.2100057809
0.2100060783
0.2100061556
0.2100057063
0.2100055185
0.2100054407
0.2100051545
0.2100047628
0.2100048197
0.2100057486
0.2100058245
0.2100059854
0.2100060918
0.2100061687
0.2100061946
0.21000587
0.2100056565
0.2100055948
0.2100054812
0.2100052953
0.2100049418
0.2100048973
0.2100048502
0.2100049427
0.2100046474
0.2100051076
0.210005518
0.2100056361
0.2100056422
0.2100056519
0.2100057012
0.2100056569
0.2100054291
0.2100056977
0.2100059975
0.2100053063
0.2100050814
0.210005115
0.2100049738
0.2100045856
0.2100042831
0.2100049139
0.2100069928
0.2100052843
0.2100060819
0.2100058018
0.2100058688
0.2100060275
0.210006095
0.2100057675
0.2100055931
0.2100055225
0.2100054029
0.2100051047
0.2100048566
0.2100049406
0.2100051153
0.2100049576
0.2100053188
0.210005943
0.2100059846
0.2100059657
0.210005951
0.2100058019
0.2100054361
0.2100049055
0.2100053644
0.21000589
0.2100054629
0.2100050808
0.2100049722
0.210005069
0.2100054207
0.2100068642
0.2100089276
0.2100003922
0.2099998519
0.2100064421
0.2100067338
0.2100061928
0.2100059026
0.2100061785
0.2100060171
0.2100056917
0.2100054959
0.2100053116
0.2100050521
0.2100048745
0.2100050243
0.2100051936
0.2100051907
0.2100054664
0.2100062752
0.2100059178
0.2100056703
0.2100057412
0.2100056549
0.2100048748
0.2100039406
0.2100042331
0.2100056021
0.2100058542
0.2100052579
0.2100048873
0.2100047953
0.2100049047
0.2100054641
0.2100074417
0.2100096469
0.2100057082
0.2100069962
0.2100060393
0.2100055062
0.2100054767
0.210005798
0.2100061114
0.2100059699
0.2100057034
0.2100053525
0.2100051358
0.2100050455
0.210005199
0.2100053304
0.2100054044
0.2100055633
0.2100067595
0.2100064008
0.2100063988
0.210005978
0.2100044023
0.2100025688
0.2100020309
0.2100053688
0.2100058863
0.2100061212
0.2100054757
0.2100050409
0.2100048704
0.2100048895
0.2100051423
0.2100059093
0.2100075072
0.2100066283
0.2100061916
0.2100054906
0.2100051172
0.2100051876
0.2100054704
0.2100057376
0.2100060964
0.2100062399
0.2100058404
0.2100056806
0.2100054504
0.2100052885
0.2100053014
0.2100054958
0.2100055916
0.2100070271
0.2100066343
0.2100065929
0.2100067818
0.2100060773
0.2100043654
0.210003251
0.2100060896
0.2100062115
0.2100060855
0.2100055731
0.2100052454
0.2100050684
0.2100050277
0.2100051762
0.2100056513
0.2100062727
0.2100062325
0.2100056329
0.2100053117
0.2100052004
0.2100051876
0.2100053804
0.2100056072
0.2100059
0.2100064132
0.2100063025
0.21000605
0.2100057553
0.2100054061
0.2100051313
0.2100051029
0.2100052846
0.2100071655
0.2100068849
0.2100066214
0.210006708
0.2100068684
0.210006347
0.2100053158
0.2100063071
0.2100061837
0.2100058873
0.2100056281
0.2100054339
0.2100053077
0.2100052437
0.210005302
0.2100057262
0.2100059382
0.210005821
0.2100055309
0.2100056126
0.2100055427
0.2100052261
0.2100055343
0.2100058684
0.2100062093
0.210006175
0.2100059755
0.2100056676
0.2100055344
0.2100053632
0.2100051095
0.2100049371
0.2100051507
0.2100071399
0.2100070636
0.2100068535
0.2100066693
0.2100067326
0.2100068693
0.2100065193
0.2100061096
0.2100059832
0.2100057618
0.2100056725
0.2100055825
0.2100055247
0.2100055
0.2100055472
0.2100057743
0.2100057188
0.210005673
0.2100059599
0.2100061139
0.2100055302
0.2100038158
0.2100059413
0.2100062754
0.2100064257
0.2100052512
0.2100057162
0.2100055142
0.2100054695
0.2100051736
0.2100048362
0.2100044143
0.2100048057
0.2100070423
0.210007058
0.2100070249
0.2100068823
0.2100067362
0.2100067201
0.2100066442
0.210006098
0.2100059192
0.2100057548
0.2100057385
0.2100057271
0.2100057541
0.2100058245
0.2100059176
0.2100060414
0.2100062725
0.2100064559
0.2100053993
0.2100031304
0.2100016332
0.210005231
0.2100062824
0.2100065396
0.210005824
0.2100039644
0.2100054729
0.2100056672
0.2100056002
0.2100047054
0.2100046549
0.210004175
0.2100046336
0.2100069612
0.210006976
0.2100070042
0.2100069965
0.2100069164
0.2100067899
0.2100066748
0.2100063182
0.2100060831
0.2100058983
0.2100058767
0.2100059213
0.2100060309
0.2100061519
0.2100061431
0.2100059385
0.2100058194
0.2100061473
0.2100063748
0.2100050659
0.2100025974
0.2100060512
0.2100063707
0.2100058237
0.2100033989
0.2100007527
0.2100029169
0.2100048705
0.2100055272
0.2100030949
0.2100046881
0.2100043673
0.2100044963
0.210006909
0.2100069117
0.2100069276
0.2100069505
0.2100069573
0.2100068994
0.2100068251
0.2100065966
0.2100063857
0.2100061958
0.2100061408
0.2100062069
0.2100063571
0.2100064022
0.2100061087
0.2100056903
0.2100055047
0.2100056082
0.2100059407
0.2100060672
0.2100050385
0.2100057707
0.2100070457
0.2100046776
0.2100009527
0.2100013508
0.2100044195
0.2100058207
0.2100051165
0.210001576
0.2100046001
0.2100047621
0.2100047055
0.2100068756
0.2100068725
0.2100068755
0.2100068871
0.2100069026
0.2100068936
0.2100068856
0.2100067868
0.2100066779
0.2100065312
0.2100064631
0.2100065097
0.2100065802
0.2100063676
0.2100059147
0.2100055616
0.2100054214
0.2100053955
0.2100054306
0.2100056601
0.2100057159
0.2100056354
0.2100062801
0.2100066913
0.2100038306
0.2100039509
0.2100057281
0.2100059322
0.2100061032
0.2100037187
0.2100055014
0.2100049399
0.2100048186
0.2100068538
0.2100068483
0.2100068459
0.2100068497
0.2100068564
0.2100068566
0.210006864
0.2100068388
0.2100068205
0.2100067695
0.2100067334
0.2100067534
0.2100067129
0.2100063675
0.2100058617
0.2100055243
0.2100054314
0.2100054202
0.2100053372
0.2100052742
0.210005221
0.2100049482
0.2100049946
0.2100051544
0.2100068381
0.2100061559
0.2100061155
0.2100057001
0.2100060301
0.210005862
0.2100055924
0.2100049752
0.2100049465
0.2100068391
0.2100068327
0.2100068283
0.2100068293
0.2100068316
0.2100068327
0.210006837
0.210006834
0.2100068396
0.2100068395
0.2100068429
0.2100068607
0.2100068249
0.2100065342
0.2100060309
0.2100056365
0.210005515
0.2100055069
0.2100054019
0.2100051966
0.210004978
0.2100048409
0.2100045054
0.2100043753
0.2100064368
0.2100063465
0.2100060372
0.2100055864
0.2100055607
0.2100062585
0.2100054591
0.210005141
0.2100050513
0.2100068293
0.2100068224
0.2100068172
0.2100068173
0.2100068183
0.2100068195
0.2100068218
0.2100068234
0.2100068295
0.2100068379
0.2100068512
0.2100068737
0.2100068861
0.2100067562
0.2100063587
0.2100059107
0.2100056907
0.2100056547
0.2100055566
0.2100053277
0.2100050696
0.2100050795
0.210004623
0.2100046155
0.210005749
0.2100061002
0.2100060406
0.2100056527
0.2100053447
0.210005804
0.2100053897
0.2100052588
0.2100051009
0.2100068227
0.2100068156
0.2100068102
0.2100068099
0.2100068108
0.2100068119
0.2100068138
0.2100068164
0.2100068214
0.210006829
0.2100068408
0.2100068601
0.2100068887
0.2100068861
0.2100067046
0.2100063153
0.2100059823
0.2100058714
0.2100058107
0.2100056124
0.2100053391
0.2100052729
0.2100049681
0.2100053308
0.2100059387
0.2100062956
0.210006134
0.2100057941
0.210005433
0.2100055015
0.2100052652
0.2100053407
0.2100052283
0.2100068185
0.2100068114
0.2100068062
0.210006806
0.2100068068
0.210006808
0.21000681
0.2100068128
0.2100068172
0.2100068238
0.2100068335
0.2100068482
0.2100068717
0.2100069027
0.2100068933
0.2100067183
0.2100063993
0.2100061683
0.2100061041
0.2100060312
0.2100058092
0.2100057073
0.2100052324
0.210006117
0.2100065111
0.2100066107
0.2100062455
0.2100060147
0.2100058488
0.2100056268
0.2100052923
0.2100056065
0.2100054805
0.2100068161
0.2100068107
0.2100068079
0.2100068081
0.210006809
0.2100068103
0.2100068123
0.2100068151
0.2100068193
0.2100068252
0.2100068334
0.2100068452
0.2100068623
0.2100068878
0.2100069195
0.2100069193
0.2100067996
0.2100065802
0.2100064288
0.2100064152
0.210006373
0.2100064502
0.2100057456
0.210006777
0.2100069203
0.210006851
0.2100065124
0.2100063864
0.2100064678
0.210006203
0.2100057134
0.2100061323
0.2100058331
0.2100068155
0.2100068148
0.2100068147
0.2100068153
0.2100068162
0.2100068175
0.2100068195
0.2100068224
0.2100068264
0.2100068319
0.2100068396
0.21000685
0.2100068645
0.2100068849
0.2100069138
0.2100069518
0.2100069814
0.210006958
0.2100068741
0.2100068511
0.2100068296
0.2100072365
0.2100066808
0.2100071393
0.2100070814
0.2100070648
0.2100068724
0.2100068459
0.2100069303
0.2100068755
0.2100065288
0.2100067539
0.2100063695
0.2100052568
0.210005569
0.2100057701
0.2100058428
0.2100057628
0.2100056615
0.2100055415
0.21000572
0.2100057114
0.2100055605
0.2100051912
0.2100051597
0.2100055951
0.21000609
0.2100062455
0.2100063336
0.2100064398
0.2100065195
0.2100065317
0.2100064971
0.21000646
0.2100064385
0.2100064266
0.2100064282
0.2100064248
0.2100064457
0.2100064414
0.2100064953
0.2100050062
0.2100052182
0.2100053116
0.2100051923
0.2100047781
0.2100044309
0.2100044798
0.2100051638
0.210005414
0.2100055348
0.2100055509
0.2100056026
0.2100058466
0.2100061158
0.2100062904
0.210006461
0.2100065683
0.2100065757
0.2100065309
0.2100064851
0.2100064531
0.2100064371
0.2100064282
0.2100064353
0.2100064371
0.2100064733
0.2100064766
0.2100065415
0.2100064975
0.2100065434
0.2100065274
0.2100065912
0.2100048639
0.2100049134
0.2100050282
0.2100051151
0.2100049541
0.2100045476
0.2100043452
0.2100046719
0.2100053421
0.2100055934
0.210005618
0.2100057031
0.2100058853
0.2100061077
0.2100063193
0.2100065439
0.2100065962
0.2100065624
0.2100065031
0.2100064641
0.2100064411
0.2100064341
0.2100064321
0.2100064497
0.2100064631
0.2100065196
0.2100065163
0.210006495
0.2100065514
0.21000662
0.2100065845
0.2100065422
0.2100047129
0.2100045403
0.2100044755
0.2100045036
0.2100044945
0.2100043718
0.2100042775
0.2100043955
0.2100047949
0.2100055433
0.210005894
0.2100059318
0.2100060136
0.2100062381
0.2100064831
0.2100066347
0.2100066193
0.2100065515
0.210006496
0.2100064652
0.2100064494
0.21000645
0.2100064562
0.2100064864
0.2100065201
0.2100065649
0.2100064909
0.2100064165
0.2100065488
0.2100066359
0.2100065613
0.2100064095
0.2100065028
0.2100048879
0.2100042549
0.2100040448
0.2100040156
0.2100040632
0.2100040757
0.2100040737
0.2100041357
0.2100043525
0.2100048243
0.2100054519
0.2100060902
0.2100062458
0.2100063761
0.2100062292
0.2100065307
0.2100065776
0.2100065555
0.2100064957
0.2100064721
0.210006463
0.2100064735
0.2100064937
0.2100065397
0.2100065602
0.2100065114
0.2100064337
0.2100064237
0.2100064561
0.2100064569
0.210006403
0.2100063331
0.2100063846
0.2100047685
0.2100043815
0.2100041557
0.2100040987
0.2100041619
0.2100042995
0.2100045349
0.2100049002
0.2100053332
0.2100056339
0.2100059581
0.2100064149
0.2100064537
0.2100064045
0.2100065389
0.2100066361
0.2100066129
0.2100065501
0.2100065053
0.210006492
0.2100064984
0.2100065242
0.2100065572
0.210006577
0.2100065118
0.2100064402
0.2100064066
0.2100064127
0.2100064399
0.2100063408
0.210006263
0.2100063278
0.210006349
0.2100048155
0.2100045943
0.2100043924
0.2100043288
0.2100043791
0.2100045239
0.2100048438
0.2100052912
0.210005988
0.2100064904
0.2100065323
0.2100065334
0.2100063542
0.2100064754
0.2100066244
0.2100066954
0.2100066363
0.210006577
0.210006532
0.2100065312
0.2100065541
0.2100065761
0.2100065597
0.2100064879
0.2100064303
0.2100064033
0.2100063412
0.2100062172
0.2100063964
0.2100063843
0.2100062063
0.2100063354
0.2100064087
0.2100049062
0.2100048612
0.2100047124
0.2100046629
0.210004712
0.210004857
0.2100051876
0.210005652
0.2100063254
0.210006662
0.2100065454
0.2100063496
0.2100064587
0.2100066733
0.2100067034
0.2100066241
0.2100066076
0.2100065673
0.2100065516
0.2100065847
0.2100066044
0.2100065464
0.2100064624
0.2100064159
0.2100063937
0.2100063795
0.2100059414
0.2100051545
0.2100060391
0.2100063153
0.2100059742
0.2100058027
0.2100062983
0.2100050249
0.2100051432
0.2100050962
0.2100050871
0.2100051369
0.210005265
0.2100055972
0.2100060687
0.2100065272
0.210006476
0.2100063306
0.2100064532
0.2100066181
0.2100065527
0.2100065223
0.210006497
0.2100065631
0.2100066249
0.2100066259
0.2100066594
0.210006579
0.2100064357
0.2100063959
0.2100063849
0.2100063135
0.21000596
0.2100045221
0.2100044137
0.2100053227
0.2100060497
0.2100054165
0.2100048092
0.210005705
0.210005171
0.2100054189
0.2100054581
0.210005475
0.2100054832
0.210005558
0.2100057933
0.2100060813
0.2100062547
0.2100062935
0.210006462
0.2100065474
0.2100064329
0.2100064071
0.2100064111
0.210006216
0.2100062916
0.210006431
0.2100065364
0.2100066007
0.2100064933
0.2100063744
0.2100064025
0.2100064277
0.2100062781
0.2100056675
0.2100046183
0.2100042635
0.2100051986
0.2100056312
0.2100048037
0.2100043191
0.2100048596
0.2100053481
0.2100056786
0.2100057973
0.210005878
0.2100059583
0.2100060752
0.2100060895
0.2100060279
0.210006234
0.2100064774
0.2100065512
0.2100064155
0.2100064337
0.210006311
0.2100059684
0.2100057726
0.2100061221
0.2100063754
0.2100065514
0.2100065199
0.2100064697
0.210006408
0.2100063557
0.2100064426
0.2100063951
0.2100060006
0.2100052557
0.210004725
0.210005513
0.2100053456
0.210004876
0.2100043719
0.2100051099
0.210005538
0.2100058692
0.2100060128
0.2100061097
0.2100060854
0.2100057976
0.2100054255
0.2100054735
0.2100062047
0.2100063967
0.2100063019
0.2100063482
0.2100060785
0.2100051684
0.2100042736
0.2100041589
0.2100047106
0.2100057929
0.2100059833
0.2100061325
0.2100062441
0.21000638
0.210006316
0.2100063716
0.2100064785
0.2100064572
0.2100060117
0.2100053413
0.2100057283
0.2100054593
0.2100054101
0.2100049396
0.2100056694
0.2100057642
0.2100060138
0.2100060857
0.2100060703
0.2100058958
0.2100055814
0.2100052781
0.2100056164
0.2100061885
0.2100060382
0.2100062539
0.2100059193
0.2100055085
0.2100047336
0.210004336
0.2100047534
0.2100051214
0.2100034697
0.2100061303
0.2100058928
0.2100061287
0.210006234
0.2100063842
0.2100063006
0.2100063941
0.210006476
0.2100064096
0.2100060092
0.2100058044
0.2100056739
0.2100059648
0.2100055431
0.2100060665
0.210006091
0.2100062401
0.2100062236
0.2100061208
0.2100058092
0.210005394
0.2100052688
0.2100054312
0.2100060073
0.2100059998
0.2100059106
0.2100053699
0.2100047078
0.2100042412
0.210003288
0.2100034512
0.2100078397
0.2100037026
0.2100060474
0.2100054473
0.2100057418
0.2100059577
0.2100063679
0.2100063621
0.2100062611
0.2100063288
0.2100063592
0.2100061473
0.2100056934
0.2100056416
0.2100060123
0.2100057913
0.2100059321
0.2100064321
0.2100063749
0.2100063252
0.2100061422
0.2100055994
0.2100048596
0.2100043979
0.2100047241
0.2100058336
0.2100059635
0.2100056985
0.2100051566
0.2100047119
0.2100045035
0.2100042385
0.2100045692
0.2100044764
0.2100044925
0.2100054107
0.2100056256
0.2100051038
0.2100052548
0.2100061738
0.2100063815
0.2100063386
0.2100062596
0.2100061325
0.2100059132
0.2100056339
0.2100055971
0.2100058697
0.2100059212
0.2100057319
0.2100067434
0.2100064899
0.2100063427
0.2100063019
0.2100061808
0.210005843
0.2100056248
0.2100053232
0.2100061464
0.2100059899
0.2100056157
0.2100051281
0.2100047502
0.2100045823
0.2100043769
0.2100048258
0.2100047
0.2100053674
0.2100052837
0.2100049672
0.2100046751
0.2100048764
0.2100055727
0.2100061891
0.2100063885
0.2100064299
0.2100062618
0.2100061321
0.2100059933
0.2100058852
0.2100061488
0.2100062712
0.2100059824
0.210006921
0.2100066511
0.2100063722
0.2100062834
0.2100061502
0.2100059855
0.2100061578
0.2100058116
0.210006047
0.210005994
0.210005712
0.2100053603
0.2100050969
0.2100050858
0.2100053362
0.2100057188
0.2100055976
0.2100057258
0.2100053921
0.210005041
0.2100048377
0.2100049732
0.2100055633
0.2100061239
0.2100062733
0.2100064746
0.2100065135
0.2100063477
0.2100062672
0.2100059801
0.2100058538
0.2100058432
0.2100062527
0.2100069283
0.2100067667
0.2100064948
0.210006283
0.2100061782
0.2100061135
0.2100061447
0.2100059754
0.2100060392
0.2100060559
0.2100058946
0.2100056692
0.2100054825
0.2100055523
0.2100057522
0.2100057718
0.2100055937
0.210005578
0.2100053154
0.2100051157
0.2100051192
0.2100052897
0.2100057973
0.2100061391
0.2100063477
0.210006224
0.2100062795
0.2100059616
0.2100060443
0.2100058753
0.2100056975
0.2100053816
0.2100057868
0.2100068259
0.2100067825
0.2100066627
0.2100064871
0.2100062631
0.2100061929
0.2100060549
0.2100060837
0.2100060821
0.2100061552
0.2100061335
0.2100060446
0.2100059886
0.2100059707
0.2100059493
0.2100059186
0.2100058133
0.2100056993
0.210005537
0.210005298
0.2100046905
0.2100031344
0.2100059141
0.2100060865
0.2100062837
0.2100057836
0.210005847
0.2100054462
0.2100057637
0.2100053994
0.2100049805
0.2100044672
0.2100053719
0.2100067031
0.2100067069
0.2100066876
0.2100066289
0.210006494
0.210006391
0.2100062473
0.2100062769
0.2100061963
0.2100062337
0.2100062692
0.2100062731
0.2100062608
0.2100062162
0.2100061492
0.2100060247
0.2100057481
0.2100055467
0.2100058821
0.2100058416
0.2100056156
0.2100042339
0.2100063786
0.2100063156
0.2100062839
0.2100045069
0.2100054092
0.2100051206
0.2100051063
0.210004426
0.210004555
0.2100041281
0.2100051473
0.2100066024
0.2100066129
0.2100066216
0.2100066332
0.2100066172
0.2100065787
0.2100065338
0.2100064792
0.2100063843
0.2100063312
0.2100063324
0.2100063584
0.210006415
0.2100064485
0.2100064084
0.2100062018
0.2100059071
0.2100057209
0.2100056016
0.2100054705
0.2100052571
0.2100053516
0.2100062879
0.2100060997
0.210006404
0.210004623
0.2100053657
0.2100048195
0.2100046561
0.2100034873
0.210004505
0.2100041251
0.2100048181
0.2100065264
0.2100065341
0.2100065389
0.2100065571
0.2100065776
0.2100065889
0.2100066069
0.2100065848
0.2100065421
0.2100064715
0.2100064389
0.210006457
0.2100065461
0.210006621
0.2100065188
0.2100062966
0.2100060786
0.2100057865
0.2100053909
0.2100052029
0.2100052456
0.2100055748
0.2100062607
0.2100059988
0.2100073914
0.2100040829
0.2100054503
0.2100052129
0.2100051502
0.2100042917
0.2100049379
0.2100042673
0.2100048001
0.2100064708
0.2100064751
0.210006474
0.2100064848
0.2100065041
0.2100065232
0.210006558
0.2100065716
0.2100065929
0.2100065757
0.2100065608
0.2100065801
0.2100066449
0.2100066405
0.2100065191
0.2100064387
0.210006342
0.2100059197
0.2100054391
0.2100050971
0.2100049064
0.2100052764
0.2100053919
0.2100050408
0.210006244
0.2100050815
0.2100054055
0.2100051756
0.2100052507
0.210005061
0.2100050993
0.2100045489
0.2100050234
0.2100064306
0.2100064327
0.2100064277
0.2100064328
0.2100064448
0.2100064591
0.210006484
0.2100065062
0.2100065442
0.2100065707
0.210006595
0.2100066305
0.210006674
0.2100066275
0.2100064856
0.2100064242
0.2100064248
0.2100061002
0.2100056658
0.2100053393
0.2100050994
0.2100052177
0.2100052369
0.2100046256
0.2100057815
0.2100055991
0.2100056201
0.2100053986
0.2100054986
0.2100055371
0.2100054329
0.2100050283
0.2100054223
0.210006402
0.2100064026
0.2100063954
0.2100063971
0.2100064045
0.2100064144
0.2100064298
0.2100064476
0.2100064764
0.2100065089
0.210006547
0.2100065946
0.2100066494
0.2100066433
0.2100065158
0.2100063914
0.2100064234
0.2100063877
0.2100061257
0.210005829
0.21000556
0.2100055352
0.2100051323
0.2100044743
0.2100057488
0.2100059268
0.2100058644
0.2100057183
0.2100057734
0.210005833
0.2100059089
0.2100056204
0.2100058375
0.2100063817
0.2100063816
0.2100063731
0.210006373
0.2100063779
0.210006385
0.2100063953
0.2100064085
0.2100064284
0.2100064541
0.2100064881
0.2100065345
0.2100065978
0.210006649
0.2100065995
0.2100064397
0.2100063415
0.2100063716
0.2100063797
0.2100062823
0.2100061133
0.2100058483
0.2100053498
0.2100047485
0.2100062078
0.2100061674
0.2100060406
0.210005978
0.2100059557
0.2100061312
0.2100062833
0.2100060873
0.2100060301
0.2100063676
0.210006367
0.2100063581
0.2100063572
0.2100063608
0.2100063663
0.2100063741
0.2100063845
0.2100063992
0.2100064192
0.2100064466
0.2100064854
0.2100065416
0.2100066135
0.2100066541
0.210006578
0.2100064167
0.210006316
0.2100063175
0.2100063891
0.2100064599
0.2100064538
0.2100061636
0.2100057898
0.2100064781
0.2100063867
0.2100061904
0.2100061773
0.2100061121
0.2100062459
0.210006384
0.210006238
0.2100060761
0.2100063581
0.2100063575
0.2100063497
0.2100063492
0.2100063523
0.210006357
0.2100063635
0.2100063723
0.2100063843
0.2100064005
0.2100064228
0.2100064539
0.2100064985
0.2100065609
0.2100066335
0.2100066679
0.210006597
0.2100064563
0.210006337
0.2100063496
0.2100064168
0.2100065092
0.2100067089
0.2100065611
0.210006647
0.2100066235
0.2100064023
0.2100063907
0.2100064108
0.2100063826
0.2100062741
0.2100063478
0.2100061639
0.2100063524
0.2100063533
0.2100063517
0.2100063532
0.2100063562
0.2100063605
0.2100063664
0.2100063742
0.2100063847
0.2100063988
0.2100064176
0.2100064433
0.2100064784
0.2100065265
0.2100065894
0.2100066594
0.210006698
0.2100066632
0.2100065479
0.2100064978
0.2100064089
0.210006581
0.2100066063
0.2100067213
0.2100067963
0.2100068136
0.2100066572
0.2100066508
0.2100067346
0.2100066845
0.2100064295
0.2100066139
0.2100063793
0.210006348
0.2100063508
0.2100063518
0.2100063537
0.2100063566
0.2100063607
0.2100063663
0.2100063737
0.2100063835
0.2100063965
0.2100064137
0.2100064366
0.2100064673
0.210006508
0.210006561
0.2100066271
0.2100067013
0.2100067688
0.2100067795
0.2100068053
0.2100066986
0.2100066882
0.2100067972
0.2100068213
0.2100068325
0.2100068844
0.2100068225
0.2100068802
0.2100068664
0.2100069358
0.2100068128
0.2100069305
0.2100067144
0.210005493
0.2100057783
0.2100059615
0.2100060377
0.2100060863
0.2100062737
0.2100061109
0.2100059018
0.2100058603
0.2100055764
0.210005201
0.2100050515
0.2100053499
0.2100057913
0.2100060546
0.210006172
0.2100062183
0.2100062205
0.2100061908
0.2100061561
0.2100061315
0.2100061182
0.2100061098
0.2100061108
0.210006108
0.210006121
0.2100061188
0.2100061496
0.2100061323
0.2100052874
0.2100054562
0.2100054799
0.2100052879
0.2100047917
0.2100043952
0.2100044015
0.2100046994
0.2100057771
0.2100058135
0.2100057664
0.2100057908
0.2100059635
0.210006132
0.2100062341
0.2100062851
0.210006274
0.2100062297
0.2100061836
0.2100061508
0.2100061291
0.2100061184
0.2100061112
0.2100061153
0.210006115
0.2100061366
0.2100061367
0.2100061928
0.2100061551
0.2100061921
0.210006181
0.2100062401
0.2100051184
0.210005087
0.210005046
0.2100049069
0.2100045308
0.2100041059
0.2100039506
0.2100041015
0.2100047727
0.2100056422
0.2100058678
0.2100059966
0.2100061253
0.2100062413
0.2100062979
0.2100063203
0.2100062633
0.2100062093
0.2100061634
0.2100061378
0.2100061216
0.2100061164
0.2100061132
0.2100061242
0.2100061297
0.210006164
0.2100061687
0.210006236
0.2100061945
0.2100062536
0.2100062344
0.2100062996
0.2100048818
0.2100045091
0.21000435
0.2100042587
0.210004119
0.2100039396
0.2100039159
0.2100041192
0.2100045898
0.2100055746
0.2100060592
0.2100061797
0.2100062627
0.2100063575
0.2100064034
0.2100063483
0.210006272
0.2100062079
0.2100061658
0.2100061428
0.2100061295
0.2100061287
0.2100061294
0.210006147
0.2100061616
0.2100062072
0.2100062
0.2100062333
0.2100062432
0.2100063393
0.2100062986
0.2100063064
0.210006303
0.2100047464
0.2100042782
0.2100040178
0.2100039116
0.2100038652
0.2100038402
0.2100038681
0.2100039603
0.210004186
0.210004659
0.2100052383
0.2100058821
0.2100062473
0.2100063814
0.210006386
0.210006113
0.2100062366
0.2100062067
0.2100061606
0.2100061469
0.2100061381
0.2100061438
0.2100061513
0.2100061789
0.2100061988
0.2100062331
0.2100061726
0.2100061863
0.2100062413
0.2100063734
0.2100063208
0.2100062714
0.2100062926
0.2100048558
0.2100043967
0.2100041877
0.2100041332
0.2100041879
0.2100043568
0.2100046651
0.2100050132
0.2100052818
0.21000543
0.2100057957
0.210006271
0.2100063655
0.2100063929
0.2100064182
0.2100063418
0.2100062701
0.2100062116
0.2100061764
0.210006165
0.2100061644
0.2100061787
0.2100061944
0.210006229
0.2100062224
0.2100062126
0.2100060965
0.2100060356
0.2100061871
0.2100063292
0.2100062793
0.2100062101
0.2100062427
0.2100049752
0.2100046428
0.2100044808
0.2100044577
0.2100045264
0.2100046867
0.2100050587
0.2100055052
0.2100061141
0.2100062243
0.2100063639
0.2100063878
0.2100063959
0.2100064467
0.2100064254
0.2100063564
0.2100062706
0.2100062229
0.2100061926
0.2100061916
0.2100062035
0.2100062266
0.2100062365
0.2100062369
0.2100061621
0.2100061304
0.2100059444
0.2100057476
0.2100060504
0.210006261
0.2100061685
0.2100060718
0.2100061609
0.2100051157
0.2100049474
0.2100048426
0.2100048489
0.2100049407
0.210005071
0.2100054568
0.2100059468
0.210006315
0.2100063538
0.2100064214
0.2100064429
0.2100065345
0.2100065612
0.2100067934
0.2100063912
0.210006321
0.2100062523
0.2100062283
0.2100062395
0.2100062696
0.2100062805
0.2100062476
0.2100061936
0.2100060561
0.2100059953
0.21000565
0.2100047237
0.2100057635
0.2100061469
0.2100058951
0.2100057135
0.2100059907
0.2100052759
0.2100053166
0.2100052938
0.2100053525
0.2100055017
0.2100056627
0.2100060193
0.2100063527
0.210006475
0.2100064729
0.2100064916
0.2100065644
0.2100065964
0.2100065116
0.2100064211
0.2100063334
0.2100063005
0.2100062936
0.2100062837
0.2100063162
0.2100063392
0.2100062982
0.2100062287
0.2100061283
0.210005988
0.2100057164
0.2100042696
0.2100042661
0.2100051567
0.2100059464
0.2100053263
0.2100047366
0.2100055112
0.2100054453
0.2100056749
0.2100057638
0.2100058975
0.2100060031
0.2100061164
0.2100062111
0.2100063069
0.2100063887
0.2100064825
0.2100066102
0.2100066197
0.2100064933
0.2100063941
0.210006327
0.2100061815
0.2100062415