/*--------------------------------*- C++ -*----------------------------------*\
  =========                 |
  \\      /  F ield         | OpenFOAM: The Open Source CFD Toolbox
   \\    /   O peration     | Website:  https://openfoam.org
    \\  /    A nd           | Version:  8
     \\/     M anipulation  |
\*---------------------------------------------------------------------------*/
FoamFile
{
    version     2.0;
    format      ascii;
    class       scalarField;
    location    "1.2/lagrangian/reactingCloud1";
    object      age;
}
// * * * * * * * * * * * * * * * * * * * * * * * * * * * * * * * * * * * * * //


117
(
0.2643302833
0.2584615557
0.2571824741
0.2536461895
0.2458964594
0.2342383072
0.2483793827
0.2667379664
0.1962716398
0.1863905561
0.239350571
0.194129993
0.1751737593
0.2324404321
0.2285877737
0.1708173416
0.2248589336
0.1900887839
0.1840683199
0.1647973494
0.1781294903
0.2191758163
0.1821191103
0.1761046203
0.2588377562
0.1701402575
0.2569567538
0.255602432
0.2446926179
0.2549252711
0.2438649768
0.2534204692
0.1259429517
0.1250528735
0.1238536776
0.2345228868
0.2411563333
0.1224505201
0.2454450189
0.1204860996
0.1341213473
0.2522918677
0.1648946427
0.1530075157
0.1995241872
0.2496584643
0.1182410476
0.2333889207
0.1477197171
0.1492085906
0.1082786293
0.1481255139
0.2347990803
0.1930990832
0.2158070918
0.1630438652
0.1963510064
0.1797973327
0.1140315751
0.09022655246
0.08820828358
0.08418613703
0.1979381443
0.08614493616
0.1847074109
0.06257007538
0.1722641942
0.06017782943
0.1581718509
0.05744659963
0.07618797194
0.05183015002
0.2439402169
0.1478012893
0.0495008709
0.049062531
0.1141718908
0.04554443067
0.2335021035
0.0446686834
0.04406844558
0.04359529124
0.04275890119
0.06408096039
0.04217878012
0.06811823721
0.2324404321
0.04087963364
0.231446551
0.229955015
0.2285877737
0.0369191812
0.2297064257
0.03575561076
0.2226565986
0.03419277708
0.2259775856
0.03029304224
0.2106377296
0.02945384127
0.02805422776
0.2212488775
0.2158070918
0.1260937828
0.0440686507
0.02671700153
0.08021125421
0.141915747
0.01378812776
0.01341525517
0.056056063
0.03006536195
0.003170606354
0.2001575854
0.2001575854
0.0160629001
0.02405966144
)


// ************************************************************************* //
