/*--------------------------------*- C++ -*----------------------------------*\
  =========                 |
  \\      /  F ield         | OpenFOAM: The Open Source CFD Toolbox
   \\    /   O peration     | Website:  https://openfoam.org
    \\  /    A nd           | Version:  8
     \\/     M anipulation  |
\*---------------------------------------------------------------------------*/
FoamFile
{
    version     2.0;
    format      ascii;
    class       scalarField;
    location    "1.2/lagrangian/reactingCloud1";
    object      d;
}
// * * * * * * * * * * * * * * * * * * * * * * * * * * * * * * * * * * * * * //


117
(
0.0005380261727
0.0005442844539
0.0007876391418
0.0005815243739
0.001062193656
0.001059932607
0.0005834250313
0.0005333595811
0.001090939469
0.000609695492
0.0005411172282
0.0009177148359
0.0007498642385
0.0005155859931
0.0006948104407
0.0006021729306
0.0006449986523
0.0008016362905
0.001150817311
0.0007917837805
0.000672621567
0.0007408603752
0.000614553914
0.001054495365
0.0005820021559
0.0007875785814
0.000769129551
0.0006932736462
0.000525755183
0.0005419113158
0.0005533372963
0.0007094372208
0.0007950343217
0.0005215112717
0.0005663463967
0.000746802102
0.0008179122469
0.0005824910867
0.0009654282493
0.0006190860063
0.0008522225518
0.0006524410633
0.0006461286909
0.001052559237
0.0008602226767
0.0008514805486
0.001129905436
0.001174321799
0.0008679584242
0.0008522225518
0.000780769401
0.0008317807535
0.0010566954
0.0007124013117
0.001189041234
0.0008501123437
0.0005590412283
0.0009798060952
0.0005209848778
0.0005916614921
0.0005556317784
0.0005320726803
0.000551827654
0.0008161637573
0.001171960001
0.001190654841
0.0008259797953
0.0006830618771
0.0005824713961
0.0006104332912
0.0005450410771
0.0008803412941
0.0005976876615
0.0005151211486
0.0009189999812
0.0005391524846
0.0005768945275
0.001079688555
0.0006269801282
0.000671063491
0.0005746176783
0.0005119278878
0.0006179203652
0.0006150789783
0.0005292681958
0.0005257763849
0.0005723554868
0.000655050375
0.0005654290872
0.0006547649137
0.0006426045109
0.0008167107779
0.0005803368864
0.0005205148496
0.00100460833
0.0005329984212
0.0005329862189
0.0006091895136
0.0005477830486
0.0009148946767
0.0005469682727
0.0005742950519
0.001049940853
0.001015940404
0.0009390806485
0.0005529377123
0.0005004731121
0.0006815852385
0.0008124493402
0.000506941758
0.0009837801704
0.001130514326
0.000656686764
0.0002228590893
0.000301955422
0.0007453638945
0.0005085620522
)


// ************************************************************************* //
