/*--------------------------------*- C++ -*----------------------------------*\
  =========                 |
  \\      /  F ield         | OpenFOAM: The Open Source CFD Toolbox
   \\    /   O peration     | Website:  https://openfoam.org
    \\  /    A nd           | Version:  8
     \\/     M anipulation  |
\*---------------------------------------------------------------------------*/
FoamFile
{
    version     2.0;
    format      ascii;
    class       scalarField;
    location    "1.2/lagrangian/reactingCloud1";
    object      mass0;
}
// * * * * * * * * * * * * * * * * * * * * * * * * * * * * * * * * * * * * * //


117
(
8.109958395e-08
8.396266381e-08
2.54442872e-07
1.024028833e-07
6.240502029e-07
6.200735069e-07
1.034102512e-07
7.900757314e-08
6.760991356e-07
1.180177607e-07
8.250542443e-08
4.046894476e-07
2.19561579e-07
7.136935143e-08
1.746656186e-07
1.137030475e-07
1.397284496e-07
2.697309186e-07
7.980273578e-07
2.584807599e-07
1.593349277e-07
2.117471241e-07
1.215286264e-07
6.13949496e-07
1.026554944e-07
2.557880862e-07
2.369228304e-07
1.735091943e-07
7.567616351e-08
8.286918698e-08
8.822227442e-08
1.859303681e-07
2.616773006e-07
7.385833563e-08
9.459209483e-08
2.168827513e-07
2.849236846e-07
1.029144295e-07
4.68563469e-07
1.235553003e-07
3.24084074e-07
1.44621306e-07
1.404641503e-07
6.072227838e-07
3.314675969e-07
3.214641986e-07
7.553094461e-07
8.432760918e-07
3.404906466e-07
3.223053285e-07
2.49210867e-07
3.013181022e-07
6.144094252e-07
1.882706188e-07
8.753851304e-07
3.199170492e-07
9.09787428e-08
4.898113327e-07
7.363491188e-08
1.08447248e-07
8.981727025e-08
7.886993867e-08
8.750216547e-08
2.846626833e-07
8.381983229e-07
8.78953836e-07
2.934382273e-07
1.659543196e-07
1.034719017e-07
1.184467235e-07
8.477861647e-08
3.552725389e-07
1.111811829e-07
7.11764888e-08
4.041614861e-07
8.160997616e-08
1.005281939e-07
6.553961891e-07
1.283422792e-07
1.573617779e-07
9.879736631e-08
6.986099789e-08
1.228587082e-07
1.218403885e-07
7.720329055e-08
7.610301284e-08
9.763509885e-08
1.463634093e-07
9.413320742e-08
1.461721438e-07
1.381782628e-07
2.836699155e-07
1.017768358e-07
7.343579324e-08
5.279572319e-07
7.884718388e-08
7.884176872e-08
1.177241804e-07
8.559219915e-08
3.987693048e-07
8.521083589e-08
9.863104673e-08
6.027024007e-07
5.490391588e-07
4.33617994e-07
8.803128739e-08
6.563581348e-08
1.648803676e-07
2.792526415e-07
6.783949698e-08
4.985317421e-07
7.565311808e-07
1.474630481e-07
7.294668833e-07
7.294668833e-07
2.168221654e-07
6.887006217e-08
)


// ************************************************************************* //
