/*--------------------------------*- C++ -*----------------------------------*\
  =========                 |
  \\      /  F ield         | OpenFOAM: The Open Source CFD Toolbox
   \\    /   O peration     | Website:  https://openfoam.org
    \\  /    A nd           | Version:  8
     \\/     M anipulation  |
\*---------------------------------------------------------------------------*/
FoamFile
{
    version     2.0;
    format      ascii;
    class       scalarField;
    location    "1.2/lagrangian/reactingCloud1";
    object      nParticle;
}
// * * * * * * * * * * * * * * * * * * * * * * * * * * * * * * * * * * * * * //


117
(
107.4405612
1914.881005
100.1982205
100.1710452
188.0088599
223.2977315
100.2431801
101.4593147
100.0996101
100.087138
100.0303569
1224.878767
100.7536452
100.4602461
101.0595232
101.151808
100.9973924
1908.470728
635.0630362
100.8334593
3166.614962
101.0457474
4071.04097
827.211591
105.2843391
1982.983046
103.527918
101.6510916
109.4077529
105.3531289
103.6368237
104.7251429
100.2565457
108.5511367
103.5969024
121.4423144
101.4752088
103.5816579
101.5406239
101.1147398
1600.821347
100.3496924
101.8256627
100.2106593
498.5303964
102.7511029
650.2038727
100.1485492
164.7348183
101.6240884
1970.640899
1623.419965
100.3383973
101.595699
100.7439617
100.1781373
102.9060201
205.4336586
100.7407715
4604.731486
5515.385929
6233.732332
104.0627745
1818.786667
100.0094401
100.2412007
163.1532884
100.552197
4708.538481
100.1137582
5756.261246
101.6661422
100.2170423
100.5184515
102.0765822
123.9409048
5234.193953
100.4089719
101.5221255
105.3126461
107.7339392
113.9761993
101.1825868
4063.089222
104.7153358
6599.455611
109.2182475
102.3445852
106.6200449
103.4184216
100.2603851
100.5873056
101.8064714
102.3740139
100.0763214
100.8429463
102.0682553
100.38795
100.6072086
100.0673322
101.7677532
100.3771982
100.2196672
921.2440911
1170.58301
100.8214649
7697.11711
199.7790515
958.4594931
100.007792
1015.391749
654.2170386
100.3324914
36506.89389
14677.00495
2292.8396
7228.394042
)


// ************************************************************************* //
