/*--------------------------------*- C++ -*----------------------------------*\
  =========                 |
  \\      /  F ield         | OpenFOAM: The Open Source CFD Toolbox
   \\    /   O peration     | Website:  https://openfoam.org
    \\  /    A nd           | Version:  8
     \\/     M anipulation  |
\*---------------------------------------------------------------------------*/
FoamFile
{
    version     2.0;
    format      ascii;
    class       labelField;
    location    "1.2/lagrangian/reactingCloud1";
    object      origId;
}
// * * * * * * * * * * * * * * * * * * * * * * * * * * * * * * * * * * * * * //


117
(
314
316
318
320
321
322
339
307
323
324
349
533
326
358
363
327
366
535
538
328
541
370
539
542
323
545
326
329
343
330
345
331
330
331
332
353
347
333
342
334
575
335
807
817
377
338
584
356
825
821
590
564
352
381
765
406
379
392
863
599
600
603
378
601
386
336
400
337
555
338
608
339
344
416
340
341
587
342
355
343
344
345
346
615
347
613
357
348
359
360
362
349
361
350
368
351
365
352
374
353
354
369
371
579
625
355
606
422
356
357
619
632
358
359
360
639
635
)


// ************************************************************************* //
