/*--------------------------------*- C++ -*----------------------------------*\
  =========                 |
  \\      /  F ield         | OpenFOAM: The Open Source CFD Toolbox
   \\    /   O peration     | Website:  https://openfoam.org
    \\  /    A nd           | Version:  8
     \\/     M anipulation  |
\*---------------------------------------------------------------------------*/
FoamFile
{
    version     2.0;
    format      ascii;
    class       Cloud<basicReactingMultiphaseParcel>;
    location    "1.2/lagrangian/reactingCloud1";
    object      positions;
}
// * * * * * * * * * * * * * * * * * * * * * * * * * * * * * * * * * * * * * //

117
(
(0.04815708525 0.09146565959 0.3157606536 0.5446166015) 137 407 1
(0.6206063401 0.03986289925 0.3096561936 0.02987456704) 205 202232 2
(0.1690441698 0.0551007052 0.01747024531 0.7583848797) 999 2931 2
(0.1288089114 0.2769142841 0.2146527752 0.3796240293) 2995 8790 2
(0.06382208835 0.1408762415 0.7732185834 0.02208308676) 1196 3520 2
(0.07324421778 0.7347471798 0.133542606 0.05846599648) 4131 12122 1
(0.1863886316 0.1162487641 0.2299798273 0.467382777) 3195 9382 2
(0.2841148374 0.2330299302 0.1152272156 0.3676280167) 152 202620 1
(0.1384281413 0.4576909808 0.0675728258 0.3363080521) 9990 29298 2
(0.006304968026 0.2009222235 0.1840609985 0.6087118099) 13567 37064 1
(0.02922052848 0.05895259214 0.647371845 0.2644550344) 5084 14915 2
(0.3937868332 0.1351305081 0.0397711679 0.4313114908) 10397 30406 2
(0.1747406632 0.5008233472 0.2396435193 0.08479247034) 14537 39928 1
(0.1328775825 0.07470197188 0.6618040869 0.1306163588) 6053 17750 2
(0.1536802699 0.4326639941 0.04027974554 0.3733759905) 6022 17659 2
(0.2396958616 0.1558064101 0.01644627939 0.5880514489) 15417 45157 1
(0.2670971443 0.4319776563 0.1273123555 0.1736128439) 6986 20485 1
(0.2374273986 0.2044635079 0.1429746497 0.4151344438) 7221 21184 2
(0.6350399646 0.0822872851 0.07279440935 0.209878341) 11279 33087 2
(0.2001187436 0.3231569909 0.341142266 0.1355819996) 15445 45243 2
(0.04672332727 0.4480093127 0.5041490027 0.001118357389) 14896 40993 1
(0.04041487113 0.7527482123 0.08345310171 0.1233838148) 7947 20490 1
(0.2054463544 0.2853059142 0.1670689778 0.3421787536) 12786 37463 1
(0.22461555 0.2472769012 0.1867907266 0.3413168221) 12162 32900 2
(0.2314704895 0.07768062291 0.370864827 0.3199840606) 89 266 2
(0.3240142135 0.1446344657 0.135495895 0.3958554258) 14898 43649 2
(0.2598189165 0.1462975433 0.5630332111 0.0308503291) 89 202676 2
(0.6402220406 0.02102926312 0.2074820527 0.1312666436) 89 265 2
(0.09657310895 0.4193516851 0.4112472241 0.07282798186) 3039 8918 1
(0.7071845948 0.1473093704 0.0992072049 0.04629882997) 1072 3151 2
(0.04140172881 0.4993910803 0.01099988465 0.4482073063) 3039 8918 2
(0.1571260815 0.3480989542 0.2116843728 0.2830905916) 1072 267 1
(0.5034740477 0.1028418246 0.3617919182 0.03189220957) 19948 58445 2
(0.183090127 0.1157710045 0.1815435316 0.5195953369) 19950 58451 1
(0.06944273387 0.2149485346 0.5662839531 0.1493247784) 20867 58451 1
(0.04157510937 0.2472447079 0.3537482071 0.3574319756) 4018 11790 1
(0.4423769083 0.4549690307 0.06554982358 0.03710423741) 3038 8918 1
(0.1856810584 0.3392207798 0.07728386223 0.3978142996) 20868 61255 1
(0.006326294871 0.7521358654 0.1094101137 0.1321277261) 2055 6036 1
(0.668512989 0.1330321855 0.1899135779 0.008541247577) 20868 61258 1
(0.05168406674 0.008026687875 0.4269358817 0.5133533637) 24035 72047 1
(0.3394611864 0.3006007747 0.001190155772 0.3587478831) 1072 3057 2
(0.1777757932 0.3464536368 0.1073569605 0.3684136094) 15472 45235 2
(0.05466598916 0.3682072565 0.5083409495 0.06878580478) 17284 50635 1
(0.09535823044 0.6740858116 0.0756287607 0.1549271973) 10757 31540 2
(0.09057849659 0.4175823571 0.2039366444 0.2879025019) 1040 3057 1
(0.255735875 0.1322193874 0.1523054975 0.4597392401) 25747 77965 1
(0.1276321928 0.4193755124 0.4461487493 0.00684354552) 3987 11697 1
(0.3251572446 0.06430427401 0.05163503074 0.5589034506) 17315 50639 1
(0.1079810635 0.3157304952 0.2157044542 0.3605839872) 17286 50642 1
(0.1382770808 0.2570511974 0.5965658619 0.008105859878) 30364 93371 2
(0.1132089747 0.03884491556 0.4427546525 0.4051914572) 19985 58468 1
(0.4927007145 0.4530265579 0.01775121594 0.03652151168) 3988 11700 2
(0.3139788755 0.4120507947 0.1392976086 0.1346727212) 11707 34209 1
(0.1464653237 0.2690896531 0.1736820118 0.4107630114) 8037 23571 1
(0.2669510417 0.2339338106 0.1751215648 0.3239935829) 16233 44904 2
(0.2175634804 0.5048467206 0.1403702766 0.1372195224) 11678 34209 2
(0.31237313 0.06685997231 0.3845886735 0.2361782242) 13514 39586 1
(0.03243285341 0.04073266827 0.5161856104 0.410648868) 20919 61487 2
(0.3895169053 0.08932220222 0.4473138421 0.07384705035) 63850 187208 2
(0.3225133388 0.1547629744 0.4498530579 0.07287062895) 64326 98968 1
(0.06867131932 0.5381001865 0.2527995495 0.1404289447) 66185 195056 1
(0.1508583048 0.1562442941 0.3959716983 0.2969257028) 11678 31458 2
(0.07125973423 0.4472924186 0.006301325199 0.475146522) 65013 189778 2
(0.08853640818 0.3126623894 0.5070327329 0.09176846953) 12599 36905 1
(0.229205178 0.3633567248 0.3037635048 0.1036745924) 59141 177677 1
(0.546588076 0.1056502867 0.2103566712 0.1374049662) 14449 42321 2
(0.3995708161 0.1133210701 0.1152162905 0.3718918234) 59230 77054 2
(0.166798849 0.0616741969 0.5033972302 0.2681297239) 17124 50161 1
(0.05596051102 0.2992801935 0.5490360584 0.09572323708) 59120 177627 2
(0.2209812676 0.6767018694 0.01877513116 0.08354173183) 35589 111211 2
(0.03463827984 0.07764363273 0.2809132867 0.6068048008) 59093 177543 2
(0.6208057033 0.1734006175 0.1301079449 0.07568573429) 3956 11604 1
(0.04506225834 0.4287172736 0.2116393932 0.3145810749) 18050 52876 1
(0.2263074864 0.003005315527 0.232221032 0.538466166) 59109 177584 1
(0.289407189 0.6144049948 0.03127215451 0.06491566171) 59109 177595 1
(0.6170018619 0.2030980208 0.1011458863 0.07875423089) 27294 82980 2
(0.004660862492 0.1055470786 0.1895776366 0.7002144223) 59846 177619 1
(0.6618920565 0.2550850309 0.01859836065 0.06442455191) 4962 11701 1
(0.1390170952 0.1056056222 0.5216560831 0.2337211995) 59847 179389 1
(0.1055924634 0.2001014062 0.05396343957 0.6403426908) 59847 179389 1
(0.08269400744 0.154988645 0.2690378154 0.4932795321) 59853 80062 1
(0.02386611397 0.6238692275 0.1416158833 0.2106487752) 59853 80062 2
(0.2347611105 0.1065858326 0.5420452887 0.1166077683) 36557 114402 1
(0.002155907942 0.0865104029 0.3509729662 0.5603607229) 59854 179407 2
(0.05701209099 0.7377462544 0.172802324 0.03243933061) 35629 111430 1
(0.3952634412 0.07785083275 0.1237789857 0.4031067403) 4962 14465 1
(0.06102162581 0.4877454649 0.4012770283 0.04995588105) 59852 179407 1
(0.1204335107 0.6565098961 0.2045016134 0.01855497978) 4962 14557 1
(0.09791861564 0.04295732063 0.1528485215 0.7062755422) 4931 14466 2
(0.2897726458 0.08910180187 0.1459075906 0.4752179617) 5903 17309 1
(0.1505555005 0.1888162467 0.477683627 0.1829446258) 26421 80066 2
(0.1564190381 0.1650069914 0.661786261 0.01678770953) 5933 17402 1
(0.1119146552 0.03390553582 0.0439058244 0.8102739845) 26420 80062 2
(0.3448350059 0.01344163568 0.1440888165 0.497634542) 5902 17310 1
(0.02017319958 0.07868360553 0.8520606788 0.04908251608) 59855 80063 2
(0.3862252345 0.01873625765 0.2186627268 0.3763757811) 6870 20144 1
(0.06901885278 0.150294896 0.04758780761 0.7330984436) 59856 179415 1
(0.2723636131 0.4414401524 0.08681968704 0.1993765475) 9778 25862 1
(0.3489283385 0.008888940652 0.02047488162 0.6217078393) 59774 166150 1
(0.04545805896 0.1779176553 0.09467618323 0.6819481026) 54534 166143 2
(0.7977866111 0.1036707625 0.024904419 0.0736382074) 7831 208099 2
(0.3010084297 0.428074796 0.2341663232 0.03675045106) 7830 205923 1
(0.7691886973 0.06558983379 0.1101687476 0.05505272128) 24479 206467 1
(0.02504444707 0.8505340676 0.063548508 0.06087297736) 41161 204727 2
(0.1271782926 0.08117456091 0.05682305105 0.7348240954) 54534 166143 2
(0.05326703266 0.4904743781 0.4327699601 0.02348862915) 32706 101162 2
(0.1894495696 0.3247605467 0.2381748878 0.2476149959) 18051 52881 1
(0.0447253542 0.7050902766 0.2280360809 0.0221482884) 59904 166813 2
(0.3812872089 0.1089936504 0.467826986 0.0418921547) 54772 166808 1
(0.1906330997 0.679028886 0.08490039942 0.04543761494) 38292 119470 1
(0.1210247242 0.1026919513 0.6386776799 0.1376056446) 42864 132853 2
(0.2619380269 0.002806773117 0.3871051794 0.3481500206) 54788 203026 2
(0.1784987935 0.691284153 0.05807311722 0.07214393626) 416 1233 2
(0.2903067932 0.6490633233 0.01038672573 0.05024315778) 416 1139 1
(0.2910186414 0.4994610128 0.1106916321 0.09882871369) 45575 208135 1
(0.2494044565 0.02853663255 0.4142963457 0.3077625652) 43766 135497 1
)


// ************************************************************************* //
