/*--------------------------------*- C++ -*----------------------------------*\
  =========                 |
  \\      /  F ield         | OpenFOAM: The Open Source CFD Toolbox
   \\    /   O peration     | Website:  https://openfoam.org
    \\  /    A nd           | Version:  8
     \\/     M anipulation  |
\*---------------------------------------------------------------------------*/
FoamFile
{
    version     2.0;
    format      ascii;
    class       vectorField;
    location    "1.2/lagrangian/reactingCloud1";
    object      U;
}
// * * * * * * * * * * * * * * * * * * * * * * * * * * * * * * * * * * * * * //


117
(
(-0.3456307745 -0.01069423086 -1.900098435)
(-0.2449827838 0.06524760075 -2.126331185)
(-0.2832634342 -0.105334222 -1.975759978)
(-0.2360327623 -0.07535837731 -1.782589731)
(0.01406757038 0.08774784377 -2.241249181)
(-0.294668633 0.09476973365 -2.163759686)
(0.05712120862 0.2590614677 -1.975971583)
(0.1246766969 0.1460680835 -2.000550138)
(0.2267558865 0.1887830247 -1.926007674)
(-0.01928541041 -0.06347486117 -1.622490382)
(0.1017215346 0.2314841493 -1.894068756)
(-0.5144260357 0.9839112997 -2.963545264)
(0.1668310354 0.03193795963 -1.644258281)
(0.116226311 0.2143464949 -1.8559699)
(0.1360584229 0.1871077673 -1.972075871)
(0.1941193821 -0.002202318788 -1.534869729)
(0.1403220606 0.1879963689 -1.935308461)
(-0.7614445206 0.6064941659 -3.20831575)
(-0.6234014041 0.9941740426 -3.051940998)
(0.2496982833 0.03914531341 -1.565675794)
(-0.7120665531 0.8791432444 -2.82789083)
(0.14751534 0.1828114277 -1.943564624)
(-0.9626100088 0.4415965117 -2.874589675)
(-0.5073788585 0.9370015638 -3.105054371)
(0.2284575853 0.1132117145 -2.149680215)
(-0.6937666168 0.9680018273 -2.946752725)
(0.2343831996 0.1075317061 -2.248728489)
(0.2322667197 0.1035596486 -2.208347305)
(0.2242223155 0.1131413793 -2.062626573)
(0.225513467 0.1028760348 -2.10621991)
(0.2253294833 0.1119767976 -2.07909815)
(0.2313131879 0.09629435072 -2.200129053)
(-1.408629273 -0.004434932342 -1.148235946)
(-1.177380123 -0.008504143736 -1.106259502)
(-1.231504113 -0.01056957109 -1.111253331)
(0.1224432394 0.1145128455 -2.090026157)
(0.2260334866 0.1084830549 -2.183881994)
(-1.249205496 -0.01534351579 -1.11345445)
(0.2287523339 0.1014847602 -2.246779643)
(-1.258419026 -0.02017362979 -1.112407408)
(-0.1945779915 1.137771196 -2.559749724)
(0.2291232149 0.09235103119 -2.159023074)
(-0.4397028525 0.07791097559 -1.58425555)
(-0.4530546042 0.1177058133 -1.50292752)
(0.01698655312 0.1767211221 -1.840022758)
(0.2312324803 0.08589149123 -2.228164085)
(-0.3941385893 1.018473619 -2.643603793)
(0.1311045447 0.09674146732 -2.166363918)
(-0.4792339101 0.1577465 -1.460082746)
(-0.3782072693 0.1420164691 -1.465577027)
(-0.1107682072 1.224424076 -2.355851661)
(-1.122177533 0.3188711999 -2.729101393)
(0.215513629 0.08923664416 -2.179306594)
(0.06653653145 0.1416966601 -1.749331862)
(-0.446260673 0.260975537 -2.011471865)
(0.1085666742 0.07956326488 -1.514214392)
(0.07537063258 0.1229693355 -1.700263302)
(0.1604857721 0.1101024594 -1.697204268)
(-0.3075124163 0.05910424643 -1.115089422)
(-0.8593882895 0.5155049409 -2.44894859)
(-0.1788434544 0.9350564338 -2.460121056)
(-0.6826009606 0.9603937502 -2.205894292)
(0.07589203195 0.1150588581 -1.694384304)
(-0.7537120982 0.7581674653 -2.42844191)
(0.1416767429 0.1016673938 -1.747385885)
(0.285206966 0.03722056576 -0.614884202)
(0.02577716034 0.223797958 -1.607430978)
(0.3083825073 0.1026721576 -0.605075714)
(-1.036598569 0.1136474909 -2.804514029)
(-0.1648109901 0.001754131527 -0.5624950084)
(-1.04453073 0.5585783731 -2.176798781)
(-0.9889268871 -0.05478147361 -0.5297069812)
(0.07830445182 0.03077226273 -1.968663069)
(0.03011993298 0.1039231302 -1.338252799)
(-0.6827525453 -0.03479265332 -0.4949543366)
(-0.6174121736 -0.03114247376 -0.4974944367)
(-1.103426534 0.2842851744 -2.545842277)
(-0.5480085293 -0.03665819628 -0.4503335001)
(0.2113263292 0.08025345052 -2.033904018)
(-0.4392927226 -0.0395689712 -0.4421492845)
(-0.3976510624 -0.0411086415 -0.4355815782)
(-0.3717501973 -0.04208742061 -0.4302676577)
(-0.3231392687 -0.04600579633 -0.4199823312)
(-0.7283777075 0.7947814657 -2.227176989)
(-0.2969742535 -0.04715753528 -0.4134700786)
(-0.02541111716 0.7065944445 -2.40017245)
(0.2060112831 0.07619552548 -1.992932271)
(-0.2180684953 -0.05238156338 -0.399245227)
(0.2048162204 0.07176656573 -1.981201249)
(0.2064215684 0.06220251731 -2.018495532)
(0.2052158514 0.05748722489 -2.000374648)
(-0.1708349943 -0.06428415261 -0.3602868694)
(0.1469773701 0.07429183267 -1.899975867)
(-0.3754620334 -0.06364101405 -0.3524133745)
(0.2013661554 0.05541076962 -2.061583591)
(-0.392263003 -0.06715387478 -0.3373204573)
(0.1407916499 0.06623369735 -1.846714242)
(-0.31795135 -0.0743163752 -0.2963137546)
(0.08068478727 0.07750193359 -1.773303695)
(1.267917562e-05 -0.3912195179 -0.2700927872)
(-0.0001359060652 -0.4712269137 -0.2266727491)
(0.140132732 0.05083817547 -1.833533502)
(0.1976189759 0.0272035952 -1.989083529)
(-1.150096569 0.1062341782 -2.679938549)
(0.197475844 1.122005878 -1.988758345)
(-3.470811608e-05 -0.4856478567 -0.2171359887)
(-0.7536208932 0.1865023584 -2.515374323)
(0.04754218688 0.1679299662 -1.333116183)
(-0.2100972174 0.213568086 -0.1358417966)
(-0.1563568908 -0.2973899127 -0.1300972353)
(-0.9876398313 0.2187213337 -2.246115943)
(-1.186503516 0.3906734869 -1.815506758)
(-0.9182625555 0.006490880557 -0.0314767319)
(-0.5662423365 0.09902091599 0.5925126276)
(-0.1132054911 -0.02255423745 0.7252689378)
(0.2011204669 1.321156715 -1.613720474)
(-0.96016673 0.7594908703 -1.751608229)
)


// ************************************************************************* //
