/*--------------------------------*- C++ -*----------------------------------*\
  =========                 |
  \\      /  F ield         | OpenFOAM: The Open Source CFD Toolbox
   \\    /   O peration     | Website:  https://openfoam.org
    \\  /    A nd           | Version:  8
     \\/     M anipulation  |
\*---------------------------------------------------------------------------*/
FoamFile
{
    version     2.0;
    format      ascii;
    class       volScalarField;
    location    "0.3/wallFilmRegion";
    object      alpha;
}
// * * * * * * * * * * * * * * * * * * * * * * * * * * * * * * * * * * * * * //

dimensions      [0 0 0 0 0 0 0];

internalField   nonuniform List<scalar> 
1342
(
4.999720199e-07
5.344635181e-07
5.767585196e-07
6.369386052e-07
7.706010523e-07
1.34622988e-06
0.006320338171
0.02015118685
0.04252349077
0.06638390781
0.07071153581
0.06305180849
0.05910879837
0.05770245205
0.0242453015
0.001221791743
0.1775459607
0.06856582479
0.02479514951
0.02709637382
0.03615310947
0.04969159445
0.06029390972
0.02989409322
0.00183533827
1.398602278e-07
0.06374458211
0.04717263968
0.03497164229
0.02536367998
0.01687182706
0.009408382249
0.003442253952
0.009563141542
0.03235299044
0.06385300929
0.08092346415
0.07053692157
0.05114236206
0.03540896924
0.02539956834
0.01989793428
0.01957567295
0.3895113872
0.198843766
0.08473878051
0.05834911883
0.1046545513
0.144611111
0.1212737644
0.03155387585
0.0009246853554
1.06453902e-08
0.01062105429
0.02881691303
0.04321996506
0.04348104032
0.0342351293
0.02248958703
0.01068720251
0.003252217158
0.01433618346
0.04794553999
0.08515591945
0.08877128439
0.06782770181
0.04601592201
0.03226664789
0.03505988467
0.06906171845
0.1193270279
1.206577636
0.6398614262
0.3390781211
0.1836040354
0.3622988076
0.4142084638
0.2703121208
0.09167531766
0.007480702168
1.374758046e-05
2.360197595e-05
0.0004391110241
0.00190658574
0.004023385316
0.005661146363
0.0210768016
0.005997412059
0.0008438774862
0.01933307461
0.05906358745
0.08998331579
0.08222118863
0.05923501654
0.04139719052
0.03370131968
0.03631698845
0.04856256748
0.06160192788
0.4667680023
0.2285089134
0.1231474077
0.1136731013
0.1716860833
0.17131347
0.1408992367
0.09197911504
0.02213646756
0.0005098916749
1.57860728e-14
6.021251518e-10
1.391203812e-07
2.532685148e-06
1.153675253e-05
0.04131128455
0.03128088207
0.0005984735831
0.02184547991
0.05899874523
0.07752422914
0.06619807498
0.04863018873
0.03951650137
0.04225398174
0.05455617548
0.05636726887
0.02258764086
0.2140038236
0.09868962502
0.0689756804
0.09292412804
0.1210014501
0.1185235265
0.1073421703
0.09563848207
0.05690011866
0.008300723279
1.267616281e-32
5.363020152e-27
5.352790837e-22
5.577396183e-19
4.864609961e-16
8.218482634e-08
0.02977047929
0.06732902007
0.008789913178
0.02117229348
0.04830364736
0.05749237624
0.04909720479
0.04119195336
0.0439157474
0.0584507443
0.05552930346
0.01472875013
0.0005160887831
0.08876304044
0.06812380706
0.0872375669
0.07255478324
0.1286713411
0.1537254416
0.1489317825
0.1408592908
0.1374880478
0.548549158
6.495670905e-60
3.585461429e-47
1.021151142e-34
6.453767137e-27
4.558652315e-16
8.755425591e-08
0.01527368773
0.05650476465
0.02545892428
0.01960233401
0.03404195467
0.03907384648
0.03710215816
0.04036524978
0.05472205754
0.06882381295
0.04002117395
0.007248526383
1.553139693e-05
0.01273101521
0.006106641078
0.01853962065
0.01539396823
0.09523688112
0.1269256441
0.1280669737
0.1237856203
0.1148947972
0.2113885196
5.085655549e-61
4.519445014e-49
1.827266454e-37
3.220084112e-26
1.275560821e-15
8.937630751e-08
0.008582028258
0.03684906673
0.03277688322
0.01865201329
0.02336986463
0.02759332459
0.03260289599
0.04706973532
0.05699882418
0.04313357115
0.04972211454
0.04664070719
0.005471220231
0.0001210039238
6.10168226e-06
0.0002977060412
0.0002919056716
0.07707786786
0.1103906953
0.1488225704
0.1661603934
0.1154024407
0.04847514594
8.161344029e-52
4.825802882e-48
1.200401547e-36
1.235515059e-25
3.012162565e-15
9.44867443e-08
0.005503986978
0.0233589735
0.02855110344
0.01783932588
0.01803246227
0.02317080292
0.03555358689
0.05864119485
0.03909087259
0.01264156745
0.02529701294
0.05807275712
0.0337891158
0.001489183408
5.848976862e-08
1.895712774e-10
3.747273866e-07
0.06690897063
0.1040138296
0.1788560354
0.1824992326
0.08972429762
0.009948149299
1.465971616e-39
3.92071071e-38
9.833282985e-36
5.359158796e-25
7.636024545e-15
1.05279605e-07
0.003657108156
0.01478110458
0.02129874878
0.01667641992
0.01650732932
0.02440873286
0.0454799608
0.06362509844
0.01418954503
0.003220148012
0.01085623703
0.0362503312
0.05082839524
0.009110901475
4.102144807e-05
1.292572816e-13
2.060785668e-07
0.06267735573
0.09862265744
0.1115780489
0.09762685612
0.0876088236
0.03208689201
1.040548469e-27
8.481801891e-27
6.977443895e-26
4.161018149e-24
2.649257985e-14
1.311622611e-07
0.002245147452
0.008723518766
0.01395169918
0.01500407095
0.01767919357
0.03138316039
0.0603427666
0.04743546981
0.002837062198
0.001102781722
0.005572526408
0.02097853051
0.04394291057
0.01832780144
0.0004995000019
1.429548779e-09
1.223977484e-07
0.06455793731
0.09101625271
0.07238981483
0.06938543421
0.07802379002
0.06590730515
6.494770716e-17
2.694063551e-16
1.149223233e-15
7.272117037e-15
2.307843122e-13
1.859589906e-07
0.001118337473
0.004216797083
0.007348329119
0.01401060395
0.02234442679
0.04550108857
0.07114838582
0.01935515401
0.0002034160784
0.0005424806744
0.00330122152
0.01264120809
0.0321153482
0.02243273069
0.001442934722
8.102426818e-08
6.960206553e-08
0.07025887559
0.06425349357
0.03925404222
0.04931540093
0.05927249122
0.07420298565
2.700608142e-08
2.903339371e-08
3.40597815e-08
4.915292416e-08
9.191307006e-08
1.455568553e-07
0.0003540486427
0.0012777474
0.002309015158
0.01553745199
0.03201660662
0.06035312343
0.04723143977
0.002946679024
5.468264059e-07
0.0003247632997
0.002100153667
0.007995487681
0.02172674205
0.02034373201
0.002075813847
0.008145644179
0.03008951473
0.0750991529
0.02712531036
0.05254089408
0.08846277407
0.08239029573
0.627793265
0.004114610187
0.001883299822
0.001226947911
0.0009097406208
0.0006437738577
0.0003434576755
0.0005635358193
0.001209024549
0.002693990392
0.02055450251
0.04286556554
0.05465486364
0.02509241463
0.008736858968
0.005086043714
0.004259541762
0.005219713677
0.008420489227
0.01507848579
0.01239313819
0.0009282795445
4.18651554e-05
0.005004734587
0.03261868898
0.007940104662
0.0576399244
0.09904652043
0.09494768989
0.6116358488
0.01911653924
0.009470267179
0.005888545738
0.00413277504
0.002764824412
0.00135763169
0.001862891016
0.004050815676
0.006964295044
0.02503288422
0.04580140762
0.04261361817
0.0242825055
0.01940465451
0.02175596804
0.02444238145
0.02428454021
0.02083117698
0.01577653315
0.01103832589
0.006851244888
0.004869455421
0.004369469017
0.00763334721
0.007140900598
0.05582710405
0.09313184951
0.09268078553
0.4687623594
0.05048436351
0.02988873393
0.01814299117
0.01173138024
0.007224151065
0.003235457337
0.003578867849
0.007894974535
0.012001674
0.02563477455
0.03883965419
0.03577401241
0.05955273189
0.1366871208
0.1647608656
0.1157140693
0.06381301275
0.03597251189
0.02336506244
0.01765800738
0.01449358801
0.0126419508
0.01171290483
0.01204547838
0.01588728804
0.05937722461
0.09400166737
0.09836748404
0.3652083683
0.05219800659
0.05703054538
0.04299544704
0.02901142553
0.01735532623
0.007268348033
0.005447920005
0.01175273012
0.01667223035
0.02501110454
0.03143029501
0.03709152094
0.09945758806
0.2503465433
0.2259112714
0.1118289488
0.05327803855
0.03239773151
0.02576328048
0.02363670934
0.02255670982
0.02182454576
0.021790548
0.02343994834
0.03128849047
0.07408801533
0.1110988416
0.1201642686
0.3022911348
0.006219187675
0.02521894354
0.04229584075
0.04378868027
0.03284384448
0.01536509933
0.007687813568
0.01495758887
0.02031932615
0.02533098464
0.02937601748
0.04046953368
0.06509370724
0.08020952886
0.05818580291
0.0352999493
0.02660360129
0.0248457912
0.02627874657
0.02816173836
0.0294594094
0.0306447181
0.03312157993
0.03900098962
0.05155272719
0.1006464198
0.1430991962
0.1507708966
0.2400480554
8.29132565e-06
0.0008160235081
0.005287497601
0.01300236761
0.01751682483
0.009961465235
0.009180713008
0.01690955199
0.02278478187
0.03130091444
0.08394612507
0.1053697635
0.09302570892
0.05419458858
0.008563546922
0.01183035888
0.01598997868
0.02106206099
0.02645936796
0.03093716284
0.0345022681
0.03868621369
0.04602360439
0.05890791709
0.0716598966
0.1204990073
0.160945947
0.1552966638
0.1429016685
3.279465538e-16
7.423680958e-09
7.044402649e-06
0.0001810767937
0.0007370140957
0.0003609979868
0.008761492906
0.0180808053
0.03168270484
0.09785316732
0.2288686427
0.1461220113
0.07513762693
0.02859983343
0.009959945993
0.01014063679
0.0147722929
0.02114493686
0.02761190386
0.03321200019
0.03875002609
0.04682011291
0.06036304478
0.07767353233
0.07125429868
0.09830540879
0.1230519997
0.09536880023
0.03304796452
4.024983321e-29
3.29893498e-21
2.919489399e-16
3.472104977e-11
7.088770593e-09
1.692283629e-07
0.008333927602
0.02077840188
0.06919632717
0.153790118
0.03258128522
0.03480707609
0.03728501431
0.02563805163
0.01671527278
0.02378158124
0.0283004584
0.03110238015
0.03421221281
0.03831055297
0.04474598088
0.05609981975
0.07212649651
0.0755659918
0.03094630783
0.03081671076
0.03755895991
0.01460833104
0.0009455420821
3.571208696e-33
6.704385314e-28
2.59482135e-21
3.339617636e-19
1.353597828e-14
1.493699513e-07
0.00804239955
0.02708469673
0.1373859114
0.08869150631
0.01082044213
0.01462778987
0.02722464573
0.02870854524
0.02501344066
0.1306633693
0.1456113976
0.09365092256
0.06398552879
0.05442894856
0.0569285483
0.0683313695
0.07721872463
0.04423471751
0.003897757194
0.001444709276
0.001948587268
0.000130478671
1.130422554e-08
5.021002064e-21
1.892112551e-15
4.631427405e-10
3.131155341e-09
3.520222225e-09
8.85756539e-09
0.007996976817
0.0369170625
0.1683168999
0.01206625134
0.0009118930197
0.00942218637
0.02391248254
0.03104475273
0.03207631584
0.09484800084
0.1561944722
0.1594809713
0.1083294533
0.08193700546
0.07840902767
0.0847673141
0.07477006661
0.02052972518
0.0004495192383
6.693283716e-08
1.885243588e-07
1.087020477e-11
3.847261114e-22
2.399005243e-09
0.0004425772746
0.006463831512
0.002074254908
0.0001800850689
8.71013519e-05
0.008408610564
0.0533411379
0.1324996545
0.001861517342
0.0001400958131
0.008196174627
0.02190125911
0.03226313096
0.03846564626
0.04438224839
0.04811271583
0.06150754498
0.08547642596
0.09694866867
0.1034594002
0.1019002659
0.07758678761
0.02571169322
0.001579310065
1.086349133e-07
4.018049678e-20
2.578222592e-25
8.113635242e-36
3.555544276e-06
0.003377749678
0.01436076211
0.006874737628
0.001311126702
0.0005165795196
0.0100168453
0.08329922813
0.0775859649
0.0008215972688
0.000566328041
0.01256596904
0.0889232468
0.08436908291
0.05351772617
0.06589000973
0.07898449301
0.09435551032
0.1188676989
0.1410887841
0.1504098916
0.1368963935
0.1008779132
0.05489273236
0.01282368385
0.0001898757307
4.308082859e-11
3.045906058e-24
4.235950911e-38
1.07681936e-05
0.005194117053
0.02659281803
0.01889008195
0.006294813399
0.003239784163
0.01506050912
0.1250016136
0.03729985521
0.0009144193628
0.001289929338
0.01588888808
0.1417350994
0.1364863955
0.06725224633
0.09686222801
0.128700098
0.1374802124
0.149050286
0.1659604064
0.1752614264
0.1621112098
0.1288954783
0.08543412693
0.02696971482
0.001283426596
4.46054825e-08
3.403916398e-21
8.239111053e-35
1.806028864e-06
0.003520017381
0.03590836248
0.04279157384
0.0218061069
0.01437758473
0.02950266054
0.1510977401
0.02006923976
0.001477516039
0.002156185535
0.01703047741
0.1251884511
0.1625961954
0.07224242911
0.1115852347
0.1477361808
0.1516717473
0.1547699499
0.1643698024
0.1719799137
0.1662238397
0.1457049028
0.1025856751
0.02899868754
0.001109634813
2.394656526e-08
1.124326247e-21
1.618023212e-35
4.487799709e-09
0.0007186609015
0.02596998943
0.07076821095
0.05387172749
0.04277788409
0.06143671787
0.1393464004
0.01713642623
0.002869756904
0.003056695012
0.01737790565
0.08428522472
0.1518420496
0.07418160873
0.1208217686
0.1516694197
0.1510178326
0.1482510678
0.1519787907
0.1587201579
0.1610725035
0.148598313
0.09392289857
0.01568911188
0.0001687410384
2.45029803e-11
5.241697282e-25
2.400618411e-39
9.854845304e-17
6.078678142e-06
0.006102191091
0.06361830904
0.08822117514
0.08165361571
0.09630349095
0.1147585457
0.02516345986
0.007501446724
0.002612375458
0.01234843799
0.04602017151
0.0926207304
0.06207526627
0.1234001596
0.1500329415
0.1465632477
0.1400482011
0.1401863921
0.146464011
0.149600412
0.1266086017
0.04936481953
0.002783988487
5.161207628e-07
5.611288351e-20
1.010132618e-33
4.186273929e-48
1.627459417e-07
3.300481428e-12
0.0001100789263
0.01650394131
0.09072476341
0.1458502171
0.168825203
0.1239415963
0.05136190889
0.02010414732
0.1241221167
0.3412774072
0.5670054191
0.7385514981
0.7688260564
0.9348415863
0.9375647119
0.8210982125
0.6815414153
0.5544170588
0.4317721866
0.2912816522
0.1293162531
0.01578412687
0.0001145199705
5.636447868e-12
1.234847321e-25
9.66213177e-40
2.363390403e-54
7.875766292
2.570871035e-12
0.005534437539
2.512986035e-11
0.001104511524
3.672144244e-10
4.874965799e-09
6.837429717e-08
0.003624848384
2.211268404e-14
1.065796128e-13
1.697756728e-12
0.001143805172
4.040866937e-13
2.945634991e-12
2.701346668e-11
7.784466283e-05
1.087805148e-11
8.931576536e-11
8.534301443e-10
4.779238271e-07
5.558067677e-06
0.0001052731256
0.002437110433
1.307977355
0.001995863027
2.340533573e-05
1.680800013
2.306621508e-06
1.231063624e-06
2.627921821
9.664997461e-07
1.526460645e-06
2.588544042
1.885818889e-06
2.220911994e-06
1.744309953
2.756731601e-06
3.736808686e-06
0.7712755507
5.520173827e-06
8.581250319e-06
0.1294780421
1.322406608e-05
1.88792548e-05
0.01465548397
2.237869538e-05
2.105996837e-05
0.007378680395
1.441089792e-05
1.300606822e-05
4.704672553
5.57627068e-05
0.1860245045
2.156926135e-05
0.0001275381261
5.968613227e-05
0.0002671875245
0.0001564246895
0.0003047551321
0.000136223946
0.0001212557485
0.001030916806
0.0003331464684
0.0002168952905
2.876979513e-05
0.0003485919575
0.0001313298156
0.0001835857768
0.0001468486872
0.0003577341799
0.0003748749726
2.457738781e-05
0.000334607513
0.0001473944065
8.142965862e-05
4.773116726e-05
0.0001101683791
2.075193881e-05
2.355382796e-06
1.261959947e-06
1.105428539e-05
0.03832337743
1.668536413
0.02113067108
0.03401220447
0.01675205939
0.03507919167
0.0470192156
0.02315966905
0.01292997174
0.01506442108
1.569256849
0.01252311275
0.03448883331
0.02026345041
0.03968914827
0.01217834975
1.313567397
0.01433836364
0.05467788842
0.035817724
0.05442149896
0.006263465815
0.9992341505
0.0004920992793
0.008064395011
0.0003935827947
2.551394089e-05
6.208498816e-05
0.7765720872
2.095594387e-05
4.157491262e-10
0.0008723182246
1.576036592e-07
1.314336092e-05
0.5695107869
1.144308342e-05
2.354834438e-06
0.002275508229
1.172933569e-05
1.167043349e-05
0.2317456062
1.350289342e-05
0.004011987887
1.801835245e-05
0.1490324106
0.00186537332
0.02859520501
1.902737332e-10
0.01007297645
1.168042269e-10
1.380073594e-14
3.427246504e-15
2.867283833e-15
1.620400472e-15
1.823449953e-15
1.294793159e-15
1.941966883e-14
1.022988753e-06
5.35749209e-06
2.001248501e-06
6.610296927e-07
7.707745099e-07
6.083785239e-07
8.199587227e-07
6.2611875e-07
7.159876944e-07
1.589221142e-06
1.008080103e-06
1.613618403e-06
4.266193865e-06
2.775552295e-06
4.739248912e-06
1.014366544e-05
7.401518978e-06
1.063278477e-05
1.474414442e-05
1.314222384e-05
1.093334955e-05
1.438415207e-05
1.193697839e-05
2.112294115e-05
4.010987125e-11
1.528466838e-15
8.41322764e-15
0.005006418735
5.107306734e-14
3.378622075e-13
4.15225779e-06
2.473700321e-05
9.175695141e-06
6.754144034e-07
3.271268418e-06
1.207070688e-06
6.471455989e-07
6.509254735e-07
6.436491862e-07
1.739430187e-06
1.110470406e-06
2.034669528e-06
5.481360581e-06
3.876035225e-06
6.588845079e-06
1.074568142e-05
8.431104827e-06
9.311645785e-06
1.043222029e-05
8.733495271e-06
1.249903394e-05
3.620475957e-05
2.922824843e-05
7.524822361e-05
2.172064802e-12
0.002424984
6.002668195e-13
4.799479342e-14
7.926790926e-14
1.956385613e-13
3.677927732e-13
2.819352113e-06
2.950408866e-05
7.353574917e-06
8.21915339e-07
3.168383285e-06
1.819038858e-06
2.675291557e-06
2.609521041e-06
4.143575087e-06
8.03118499e-06
7.643865512e-06
8.619152307e-06
6.349217467e-06
6.285325831e-06
6.720251742e-06
2.048598631e-05
1.330708404e-05
4.02010266e-05
0.0004287636743
8.060501639e-15
1.088992645e-12
2.077943661e-12
5.67213868e-12
8.645663405e-12
1.569963526e-11
5.090097838e-06
4.043030868e-05
6.573717502e-06
6.185044923e-06
2.748347834e-06
1.414945705e-06
3.699748831e-06
6.413109304e-07
1.027677756e-06
9.466988803e-06
4.854515675e-06
1.468201646e-05
1.055216867e-27
13.76727407
14.50307692
10.42169877
0.3933834442
2.374757986e-09
0.05842037991
1.231557062e-10
0.03122021015
2.361779005e-11
1.282584216
1.69297108
0.07453815945
0.04241881848
2.223269625
1.624068628
0.01911329823
2.751018695
1.467044966
0.02563696254
2.220513038
1.149130148
0.01459778074
1.24156393
0.877513753
0.0002761244735
0.3811451329
0.6828746651
0.001655140345
0.03783648175
0.3996123562
0.002927615632
0.008499958075
0.1211136811
4.598225516
2.975960318
0.06144514912
0.000139233408
0.01008413889
2.00357015e-14
7.158081418e-15
2.407165888e-06
5.795110029e-07
7.218994278e-07
1.071646321e-06
2.571828737e-06
6.776157173e-06
1.379045754e-05
1.136496624e-05
5.660962383e-05
0.004562837084
0.006234029689
1.145389664e-15
3.564281099e-15
2.162720729e-15
1.244660617e-14
8.787024125e-14
1.049273794e-05
1.397716133e-06
5.758251525e-07
1.004722888e-06
3.168383382e-06
8.097935303e-06
1.077893654e-05
1.593423495e-05
0.000362420933
9.702695767e-05
8.233734983e-06
1.293961409e-06
1.485199987e-06
5.170845531e-06
7.067800881e-06
9.23923402e-06
6.400939327e-05
0.0003836751452
0.0005264670513
0.0003300080411
5.989566938e-09
8.266977195e-08
2.545813167e-07
1.23545595e-06
0.0001338760057
1.106439117e-05
4.723830535e-06
9.317475988e-06
4.431317047e-06
2.45122382e-05
0.000239390868
9.624996637e-06
7.861245368e-08
4.68731722e-06
6.404137928e-05
1.849517677e-16
4.695212852e-19
2.383638702e-10
2.440754216e-09
3.481737067e-09
2.598659741e-08
7.01912609e-06
1.729134046e-20
6.31515738e-09
8.558446639e-08
9.976575126e-07
7.323690446e-07
2.742709597e-21
5.386874315e-07
1.111724376e-05
0.0001342370251
6.320380051e-06
4.275420651e-06
0.0002689266487
0.005244997064
0.07043065647
0.3805592546
1.319758701e-06
1.505345346
0.1414666414
0.02196489468
2.264841604e-10
0.04559091678
1.319062376e-10
0.1822882114
0.1478383941
7.393855756e-14
4.650954671e-14
0.04140550658
5.198458647e-11
0.1738950519
0.186178069
2.327786383e-14
5.979474745e-15
0.2306598376
1.35491273e-15
0.1046830387
8.939188423
1.890945944
1.089380161e-11
0.3979299413
1.821720669e-11
0.4182773963
6.557136698e-12
5.513398963e-11
0.001871255741
1.741165981e-10
9.850848132e-11
3.400211626e-10
1.292898126e-09
4.831040099e-09
1.77945549e-08
1.535271472e-11
6.572829075e-15
0.0008225442273
1.48975773e-09
5.313840813e-10
4.30704514e-09
1.272795967e-09
1.231943484e-09
1.664304001e-08
1.837372196e-08
6.344030294e-08
2.395015802e-07
4.982581005e-13
1.512883549e-12
5.441581604e-12
4.598398669e-14
8.714612769e-05
1.476999071e-08
5.594377827e-08
1.794516849e-08
6.408770953e-08
1.135697889e-06
4.610594256e-06
4.000553343e-06
1.905601342e-05
5.781259463e-09
2.114837228e-08
3.203106256e-07
1.007922235e-06
4.669396739e-11
1.427301489e-10
3.899887907e-19
3.106709384e-11
3.839730476e-11
1.149252591e-10
2.749779579e-10
3.468459172e-10
1.110271926e-09
2.159100231e-06
1.831000927e-07
8.180230332e-07
2.367762506e-05
3.149634508e-07
1.312092862e-06
1.142621073e-06
4.798905632e-06
2.052208023e-05
9.230218334e-05
8.657783181e-05
0.0004518796912
2.092449606e-07
2.820614916e-07
1.971473907e-05
9.048679741e-27
4.791472322e-20
8.751641693e-26
7.589864283e-10
1.099592715e-09
3.732061492e-09
8.203210142e-09
1.282549732e-08
4.50589877e-08
1.436761557e-07
6.826363055e-25
7.934694494e-21
6.930827245e-24
2.312316442e-08
4.763312105e-08
1.916900109e-07
3.14441412e-07
7.740809352e-07
2.961463392e-06
9.262316763e-06
9.947582359e-23
6.138509958e-22
4.218859841e-21
2.465817102e-06
2.068493813e-05
0.0001170867494
4.402344734e-05
0.0006295399206
0.00238639268
0.006221704917
3.141104029e-05
1.615168517e-06
9.382025574e-06
0.001143208509
2.908707435e-05
0.0001333475743
0.02234884984
0.0006627891194
0.003478749194
0.0004823685305
0.01778135384
)
;

boundaryField
{
    walls
    {
        type            zeroGradient;
    }
    wallFilmFace_top
    {
        type            zeroGradient;
    }
    region0_to_wallFilmRegion_wallFilmFace
    {
        type            zeroGradient;
    }
    mirrorFace_top
    {
        type            zeroGradient;
    }
    region0_to_wallFilmRegion_mirrorFace
    {
        type            zeroGradient;
    }
    procBoundary2to0
    {
        type            processor;
        value           nonuniform List<scalar> 
26
(
3.773753343e-14
8.950947418e-14
1.99046151e-13
4.627227135e-13
3.429304644e-11
1.401298904e-06
0.004295322196
0.01273815566
0.02688479989
0.04809594336
0.06788645903
0.08267546229
0.08811567676
0.05229790688
0.007054988482
1.814984119e-05
0.06096322536
0.01169515057
0.01281943321
0.02108307873
0.0298920877
0.04124544155
0.0584464215
0.06458156168
0.02228035855
0.0007467421472
)
;
    }
    procBoundary2to1
    {
        type            processor;
        value           nonuniform List<scalar> 
33
(
4.388394396e-07
4.388394396e-07
0.0789042713
0.0789042713
0.001971102744
9.154452512e-08
4.815980578e-20
4.815980578e-20
1.49870385e-41
5.646658706e-73
1.200093986e-67
1.971229162e-54
1.546158541e-41
5.338692917e-29
8.606024044e-18
2.481782272e-08
0.01273884247
0.03933414998
0.05771982864
0.01572178836
0.0001446830825
1.011652443e-11
1.167132739e-24
3.303386645e-38
2.013166068e-45
3.286641344e-33
5.47806202e-21
6.383387067e-17
1.297855354e-15
1.673104752e-18
2.731826919e-22
3.683909696e-14
0.001841865998
)
;
    }
    procBoundary2to3
    {
        type            processor;
        value           nonuniform List<scalar> 
64
(
8.795893398e-12
8.644665554e-11
3.26575468e-10
4.437656862e-09
2.507464748e-07
7.184112947e-12
1.028913613e-10
3.832911453e-09
0.01318972166
0.03604021342
0.03872422302
0.01244461928
0.02345550806
0.03872422302
0.05775106099
0.06982881389
0.02578095647
0.0005944317838
1.867477483e-09
1.506939585e-21
1.619140975e-19
5.706808777e-18
2.904166997e-15
4.507396564e-05
4.507396564e-05
9.973401057e-05
0.006112883317
0.006112883317
0.04137251511
0.006112883317
3.681228134e-15
9.476951845e-14
3.681228134e-15
4.201984143e-13
1.555456243e-12
0.0500148255
5.96780341e-11
0.03604021342
0.03036422698
3.681228134e-15
4.734342039e-06
1.799517533e-08
1.642968182e-07
1.053007737e-05
0.002858522648
0.1465533082
0.2485914314
3.354083941e-15
0.06105050713
2.243219324e-11
8.644665554e-11
1.212636935e-09
6.451570177e-08
8.929896033e-07
2.141634668e-11
1.591383832e-05
8.044480224e-05
5.709459065e-10
0.0004034888173
0.002544919286
1.150851332e-06
0.0001352702646
0.29532097
0.06342564534
)
;
    }
}


// ************************************************************************* //
