/*--------------------------------*- C++ -*----------------------------------*\
  =========                 |
  \\      /  F ield         | OpenFOAM: The Open Source CFD Toolbox
   \\    /   O peration     | Website:  https://openfoam.org
    \\  /    A nd           | Version:  8
     \\/     M anipulation  |
\*---------------------------------------------------------------------------*/
FoamFile
{
    version     2.0;
    format      ascii;
    class       volScalarField;
    location    "0.3/wallFilmRegion";
    object      Cp;
}
// * * * * * * * * * * * * * * * * * * * * * * * * * * * * * * * * * * * * * //

dimensions      [0 2 -2 -1 0 0 0];

internalField   nonuniform List<scalar> 
1342
(
4182.945657
4182.945635
4182.945615
4182.945555
4182.945455
4182.94536
4182.948095
4182.948097
4182.948098
4182.948098
4182.948098
4182.948098
4182.948098
4182.948097
4182.948096
4182.948077
4182.948099
4182.948098
4182.948097
4182.948098
4182.948098
4182.948098
4182.948098
4182.948098
4182.948095
4182.946481
4182.948098
4182.948097
4182.948097
4182.948096
4182.948095
4182.948094
4182.94809
4182.948096
4182.948097
4182.948098
4182.948098
4182.948098
4182.948098
4182.948098
4182.948097
4182.948097
4182.948097
4182.948099
4182.948099
4182.948098
4182.948098
4182.948098
4182.948098
4182.948097
4182.948097
4182.948091
4182.946389
4182.948096
4182.948096
4182.948096
4182.948096
4182.948096
4182.948095
4182.948092
4182.948087
4182.948097
4182.948098
4182.948098
4182.948098
4182.948098
4182.948098
4182.948097
4182.948097
4182.948098
4182.948099
4182.948099
4182.948099
4182.948099
4182.948098
4182.948098
4182.948098
4182.948098
4182.948098
4182.948097
4182.947968
4182.947883
4182.948067
4182.948084
4182.948087
4182.948087
4182.948094
4182.948082
4182.948033
4182.948097
4182.948098
4182.948098
4182.948098
4182.948098
4182.948098
4182.948097
4182.948097
4182.948098
4182.948098
4182.948099
4182.948099
4182.948098
4182.948097
4182.948098
4182.948098
4182.948098
4182.948098
4182.948098
4182.94809
4182.948099
4182.94568
4182.945832
4182.946824
4182.947338
4182.948097
4182.948096
4182.948071
4182.948097
4182.948098
4182.948098
4182.948098
4182.948098
4182.948098
4182.948098
4182.948097
4182.948097
4182.948096
4182.948099
4182.948098
4182.948097
4182.948097
4182.948098
4182.948098
4182.948098
4182.948098
4182.948098
4182.948097
4182.948099
4182.948099
4182.948099
4182.948099
4182.948099
4182.945642
4182.948097
4182.948097
4182.948094
4182.948097
4182.948097
4182.948098
4182.948098
4182.948098
4182.948098
4182.948098
4182.948097
4182.948096
4182.948073
4182.948098
4182.948097
4182.948098
4182.948097
4182.948099
4182.948099
4182.948099
4182.948099
4182.948099
4182.948099
4182.948099
4182.948099
4182.948099
4182.948099
4182.948099
4182.945621
4182.948096
4182.948097
4182.948096
4182.948096
4182.948097
4182.948097
4182.948097
4182.948097
4182.948098
4182.948097
4182.948097
4182.948095
4182.947833
4182.948098
4182.948095
4182.948097
4182.948097
4182.948099
4182.948099
4182.948099
4182.948099
4182.948099
4182.948099
4182.948099
4182.948099
4182.948099
4182.948099
4182.948099
4182.945625
4182.948095
4182.948097
4182.948097
4182.948096
4182.948097
4182.948097
4182.948097
4182.948098
4182.948097
4182.948097
4182.948097
4182.948097
4182.948095
4182.948068
4182.947636
4182.948065
4182.948063
4182.948099
4182.948099
4182.948099
4182.948099
4182.948099
4182.948098
4182.948099
4182.948099
4182.948099
4182.948099
4182.948099
4182.945604
4182.948093
4182.948096
4182.948096
4182.948096
4182.948097
4182.948097
4182.948097
4182.948098
4182.948097
4182.948096
4182.948097
4182.948097
4182.948097
4182.94809
4182.945793
4182.945933
4182.945662
4182.948099
4182.948099
4182.948099
4182.948099
4182.948098
4182.948098
4182.948099
4182.948099
4182.948099
4182.948099
4182.948099
4182.945537
4182.94809
4182.948095
4182.948096
4182.948096
4182.948096
4182.948097
4182.948098
4182.948097
4182.948096
4182.948091
4182.948095
4182.948097
4182.948097
4182.948095
4182.947973
4182.948099
4182.945674
4182.948099
4182.948099
4182.948099
4182.948099
4182.948099
4182.948098
4182.948099
4182.948099
4182.948099
4182.948099
4182.948099
4182.945432
4182.948084
4182.948093
4182.948094
4182.948096
4182.948097
4182.948097
4182.948098
4182.948097
4182.948091
4182.94808
4182.948093
4182.948096
4182.948097
4182.948096
4182.948078
4182.945724
4182.945744
4182.948099
4182.948099
4182.948098
4182.948099
4182.948099
4182.948098
4182.948099
4182.948099
4182.948099
4182.948099
4182.945612
4182.945319
4182.948073
4182.948088
4182.948092
4182.948095
4182.948097
4182.948097
4182.948097
4182.948096
4182.948041
4182.948066
4182.94809
4182.948095
4182.948096
4182.948095
4182.948086
4182.945773
4182.945703
4182.948098
4182.948098
4182.948098
4182.948099
4182.948099
4182.948099
4182.945611
4182.945607
4182.945552
4182.945437
4182.945316
4182.9452
4182.948043
4182.948077
4182.948085
4182.948096
4182.948097
4182.948097
4182.948097
4182.948092
4182.946079
4182.948056
4182.948087
4182.948094
4182.948096
4182.948095
4182.948085
4182.948097
4182.948098
4182.948098
4182.948098
4182.948099
4182.948099
4182.948099
4182.948099
4182.948093
4182.948087
4182.948081
4182.948074
4182.948064
4182.948043
4182.948064
4182.948079
4182.948087
4182.948096
4182.948097
4182.948097
4182.948097
4182.948096
4182.948094
4182.948092
4182.948092
4182.948093
4182.948095
4182.948094
4182.948078
4182.948
4182.948096
4182.948098
4182.948096
4182.948099
4182.948099
4182.948098
4182.948098
4182.948096
4182.948095
4182.948092
4182.948089
4182.948085
4182.948078
4182.948083
4182.948089
4182.948092
4182.948096
4182.948097
4182.948097
4182.948097
4182.948096
4182.948096
4182.948096
4182.948096
4182.948096
4182.948095
4182.948095
4182.948095
4182.948095
4182.948095
4182.948096
4182.948095
4182.948098
4182.948098
4182.948098
4182.948098
4182.948097
4182.948097
4182.948096
4182.948094
4182.948092
4182.948088
4182.948089
4182.948093
4182.948095
4182.948096
4182.948097
4182.948097
4182.948097
4182.948098
4182.948098
4182.948098
4182.948097
4182.948097
4182.948096
4182.948096
4182.948096
4182.948096
4182.948097
4182.948097
4182.948097
4182.948098
4182.948098
4182.948098
4182.948097
4182.948097
4182.948097
4182.948097
4182.948096
4182.948095
4182.948093
4182.948092
4182.948095
4182.948096
4182.948097
4182.948097
4182.948097
4182.948098
4182.948098
4182.948098
4182.948097
4182.948097
4182.948097
4182.948097
4182.948097
4182.948097
4182.948097
4182.948097
4182.948098
4182.948098
4182.948098
4182.948098
4182.948098
4182.948097
4182.948095
4182.948096
4182.948096
4182.948096
4182.948096
4182.948095
4182.948094
4182.948096
4182.948097
4182.948097
4182.948097
4182.948097
4182.948098
4182.948097
4182.948097
4182.948097
4182.948096
4182.948097
4182.948097
4182.948097
4182.948097
4182.948098
4182.948098
4182.948098
4182.948098
4182.948098
4182.948098
4182.948098
4182.948097
4182.947782
4182.948085
4182.948093
4182.948094
4182.948094
4182.948092
4182.948095
4182.948096
4182.948097
4182.948097
4182.948097
4182.948098
4182.948097
4182.948097
4182.948095
4182.948095
4182.948096
4182.948097
4182.948097
4182.948097
4182.948098
4182.948098
4182.948098
4182.948098
4182.948098
4182.948098
4182.948098
4182.948098
4182.948097
4182.948099
4182.945783
4182.947631
4182.948037
4182.948067
4182.94803
4182.948095
4182.948096
4182.948097
4182.948098
4182.948098
4182.948098
4182.948097
4182.948097
4182.948095
4182.948095
4182.948096
4182.948097
4182.948097
4182.948098
4182.948098
4182.948098
4182.948098
4182.948098
4182.948098
4182.948098
4182.948098
4182.948098
4182.948097
4182.948099
4182.948099
4182.948099
4182.945905
4182.945629
4182.94564
4182.948095
4182.948097
4182.948098
4182.948098
4182.948097
4182.948097
4182.948097
4182.948097
4182.948096
4182.948096
4182.948097
4182.948097
4182.948097
4182.948098
4182.948098
4182.948098
4182.948098
4182.948098
4182.948098
4182.948098
4182.948098
4182.948097
4182.948095
4182.948099
4182.948099
4182.948099
4182.948099
4182.948099
4182.945628
4182.948096
4182.948097
4182.948098
4182.948098
4182.948095
4182.948096
4182.948097
4182.948097
4182.948097
4182.948098
4182.948098
4182.948098
4182.948098
4182.948098
4182.948098
4182.948098
4182.948098
4182.948098
4182.948096
4182.948096
4182.948096
4182.948085
4182.947324
4182.948099
4182.948099
4182.945589
4182.945594
4182.945609
4182.945603
4182.948096
4182.948097
4182.948098
4182.948095
4182.948079
4182.948095
4182.948097
4182.948097
4182.948097
4182.948098
4182.948098
4182.948098
4182.948098
4182.948098
4182.948098
4182.948098
4182.948098
4182.948097
4182.948088
4182.946694
4182.94706
4182.94778
4182.948099
4182.945612
4182.948064
4182.948094
4182.948092
4182.948057
4182.948031
4182.948096
4182.948097
4182.948097
4182.948084
4182.948008
4182.948095
4182.948097
4182.948097
4182.948097
4182.948098
4182.948098
4182.948098
4182.948098
4182.948098
4182.948098
4182.948098
4182.948098
4182.948098
4182.948093
4182.946213
4182.948099
4182.948099
4182.948099
4182.9474
4182.948093
4182.948096
4182.948096
4182.948089
4182.948078
4182.948096
4182.948098
4182.948097
4182.948062
4182.948062
4182.948095
4182.948098
4182.948098
4182.948098
4182.948099
4182.948099
4182.948099
4182.948098
4182.948098
4182.948098
4182.948098
4182.948098
4182.948098
4182.948097
4182.948078
4182.947121
4182.948099
4182.948099
4182.947839
4182.948095
4182.948097
4182.948097
4182.948096
4182.948094
4182.948097
4182.948098
4182.948096
4182.948065
4182.948079
4182.948095
4182.948098
4182.948098
4182.948098
4182.948099
4182.948099
4182.948099
4182.948099
4182.948099
4182.948098
4182.948098
4182.948098
4182.948098
4182.948098
4182.948094
4182.946582
4182.948099
4182.948099
4182.947312
4182.948096
4182.948097
4182.948097
4182.948097
4182.948097
4182.948097
4182.948098
4182.948095
4182.948079
4182.948086
4182.948096
4182.948098
4182.948098
4182.948098
4182.948099
4182.948099
4182.948099
4182.948099
4182.948099
4182.948098
4182.948098
4182.948098
4182.948098
4182.948098
4182.948095
4182.946807
4182.948099
4182.948099
4182.946239
4182.948092
4182.948097
4182.948098
4182.948098
4182.948098
4182.948098
4182.948098
4182.948095
4182.948088
4182.948089
4182.948096
4182.948098
4182.948098
4182.948098
4182.948099
4182.948099
4182.948099
4182.948099
4182.948099
4182.948098
4182.948098
4182.948098
4182.948098
4182.948098
4182.948085
4182.947627
4182.948099
4182.948099
4182.948099
4182.947863
4182.948097
4182.948098
4182.948098
4182.948098
4182.948098
4182.948098
4182.948096
4182.948094
4182.948091
4182.948096
4182.948098
4182.948098
4182.948098
4182.948099
4182.948099
4182.948099
4182.948099
4182.948098
4182.948098
4182.948098
4182.948098
4182.948098
4182.948097
4182.947214
4182.948099
4182.948099
4182.948099
4182.946967
4182.947711
4182.948079
4182.948097
4182.948098
4182.948098
4182.948098
4182.948097
4182.948096
4182.948095
4182.948098
4182.948098
4182.948098
4182.948098
4182.948098
4182.948099
4182.948099
4182.948098
4182.948098
4182.948098
4182.948098
4182.948098
4182.948098
4182.948098
4182.948082
4182.947833
4182.948099
4182.948099
4182.948099
4182.948112
4182.948278
4182.948111
4182.948738
4182.948121
4182.948979
4182.948978
4182.948959
4182.948121
4182.949044
4182.949065
4182.949128
4182.948131
4182.949096
4182.949198
4182.949223
4182.948178
4182.949094
4182.949103
4182.949102
4182.949032
4182.94831
4182.94811
4182.9481
4182.94811
4182.94811
4182.948161
4182.948111
4182.948278
4182.948415
4182.948112
4182.948373
4182.948335
4182.948111
4182.948305
4182.948282
4182.948111
4182.948266
4182.948257
4182.948111
4182.948246
4182.948228
4182.94811
4182.948208
4182.948191
4182.948111
4182.948178
4182.948167
4182.948111
4182.94816
4182.948156
4182.948112
4182.948133
4182.948112
4182.948178
4182.948169
4182.948174
4182.948124
4182.948126
4182.948125
4182.948174
4182.948186
4182.948123
4182.94813
4182.948164
4182.948192
4182.948149
4182.948157
4182.948138
4182.948151
4182.948139
4182.948154
4182.948265
4182.948177
4182.948206
4182.948188
4182.948257
4182.948212
4182.948484
4182.948897
4182.948955
4182.948603
4182.948115
4182.948112
4182.948114
4182.948116
4182.948113
4182.948112
4182.948116
4182.948109
4182.948109
4182.948113
4182.948112
4182.948112
4182.948111
4182.948112
4182.948111
4182.948112
4182.948111
4182.948111
4182.948111
4182.948111
4182.948111
4182.948111
4182.948111
4182.948108
4182.94811
4182.9481
4182.948101
4182.948098
4182.94811
4182.948085
4182.947945
4182.948094
4182.947947
4182.948075
4182.94811
4182.948068
4182.947958
4182.948098
4182.947987
4182.948065
4182.94811
4182.948065
4182.948099
4182.948071
4182.948109
4182.948102
4182.948103
4182.948622
4182.948109
4182.948688
4182.948617
4182.948727
4182.948728
4182.948676
4182.948763
4182.948804
4182.948862
4182.94858
4182.948312
4182.948456
4182.94847
4182.948519
4182.948542
4182.948379
4182.948487
4182.94845
4182.948327
4182.948409
4182.948377
4182.94827
4182.948337
4182.948293
4182.948214
4182.948257
4182.948229
4182.948181
4182.948209
4182.9482
4182.948163
4182.948186
4182.948162
4182.948752
4182.948827
4182.948888
4182.948115
4182.948957
4182.948983
4182.948407
4182.948224
4182.948304
4182.94857
4182.948434
4182.948521
4182.948502
4182.948571
4182.948533
4182.948413
4182.948482
4182.948427
4182.948306
4182.94836
4182.948308
4182.948243
4182.948279
4182.948261
4182.948215
4182.948249
4182.948219
4182.948154
4182.948173
4182.948144
4182.948969
4182.948124
4182.949096
4182.94906
4182.949047
4182.949066
4182.949103
4182.948424
4182.948215
4182.948357
4182.948528
4182.948425
4182.948473
4182.948414
4182.948438
4182.948374
4182.9483
4182.948306
4182.948292
4182.948286
4182.9483
4182.948299
4182.948207
4182.948251
4182.948189
4182.948143
4182.949103
4182.949161
4182.94912
4182.949149
4182.949217
4182.949168
4182.948402
4182.948294
4182.948493
4182.948334
4182.948608
4182.948677
4182.948362
4182.948726
4182.948696
4182.94833
4182.948509
4182.948395
4182.949169
4182.94811
4182.948111
4182.94811
4182.948125
4182.948457
4182.94813
4182.948442
4182.948132
4182.94854
4182.948111
4182.948112
4182.94811
4182.948116
4182.948112
4182.948112
4182.948112
4182.948111
4182.948112
4182.948111
4182.948111
4182.948111
4182.94811
4182.948111
4182.94811
4182.948083
4182.94811
4182.94811
4182.948097
4182.94811
4182.94811
4182.948098
4182.948111
4182.94811
4182.94811
4182.948111
4182.948104
4182.948152
4182.948107
4182.948617
4182.948655
4182.948344
4182.948485
4182.948418
4182.948347
4182.948302
4182.948239
4182.948195
4182.948175
4182.948131
4182.948115
4182.948113
4182.948821
4182.948864
4182.948851
4182.948893
4182.948942
4182.948271
4182.94855
4182.948537
4182.948456
4182.948358
4182.94827
4182.948228
4182.948185
4182.948125
4182.948164
4182.948272
4182.948543
4182.948479
4182.948341
4182.948289
4182.948261
4182.948159
4182.948133
4182.948134
4182.94814
4182.949101
4182.9491
4182.949069
4182.948706
4182.948174
4182.948329
4182.948381
4182.948274
4182.948377
4182.948242
4182.948159
4182.948284
4182.949158
4182.948342
4182.94835
4182.949299
4182.949321
4182.949006
4182.948984
4182.948999
4182.948931
4182.948699
4182.949197
4182.948983
4182.948863
4182.948408
4182.948983
4182.949182
4182.948659
4182.948155
4182.948105
4182.948683
4182.948364
4182.948109
4182.9481
4182.9481
4182.948114
4182.948397
4182.948112
4182.948119
4182.948105
4182.948565
4182.948129
4182.94844
4182.94812
4182.948123
4182.948528
4182.948512
4182.948131
4182.948485
4182.948123
4182.948122
4182.948525
4182.948585
4182.94812
4182.948646
4182.948105
4182.948112
4182.948108
4182.948564
4182.94811
4182.94875
4182.948104
4182.948512
4182.948896
4182.948117
4182.949028
4182.948892
4182.94889
4182.948886
4182.948874
4182.948863
4182.948826
4182.94888
4182.948125
4182.949083
4182.949086
4182.949005
4182.948982
4182.949002
4182.949006
4182.94897
4182.949003
4182.948957
4182.949147
4182.949196
4182.949204
4182.949118
4182.94817
4182.949149
4182.949158
4182.949123
4182.949122
4182.948756
4182.948355
4182.948377
4182.948174
4182.949144
4182.9491
4182.949029
4182.948771
4182.949172
4182.949173
4182.950071
4182.949088
4182.948966
4182.949004
4182.949102
4182.949012
4182.949004
4182.948533
4182.949145
4182.948899
4182.948147
4182.949095
4182.94872
4182.948749
4182.948314
4182.948154
4182.948112
4182.948117
4182.948102
4182.949135
4182.949093
4182.948168
4182.949194
4182.949433
4182.94922
4182.949004
4182.948991
4182.948963
4182.948956
4182.948922
4182.94887
4182.948776
4182.949252
4182.949184
4182.949261
4182.948939
4182.948976
4182.948836
4182.948676
4182.948528
4182.948255
4182.948155
4182.949235
4182.949212
4182.949202
4182.948308
4182.948147
4182.948112
4182.948115
4182.948103
4182.948101
4182.9481
4182.948135
4182.948656
4182.948225
4182.948102
4182.94815
4182.94811
4182.9481
4182.948102
4182.9481
4182.948102
4182.9481
)
;

boundaryField
{
    walls
    {
        type            zeroGradient;
    }
    wallFilmFace_top
    {
        type            zeroGradient;
    }
    region0_to_wallFilmRegion_wallFilmFace
    {
        type            zeroGradient;
    }
    mirrorFace_top
    {
        type            zeroGradient;
    }
    region0_to_wallFilmRegion_mirrorFace
    {
        type            zeroGradient;
    }
    procBoundary2to0
    {
        type            processor;
        value           nonuniform List<scalar> 
26
(
4182.948099
4182.948099
4182.948099
4182.945485
4182.945341
4182.945266
4182.948094
4182.948096
4182.948097
4182.948098
4182.948098
4182.948098
4182.948098
4182.948097
4182.948094
4182.94775
4182.948092
4182.94809
4182.948096
4182.948098
4182.948098
4182.948098
4182.948098
4182.948098
4182.948098
4182.948092
)
;
    }
    procBoundary2to1
    {
        type            processor;
        value           nonuniform List<scalar> 
33
(
4182.945734
4182.945734
4182.948098
4182.948098
4182.948093
4182.945916
4182.948099
4182.948099
4182.948099
4182.948099
4182.948099
4182.948099
4182.948099
4182.948099
4182.948099
4182.945606
4182.948096
4182.948097
4182.948097
4182.948096
4182.948068
4182.947126
4182.948099
4182.948099
4182.948099
4182.948099
4182.948099
4182.948099
4182.948099
4182.948099
4182.948099
4182.948099
4182.948096
)
;
    }
    procBoundary2to3
    {
        type            processor;
        value           nonuniform List<scalar> 
64
(
4182.948257
4182.948723
4182.948711
4182.948709
4182.948908
4182.949136
4182.949212
4182.949104
4182.9481
4182.948114
4182.94811
4182.948109
4182.948109
4182.94811
4182.94811
4182.94811
4182.94811
4182.94811
4182.94798
4182.948099
4182.948099
4182.948099
4182.948099
4182.948029
4182.948029
4182.948057
4182.948099
4182.948099
4182.948104
4182.948099
4182.948735
4182.948908
4182.948735
4182.948964
4182.949023
4182.948133
4182.94857
4182.948114
4182.948104
4182.948735
4182.948339
4182.949
4182.948839
4182.948144
4182.9481
4182.9481
4182.948117
4182.948692
4182.948104
4182.948476
4182.948723
4182.948711
4182.948856
4182.948711
4182.949195
4182.948184
4182.948119
4182.949168
4182.948104
4182.9481
4182.948399
4182.948105
4182.9481
4182.9481
)
;
    }
}


// ************************************************************************* //
