/*--------------------------------*- C++ -*----------------------------------*\
  =========                 |
  \\      /  F ield         | OpenFOAM: The Open Source CFD Toolbox
   \\    /   O peration     | Website:  https://openfoam.org
    \\  /    A nd           | Version:  8
     \\/     M anipulation  |
\*---------------------------------------------------------------------------*/
FoamFile
{
    version     2.0;
    format      ascii;
    class       volScalarField;
    location    "0.3/wallFilmRegion";
    object      delta;
}
// * * * * * * * * * * * * * * * * * * * * * * * * * * * * * * * * * * * * * //

dimensions      [0 1 0 0 0 0 0];

internalField   nonuniform List<scalar> 
1342
(
4.999720199e-10
5.344635181e-10
5.767585196e-10
6.369386052e-10
7.706010523e-10
1.34622988e-09
6.320338171e-06
2.015118685e-05
4.252349077e-05
6.638390781e-05
7.071153581e-05
6.305180849e-05
5.910879837e-05
5.770245205e-05
2.42453015e-05
1.221791743e-06
0.0001775459607
6.856582479e-05
2.479514951e-05
2.709637382e-05
3.615310947e-05
4.969159445e-05
6.029390972e-05
2.989409322e-05
1.83533827e-06
1.398602278e-10
6.374458211e-05
4.717263968e-05
3.497164229e-05
2.536367998e-05
1.687182706e-05
9.408382249e-06
3.442253952e-06
9.563141542e-06
3.235299044e-05
6.385300929e-05
8.092346415e-05
7.053692157e-05
5.114236206e-05
3.540896924e-05
2.539956834e-05
1.989793428e-05
1.957567295e-05
0.0003895113872
0.000198843766
8.473878051e-05
5.834911883e-05
0.0001046545513
0.000144611111
0.0001212737644
3.155387585e-05
9.246853554e-07
1.06453902e-11
1.062105429e-05
2.881691303e-05
4.321996506e-05
4.348104032e-05
3.42351293e-05
2.248958703e-05
1.068720251e-05
3.252217158e-06
1.433618346e-05
4.794553999e-05
8.515591945e-05
8.877128439e-05
6.782770181e-05
4.601592201e-05
3.226664789e-05
3.505988467e-05
6.906171845e-05
0.0001193270279
0.001206577636
0.0006398614262
0.0003390781211
0.0001836040354
0.0003622988076
0.0004142084638
0.0002703121208
9.167531766e-05
7.480702168e-06
1.374758046e-08
2.360197595e-08
4.391110241e-07
1.90658574e-06
4.023385316e-06
5.661146363e-06
2.10768016e-05
5.997412059e-06
8.438774862e-07
1.933307461e-05
5.906358745e-05
8.998331579e-05
8.222118863e-05
5.923501654e-05
4.139719052e-05
3.370131968e-05
3.631698845e-05
4.856256748e-05
6.160192788e-05
0.0004667680023
0.0002285089134
0.0001231474077
0.0001136731013
0.0001716860833
0.00017131347
0.0001408992367
9.197911504e-05
2.213646756e-05
5.098916749e-07
1.57860728e-17
6.021251518e-13
1.391203812e-10
2.532685148e-09
1.153675253e-08
4.131128455e-05
3.128088207e-05
5.984735831e-07
2.184547991e-05
5.899874523e-05
7.752422914e-05
6.619807498e-05
4.863018873e-05
3.951650137e-05
4.225398174e-05
5.455617548e-05
5.636726887e-05
2.258764086e-05
0.0002140038236
9.868962502e-05
6.89756804e-05
9.292412804e-05
0.0001210014501
0.0001185235265
0.0001073421703
9.563848207e-05
5.690011866e-05
8.300723279e-06
1.267616281e-35
5.363020152e-30
5.352790837e-25
5.577396183e-22
4.864609961e-19
8.218482634e-11
2.977047929e-05
6.732902007e-05
8.789913178e-06
2.117229348e-05
4.830364736e-05
5.749237624e-05
4.909720479e-05
4.119195336e-05
4.39157474e-05
5.84507443e-05
5.552930346e-05
1.472875013e-05
5.160887831e-07
8.876304044e-05
6.812380706e-05
8.72375669e-05
7.255478324e-05
0.0001286713411
0.0001537254416
0.0001489317825
0.0001408592908
0.0001374880478
0.000548549158
6.495670905e-63
3.585461429e-50
1.021151142e-37
6.453767137e-30
4.558652315e-19
8.755425591e-11
1.527368773e-05
5.650476465e-05
2.545892428e-05
1.960233401e-05
3.404195467e-05
3.907384648e-05
3.710215816e-05
4.036524978e-05
5.472205754e-05
6.882381295e-05
4.002117395e-05
7.248526383e-06
1.553139693e-08
1.273101521e-05
6.106641078e-06
1.853962065e-05
1.539396823e-05
9.523688112e-05
0.0001269256441
0.0001280669737
0.0001237856203
0.0001148947972
0.0002113885196
5.085655549e-64
4.519445014e-52
1.827266454e-40
3.220084112e-29
1.275560821e-18
8.937630751e-11
8.582028258e-06
3.684906673e-05
3.277688322e-05
1.865201329e-05
2.336986463e-05
2.759332459e-05
3.260289599e-05
4.706973532e-05
5.699882418e-05
4.313357115e-05
4.972211454e-05
4.664070719e-05
5.471220231e-06
1.210039238e-07
6.10168226e-09
2.977060412e-07
2.919056716e-07
7.707786786e-05
0.0001103906953
0.0001488225704
0.0001661603934
0.0001154024407
4.847514594e-05
8.161344029e-55
4.825802882e-51
1.200401547e-39
1.235515059e-28
3.012162565e-18
9.44867443e-11
5.503986978e-06
2.33589735e-05
2.855110344e-05
1.783932588e-05
1.803246227e-05
2.317080292e-05
3.555358689e-05
5.864119485e-05
3.909087259e-05
1.264156745e-05
2.529701294e-05
5.807275712e-05
3.37891158e-05
1.489183408e-06
5.848976862e-11
1.895712774e-13
3.747273866e-10
6.690897063e-05
0.0001040138296
0.0001788560354
0.0001824992326
8.972429762e-05
9.948149299e-06
1.465971616e-42
3.92071071e-41
9.833282985e-39
5.359158796e-28
7.636024545e-18
1.05279605e-10
3.657108156e-06
1.478110458e-05
2.129874878e-05
1.667641992e-05
1.650732932e-05
2.440873286e-05
4.54799608e-05
6.362509844e-05
1.418954503e-05
3.220148012e-06
1.085623703e-05
3.62503312e-05
5.082839524e-05
9.110901475e-06
4.102144807e-08
1.292572816e-16
2.060785668e-10
6.267735573e-05
9.862265744e-05
0.0001115780489
9.762685612e-05
8.76088236e-05
3.208689201e-05
1.040548469e-30
8.481801891e-30
6.977443895e-29
4.161018149e-27
2.649257985e-17
1.311622611e-10
2.245147452e-06
8.723518766e-06
1.395169918e-05
1.500407095e-05
1.767919357e-05
3.138316039e-05
6.03427666e-05
4.743546981e-05
2.837062198e-06
1.102781722e-06
5.572526408e-06
2.097853051e-05
4.394291057e-05
1.832780144e-05
4.995000019e-07
1.429548779e-12
1.223977484e-10
6.455793731e-05
9.101625271e-05
7.238981483e-05
6.938543421e-05
7.802379002e-05
6.590730515e-05
6.494770716e-20
2.694063551e-19
1.149223233e-18
7.272117037e-18
2.307843122e-16
1.859589906e-10
1.118337473e-06
4.216797083e-06
7.348329119e-06
1.401060395e-05
2.234442679e-05
4.550108857e-05
7.114838582e-05
1.935515401e-05
2.034160784e-07
5.424806744e-07
3.30122152e-06
1.264120809e-05
3.21153482e-05
2.243273069e-05
1.442934722e-06
8.102426818e-11
6.960206553e-11
7.025887559e-05
6.425349357e-05
3.925404222e-05
4.931540093e-05
5.927249122e-05
7.420298565e-05
2.700608142e-11
2.903339371e-11
3.40597815e-11
4.915292416e-11
9.191307006e-11
1.455568553e-10
3.540486427e-07
1.2777474e-06
2.309015158e-06
1.553745199e-05
3.201660662e-05
6.035312343e-05
4.723143977e-05
2.946679024e-06
5.468264059e-10
3.247632997e-07
2.100153667e-06
7.995487681e-06
2.172674205e-05
2.034373201e-05
2.075813847e-06
8.145644179e-06
3.008951473e-05
7.50991529e-05
2.712531036e-05
5.254089408e-05
8.846277407e-05
8.239029573e-05
0.000627793265
4.114610187e-06
1.883299822e-06
1.226947911e-06
9.097406208e-07
6.437738577e-07
3.434576755e-07
5.635358193e-07
1.209024549e-06
2.693990392e-06
2.055450251e-05
4.286556554e-05
5.465486364e-05
2.509241463e-05
8.736858968e-06
5.086043714e-06
4.259541762e-06
5.219713677e-06
8.420489227e-06
1.507848579e-05
1.239313819e-05
9.282795445e-07
4.18651554e-08
5.004734587e-06
3.261868898e-05
7.940104662e-06
5.76399244e-05
9.904652043e-05
9.494768989e-05
0.0006116358488
1.911653924e-05
9.470267179e-06
5.888545738e-06
4.13277504e-06
2.764824412e-06
1.35763169e-06
1.862891016e-06
4.050815676e-06
6.964295044e-06
2.503288422e-05
4.580140762e-05
4.261361817e-05
2.42825055e-05
1.940465451e-05
2.175596804e-05
2.444238145e-05
2.428454021e-05
2.083117698e-05
1.577653315e-05
1.103832589e-05
6.851244888e-06
4.869455421e-06
4.369469017e-06
7.63334721e-06
7.140900598e-06
5.582710405e-05
9.313184951e-05
9.268078553e-05
0.0004687623594
5.048436351e-05
2.988873393e-05
1.814299117e-05
1.173138024e-05
7.224151065e-06
3.235457337e-06
3.578867849e-06
7.894974535e-06
1.2001674e-05
2.563477455e-05
3.883965419e-05
3.577401241e-05
5.955273189e-05
0.0001366871208
0.0001647608656
0.0001157140693
6.381301275e-05
3.597251189e-05
2.336506244e-05
1.765800738e-05
1.449358801e-05
1.26419508e-05
1.171290483e-05
1.204547838e-05
1.588728804e-05
5.937722461e-05
9.400166737e-05
9.836748404e-05
0.0003652083683
5.219800659e-05
5.703054538e-05
4.299544704e-05
2.901142553e-05
1.735532623e-05
7.268348033e-06
5.447920005e-06
1.175273012e-05
1.667223035e-05
2.501110454e-05
3.143029501e-05
3.709152094e-05
9.945758806e-05
0.0002503465433
0.0002259112714
0.0001118289488
5.327803855e-05
3.239773151e-05
2.576328048e-05
2.363670934e-05
2.255670982e-05
2.182454576e-05
2.1790548e-05
2.343994834e-05
3.128849047e-05
7.408801533e-05
0.0001110988416
0.0001201642686
0.0003022911348
6.219187675e-06
2.521894354e-05
4.229584075e-05
4.378868027e-05
3.284384448e-05
1.536509933e-05
7.687813568e-06
1.495758887e-05
2.031932615e-05
2.533098464e-05
2.937601748e-05
4.046953368e-05
6.509370724e-05
8.020952886e-05
5.818580291e-05
3.52999493e-05
2.660360129e-05
2.48457912e-05
2.627874657e-05
2.816173836e-05
2.94594094e-05
3.06447181e-05
3.312157993e-05
3.900098962e-05
5.155272719e-05
0.0001006464198
0.0001430991962
0.0001507708966
0.0002400480554
8.29132565e-09
8.160235081e-07
5.287497601e-06
1.300236761e-05
1.751682483e-05
9.961465235e-06
9.180713008e-06
1.690955199e-05
2.278478187e-05
3.130091444e-05
8.394612507e-05
0.0001053697635
9.302570892e-05
5.419458858e-05
8.563546922e-06
1.183035888e-05
1.598997868e-05
2.106206099e-05
2.645936796e-05
3.093716284e-05
3.45022681e-05
3.868621369e-05
4.602360439e-05
5.890791709e-05
7.16598966e-05
0.0001204990073
0.000160945947
0.0001552966638
0.0001429016685
3.279465538e-19
7.423680958e-12
7.044402649e-09
1.810767937e-07
7.370140957e-07
3.609979868e-07
8.761492906e-06
1.80808053e-05
3.168270484e-05
9.785316732e-05
0.0002288686427
0.0001461220113
7.513762693e-05
2.859983343e-05
9.959945993e-06
1.014063679e-05
1.47722929e-05
2.114493686e-05
2.761190386e-05
3.321200019e-05
3.875002609e-05
4.682011291e-05
6.036304478e-05
7.767353233e-05
7.125429868e-05
9.830540879e-05
0.0001230519997
9.536880023e-05
3.304796452e-05
4.024983321e-32
3.29893498e-24
2.919489399e-19
3.472104977e-14
7.088770593e-12
1.692283629e-10
8.333927602e-06
2.077840188e-05
6.919632717e-05
0.000153790118
3.258128522e-05
3.480707609e-05
3.728501431e-05
2.563805163e-05
1.671527278e-05
2.378158124e-05
2.83004584e-05
3.110238015e-05
3.421221281e-05
3.831055297e-05
4.474598088e-05
5.609981975e-05
7.212649651e-05
7.55659918e-05
3.094630783e-05
3.081671076e-05
3.755895991e-05
1.460833104e-05
9.455420821e-07
3.571208696e-36
6.704385314e-31
2.59482135e-24
3.339617636e-22
1.353597828e-17
1.493699513e-10
8.04239955e-06
2.708469673e-05
0.0001373859114
8.869150631e-05
1.082044213e-05
1.462778987e-05
2.722464573e-05
2.870854524e-05
2.501344066e-05
0.0001306633693
0.0001456113976
9.365092256e-05
6.398552879e-05
5.442894856e-05
5.69285483e-05
6.83313695e-05
7.721872463e-05
4.423471751e-05
3.897757194e-06
1.444709276e-06
1.948587268e-06
1.30478671e-07
1.130422554e-11
5.021002064e-24
1.892112551e-18
4.631427405e-13
3.131155341e-12
3.520222225e-12
8.85756539e-12
7.996976817e-06
3.69170625e-05
0.0001683168999
1.206625134e-05
9.118930197e-07
9.42218637e-06
2.391248254e-05
3.104475273e-05
3.207631584e-05
9.484800084e-05
0.0001561944722
0.0001594809713
0.0001083294533
8.193700546e-05
7.840902767e-05
8.47673141e-05
7.477006661e-05
2.052972518e-05
4.495192383e-07
6.693283716e-11
1.885243588e-10
1.087020477e-14
3.847261114e-25
2.399005243e-12
4.425772746e-07
6.463831512e-06
2.074254908e-06
1.800850689e-07
8.71013519e-08
8.408610564e-06
5.33411379e-05
0.0001324996545
1.861517342e-06
1.400958131e-07
8.196174627e-06
2.190125911e-05
3.226313096e-05
3.846564626e-05
4.438224839e-05
4.811271583e-05
6.150754498e-05
8.547642596e-05
9.694866867e-05
0.0001034594002
0.0001019002659
7.758678761e-05
2.571169322e-05
1.579310065e-06
1.086349133e-10
4.018049678e-23
2.578222592e-28
8.113635242e-39
3.555544276e-09
3.377749678e-06
1.436076211e-05
6.874737628e-06
1.311126702e-06
5.165795196e-07
1.00168453e-05
8.329922813e-05
7.75859649e-05
8.215972688e-07
5.66328041e-07
1.256596904e-05
8.89232468e-05
8.436908291e-05
5.351772617e-05
6.589000973e-05
7.898449301e-05
9.435551032e-05
0.0001188676989
0.0001410887841
0.0001504098916
0.0001368963935
0.0001008779132
5.489273236e-05
1.282368385e-05
1.898757307e-07
4.308082859e-14
3.045906058e-27
4.235950911e-41
1.07681936e-08
5.194117053e-06
2.659281803e-05
1.889008195e-05
6.294813399e-06
3.239784163e-06
1.506050912e-05
0.0001250016136
3.729985521e-05
9.144193628e-07
1.289929338e-06
1.588888808e-05
0.0001417350994
0.0001364863955
6.725224633e-05
9.686222801e-05
0.000128700098
0.0001374802124
0.000149050286
0.0001659604064
0.0001752614264
0.0001621112098
0.0001288954783
8.543412693e-05
2.696971482e-05
1.283426596e-06
4.46054825e-11
3.403916398e-24
8.239111053e-38
1.806028864e-09
3.520017381e-06
3.590836248e-05
4.279157384e-05
2.18061069e-05
1.437758473e-05
2.950266054e-05
0.0001510977401
2.006923976e-05
1.477516039e-06
2.156185535e-06
1.703047741e-05
0.0001251884511
0.0001625961954
7.224242911e-05
0.0001115852347
0.0001477361808
0.0001516717473
0.0001547699499
0.0001643698024
0.0001719799137
0.0001662238397
0.0001457049028
0.0001025856751
2.899868754e-05
1.109634813e-06
2.394656526e-11
1.124326247e-24
1.618023212e-38
4.487799709e-12
7.186609015e-07
2.596998943e-05
7.076821095e-05
5.387172749e-05
4.277788409e-05
6.143671787e-05
0.0001393464004
1.713642623e-05
2.869756904e-06
3.056695012e-06
1.737790565e-05
8.428522472e-05
0.0001518420496
7.418160873e-05
0.0001208217686
0.0001516694197
0.0001510178326
0.0001482510678
0.0001519787907
0.0001587201579
0.0001610725035
0.000148598313
9.392289857e-05
1.568911188e-05
1.687410384e-07
2.45029803e-14
5.241697282e-28
2.400618411e-42
9.854845304e-20
6.078678142e-09
6.102191091e-06
6.361830904e-05
8.822117514e-05
8.165361571e-05
9.630349095e-05
0.0001147585457
2.516345986e-05
7.501446724e-06
2.612375458e-06
1.234843799e-05
4.602017151e-05
9.26207304e-05
6.207526627e-05
0.0001234001596
0.0001500329415
0.0001465632477
0.0001400482011
0.0001401863921
0.000146464011
0.000149600412
0.0001266086017
4.936481953e-05
2.783988487e-06
5.161207628e-10
5.611288351e-23
1.010132618e-36
4.186273929e-51
1.627459417e-10
3.300481428e-15
1.100789263e-07
1.650394131e-05
9.072476341e-05
0.0001458502171
0.000168825203
0.0001239415963
5.136190889e-05
2.010414732e-05
0.0001241221167
0.0003412774072
0.0005670054191
0.0007385514981
0.0007688260564
0.0009348415863
0.0009375647119
0.0008210982125
0.0006815414153
0.0005544170588
0.0004317721866
0.0002912816522
0.0001293162531
1.578412687e-05
1.145199705e-07
5.636447868e-15
1.234847321e-28
9.66213177e-43
2.363390403e-57
0.005119730453
2.012105991e-15
4.325991659e-06
2.492550403e-14
1.049157174e-06
3.624347987e-13
4.811577117e-12
6.748828952e-11
3.028605721e-06
2.177079915e-17
1.049221506e-16
1.671456819e-15
8.993218515e-07
3.989922845e-16
2.908778429e-15
2.666799015e-14
6.497145017e-08
1.0711928e-14
8.795732533e-14
8.404489882e-13
3.541299901e-10
5.505081956e-09
1.042906041e-07
2.414140892e-06
0.001025963323
1.559559809e-06
2.340515608e-08
0.001317318142
2.306634093e-09
1.231064991e-09
0.002058798052
9.664998555e-10
1.526460645e-09
0.002027913498
1.885818889e-09
2.220911994e-09
0.001366680932
2.756731601e-09
3.736808686e-09
0.0006043803986
5.520173827e-09
8.581250319e-09
0.0001014791684
1.322406608e-08
1.88792548e-08
1.149159257e-05
2.237869538e-08
2.105997065e-08
5.791120149e-06
1.441091375e-08
1.300613767e-08
0.003037047986
5.576227949e-08
0.0001453788604
2.156777285e-08
7.920070532e-08
5.807853528e-08
2.061717843e-07
1.52214349e-07
1.891695622e-07
1.197385221e-07
9.580702659e-08
5.349144923e-07
2.63188156e-07
1.492982829e-07
2.87700586e-08
2.707088682e-07
1.272411184e-07
1.77667655e-07
1.422809562e-07
2.778776362e-07
2.916842422e-07
2.457738781e-08
2.334084145e-07
1.277055685e-07
7.883920479e-08
4.134408469e-08
7.676320339e-08
1.624721159e-08
1.871483281e-09
9.985024819e-10
7.536808547e-09
3.83233797e-05
0.001313325445
2.11306697e-05
3.401220263e-05
1.675205699e-05
3.507919034e-05
4.701922133e-05
2.315966981e-05
1.292997281e-05
1.50644214e-05
0.001234173641
1.252311218e-05
3.448883068e-05
2.026344517e-05
3.968914846e-05
1.217835009e-05
0.001033001659
1.433836327e-05
5.467788835e-05
3.581772666e-05
5.442149465e-05
6.263465493e-06
0.0007858239676
4.920992806e-07
8.064394201e-06
3.935827766e-07
2.551393422e-08
6.2084978e-08
0.0006107318309
2.095594135e-08
4.157490676e-13
8.723182669e-07
1.576036451e-10
1.314335986e-08
0.0004479120851
1.144308268e-08
2.354834324e-09
2.27550842e-06
1.172933626e-08
1.167043141e-08
0.0001823253313
1.350289365e-08
4.011987775e-06
1.801835179e-08
0.0001174878712
1.865372985e-06
2.859520145e-05
1.886954016e-13
8.568297097e-06
1.155567595e-13
1.368961729e-17
3.390520459e-18
2.836792964e-18
1.607444753e-18
1.804000627e-18
1.281027212e-18
1.921017066e-17
1.022988179e-09
5.357408029e-09
2.001259749e-09
6.610297023e-10
7.707749903e-10
6.083785418e-10
8.199587227e-10
6.2611875e-10
7.159876944e-10
1.589221142e-09
1.008080103e-09
1.613618403e-09
4.266193865e-09
2.775552295e-09
4.739248912e-09
1.014366544e-08
7.401518978e-09
1.063278477e-08
1.474414771e-08
1.314222423e-08
1.093335631e-08
1.438396851e-08
1.193704398e-08
2.112261447e-08
3.958743533e-14
1.508435716e-18
8.302848717e-18
4.066871443e-06
5.058041894e-17
3.346164702e-16
4.152285295e-09
2.473531479e-08
9.17575172e-09
6.754144237e-10
3.27127067e-09
1.207070724e-09
6.471455989e-10
6.509254735e-10
6.436491862e-10
1.739430187e-09
1.110470406e-09
2.034669528e-09
5.481360581e-09
3.876035225e-09
6.588845079e-09
1.074568142e-08
8.431104827e-09
9.311645785e-09
1.04322277e-08
8.733495529e-09
1.249904248e-08
3.620319902e-08
2.922842443e-08
7.524314931e-08
2.139193419e-15
1.905009658e-06
5.941517429e-16
4.72437931e-17
7.840213618e-17
1.934742504e-16
3.621069494e-16
2.819352154e-09
2.950409275e-08
7.353574917e-09
8.21915339e-10
3.168383285e-09
1.819038858e-09
2.675291557e-09
2.609521041e-09
4.143575087e-09
8.03118499e-09
7.643865512e-09
8.619152307e-09
6.349217467e-09
6.285325831e-09
6.720251742e-09
2.048599821e-08
1.330708404e-08
4.020103216e-08
3.371492399e-07
7.975722234e-18
1.075123921e-15
2.054763468e-15
5.607674035e-15
8.536981982e-15
1.552357016e-14
5.090097838e-09
3.92234494e-08
6.573717502e-09
6.185044923e-09
2.748347834e-09
1.414945705e-09
3.699748831e-09
6.413109304e-10
1.027677756e-09
9.466988803e-09
4.854515675e-09
1.424321078e-08
1.045656449e-30
0.008872741386
0.009434226203
0.006763926932
0.000307749971
1.8558656e-12
4.560569633e-05
9.607651996e-14
2.436069845e-05
1.841830547e-14
0.001005530111
0.001334445362
7.453814491e-05
4.241882192e-05
0.001742033881
0.001277565415
1.911329511e-05
0.002155148431
0.001153710141
2.563696285e-05
0.001739682184
0.0009036945551
1.459778088e-05
0.0009728381737
0.0006901078478
2.761244648e-07
0.000298692839
0.0005370531298
1.655140401e-06
2.965970591e-05
0.0003143176937
2.927615277e-06
6.667694076e-06
9.534368547e-05
0.003611999623
0.002354203649
6.144516873e-05
1.074023613e-07
7.881701806e-06
1.987157691e-17
7.100937319e-18
2.407135203e-09
5.795111379e-10
7.218994278e-10
1.071646321e-09
2.571828737e-09
6.776157173e-09
1.379045775e-08
1.136495932e-08
5.660575911e-08
2.37054005e-06
5.922458291e-06
1.13033555e-18
3.529723249e-18
2.134148e-18
1.232533416e-17
8.671663047e-17
1.049227973e-08
1.397717152e-09
5.758251525e-10
1.004722888e-09
3.168383382e-09
8.097935303e-09
1.077893687e-08
1.593433847e-08
3.185714791e-07
9.38962279e-08
8.233739806e-09
1.293961409e-09
1.485199987e-09
5.170845531e-09
7.067800881e-09
9.239234154e-09
6.400996728e-08
2.642935804e-07
4.39932135e-07
2.591944811e-07
5.894744335e-12
8.138591975e-11
2.518522898e-10
1.21600575e-09
1.296165095e-07
1.106439117e-08
4.723830535e-09
9.317475988e-09
4.431317047e-09
2.45122382e-08
1.862993093e-07
7.570386907e-09
7.760968084e-11
4.635092602e-09
4.378075547e-08
1.371465477e-19
3.91967608e-22
2.351696303e-13
2.408210202e-12
3.448779362e-12
2.564031446e-11
5.55789747e-09
1.348821732e-23
6.244412887e-12
8.462513785e-11
9.866019325e-10
5.816197507e-10
2.137181622e-24
5.326836685e-10
1.099341763e-08
1.327364397e-07
4.94563285e-09
3.329975817e-09
2.659145637e-07
5.185980527e-06
6.964970248e-05
0.000298688804
1.034276504e-09
0.001190696363
0.0001414666483
1.730603942e-05
2.258105468e-13
3.561574004e-05
1.029622682e-13
0.0001822881877
0.0001478383781
7.37221393e-17
4.63736641e-17
3.231255545e-05
4.054403873e-14
0.0001738950585
0.0001861781051
2.320991049e-17
5.96205965e-18
0.0002306598467
1.350999616e-18
0.0001046830492
0.005816229615
0.001484364354
8.551449715e-15
0.0003135315412
1.815859384e-14
0.0003272819177
6.536698798e-15
5.467826572e-14
1.591511675e-06
1.722630409e-13
9.74578219e-14
3.363476889e-13
1.27900362e-12
4.779049073e-12
1.760077203e-11
1.520860958e-14
6.508815895e-18
6.681024198e-07
1.475978269e-12
5.244605086e-13
4.264683507e-12
1.256171786e-12
1.220142451e-12
1.64793567e-11
1.81360003e-11
6.283971009e-11
2.371909619e-10
4.928330795e-16
1.496482735e-15
5.382237869e-15
4.543496054e-17
6.857019371e-08
1.461906094e-11
5.527484919e-11
1.774580636e-11
6.338721474e-11
1.121434202e-09
4.552823008e-09
3.95631937e-09
1.881550003e-08
5.692844433e-12
2.081487012e-11
3.154004456e-10
9.969949837e-10
4.616620944e-14
1.410887506e-13
3.841903352e-22
3.059214651e-14
3.803319153e-14
1.138397708e-13
2.708027446e-13
3.435473345e-13
1.099716903e-12
2.139448268e-09
1.527881018e-10
8.057875361e-10
2.345626208e-08
3.113871406e-10
1.291762993e-09
1.129761146e-09
4.72540553e-09
2.020802254e-08
9.088801321e-08
8.560434512e-08
4.449387551e-07
2.070419988e-10
2.784872854e-10
1.949664791e-08
8.928171893e-30
3.733715379e-23
8.654340109e-29
7.488903363e-13
1.0873442e-12
3.690595325e-12
8.093717943e-12
1.268278498e-11
4.455909835e-11
1.420748524e-10
6.749698398e-28
6.183692137e-24
6.853319921e-27
2.286358758e-11
4.710252799e-11
1.895545718e-10
3.109499342e-10
7.655194443e-10
2.928888327e-09
9.160806267e-09
9.836437087e-26
4.785583735e-25
4.171551635e-24
2.438400474e-09
2.045484836e-08
1.15797344e-07
4.353100883e-08
6.225873822e-07
2.360089439e-06
6.153471416e-06
3.106238648e-08
1.34840621e-09
9.258406328e-09
1.130411536e-06
2.869655997e-08
1.315665678e-07
2.209930344e-05
6.539671511e-07
3.432384306e-06
4.778223209e-07
1.754351796e-05
)
;

boundaryField
{
    walls
    {
        type            zeroGradient;
    }
    wallFilmFace_top
    {
        type            zeroGradient;
    }
    region0_to_wallFilmRegion_wallFilmFace
    {
        type            zeroGradient;
    }
    mirrorFace_top
    {
        type            zeroGradient;
    }
    region0_to_wallFilmRegion_mirrorFace
    {
        type            zeroGradient;
    }
    procBoundary2to0
    {
        type            processor;
        value           nonuniform List<scalar> 
26
(
3.773753343e-17
8.950947418e-17
1.99046151e-16
4.627227135e-16
3.429304644e-14
1.401298904e-09
4.295322196e-06
1.273815566e-05
2.688479989e-05
4.809594336e-05
6.788645903e-05
8.267546229e-05
8.811567676e-05
5.229790688e-05
7.054988482e-06
1.814984119e-08
6.096322536e-05
1.169515057e-05
1.281943321e-05
2.108307873e-05
2.98920877e-05
4.124544155e-05
5.84464215e-05
6.458156168e-05
2.228035855e-05
7.467421472e-07
)
;
    }
    procBoundary2to1
    {
        type            processor;
        value           nonuniform List<scalar> 
33
(
4.388394396e-10
4.388394396e-10
7.89042713e-05
7.89042713e-05
1.971102744e-06
9.154452512e-11
4.815980578e-23
4.815980578e-23
1.49870385e-44
5.646658706e-76
1.200093986e-70
1.971229162e-57
1.546158541e-44
5.338692917e-32
8.606024044e-21
2.481782272e-11
1.273884247e-05
3.933414998e-05
5.771982864e-05
1.572178836e-05
1.446830825e-07
1.011652443e-14
1.167132739e-27
3.303386645e-41
2.013166068e-48
3.286641344e-36
5.47806202e-24
6.383387067e-20
1.297855354e-18
1.673104752e-21
2.731826919e-25
3.683909696e-17
1.841865998e-06
)
;
    }
    procBoundary2to3
    {
        type            processor;
        value           nonuniform List<scalar> 
64
(
6.875493888e-15
8.573262189e-14
3.238862754e-13
4.400661534e-12
2.474970126e-10
7.072498257e-15
1.015945596e-13
3.77472965e-12
1.306468532e-05
3.604021008e-05
3.872422395e-05
1.244461741e-05
2.3455508e-05
3.872422395e-05
5.775106608e-05
6.982880903e-05
2.578095727e-05
5.944318327e-07
1.867477264e-12
1.506939483e-24
1.619140721e-22
5.706808886e-21
2.904167056e-18
4.507396156e-08
4.507396156e-08
9.973401327e-08
6.112882695e-06
6.112882695e-06
4.137250895e-05
6.112882695e-06
3.651627118e-18
9.373188691e-17
3.651627118e-18
4.145980469e-16
1.540302671e-15
3.902360842e-05
4.653827436e-14
3.604021008e-05
3.03642318e-05
3.651627118e-18
4.659289653e-09
1.782502822e-11
1.621110015e-10
1.041266836e-08
2.826326214e-06
0.0001449232492
0.0002485914286
3.344443567e-18
4.770208067e-05
2.236324762e-14
8.573262189e-14
1.202686926e-12
6.381839722e-11
8.842342265e-10
2.118411325e-14
1.573924688e-08
7.943540311e-08
5.645083097e-13
3.989241067e-07
2.505467983e-06
1.137836021e-09
1.337888977e-07
0.0002920554161
6.257681591e-05
)
;
    }
}


// ************************************************************************* //
