/*--------------------------------*- C++ -*----------------------------------*\
  =========                 |
  \\      /  F ield         | OpenFOAM: The Open Source CFD Toolbox
   \\    /   O peration     | Website:  https://openfoam.org
    \\  /    A nd           | Version:  8
     \\/     M anipulation  |
\*---------------------------------------------------------------------------*/
FoamFile
{
    version     2.0;
    format      ascii;
    class       volScalarField;
    location    "0.3/wallFilmRegion";
    object      kappa;
}
// * * * * * * * * * * * * * * * * * * * * * * * * * * * * * * * * * * * * * //

dimensions      [1 1 -3 -1 0 0 0];

internalField   nonuniform List<scalar> 
1342
(
0.60881419
0.6088142293
0.6088142636
0.6088143664
0.6088145379
0.6088146999
0.6088100062
0.608810003
0.6088100019
0.6088100015
0.6088100014
0.6088100015
0.6088100018
0.6088100023
0.6088100042
0.6088100367
0.6088100002
0.6088100011
0.6088100028
0.6088100021
0.6088100015
0.6088100012
0.6088100013
0.6088100019
0.6088100073
0.6088127761
0.6088100021
0.6088100025
0.6088100032
0.6088100042
0.6088100057
0.6088100084
0.6088100147
0.6088100049
0.6088100024
0.6088100016
0.6088100015
0.6088100016
0.6088100019
0.6088100022
0.6088100025
0.6088100028
0.6088100031
0.6088100001
0.6088100003
0.6088100012
0.6088100018
0.6088100018
0.608810002
0.6088100023
0.6088100032
0.6088100138
0.608812934
0.6088100055
0.6088100046
0.6088100045
0.6088100047
0.6088100054
0.6088100072
0.608810011
0.608810021
0.6088100038
0.608810002
0.6088100015
0.6088100015
0.6088100017
0.6088100019
0.6088100023
0.6088100025
0.6088100008
0.6088100002
0.60881
0.6088100001
0.6088100004
0.6088100011
0.6088100016
0.6088100016
0.6088100017
0.608810002
0.6088100037
0.6088102253
0.6088103696
0.6088100553
0.6088100255
0.6088100198
0.6088100197
0.6088100089
0.6088100281
0.608810113
0.6088100039
0.6088100019
0.6088100015
0.6088100016
0.6088100018
0.6088100021
0.6088100023
0.6088100023
0.6088100022
0.6088100022
0.6088100001
0.6088100004
0.6088100012
0.6088100024
0.6088100015
0.6088100009
0.6088100009
0.6088100011
0.6088100019
0.6088100145
0.60881
0.6088141506
0.6088138903
0.6088121871
0.6088113057
0.6088100034
0.6088100047
0.608810048
0.6088100035
0.608810002
0.6088100017
0.6088100018
0.608810002
0.6088100022
0.6088100022
0.6088100023
0.6088100027
0.6088100044
0.6088100003
0.608810001
0.6088100028
0.6088100037
0.6088100015
0.6088100007
0.6088100006
0.6088100007
0.6088100011
0.6088100027
0.60881
0.60881
0.60881
0.60881
0.60881
0.6088142165
0.608810003
0.6088100029
0.6088100075
0.6088100037
0.6088100023
0.6088100021
0.6088100021
0.6088100022
0.6088100022
0.6088100022
0.6088100026
0.6088100046
0.6088100444
0.6088100007
0.6088100024
0.6088100021
0.6088100024
0.6088100002
0.6088100001
0.6088100001
0.6088100001
0.6088100001
0.6088100002
0.60881
0.60881
0.60881
0.60881
0.60881
0.6088142525
0.608810004
0.6088100027
0.6088100043
0.6088100041
0.6088100028
0.6088100025
0.6088100024
0.6088100023
0.6088100022
0.6088100025
0.6088100034
0.6088100064
0.6088104559
0.608810002
0.6088100066
0.6088100033
0.6088100035
0.6088100002
0.6088100002
0.6088100002
0.6088100003
0.6088100003
0.6088100004
0.60881
0.60881
0.60881
0.60881
0.60881
0.6088142464
0.6088100064
0.6088100032
0.6088100038
0.6088100045
0.6088100034
0.6088100029
0.6088100025
0.6088100022
0.6088100023
0.6088100031
0.608810003
0.6088100031
0.6088100072
0.6088100525
0.6088107942
0.6088100586
0.6088100619
0.6088100002
0.6088100002
0.6088100003
0.6088100004
0.6088100005
0.6088100007
0.60881
0.60881
0.60881
0.60881
0.60881
0.6088142811
0.6088100102
0.6088100044
0.6088100043
0.6088100046
0.6088100038
0.608810003
0.6088100023
0.6088100021
0.6088100028
0.6088100054
0.6088100037
0.6088100029
0.6088100037
0.6088100148
0.6088139581
0.6088137175
0.6088141824
0.6088100003
0.6088100002
0.6088100003
0.6088100004
0.6088100005
0.6088100016
0.60881
0.60881
0.60881
0.60881
0.60881
0.608814397
0.6088100157
0.6088100067
0.6088100055
0.6088100049
0.608810004
0.6088100028
0.6088100021
0.6088100023
0.6088100047
0.6088100137
0.6088100062
0.6088100034
0.6088100035
0.608810006
0.6088102152
0.60881
0.6088141615
0.6088100003
0.6088100003
0.6088100004
0.6088100004
0.6088100004
0.6088100009
0.60881
0.60881
0.60881
0.60881
0.60881
0.6088145779
0.608810025
0.6088100106
0.6088100077
0.6088100054
0.6088100039
0.6088100025
0.6088100021
0.6088100029
0.6088100132
0.6088100324
0.6088100103
0.6088100046
0.6088100039
0.6088100056
0.6088100363
0.6088140756
0.6088140412
0.6088100005
0.6088100005
0.6088100006
0.6088100004
0.6088100004
0.6088100006
0.60881
0.60881
0.60881
0.60881
0.6088142685
0.6088147714
0.6088100439
0.6088100184
0.6088100122
0.6088100058
0.6088100036
0.6088100023
0.6088100024
0.6088100045
0.6088100999
0.6088100566
0.6088100155
0.6088100064
0.6088100045
0.608810006
0.6088100216
0.6088139921
0.6088141124
0.6088100007
0.6088100009
0.6088100008
0.6088100005
0.6088100004
0.6088100005
0.6088142692
0.6088142764
0.6088143718
0.6088145683
0.6088147765
0.6088149761
0.6088100961
0.6088100376
0.6088100245
0.6088100057
0.6088100032
0.6088100024
0.6088100029
0.6088100123
0.6088134668
0.6088100732
0.6088100207
0.6088100088
0.6088100057
0.6088100071
0.6088100235
0.6088100037
0.6088100013
0.608810001
0.6088100017
0.6088100004
0.6088100002
0.6088100002
0.6088100001
0.6088100098
0.6088100197
0.6088100308
0.608810043
0.6088100606
0.6088100949
0.6088100594
0.6088100339
0.6088100202
0.6088100056
0.6088100032
0.6088100026
0.6088100034
0.6088100056
0.6088100089
0.6088100121
0.6088100121
0.6088100095
0.6088100072
0.6088100087
0.6088100353
0.6088101704
0.6088100052
0.6088100019
0.6088100045
0.6088100004
0.6088100005
0.6088100007
0.608810001
0.6088100042
0.6088100071
0.6088100112
0.608810016
0.6088100231
0.6088100365
0.6088100267
0.6088100161
0.6088100112
0.6088100052
0.6088100033
0.608810003
0.6088100038
0.6088100044
0.6088100045
0.6088100045
0.6088100048
0.6088100052
0.6088100057
0.6088100065
0.6088100074
0.6088100073
0.6088100068
0.6088100047
0.6088100058
0.6088100007
0.6088100007
0.6088100011
0.6088100019
0.6088100029
0.6088100037
0.6088100052
0.6088100075
0.6088100111
0.6088100183
0.6088100161
0.6088100099
0.6088100072
0.6088100047
0.6088100035
0.6088100032
0.6088100023
0.6088100018
0.6088100018
0.6088100022
0.6088100028
0.6088100037
0.6088100043
0.6088100046
0.6088100045
0.6088100041
0.6088100037
0.6088100034
0.6088100031
0.6088100008
0.608810001
0.6088100015
0.6088100025
0.6088100033
0.6088100032
0.6088100036
0.6088100044
0.608810006
0.6088100097
0.6088100112
0.6088100069
0.6088100051
0.608810004
0.6088100034
0.6088100028
0.6088100018
0.6088100016
0.6088100019
0.6088100023
0.608810003
0.6088100036
0.6088100038
0.6088100035
0.6088100032
0.6088100028
0.6088100024
0.6088100021
0.6088100019
0.6088100008
0.6088100011
0.6088100017
0.6088100027
0.6088100067
0.6088100047
0.6088100043
0.6088100044
0.608810005
0.6088100069
0.6088100083
0.6088100051
0.6088100039
0.6088100032
0.6088100032
0.6088100026
0.6088100021
0.6088100024
0.6088100037
0.6088100038
0.608810004
0.6088100039
0.6088100034
0.6088100029
0.6088100024
0.6088100021
0.6088100018
0.6088100015
0.6088100014
0.6088100008
0.6088100011
0.6088100017
0.6088100026
0.608810543
0.6088100241
0.6088100103
0.6088100082
0.6088100084
0.6088100117
0.6088100072
0.6088100043
0.6088100035
0.6088100029
0.6088100023
0.6088100021
0.6088100023
0.6088100032
0.6088100074
0.6088100059
0.608810005
0.6088100039
0.6088100031
0.6088100025
0.608810002
0.6088100017
0.6088100014
0.6088100013
0.6088100013
0.6088100009
0.6088100012
0.6088100017
0.6088100025
0.60881
0.608813975
0.608810802
0.6088101065
0.6088100546
0.6088101178
0.6088100068
0.608810004
0.6088100029
0.6088100018
0.6088100016
0.6088100019
0.6088100024
0.6088100035
0.6088100057
0.6088100066
0.6088100052
0.6088100037
0.6088100028
0.6088100022
0.6088100018
0.6088100015
0.6088100013
0.6088100013
0.6088100014
0.6088100011
0.6088100013
0.6088100018
0.6088100025
0.60881
0.60881
0.60881
0.6088137646
0.6088142388
0.6088142206
0.6088100061
0.6088100036
0.608810002
0.6088100016
0.6088100034
0.6088100029
0.6088100027
0.6088100032
0.608810004
0.6088100044
0.6088100039
0.6088100031
0.6088100024
0.6088100019
0.6088100016
0.6088100013
0.6088100013
0.6088100014
0.6088100019
0.6088100015
0.6088100016
0.6088100023
0.6088100063
0.60881
0.60881
0.60881
0.60881
0.60881
0.6088142401
0.6088100056
0.608810003
0.6088100017
0.6088100022
0.6088100067
0.6088100046
0.6088100029
0.6088100027
0.6088100029
0.6088100012
0.6088100013
0.6088100017
0.6088100017
0.6088100016
0.6088100014
0.6088100013
0.6088100014
0.6088100018
0.6088100043
0.6088100056
0.6088100041
0.6088100236
0.6088113304
0.60881
0.60881
0.6088143076
0.6088142987
0.6088142724
0.6088142834
0.6088100055
0.6088100026
0.6088100019
0.6088100058
0.6088100342
0.6088100061
0.6088100031
0.6088100024
0.6088100025
0.6088100009
0.6088100007
0.6088100009
0.6088100012
0.6088100012
0.6088100012
0.6088100012
0.6088100014
0.6088100022
0.6088100179
0.6088124102
0.6088117832
0.608810547
0.60881
0.6088142678
0.6088100591
0.608810008
0.6088100112
0.6088100722
0.6088101168
0.6088100054
0.6088100022
0.6088100023
0.6088100246
0.6088101554
0.6088100065
0.6088100031
0.6088100024
0.6088100024
0.6088100012
0.6088100009
0.608810001
0.6088100011
0.6088100011
0.6088100011
0.6088100011
0.6088100014
0.6088100021
0.6088100094
0.6088132373
0.60881
0.60881
0.60881
0.6088111991
0.6088100098
0.6088100044
0.6088100056
0.6088100174
0.6088100358
0.6088100049
0.608810002
0.6088100032
0.6088100631
0.6088100631
0.6088100062
0.6088100014
0.608810001
0.6088100012
0.6088100004
0.6088100003
0.6088100004
0.6088100006
0.6088100007
0.6088100008
0.608810001
0.6088100012
0.6088100016
0.6088100029
0.6088100349
0.608811678
0.60881
0.60881
0.6088104466
0.6088100058
0.6088100031
0.6088100031
0.6088100055
0.6088100086
0.6088100039
0.6088100019
0.6088100048
0.6088100582
0.6088100344
0.6088100058
0.6088100012
0.6088100007
0.6088100007
0.6088100003
0.6088100002
0.6088100003
0.6088100004
0.6088100005
0.6088100007
0.6088100008
0.6088100011
0.6088100014
0.608810002
0.6088100077
0.6088126032
0.60881
0.60881
0.6088113508
0.6088100055
0.6088100027
0.6088100023
0.6088100026
0.6088100033
0.6088100027
0.6088100019
0.6088100065
0.6088100348
0.6088100224
0.6088100054
0.6088100014
0.6088100007
0.6088100007
0.6088100002
0.6088100002
0.6088100003
0.6088100004
0.6088100005
0.6088100006
0.6088100008
0.6088100011
0.6088100014
0.6088100019
0.6088100072
0.6088122168
0.60881
0.60881
0.6088131915
0.608810011
0.6088100027
0.608810002
0.6088100019
0.6088100021
0.6088100021
0.608810002
0.6088100066
0.6088100178
0.6088100161
0.6088100049
0.6088100017
0.6088100009
0.6088100008
0.6088100003
0.6088100003
0.6088100003
0.6088100004
0.6088100005
0.6088100007
0.6088100009
0.6088100011
0.6088100014
0.6088100021
0.608810024
0.6088108103
0.60881
0.60881
0.60881
0.6088104052
0.6088100037
0.6088100021
0.6088100018
0.6088100018
0.6088100019
0.6088100022
0.6088100048
0.6088100082
0.6088100139
0.6088100046
0.608810002
0.6088100011
0.608810001
0.6088100004
0.6088100003
0.6088100004
0.6088100005
0.6088100006
0.6088100008
0.608810001
0.6088100012
0.6088100016
0.6088100038
0.6088115189
0.60881
0.60881
0.60881
0.6088119424
0.6088106658
0.6088100339
0.6088100028
0.6088100021
0.608810002
0.6088100021
0.6088100027
0.6088100041
0.6088100059
0.6088100016
0.608810001
0.6088100008
0.6088100007
0.6088100006
0.6088100005
0.6088100005
0.6088100005
0.6088100006
0.6088100008
0.6088100009
0.6088100011
0.6088100013
0.6088100019
0.6088100291
0.608810457
0.60881
0.60881
0.60881
0.6088099781
0.608809693
0.6088099784
0.6088089032
0.6088099621
0.6088084894
0.6088084907
0.6088085244
0.6088099617
0.6088083778
0.6088083415
0.6088082333
0.6088099449
0.6088082881
0.6088081135
0.6088080702
0.6088098639
0.6088082925
0.6088082764
0.6088082776
0.6088083981
0.6088096377
0.608809981
0.608809998
0.6088099805
0.6088099806
0.6088098925
0.6088099785
0.6088096925
0.608809458
0.6088099781
0.60880953
0.6088095943
0.6088099785
0.6088096456
0.6088096853
0.6088099792
0.6088097126
0.6088097282
0.6088099799
0.6088097477
0.6088097785
0.6088099801
0.6088098123
0.6088098419
0.6088099798
0.6088098645
0.6088098825
0.6088099791
0.608809895
0.6088099017
0.6088099771
0.6088099413
0.6088099774
0.6088098633
0.6088098795
0.6088098713
0.6088099571
0.6088099533
0.6088099555
0.6088098716
0.608809851
0.6088099586
0.6088099471
0.6088098886
0.6088098405
0.6088099139
0.6088099008
0.6088099333
0.6088099098
0.6088099308
0.6088099057
0.6088097144
0.6088098659
0.6088098155
0.6088098477
0.6088097283
0.608809805
0.6088093384
0.608808631
0.6088085314
0.6088091356
0.6088099726
0.6088099772
0.6088099746
0.6088099704
0.6088099755
0.6088099782
0.6088099705
0.6088099819
0.6088099829
0.608809976
0.6088099777
0.608809977
0.608809979
0.6088099777
0.6088099794
0.6088099779
0.6088099785
0.6088099787
0.6088099797
0.6088099793
0.6088099798
0.6088099794
0.6088099795
0.6088099837
0.6088099802
0.6088099976
0.6088099965
0.6088100018
0.6088099804
0.608810024
0.6088102644
0.6088100075
0.608810261
0.6088100417
0.6088099809
0.6088100532
0.6088102424
0.6088100016
0.6088101923
0.6088100587
0.6088099812
0.6088100572
0.6088100005
0.6088100477
0.6088099817
0.6088099949
0.6088099935
0.6088091017
0.608809982
0.6088089886
0.6088091108
0.6088089218
0.6088089202
0.608809009
0.6088088601
0.6088087898
0.6088086895
0.608809174
0.6088096336
0.6088093868
0.608809363
0.608809279
0.6088092398
0.6088095187
0.6088093343
0.6088093969
0.6088096086
0.6088094673
0.6088095223
0.6088097067
0.6088095908
0.6088096666
0.6088098021
0.6088097286
0.6088097767
0.6088098583
0.6088098106
0.6088098268
0.6088098893
0.6088098506
0.6088098921
0.6088088794
0.6088087498
0.6088086458
0.6088099716
0.6088085279
0.6088084824
0.6088094706
0.6088097855
0.6088096472
0.6088091908
0.6088094254
0.6088092748
0.6088093089
0.60880919
0.6088092555
0.6088094605
0.6088093426
0.6088094369
0.6088096436
0.6088095516
0.6088096411
0.6088097522
0.6088096911
0.6088097218
0.6088098009
0.6088097415
0.6088097941
0.6088099055
0.6088098721
0.6088099217
0.6088085068
0.6088099568
0.6088082886
0.6088083499
0.608808373
0.6088083398
0.6088082768
0.6088094418
0.6088098013
0.6088095575
0.608809264
0.6088094402
0.6088093585
0.608809459
0.6088094178
0.6088095271
0.6088096549
0.608809644
0.6088096692
0.6088096786
0.608809654
0.6088096557
0.6088098137
0.6088097394
0.6088098453
0.6088099235
0.6088082773
0.6088081766
0.6088082481
0.6088081979
0.6088080807
0.6088081654
0.6088094798
0.6088096648
0.6088093235
0.6088095963
0.6088091254
0.608809008
0.6088095483
0.6088089238
0.6088089747
0.6088096038
0.6088092954
0.6088094921
0.6088081628
0.6088099806
0.6088099785
0.6088099808
0.608809955
0.608809386
0.6088099471
0.6088094115
0.6088099434
0.6088092436
0.6088099795
0.608809977
0.6088099804
0.60880997
0.6088099781
0.6088099774
0.6088099766
0.6088099782
0.608809978
0.6088099786
0.6088099788
0.608809979
0.60880998
0.6088099795
0.60880998
0.6088100277
0.6088099801
0.6088099807
0.6088100032
0.60880998
0.6088099811
0.6088100008
0.6088099796
0.6088099813
0.6088099801
0.6088099798
0.6088099906
0.6088099095
0.6088099853
0.6088091109
0.6088090448
0.6088095797
0.6088093365
0.6088094526
0.608809574
0.6088096513
0.6088097587
0.6088098356
0.6088098688
0.6088099449
0.608809972
0.6088099764
0.608808761
0.6088086872
0.6088087093
0.608808637
0.6088085525
0.6088097046
0.6088092251
0.6088092488
0.6088093863
0.6088095545
0.6088097064
0.6088097783
0.6088098525
0.6088099549
0.6088098886
0.6088097033
0.6088092377
0.6088093482
0.6088095839
0.608809674
0.6088097222
0.6088098972
0.6088099408
0.6088099396
0.6088099294
0.6088082805
0.6088082821
0.6088083358
0.6088089578
0.6088098718
0.6088096057
0.6088095163
0.6088096987
0.6088095226
0.6088097537
0.6088098972
0.6088096829
0.608808182
0.6088095823
0.608809569
0.6088079407
0.6088079022
0.6088084426
0.6088084805
0.6088084554
0.6088085727
0.6088089708
0.6088081146
0.6088084834
0.6088086888
0.6088094687
0.608808482
0.6088081416
0.6088090393
0.6088099038
0.6088099886
0.6088089981
0.6088095444
0.6088099822
0.6088099973
0.6088099982
0.6088099741
0.6088094882
0.6088099769
0.6088099645
0.6088099894
0.6088092004
0.6088099482
0.6088094142
0.6088099631
0.6088099582
0.608809263
0.6088092909
0.6088099454
0.6088093378
0.6088099584
0.6088099606
0.6088092691
0.6088091658
0.6088099644
0.6088090614
0.6088099896
0.6088099781
0.6088099849
0.6088092019
0.6088099801
0.6088088824
0.6088099912
0.6088092906
0.6088086311
0.608809969
0.608808405
0.6088086389
0.6088086431
0.6088086489
0.6088086701
0.6088086892
0.6088087513
0.6088086599
0.6088099553
0.6088083105
0.6088083056
0.6088084451
0.6088084839
0.6088084501
0.6088084425
0.6088085051
0.6088084475
0.6088085273
0.6088082014
0.6088081172
0.6088081033
0.6088082514
0.6088098785
0.6088081976
0.6088081832
0.6088082418
0.6088082445
0.6088088727
0.6088095608
0.6088095233
0.6088098712
0.6088082071
0.6088082825
0.6088084041
0.6088088458
0.6088081591
0.608808157
0.6088066157
0.6088083023
0.6088085121
0.6088084474
0.6088082793
0.6088084336
0.6088084474
0.6088092556
0.6088082048
0.6088086262
0.6088099178
0.60880829
0.6088089344
0.6088088837
0.6088096302
0.6088099048
0.608809977
0.6088099694
0.6088099941
0.608808222
0.6088082941
0.608809882
0.6088081213
0.6088077107
0.6088080756
0.6088084463
0.6088084687
0.6088085167
0.6088085289
0.6088085882
0.6088086759
0.6088088371
0.6088080212
0.6088081377
0.608808006
0.6088085582
0.6088084941
0.6088087343
0.6088090098
0.6088092629
0.6088097327
0.6088099037
0.6088080501
0.6088080901
0.6088081077
0.6088096415
0.6088099179
0.6088099773
0.6088099722
0.608809993
0.6088099965
0.6088099972
0.6088099375
0.608809043
0.6088097835
0.6088099946
0.6088099125
0.6088099812
0.608809998
0.6088099949
0.6088099978
0.608809995
0.6088099984
)
;

boundaryField
{
    walls
    {
        type            zeroGradient;
    }
    wallFilmFace_top
    {
        type            zeroGradient;
    }
    region0_to_wallFilmRegion_wallFilmFace
    {
        type            zeroGradient;
    }
    mirrorFace_top
    {
        type            zeroGradient;
    }
    region0_to_wallFilmRegion_mirrorFace
    {
        type            zeroGradient;
    }
    procBoundary2to0
    {
        type            processor;
        value           nonuniform List<scalar> 
26
(
0.60881
0.60881
0.60881
0.6088144862
0.6088147334
0.6088148625
0.6088100081
0.608810004
0.6088100024
0.6088100017
0.6088100016
0.6088100017
0.608810002
0.6088100029
0.6088100084
0.608810599
0.6088100115
0.6088100152
0.6088100043
0.6088100019
0.6088100013
0.608810001
0.6088100009
0.6088100011
0.6088100018
0.6088100118
)
;
    }
    procBoundary2to1
    {
        type            processor;
        value           nonuniform List<scalar> 
33
(
0.6088140591
0.6088140591
0.608810002
0.608810002
0.60881001
0.6088137464
0.60881
0.60881
0.60881
0.60881
0.60881
0.60881
0.60881
0.60881
0.60881
0.608814278
0.6088100046
0.608810003
0.6088100029
0.6088100043
0.6088100528
0.6088116696
0.60881
0.60881
0.60881
0.60881
0.60881
0.60881
0.60881
0.60881
0.60881
0.60881
0.6088100041
)
;
    }
    procBoundary2to3
    {
        type            processor;
        value           nonuniform List<scalar> 
64
(
0.6088097287
0.6088089287
0.6088089488
0.608808953
0.608808611
0.6088082198
0.6088080889
0.6088082746
0.6088099987
0.6088099739
0.6088099809
0.6088099833
0.6088099818
0.6088099809
0.6088099805
0.6088099803
0.6088099802
0.6088099813
0.6088102031
0.60881
0.60881
0.60881
0.60881
0.6088101201
0.6088101201
0.6088100722
0.6088100004
0.6088100004
0.6088099909
0.6088100004
0.6088089076
0.6088086121
0.6088089076
0.6088085149
0.6088084139
0.6088099421
0.6088091918
0.6088099739
0.6088099902
0.6088089076
0.6088095873
0.6088084543
0.6088087301
0.6088099226
0.6088099973
0.6088099984
0.608809969
0.6088089818
0.6088099919
0.6088093532
0.6088089287
0.608808949
0.6088087004
0.608808949
0.6088081195
0.6088098537
0.6088099653
0.608808166
0.6088099919
0.608809998
0.608809484
0.6088099896
0.608809998
0.6088099986
)
;
    }
}


// ************************************************************************* //
