/*--------------------------------*- C++ -*----------------------------------*\
  =========                 |
  \\      /  F ield         | OpenFOAM: The Open Source CFD Toolbox
   \\    /   O peration     | Website:  https://openfoam.org
    \\  /    A nd           | Version:  8
     \\/     M anipulation  |
\*---------------------------------------------------------------------------*/
FoamFile
{
    version     2.0;
    format      ascii;
    class       surfaceScalarField;
    location    "0.3/wallFilmRegion";
    object      phi;
}
// * * * * * * * * * * * * * * * * * * * * * * * * * * * * * * * * * * * * * //

dimensions      [1 0 -1 0 0 0 0];

internalField   nonuniform List<scalar> 
2598
(
-3.151629156e-17
-2.622975578e-10
-1.295444075e-16
5.307968772e-11
-4.052501197e-16
2.308479988e-10
-1.046362244e-15
3.362973954e-10
-7.694026646e-14
4.278007266e-10
3.064981658e-09
7.482569514e-10
3.058684454e-05
5.631440704e-05
0.0001071264056
0.000160180268
0.0002305375997
0.0003003140334
0.0003581861808
0.0003713003405
0.0004013496244
0.0002952871721
0.0003848384142
0.0001790102977
0.0003526028753
9.679872372e-05
0.0002347323455
4.998805285e-05
3.057954317e-05
1.59638382e-05
4.935011057e-06
7.818311222e-07
0.001608428231
-0.005256080091
0.0006613159772
-0.001821121553
0.0002367242414
3.950786292e-05
0.00027531181
0.0002084070849
0.0003805191614
0.0003239934936
0.0004911979619
0.0004029014798
0.0004198638227
0.000350144538
7.097525062e-05
6.976459398e-05
2.122162117e-08
1.350989556e-08
-4.824953901e-22
-0.0003634122651
4.885035055e-05
-0.0002645093762
4.47298003e-05
-0.0001818958896
3.641654183e-05
-0.0001119805116
2.687207977e-05
-5.607761857e-05
1.712035695e-05
-1.759217017e-05
9.047703292e-06
2.662449512e-08
3.082415787e-06
4.687588284e-05
9.261900782e-05
0.0001691519534
0.0002798980694
0.0003366702583
0.0004959611175
0.0004343986309
0.0005043295943
0.0004114540335
0.0003473088146
0.0003436451488
0.0001939970745
0.0002849830584
0.0001014154795
0.0002501744981
5.658537065e-05
0.0002376016512
2.813209082e-05
0.0002077725697
2.369556948e-05
0.00405886414
-0.005390746383
0.002533655379
-0.002379816457
0.00102956757
-7.890327445e-05
0.0006472462614
0.0003421745634
0.001069283608
0.000278736642
0.001278003347
9.133951636e-05
0.0007227833972
-0.0002606141855
6.201007963e-05
-0.0002049136308
2.332722483e-09
-1.93320078e-06
-1.029718774e-15
-5.345274487e-05
5.850046646e-07
-0.000156821999
6.112707096e-06
-0.0002029118741
1.467361917e-05
-0.0001743096983
1.824422308e-05
-0.0001149909045
1.577883658e-05
-5.151027631e-05
-1.038247415e-05
-1.360394632e-05
4.02564796e-06
1.505002683e-06
1.112093991e-06
7.12381551e-05
0.0001418332328
0.0002490891273
0.0004224205536
0.000438637167
0.0006660345684
0.0004762489051
0.0005742716244
0.0004063746327
0.0003629586263
0.0003268107921
0.0002024227623
0.0002785057419
0.0001168843615
1.693964293e-05
0.0001059579326
-0.0009928486182
0.0001417082042
-7.302852551e-05
0.0001911895098
0.01377748279
0.00746252126
0.01112147193
0.003561419938
0.006595344937
0.001699643821
0.0027052709
0.001200680489
0.003619501278
-0.0008365058244
0.003868466646
-0.001480207658
0.002291522445
-0.001252523118
0.0003832666411
-0.0006653413083
2.277567668e-06
-3.689750216e-05
-2.82432225e-10
-1.905500406e-10
1.330239304e-15
-2.522451002e-08
2.944462635e-11
-3.149681359e-07
3.928039213e-09
-1.159940055e-06
4.422736702e-08
2.071006137e-07
1.328773373e-07
2.293707501e-06
-0.0001601257837
-6.624980779e-08
-5.029002438e-05
1.986160946e-06
1.362684207e-09
9.567181056e-05
0.0001896376948
0.0003014986671
0.0005164141614
0.0004598861948
0.0006893751848
0.0004476035903
0.0005417749006
0.0003674393826
0.0003359408625
0.0003037523909
0.0002018568613
0.0002854942845
0.0001398485077
0.0003075582148
0.0001237858279
0.0003387054401
0.0001247857399
0.0004292160379
9.394854463e-05
0.00489590965
0.006787258044
0.003281869741
0.002756544299
0.001805466131
0.00106751368
0.00132292704
0.00095731895
0.001699853565
-0.0004341735615
0.001817237137
-0.0008383834989
0.001534265468
-0.0007911564726
0.0006864624567
-0.0005961139174
4.676529804e-05
-0.0001777492152
-1.56048294e-06
-4.34220909e-23
4.763192946e-28
-2.619096263e-20
3.025976133e-23
-1.210935273e-17
2.521588119e-20
-7.380681263e-15
1.584621785e-17
9.188812417e-09
6.454201188e-16
5.400872867e-05
-0.0002091464272
1.50263562e-05
-0.0003142480642
1.42173804e-06
-2.834818783e-06
0.0001067761725
0.0002063312781
0.000295933706
0.0005074069596
0.0003983188153
0.0005913173545
0.0003704064187
0.0004484790351
0.0003111364062
0.0002941342628
0.0002847299842
0.0002100269332
0.0003136193476
0.0001853090952
0.0003626016475
0.0001743932209
0.0002476376903
8.635719669e-05
0.0001186582025
1.115015838e-05
0.001994908631
0.003859288807
0.001096745605
0.0009682130987
0.0007451435096
0.0004655721109
0.000902769211
0.0006270686072
0.001195325812
-6.477049529e-06
0.001386228574
-0.0002278751611
0.001439070257
-0.0002459066477
0.001217423713
-0.0001897899201
0.0003557116679
-9.704026531e-05
6.440744484e-06
-9.09057749e-41
-1.545556538e-75
-1.704230565e-35
-4.65565933e-62
-3.102294877e-32
7.387610831e-36
-6.886370478e-29
1.922547945e-32
-1.013687056e-18
2.586407697e-29
-6.611171601e-11
-3.235833525e-20
6.31134245e-05
-0.000132039483
7.117406583e-05
-0.0003829031089
2.110455536e-05
-5.130332215e-05
0.0001006174866
0.0001803107131
0.0002397296645
0.000409931814
0.0002999717996
0.0004465597431
0.0002825567027
0.0003513858346
0.0002619159226
0.0002695956034
0.000283580737
0.0002457012982
0.0003250164639
0.0002279136391
0.0001679077461
6.298649168e-05
8.999477552e-06
3.028579078e-06
1.643206663e-06
9.414289256e-11
0.0002644637213
0.0009781979771
-0.0001343104552
0.0001931496359
-9.966207365e-05
0.0002431837336
0.0002905116136
0.0002302255889
0.001246374779
0.0005553995152
0.002001490939
0.0006580355799
0.002486824897
0.0006190256717
0.002898555049
0.0005603932708
0.003473958153
0.0004980345717
0.001532428205
-5.423314326e-61
-9.056637157e-76
-2.800955069e-48
-2.39803901e-63
-3.051027087e-40
-1.438561578e-51
-6.361173931e-29
-5.973537101e-40
-2.056685501e-18
-4.269010466e-29
9.582945392e-11
-2.66683962e-19
3.956062484e-05
-7.938836435e-05
9.984777731e-05
-0.0002806707845
6.684458691e-05
-0.0001387099142
8.747472019e-05
0.0001387199311
0.000167938191
0.0002935955074
0.0002075190209
0.0003233953038
0.0002141658876
0.0002905376358
0.0002381119308
0.0002834079061
0.0002778803544
0.0003028585178
0.0002236165951
7.102365135e-05
4.616899662e-05
-0.0001444612079
5.975975943e-07
-9.512181083e-05
9.671322356e-09
-4.110329246e-07
7.129033897e-06
2.406929809e-05
-1.604539064e-05
6.497332201e-07
-2.283759764e-05
1.146973517e-05
5.606920229e-05
1.048695284e-05
0.0009441060064
0.0008569737647
0.001606575793
0.001133211629
0.002000735035
0.001082099175
0.002252112594
0.0009180865507
0.002337285641
0.0006938111047
0.0007766536956
-8.594860837e-63
-3.41193504e-66
-6.364747881e-51
-5.645357291e-62
-1.984534004e-39
-2.385766138e-50
-2.302038246e-28
-5.911579046e-39
-3.507409006e-18
-2.825596442e-28
1.32596921e-10
-1.133568531e-18
2.49952027e-05
-5.039869938e-05
8.427473502e-05
-0.0001824422475
8.860734366e-05
-0.0001532162464
7.711303727e-05
0.0001080518566
0.0001141813012
0.0002149733444
0.0001465794764
0.0002543091499
0.0001793621679
0.0002809085466
0.0002388649364
0.0003396261974
0.0002256443763
0.0002753421199
0.0001383292123
-4.534275134e-05
0.0001366755749
-0.0001577382425
5.681231403e-05
-0.0002814299215
2.5500136e-07
-5.081237497e-05
1.76964373e-12
-6.894211998e-09
-3.473548696e-11
8.991248122e-17
-8.181342541e-11
2.453313021e-11
1.293118532e-06
2.751765277e-11
0.0007659020053
0.001051639706
0.001336025694
0.001459907798
0.002037714518
0.001251843231
0.002322060132
0.0004521419695
0.001420748758
7.806735079e-05
7.536247007e-05
-1.251406112e-61
-1.175827031e-53
-5.749411552e-50
-8.392967627e-52
-1.104934109e-38
-4.115246029e-49
-7.297163913e-28
-5.441673223e-38
-6.040346614e-18
-1.756194174e-27
1.521914855e-10
-3.887072734e-18
1.724933147e-05
-3.160577269e-05
6.089745329e-05
-0.0001122340117
7.809906903e-05
-0.0001203883016
6.936787449e-05
9.250793699e-05
8.58389816e-05
0.0001806853382
0.0001186037633
0.0002376522667
0.0001759719817
0.0003256160601
0.0002277103154
0.0004069879912
0.0001342734152
0.0001118755193
5.11382355e-05
-2.396524613e-05
0.0001008612393
-8.26248849e-05
0.0001609778237
-0.0002229737787
3.157472641e-05
-0.0001826142834
4.529043175e-09
-2.134243099e-06
-9.102662081e-24
-1.946817265e-14
-9.831360883e-17
1.318150575e-23
6.68402042e-10
2.448711158e-18
0.0006540815905
0.001202409838
0.001108493593
0.00174344149
0.001758103594
0.0009456105512
0.001453651845
-0.0004863792903
0.0003504608688
-0.0005995263471
-7.479206988e-05
-1.407685415e-51
-1.634251733e-41
-7.040545639e-49
-3.49239213e-40
-7.450942665e-38
-6.240682752e-39
-2.743641772e-27
-8.865083462e-37
-1.207938165e-17
-1.227549225e-26
1.77058758e-10
-1.367383805e-17
1.201148425e-05
-1.77710858e-05
4.13982242e-05
-6.238290534e-05
5.91920377e-05
-7.635383726e-05
6.211365717e-05
9.090483961e-05
7.499164779e-05
0.0001782531872
0.0001156675759
0.0002684295368
0.0001914371557
0.0004201440446
0.0001462920166
0.0003804282426
4.168041363e-05
1.086577323e-05
1.629897923e-05
-9.844997405e-06
5.232679555e-05
-4.289033228e-05
0.0001382797695
-0.0001336773198
8.701179829e-05
-0.0001966910287
1.478481767e-06
-1.693705916e-05
1.605631997e-14
-1.290684525e-10
-1.469896721e-17
3.930218877e-28
3.860025559e-11
5.181665723e-19
0.0005880717012
0.001346651733
0.000955340377
0.001870266673
0.001045693238
0.0003890033418
0.0008741756777
-0.0004469960698
0.000560623759
-0.0006070317321
-0.0003108214966
-5.323422427e-40
-7.447876758e-30
-9.054384918e-39
-4.622820197e-29
-1.086065761e-36
-3.293411057e-28
-1.482803577e-26
-3.706458417e-27
-3.409629737e-17
-2.270060912e-25
2.267176881e-10
-5.961280242e-17
7.603634289e-06
-7.909364189e-06
2.531070187e-05
-2.775482584e-05
3.918011921e-05
-3.66287039e-05
5.411535778e-05
9.951859422e-05
7.528819287e-05
0.0002019869919
0.0001328611691
0.0003526078121
0.0001989599654
0.0005284572901
6.150839499e-05
0.0001802699957
8.025265838e-06
9.636190084e-08
6.228999633e-06
-4.349821767e-06
3.028788393e-05
-2.268466153e-05
9.474764982e-05
-7.420656648e-05
0.0001088036697
-0.0001432377775
1.024416913e-05
-3.553761736e-05
1.031071784e-10
-4.494317454e-09
-2.529149383e-18
1.293465358e-23
-4.072638658e-10
-6.907477868e-20
0.000555863963
0.00148990933
0.000803001067
0.001697139372
0.000675858469
7.925149966e-05
0.0006893986068
-0.0002759941276
0.0006837592694
-0.000371553539
-0.0003695574161
-2.708020013e-29
-1.619286447e-19
-2.725885017e-28
-4.078094882e-19
-3.542911126e-27
-1.274475954e-18
-2.427503554e-25
-6.310566792e-18
-1.569464754e-16
-6.020251967e-17
3.26642895e-10
-1.733318567e-15
3.861953992e-06
-2.140854354e-06
1.231359643e-05
-7.488225968e-06
2.038683638e-05
-9.499072984e-06
4.862304017e-05
0.0001160038869
8.718843441e-05
0.0002621032965
0.0001651144001
0.0004972515788
0.000151251392
0.0005370487497
9.282721333e-06
2.320468087e-05
6.208298207e-07
1.394185169e-11
3.354135191e-06
-1.87696612e-06
2.003575584e-05
-1.080200404e-05
6.532386641e-05
-3.732653064e-05
9.933750356e-05
-8.37794928e-05
1.943887765e-05
-3.392092772e-05
3.926591332e-09
-1.623529149e-08
-4.454178746e-19
1.16963292e-11
-8.43770258e-10
-2.176863791e-11
0.0005092096403
0.001417853878
0.0004976240063
0.0008533194358
0.0003699092288
7.822471307e-05
0.0005279380328
-7.125675261e-06
0.0006184947124
-2.113882228e-05
-4.291256521e-05
-8.40565088e-20
5.521086974e-11
-4.307171037e-19
6.866845992e-11
-2.343830552e-18
8.587907093e-11
-2.294781453e-17
1.277923508e-10
-1.713991581e-15
2.434986192e-10
2.553691172e-10
3.924349819e-10
1.2305221e-06
-4.431281927e-09
3.607152535e-06
8.211079276e-09
5.997471967e-06
1.532830742e-06
5.063413749e-05
0.0001438488284
0.0001120157169
0.0003683367489
0.0001779729416
0.0006240666229
5.804706312e-05
0.0003283567876
4.56397943e-08
8.350442551e-06
1.996440419e-09
1.334159611e-09
2.391443771e-06
-8.203145237e-07
1.511238899e-05
-4.534825147e-06
4.894225794e-05
-1.571551483e-05
7.963953848e-05
-3.626675235e-05
2.102979163e-05
-1.34601878e-05
-2.291066505e-06
-5.078892212e-09
-8.459522888e-05
1.534976483e-06
-0.0001183877097
7.929524284e-05
-1.381305876e-05
0.0009536469208
8.698038815e-05
0.0001406196167
0.0005458506186
0.0003120929634
0.001095800126
0.0005328840699
0.001517637117
0.0004911213046
0.00337948051
-1.584041888e-05
1.716133839e-05
-1.014798314e-05
9.015629956e-06
-6.576157865e-06
6.291088625e-06
-3.728426629e-06
4.839560649e-06
-1.456271329e-06
3.507700157e-06
-7.79064816e-08
1.913808223e-06
2.085930237e-06
3.317561669e-06
5.672764336e-06
7.069622709e-06
1.129730343e-05
1.461119836e-05
6.811949893e-05
0.0001844475309
0.0001452674432
0.0004583518081
0.0002119452874
0.0005237355377
0.0001849546623
0.0001808547167
0.0001035279028
5.168331354e-05
6.765596232e-05
2.74553936e-05
5.381076392e-05
2.035746186e-05
5.764416175e-05
1.910146358e-05
7.291616912e-05
1.876923324e-05
6.984970462e-05
1.857206223e-05
1.267096004e-05
2.147993282e-05
1.4183659e-09
2.26614259e-06
-5.48883243e-07
1.09668404e-07
-1.891226322e-05
1.366388888e-05
-1.412379636e-05
0.0002173925949
2.673392586e-05
2.405604985e-05
0.000599292029
0.000507860508
0.001216843025
0.0008826133743
0.001661217936
0.0008399930745
0.004581889396
-6.85952635e-05
7.704278512e-05
-4.133758204e-05
4.460838289e-05
-2.574084462e-05
3.036879162e-05
-1.428015777e-05
2.252699704e-05
-5.400843211e-06
1.565170502e-05
-1.373878589e-07
7.953240785e-06
6.769738018e-06
1.251187197e-05
1.820710467e-05
2.659663713e-05
3.07251448e-05
4.404283947e-05
9.5212757e-05
0.000203231775
0.0001786300361
0.0004326771739
0.0002245783142
0.0003612489787
0.0001880469176
0.0001567226042
0.0001808995503
0.0001073089356
0.0002064835854
0.0001144537045
0.0002233163996
0.0001248768904
0.0002092129943
0.0001170997733
0.0001682794017
9.434984426e-05
0.0001234682757
6.987319458e-05
9.611383794e-05
5.204011173e-05
7.232311867e-05
3.613233335e-05
6.013600007e-05
2.694913818e-05
5.696910961e-05
2.429987267e-05
0.0001025026608
4.137537935e-05
8.500974531e-05
3.619697678e-05
0.000590367408
0.0006503235583
0.001128041162
0.001133001123
0.001515440454
0.001122240341
0.004661160743
-0.0001780783335
0.0001636406431
-0.0001081419175
0.0001235293873
-6.407819456e-05
8.631365091e-05
-3.398985565e-05
6.116055714e-05
-1.232673861e-05
4.008472372e-05
-1.541264921e-07
1.884174591e-05
1.290735962e-05
2.685551349e-05
3.441413366e-05
5.715645724e-05
5.63942278e-05
8.431247189e-05
0.0001180376672
0.0001947498268
0.0001984770368
0.0003218718412
0.0002476165233
0.0002580149979
0.0004836764813
0.0002390837471
0.00103555979
0.0003883235949
0.001100247487
0.0004917892898
0.0007363902799
0.0004112456479
0.0004235404589
0.0002727931791
0.0002536717868
0.0001775655772
0.0001792230389
0.0001266459808
0.0001516800484
0.00010181468
0.0001413395814
8.709879145e-05
0.000139207437
7.738925853e-05
0.0001434727401
7.165549896e-05
0.0001598748765
7.206797418e-05
0.0001915303358
9.031551745e-05
0.0006452926465
0.00081661702
0.001126321282
0.001422646651
0.001471225211
0.001475946289
0.004461336279
-0.0002369023543
7.286230216e-05
-0.0001985823828
0.0001472338308
-0.0001305249638
0.0001539315134
-7.069736953e-05
0.0001234826293
-2.529080214e-05
8.159783818e-05
1.979106118e-07
3.578302517e-05
1.933655521e-05
4.449164326e-05
5.006011354e-05
9.31534471e-05
8.110234825e-05
0.000128734318
0.0001327094175
0.0001932837471
0.0001949185681
0.000246561383
0.0002821692781
0.0002416131797
0.0007069517194
0.000288667549
0.001345557694
0.0002498360985
0.00108525626
0.0002051972444
0.0005668607297
0.0002987873848
0.0003104177037
0.0002406770653
0.0002177873137
0.0001850796779
0.000196021489
0.0001626383059
0.0002008719032
0.0001554988937
0.0002132103984
0.0001509834505
0.0002285531258
0.0001464403013
0.0002504305159
0.0001443213211
0.0002897277112
0.0001498560647
0.0003698711578
0.0001865821915
0.0008235885264
0.001070178419
0.001299532784
0.00185099958
0.00160450047
0.00197249675
0.004074489138
-2.497451108e-05
4.240389585e-07
-9.774909048e-05
1.861592338e-05
-0.0001285382855
6.046746209e-05
-9.622536487e-05
9.247296672e-05
-3.935230464e-05
8.652993573e-05
4.746145242e-06
3.82610656e-05
2.580314088e-05
6.701728582e-05
6.218204368e-05
0.0001295232948
9.898879409e-05
0.0001722504166
0.000141938321
0.0002117705817
0.0001913508951
0.0002444885571
0.0002869883375
0.0002886004607
0.0004192187513
0.000280956709
0.0003877147739
0.0001489777204
0.0002364568741
2.016300342e-05
0.0001681153777
0.0001654976773
0.0001561944927
0.0001650975078
0.0001703306944
0.0001731359225
0.0002019464182
0.0001911111907
0.0002388129446
0.0002077774581
0.0002744433457
0.0002176378025
0.0003120206654
0.0002238096687
0.0003634040012
0.0002343160711
0.0004480689866
0.0002587598727
0.0005861241271
0.0003078357789
0.001113713957
0.001336360558
0.001596206718
0.002303527014
0.00176721257
0.002389036259
0.003136417427
-7.26195715e-10
5.68345886e-17
-3.106795565e-07
5.95589844e-10
-4.567548316e-06
2.937057686e-07
-1.285885667e-05
4.392912991e-06
-6.642498075e-06
1.08707704e-05
1.210464422e-05
4.069355383e-06
3.035366419e-05
8.915990139e-05
6.908993518e-05
0.0001614928478
0.0001100177032
0.0002135196736
0.000177636031
0.0002628180655
0.0004983082637
0.0003254182105
0.000598366983
0.0004927376477
0.0004786734764
0.000359735097
0.0001438283488
0.0001495377368
2.331031624e-05
2.396549821e-05
6.312055604e-05
8.699974118e-05
0.0001003814051
0.0001288304455
0.0001484088899
0.0001735870092
0.000204947593
0.00021889993
0.0002615022173
0.0002549179926
0.0003167813291
0.0002806949572
0.000381164911
0.0003051735806
0.0004733708111
0.0003402473449
0.0006055955851
0.0003881336713
0.0007378148169
0.0003973135677
0.001252669587
0.001330389032
0.001641927945
0.002249237153
0.001535303332
0.002101180813
0.001348736022
-6.566497204e-22
7.12454391e-30
-3.36068105e-17
2.947405454e-22
-2.608110148e-12
3.678224609e-17
-2.809516792e-10
2.929445691e-12
-1.556272521e-10
3.739212385e-10
5.546127432e-07
3.538138892e-11
2.971576893e-05
9.766681081e-05
7.049947897e-05
0.0001927531406
0.0001240552844
0.0003184930547
0.0002680962857
0.0006704838719
0.0005230746513
-1.574259995e-05
0.0004821597338
0.0001298119298
0.0002952290087
0.0001782616397
0.0001451222741
9.647402372e-05
6.220902605e-05
5.44073487e-05
6.595072228e-05
8.044949028e-05
0.0001000894901
0.0001310791173
0.0001530953877
0.0001946168239
0.0002151460761
0.0002558660766
0.0002786365537
0.0003052258097
0.000347065788
0.0003473628614
0.0004360059615
0.000396180196
0.0005562093097
0.0004547952368
0.0006594164459
0.0004766564498
0.0005928713465
0.0002884844527
0.0008633794489
0.0007376870967
0.00104070167
0.001228163118
0.0006130218241
0.0006987466562
0.000107397089
-1.658975439e-34
2.101242895e-43
-2.756189619e-29
6.445058007e-35
-6.453839463e-24
-2.635787791e-35
-3.001308284e-21
-3.552024318e-33
-4.023397803e-17
3.033900369e-22
2.654899782e-10
1.871617537e-18
2.857334986e-05
0.0001050461257
6.718237684e-05
0.0002469633645
0.0001532154049
0.0006903906717
0.000257875913
0.0007957776818
8.245823063e-05
-3.008289342e-05
0.0001273435101
2.817731757e-05
0.0001597749391
0.000107352864
0.0001344902543
0.0001125450237
0.0001071503848
9.800981533e-05
0.0001683585204
5.893217245e-05
0.0002072725551
0.0001287106924
0.000235578938
0.000224369978
0.000271314797
0.0003117880136
0.0003197270824
0.000379062118
0.0003871997341
0.0004391001908
0.0004803694584
0.0005085432205
0.0005586850003
0.0005480146522
0.0004169463366
0.0003882150634
0.0001290687703
4.636961044e-05
0.0001464014332
7.920972766e-05
0.0001288992596
0.0001382470091
1.308880745e-05
1.947292256e-05
4.159490231e-09
-2.838564533e-41
-1.328313179e-34
-2.010724125e-34
-1.390300678e-29
-4.697710052e-32
-2.960434709e-23
-4.748077845e-27
-9.068993507e-22
-2.45530373e-17
-6.11335791e-21
2.38482198e-10
-2.136305847e-19
2.748095061e-05
0.0001130580588
6.075088403e-05
0.0003536770928
0.0001122520443
0.001241530711
0.0001665116628
0.0002549596826
3.941489498e-05
-6.230781866e-06
6.46130997e-05
3.921760561e-05
0.0001308104757
0.0001177130862
0.0001577213649
0.0001585815751
0.0001616097705
0.0001641202688
0.000915702188
-0.000423167653
0.001065033614
-0.0004776114472
0.0007321700115
0.0001815175285
0.0005235660794
0.0004185975594
0.0004581444101
0.0005163335899
0.0004785912456
0.0005912628411
0.0005340170478
0.0006629078343
0.0004623025519
0.0006029024637
0.0001051788549
0.0001589362225
2.242896659e-07
1.816664809e-07
3.195411733e-08
1.194240517e-08
2.938573189e-08
4.252090312e-08
3.092934163e-12
4.625935843e-12
1.488136669e-22
-1.536734029e-28
-1.336795305e-22
-8.578420056e-23
-3.816424554e-17
-1.143629806e-21
-1.360236258e-12
-4.977081602e-21
8.20623689e-12
-1.111239213e-18
1.804456042e-11
1.160396401e-11
6.773943014e-11
2.685092199e-05
0.0001233529195
6.857126241e-05
0.0005210111481
3.247381821e-05
0.001324451982
2.532963215e-05
5.477045157e-05
3.956121366e-06
2.182638988e-08
4.471715457e-05
4.852457068e-05
0.0001219908102
0.0001398434063
0.0001765484676
0.0002073429037
0.0002025114032
0.0002388551826
0.0006384812127
-0.0001908719844
0.001108168835
-0.0002983739427
0.001197072026
-9.57142176e-05
0.0008781493827
0.0004962122751
0.0006994381177
0.0007321261049
0.0006523114487
0.0008394027523
0.0006245369277
0.0008777132475
0.0003349882464
0.0006280463749
2.356284792e-05
7.298057444e-05
1.524502137e-10
3.894952938e-09
2.184564552e-21
1.408671221e-21
5.438979528e-21
3.351322354e-21
4.216271118e-26
1.124791848e-25
3.260743997e-36
-4.284971577e-11
1.431715564e-20
-1.928554138e-06
1.274962642e-08
-5.151393907e-06
1.224671811e-05
-9.836690485e-07
1.296014788e-05
-4.340231539e-07
1.926445735e-06
-9.20660386e-07
1.318163399e-06
2.665663927e-05
0.0001391069662
7.196802723e-05
0.0008013812511
-4.559312517e-06
0.0009867026629
-2.450102385e-08
1.568248275e-05
6.197687638e-07
1.202272776e-06
4.022579964e-05
5.94660328e-05
0.0001156527935
0.0001717674175
0.0001878606455
0.0002628626311
0.0002372527416
0.0003200221271
0.000281565824
0.0001152260078
0.0003399272023
4.382327215e-05
0.0004980784243
0.0001595026193
0.0007562290146
0.0005239384388
0.0008709904601
0.0008768693288
0.0008707700196
0.001090535282
0.0007592988966
0.001076441813
0.0004050811593
0.0007104318663
4.548118145e-05
0.0001496116356
1.052338876e-08
1.161192644e-06
3.27197142e-21
4.06822874e-15
4.691654837e-34
2.057510449e-34
5.962439468e-40
1.681701053e-39
4.546066221e-50
-7.098865553e-08
6.229561319e-17
-1.642535059e-05
4.031014607e-07
-2.48104988e-05
5.367814899e-05
-7.009011936e-06
5.29581181e-05
-2.274065525e-06
1.479931246e-05
-1.119782916e-06
7.618941176e-06
2.793158698e-05
0.0001715359551
6.170288607e-05
0.001273201039
-2.3054176e-06
0.0005867445878
-6.987145116e-08
7.565452498e-06
2.534204193e-06
5.38531484e-06
1.901632301e-05
0.0001112145827
-0.0002423105745
0.0008301127954
-0.0001418173621
0.0007841452269
0.0001060972787
0.0004830877619
0.0004284814481
0.0005838762778
0.0006941389593
0.0007105522507
0.000995688511
0.0007987395735
0.001357189392
0.001023589507
0.001599414304
0.001339999248
0.001574815603
0.001549994734
0.001276755309
0.001431279655
0.0007971982301
0.0009775793168
0.0002328528493
0.0004160075054
9.322051861e-06
3.262247854e-05
7.147288144e-12
8.498315513e-10
5.361754382e-25
-1.562703307e-23
8.321810398e-39
1.398018574e-38
1.612972123e-52
-3.101027244e-07
1.166854409e-16
-3.948037548e-05
6.907837201e-07
-7.368114509e-05
0.0001173061007
-3.165068535e-05
0.0001557072363
-1.293662938e-05
7.145206293e-05
-6.656670659e-06
4.611698243e-05
2.796222204e-05
0.0002531365728
-1.910604805e-05
0.001814672227
-3.234961002e-06
0.0002996864805
-1.166492012e-07
8.952931596e-06
5.820149521e-06
1.341982694e-05
2.066677689e-05
0.0001590379509
-0.0005586495082
0.001382343646
-0.0003557589569
0.001340117861
3.486735918e-05
0.0006473779962
0.000649008295
0.001080869363
0.001131793964
0.001416602424
0.00148861494
0.001460179114
0.001825443039
0.001551556282
0.002095382869
0.001746932021
0.002108931342
0.001880893227
0.001759308383
0.001718476726
0.001200172898
0.001264030506
0.000532232141
0.0006700618784
5.410512324e-05
9.73459128e-05
6.332413176e-09
9.951916607e-09
5.463213613e-22
3.375703044e-22
1.500457556e-35
1.076764672e-35
2.036302431e-49
-9.06012535e-08
-3.038287588e-21
-4.896654803e-05
1.531564419e-07
-0.0001571565732
0.0001336786305
-0.0001021561097
0.0003432131801
-5.433681204e-05
0.0002368841827
-3.438232913e-05
0.0001916981
1.435210793e-05
0.0004536767094
-4.068932535e-05
0.001993385639
-6.506763484e-06
0.0001756724279
-1.505215277e-07
1.464443873e-05
9.811120898e-06
2.450540853e-05
3.692285288e-05
0.0001870103241
-0.0004491068491
0.001296729691
-0.0003607839101
0.001651352371
2.213615522e-05
0.0007478371403
0.0007392459471
0.001472716176
0.001277387412
0.001921716266
0.001623596912
0.001912263852
0.001902746888
0.001881777593
0.002126778064
0.001936461863
0.002163358886
0.001964111814
0.001902701143
0.001790296144
0.001415864055
0.001380452332
0.0006582307105
0.0007582794742
5.977349511e-05
7.637393346e-05
4.247823941e-09
3.718793615e-09
2.195560472e-22
2.686768475e-22
3.550374773e-36
2.319434613e-36
2.406365853e-50
-4.739650201e-10
6.632612761e-23
-2.19706851e-05
8.345806027e-10
-0.0002064924313
4.275275669e-05
-0.0002314423597
0.0004901537848
-0.0001637166771
0.0005267894903
-0.0001328214898
0.0005090797925
-0.0001300162122
0.0008260495605
-4.991528482e-05
0.001628359267
-1.328229596e-05
0.0001487209231
-3.904575583e-08
2.60980171e-05
1.398001694e-05
3.746407354e-05
6.027729286e-05
0.0002036835586
-2.102089214e-05
0.0009392859433
-0.0001971173437
0.001614083438
8.673087694e-05
0.0008273826884
0.0007749666988
0.001810248903
0.001277748563
0.002260153895
0.001571007082
0.002177499291
0.001774133135
0.002032732984
0.001927054304
0.001956973328
0.001967540949
0.001890847272
0.001805166399
0.001711374443
0.001375735053
0.001307048243
0.0004733495207
0.0005731894087
1.539894617e-05
1.366286732e-05
7.013319179e-12
5.985127157e-12
1.556134183e-25
9.793248735e-26
7.53452865e-40
6.366873204e-40
1.897460856e-54
-2.511429478e-17
-2.368789983e-21
-4.741536819e-07
4.554213667e-17
-0.0001060295824
8.939579518e-07
-0.0003189995193
0.0002494035933
-0.000308063307
0.0007037124924
-0.0002700876329
0.0008143315437
-0.0002341295156
0.001063540944
-8.134736165e-05
0.001094676495
-3.026140709e-05
0.0001770825845
1.229684829e-06
5.001890296e-05
1.166864408e-05
4.854201207e-05
5.412197141e-05
0.0002156094352
9.436623639e-05
0.0007498746537
4.341601851e-06
0.001411194182
0.000159160456
0.0009313330328
0.0007825981105
0.002103626459
0.001233127291
0.002516884131
0.001469138417
0.00234403443
0.001601391036
0.002082189172
0.001688149147
0.00189457814
0.00170407945
0.001757263424
0.001535448486
0.001535037515
0.0009677145441
0.001025393396
0.0001480489669
0.0001739237825
9.478338864e-08
8.265938601e-08
1.736519358e-20
7.697053037e-21
2.888264504e-34
5.904565721e-35
1.132950143e-48
5.588469034e-49
1.35336731e-63
2.486734947e-22
-7.621906562e-13
-6.994528761e-06
-0.0001780463078
-0.0004499161196
-0.0004928760974
-0.0003460865135
-0.0001525658879
-5.326079604e-05
2.362154833e-05
0.0005754565644
0.001689915042
0.00297540728
0.004081651364
0.004690665324
0.006476675659
0.007391214896
0.007240443057
0.006503357107
0.005464557195
0.004131991892
0.002468811216
0.0006192907015
1.48394293e-05
2.155575229e-12
4.837846831e-26
3.879389147e-40
9.659290829e-55
-0.002565512779
0.008138205498
-9.916698198e-14
-0.000778349677
3.63072164e-14
2.887270889e-14
-2.119330165e-13
-2.523631197e-06
4.56367974e-05
-2.289601869e-13
-2.546591034e-05
7.805387263e-13
4.194570867e-13
-2.963121924e-12
-5.125371136e-06
1.678289073e-05
-8.759162097e-06
-8.772872931e-13
1.061013753e-11
5.046722895e-12
-2.800986872e-11
-3.396743773e-11
1.444356941e-10
9.80910423e-11
-4.755585911e-10
-3.303863747e-10
2.169207234e-09
1.065816624e-09
-7.327613329e-09
-7.223021677e-07
3.489361482e-05
3.094380747e-14
-2.578155381e-05
2.029547275e-16
-2.793916358e-16
-3.159488162e-15
7.427309531e-16
2.009496718e-16
2.318876006e-16
2.534514227e-15
-1.406265768e-14
7.256533814e-14
-1.719122159e-15
-2.419691786e-13
-1.217374559e-06
-5.740775589e-07
1.206892011e-05
-4.444391161e-06
7.156834556e-16
1.827190795e-14
8.283065188e-16
-9.867000679e-14
3.138856601e-15
-1.21224363e-14
5.326690556e-14
-6.516546698e-13
1.05674764e-13
-2.019459386e-13
1.173012666e-12
-5.892840519e-12
-5.424623506e-07
7.833395702e-07
-2.285334595e-18
1.568660273e-20
5.135588007e-13
-1.233243859e-21
1.510316567e-13
-1.754456893e-12
3.641785124e-12
-6.207350174e-13
2.243631948e-12
-1.341018843e-11
-1.206989479e-10
3.180830388e-11
-8.158917622e-12
2.877436718e-09
2.002629695e-09
-4.701035744e-08
1.051007847e-08
-3.271719857e-08
1.413809573e-07
-1.048303055e-06
3.832045997e-09
8.751530751e-08
4.80389447e-06
-5.432425735e-08
2.641576269e-06
-2.091314983e-05
-1.927666988e-06
9.221901449e-05
5.359374766e-05
-1.37704452e-07
-0.002199418483
0.0018979135
0.0001041810129
-1.805448349e-07
6.781838504e-08
-3.588852705e-07
9.503941902e-07
-2.793101014e-08
-2.076285621e-07
-9.575205829e-09
-0.0003619424683
-0.002079177457
0.002976031345
-9.155544985e-09
1.647664411e-08
-2.563836253e-08
-3.402558689e-10
-1.317114709e-08
-1.388834383e-08
-0.0004208304442
-0.004107128649
0.004963270146
5.432278726e-09
8.95775435e-09
-1.051443767e-08
1.013022261e-08
-1.196134504e-08
-1.911022904e-08
-0.0004129240569
-0.005257375963
0.004975324708
1.431670141e-08
1.674201136e-08
-1.27548427e-08
1.881683208e-08
-1.400959959e-08
-2.884864866e-08
-0.0004350739404
-0.004280754208
0.003371582077
2.536317238e-08
2.26642632e-08
-1.737794398e-08
3.625163255e-08
-2.393252583e-08
-5.620888369e-08
-0.0003933433978
-0.002406428917
0.001491667673
5.489797261e-08
3.94218167e-08
-3.531102632e-08
8.539168768e-08
-5.267180785e-08
-1.092864679e-07
-0.0001324729059
-0.0007757891671
0.0003433045619
1.291807173e-07
7.99262023e-08
-7.46147486e-08
1.785922722e-07
-9.926509231e-08
-1.771815488e-07
3.316120286e-05
-0.0001675901837
9.260377373e-05
2.034289649e-07
1.459341642e-07
-1.198654043e-07