/*--------------------------------*- C++ -*----------------------------------*\
  =========                 |
  \\      /  F ield         | OpenFOAM: The Open Source CFD Toolbox
   \\    /   O peration     | Website:  https://openfoam.org
    \\  /    A nd           | Version:  8
     \\/     M anipulation  |
\*---------------------------------------------------------------------------*/
FoamFile
{
    version     2.0;
    format      ascii;
    class       volScalarField;
    location    "0.3/wallFilmRegion";
    object      rho;
}
// * * * * * * * * * * * * * * * * * * * * * * * * * * * * * * * * * * * * * //

dimensions      [1 -3 0 0 0 0 0];

internalField   nonuniform List<scalar> 
1342
(
994.5106718
994.5106643
994.5106578
994.5106382
994.5106056
994.5105748
994.5114672
994.5114679
994.5114681
994.5114681
994.5114681
994.5114681
994.5114681
994.511468
994.5114676
994.5114614
994.5114684
994.5114682
994.5114679
994.511468
994.5114681
994.5114682
994.5114682
994.5114681
994.511467
994.5109406
994.511468
994.5114679
994.5114678
994.5114676
994.5114673
994.5114668
994.5114656
994.5114675
994.511468
994.5114681
994.5114681
994.5114681
994.5114681
994.511468
994.511468
994.5114679
994.5114678
994.5114684
994.5114684
994.5114682
994.5114681
994.5114681
994.511468
994.511468
994.5114678
994.5114658
994.5109106
994.5114674
994.5114675
994.5114676
994.5114675
994.5114674
994.5114671
994.5114663
994.5114644
994.5114677
994.5114681
994.5114681
994.5114681
994.5114681
994.5114681
994.511468
994.5114679
994.5114683
994.5114684
994.5114684
994.5114684
994.5114684
994.5114682
994.5114681
994.5114681
994.5114681
994.511468
994.5114677
994.5114256
994.5113981
994.5114579
994.5114636
994.5114647
994.5114647
994.5114667
994.5114631
994.5114469
994.5114677
994.5114681
994.5114681
994.5114681
994.5114681
994.511468
994.511468
994.511468
994.511468
994.511468
994.5114684
994.5114684
994.5114682
994.511468
994.5114681
994.5114682
994.5114683
994.5114682
994.5114681
994.5114657
994.5114684
994.5106793
994.5107288
994.5110526
994.5112202
994.5114678
994.5114675
994.5114593
994.5114678
994.511468
994.5114681
994.5114681
994.511468
994.511468
994.511468
994.511468
994.5114679
994.5114676
994.5114684
994.5114682
994.5114679
994.5114677
994.5114681
994.5114683
994.5114683
994.5114683
994.5114682
994.5114679
994.5114684
994.5114684
994.5114684
994.5114684
994.5114684
994.5106667
994.5114679
994.5114679
994.511467
994.5114677
994.511468
994.511468
994.511468
994.511468
994.511468
994.511468
994.5114679
994.5114675
994.51146
994.5114683
994.511468
994.511468
994.511468
994.5114684
994.5114684
994.5114684
994.5114684
994.5114684
994.5114684
994.5114684
994.5114684
994.5114684
994.5114684
994.5114684
994.5106599
994.5114677
994.5114679
994.5114676
994.5114676
994.5114679
994.5114679
994.511468
994.511468
994.511468
994.5114679
994.5114678
994.5114672
994.5113817
994.511468
994.5114672
994.5114678
994.5114678
994.5114684
994.5114684
994.5114684
994.5114684
994.5114684
994.5114684
994.5114684
994.5114684
994.5114684
994.5114684
994.5114684
994.5106611
994.5114672
994.5114678
994.5114677
994.5114676
994.5114678
994.5114679
994.511468
994.511468
994.511468
994.5114678
994.5114679
994.5114678
994.511467
994.5114584
994.5113174
994.5114573
994.5114567
994.5114684
994.5114684
994.5114684
994.5114683
994.5114683
994.5114683
994.5114684
994.5114684
994.5114684
994.5114684
994.5114684
994.5106545
994.5114665
994.5114676
994.5114676
994.5114675
994.5114677
994.5114679
994.511468
994.511468
994.5114679
994.5114674
994.5114677
994.5114679
994.5114677
994.5114656
994.5107159
994.5107616
994.5106732
994.5114684
994.5114684
994.5114684
994.5114684
994.5114683
994.5114681
994.5114684
994.5114684
994.5114684
994.5114684
994.5114684
994.5106324
994.5114654
994.5114672
994.5114674
994.5114675
994.5114677
994.5114679
994.511468
994.511468
994.5114675
994.5114658
994.5114672
994.5114678
994.5114678
994.5114673
994.5114275
994.5114684
994.5106772
994.5114684
994.5114684
994.5114684
994.5114684
994.5114683
994.5114683
994.5114684
994.5114684
994.5114684
994.5114684
994.5114684
994.510598
994.5114637
994.5114664
994.511467
994.5114674
994.5114677
994.5114679
994.511468
994.5114679
994.5114659
994.5114623
994.5114665
994.5114676
994.5114677
994.5114674
994.5114615
994.5106935
994.5107001
994.5114683
994.5114683
994.5114683
994.5114683
994.5114683
994.5114683
994.5114684
994.5114684
994.5114684
994.5114684
994.5106568
994.5105612
994.5114601
994.5114649
994.5114661
994.5114673
994.5114677
994.511468
994.511468
994.5114676
994.5114494
994.5114577
994.5114655
994.5114672
994.5114676
994.5114673
994.5114643
994.5107094
994.5106865
994.5114683
994.5114682
994.5114683
994.5114683
994.5114683
994.5114683
994.5106567
994.5106554
994.5106372
994.5105998
994.5105603
994.5105223
994.5114501
994.5114613
994.5114638
994.5114673
994.5114678
994.511468
994.5114679
994.5114661
994.5108093
994.5114545
994.5114645
994.5114668
994.5114673
994.5114671
994.511464
994.5114677
994.5114682
994.5114682
994.5114681
994.5114684
994.5114684
994.5114684
994.5114684
994.5114666
994.5114647
994.5114626
994.5114603
994.5114569
994.5114504
994.5114571
994.511462
994.5114646
994.5114674
994.5114678
994.5114679
994.5114678
994.5114674
994.5114667
994.5114661
994.5114661
994.5114666
994.511467
994.5114668
994.5114617
994.511436
994.5114674
994.5114681
994.5114676
994.5114683
994.5114683
994.5114683
994.5114682
994.5114676
994.5114671
994.5114663
994.5114654
994.511464
994.5114615
994.5114633
994.5114654
994.5114663
994.5114674
994.5114678
994.5114679
994.5114677
994.5114676
994.5114676
994.5114676
994.5114675
994.5114674
994.5114673
994.5114672
994.511467
994.511467
994.5114671
994.5114675
994.5114673
994.5114683
994.5114683
994.5114682
994.5114681
994.5114679
994.5114677
994.5114674
994.511467
994.5114663
994.5114649
994.5114654
994.5114665
994.511467
994.5114675
994.5114678
994.5114678
994.511468
994.5114681
994.5114681
994.511468
994.5114679
994.5114677
994.5114676
994.5114675
994.5114676
994.5114676
994.5114677
994.5114678
994.5114678
994.5114683
994.5114682
994.5114681
994.511468
994.5114678
994.5114678
994.5114677
994.5114676
994.5114673
994.5114666
994.5114663
994.5114671
994.5114674
994.5114677
994.5114678
994.5114679
994.5114681
994.5114681
994.5114681
994.511468
994.5114678
994.5114677
994.5114677
994.5114678
994.5114678
994.5114679
994.511468
994.511468
994.5114681
994.5114683
994.5114682
994.5114681
994.5114679
994.5114671
994.5114675
994.5114676
994.5114676
994.5114675
994.5114671
994.5114668
994.5114674
994.5114677
994.5114678
994.5114678
994.5114679
994.511468
994.511468
994.5114677
994.5114677
994.5114677
994.5114677
994.5114678
994.5114679
994.511468
994.511468
994.5114681
994.5114681
994.5114682
994.5114683
994.5114682
994.5114681
994.5114679
994.5113652
994.5114638
994.5114665
994.5114669
994.5114668
994.5114662
994.511467
994.5114676
994.5114678
994.5114679
994.511468
994.511468
994.511468
994.5114678
994.511467
994.5114673
994.5114675
994.5114677
994.5114678
994.511468
994.511468
994.5114681
994.5114681
994.5114682
994.5114682
994.5114682
994.5114682
994.5114681
994.511468
994.5114684
994.5107127
994.5113159
994.5114482
994.511458
994.511446
994.5114671
994.5114677
994.5114679
994.5114681
994.5114681
994.5114681
994.511468
994.5114678
994.5114673
994.5114672
994.5114674
994.5114677
994.5114679
994.511468
994.5114681
994.5114681
994.5114682
994.5114682
994.5114682
994.5114682
994.5114682
994.5114681
994.5114679
994.5114684
994.5114684
994.5114684
994.5107527
994.5106625
994.510666
994.5114673
994.5114677
994.511468
994.5114681
994.5114678
994.5114679
994.5114679
994.5114678
994.5114677
994.5114676
994.5114677
994.5114678
994.511468
994.5114681
994.5114681
994.5114682
994.5114682
994.5114681
994.5114681
994.5114681
994.5114681
994.511468
994.5114672
994.5114684
994.5114684
994.5114684
994.5114684
994.5114684
994.5106623
994.5114674
994.5114679
994.5114681
994.511468
994.5114672
994.5114675
994.5114679
994.5114679
994.5114679
994.5114682
994.5114682
994.5114681
994.5114681
994.5114681
994.5114682
994.5114682
994.5114682
994.5114681
994.5114676
994.5114674
994.5114676
994.5114639
994.5112155
994.5114684
994.5114684
994.5106494
994.5106511
994.5106561
994.510654
994.5114674
994.5114679
994.5114681
994.5114673
994.5114619
994.5114673
994.5114678
994.511468
994.5114679
994.5114683
994.5114683
994.5114682
994.5114682
994.5114682
994.5114682
994.5114682
994.5114682
994.511468
994.511465
994.5110102
994.5111294
994.5113644
994.5114684
994.510657
994.5114572
994.5114669
994.5114663
994.5114547
994.5114462
994.5114674
994.511468
994.511468
994.5114637
994.5114389
994.5114672
994.5114678
994.511468
994.511468
994.5114682
994.5114682
994.5114682
994.5114682
994.5114682
994.5114682
994.5114682
994.5114682
994.511468
994.5114666
994.5108529
994.5114684
994.5114684
994.5114684
994.5112404
994.5114666
994.5114676
994.5114674
994.5114651
994.5114616
994.5114675
994.511468
994.5114678
994.5114564
994.5114564
994.5114673
994.5114682
994.5114682
994.5114682
994.5114683
994.5114684
994.5114683
994.5114683
994.5114683
994.5114683
994.5114682
994.5114682
994.5114681
994.5114679
994.5114618
994.5111494
994.5114684
994.5114684
994.5113835
994.5114673
994.5114678
994.5114678
994.5114674
994.5114668
994.5114677
994.5114681
994.5114675
994.5114574
994.5114619
994.5114673
994.5114682
994.5114683
994.5114683
994.5114684
994.5114684
994.5114684
994.5114683
994.5114683
994.5114683
994.5114683
994.5114682
994.5114682
994.511468
994.511467
994.5109735
994.5114684
994.5114684
994.5112116
994.5114674
994.5114679
994.511468
994.5114679
994.5114678
994.5114679
994.5114681
994.5114672
994.5114618
994.5114642
994.5114674
994.5114682
994.5114683
994.5114683
994.5114684
994.5114684
994.5114684
994.5114684
994.5114683
994.5114683
994.5114683
994.5114682
994.5114682
994.5114681
994.5114671
994.511047
994.5114684
994.5114684
994.5108616
994.5114663
994.5114679
994.511468
994.5114681
994.511468
994.511468
994.511468
994.5114672
994.511465
994.5114654
994.5114675
994.5114681
994.5114683
994.5114683
994.5114684
994.5114684
994.5114684
994.5114683
994.5114683
994.5114683
994.5114683
994.5114682
994.5114682
994.511468
994.5114639
994.5113144
994.5114684
994.5114684
994.5114684
994.5113914
994.5114677
994.511468
994.5114681
994.5114681
994.5114681
994.511468
994.5114675
994.5114669
994.5114658
994.5114675
994.511468
994.5114682
994.5114682
994.5114684
994.5114684
994.5114684
994.5114683
994.5114683
994.5114683
994.5114682
994.5114682
994.5114681
994.5114677
994.5111796
994.5114684
994.5114684
994.5114684
994.5110991
994.5113418
994.511462
994.5114679
994.511468
994.511468
994.511468
994.5114679
994.5114676
994.5114673
994.5114681
994.5114682
994.5114683
994.5114683
994.5114683
994.5114683
994.5114683
994.5114683
994.5114683
994.5114683
994.5114682
994.5114682
994.5114682
994.5114681
994.5114629
994.5113815
994.5114684
994.5114684
994.5114684
994.5114726
994.5115268
994.5114725
994.5116769
994.5114756
994.5117556
994.5117554
994.511749
994.5114757
994.5117768
994.5117837
994.5118043
994.5114789
994.5117939
994.5118271
994.5118353
994.5114943
994.5117931
994.5117961
994.5117959
994.511773
994.5115373
994.511472
994.5114688
994.5114721
994.5114721
994.5114889
994.5114725
994.5115269
994.5115715
994.5114726
994.5115578
994.5115456
994.5114725
994.5115358
994.5115283
994.5114724
994.5115231
994.5115201
994.5114723
994.5115164
994.5115105
994.5114722
994.5115041
994.5114985
994.5114723
994.5114942
994.5114908
994.5114724
994.5114884
994.5114871
994.5114728
994.5114796
994.5114727
994.5114944
994.5114913
994.5114929
994.5114766
994.5114773
994.5114769
994.5114928
994.5114968
994.5114763
994.5114785
994.5114896
994.5114987
994.5114848
994.5114873
994.5114811
994.5114856
994.5114816
994.5114864
994.5115227
994.5114939
994.5115035
994.5114974
994.5115201
994.5115055
994.5115942
994.5117287
994.5117476
994.5116328
994.5114736
994.5114728
994.5114733
994.511474
994.5114731
994.5114726
994.511474
994.5114719
994.5114717
994.511473
994.5114727
994.5114728
994.5114724
994.5114727
994.5114723
994.5114726
994.5114725
994.5114725
994.5114723
994.5114724
994.5114723
994.5114723
994.5114723
994.5114715
994.5114722
994.5114689
994.5114691
994.5114681
994.5114721
994.5114639
994.5114181
994.511467
994.5114188
994.5114605
994.511472
994.5114583
994.5114223
994.5114681
994.5114319
994.5114573
994.511472
994.5114576
994.5114683
994.5114593
994.5114719
994.5114694
994.5114697
994.5116392
994.5114718
994.5116607
994.5116375
994.5116734
994.5116737
994.5116568
994.5116851
994.5116985
994.5117176
994.5116255
994.5115381
994.511585
994.5115895
994.5116055
994.511613
994.5115599
994.511595
994.5115831
994.5115428
994.5115697
994.5115592
994.5115242
994.5115462
994.5115318
994.511506
994.51152
994.5115109
994.5114954
994.5115044
994.5115014
994.5114895
994.5114968
994.5114889
994.5116815
994.5117061
994.5117259
994.5114738
994.5117483
994.511757
994.5115691
994.5115092
994.5115355
994.5116223
994.5115777
994.5116063
994.5115998
994.5116224
994.51161
994.511571
994.5115934
994.5115755
994.5115362
994.5115537
994.5115367
994.5115155
994.5115271
994.5115213
994.5115063
994.5115176
994.5115076
994.5114864
994.5114927
994.5114833
994.5117523
994.5114766
994.5117938
994.5117821
994.5117778
994.5117841
994.511796
994.5115745
994.5115062
994.5115526
994.5116084
994.5115748
994.5115904
994.5115713
994.5115791
994.5115583
994.511534
994.5115361
994.5115313
994.5115295
994.5115342
994.5115339
994.5115038
994.511518
994.5114978
994.511483
994.5117959
994.5118151
994.5118015
994.511811
994.5118333
994.5118172
994.5115673
994.5115321
994.511597
994.5115452
994.5116347
994.511657
994.5115543
994.511673
994.5116634
994.5115437
994.5116024
994.511565
994.5118177
994.5114721
994.5114725
994.5114721
994.511477
994.5115852
994.5114785
994.5115803
994.5114792
994.5116122
994.5114723
994.5114728
994.5114721
994.5114741
994.5114726
994.5114727
994.5114729
994.5114726
994.5114726
994.5114725
994.5114724
994.5114724
994.5114722
994.5114723
994.5114722
994.5114632
994.5114722
994.5114721
994.5114678
994.5114722
994.511472
994.5114683
994.5114723
994.511472
994.5114722
994.5114723
994.5114702
994.5114856
994.5114712
994.5116375
994.51165
994.5115483
994.5115946
994.5115725
994.5115494
994.5115347
994.5115143
994.5114997
994.5114934
994.5114789
994.5114737
994.5114729
994.511704
994.511718
994.5117138
994.5117276
994.5117436
994.5115246
994.5116157
994.5116112
994.5115851
994.5115531
994.5115242
994.5115106
994.5114965
994.511477
994.5114896
994.5115248
994.5116134
994.5115923
994.5115475
994.5115304
994.5115212
994.511488
994.5114797
994.5114799
994.5114818
994.5117953
994.511795
994.5117848
994.5116666
994.5114928
994.5115434
994.5115604
994.5115257
994.5115592
994.5115153
994.511488
994.5115287
994.5118141
994.5115478
994.5115504
994.5118599
994.5118673
994.5117645
994.5117573
994.5117621
994.5117398
994.5116641
994.5118269
994.5117568
994.5117177
994.5115694
994.511757
994.5118217
994.5116511
994.5114867
994.5114706
994.5116589
994.511555
994.5114718
994.5114689
994.5114688
994.5114733
994.5115657
994.5114728
994.5114752
994.5114704
994.5116204
994.5114783
994.5115798
994.5114754
994.5114764
994.5116086
994.5116032
994.5114788
994.5115943
994.5114763
994.5114759
994.5116074
994.511627
994.5114752
994.5116469
994.5114704
994.5114726
994.5114713
994.5116202
994.5114722
994.5116809
994.5114701
994.5116033
994.5117287
994.5114743
994.5117717
994.5117272
994.5117264
994.5117253
994.5117213
994.5117176
994.5117058
994.5117232
994.5114769
994.5117896
994.5117906
994.5117641
994.5117567
994.5117631
994.5117645
994.5117526
994.5117636
994.5117484
994.5118104
994.5118264
994.511829
994.5118009
994.5114915
994.5118111
994.5118138
994.5118027
994.5118022
994.5116827
994.5115519
994.5115591
994.5114929
994.5118093
994.511795
994.5117718
994.5116879
994.5118184
994.5118188
994.5121119
994.5117912
994.5117513
994.5117636
994.5117956
994.5117662
994.5117636
994.51161
994.5118097
994.5117296
994.5114841
994.5117935
994.511671
994.5116806
994.5115387
994.5114865
994.5114728
994.5114742
994.5114695
994.5118065
994.5117928
994.5114909
994.5118256
994.5119037
994.5118343
994.5117638
994.5117596
994.5117504
994.5117481
994.5117368
994.5117202
994.5116895
994.5118446
994.5118225
994.5118475
994.5117425
994.5117547
994.5117091
994.5116567
994.5116086
994.5115192
994.5114867
994.5118392
994.5118315
994.5118282
994.5115366
994.511484
994.5114727
994.5114737
994.5114698
994.5114691
994.511469
994.5114803
994.5116504
994.5115096
994.5114695
994.5114851
994.511472
994.5114688
994.5114694
994.5114688
994.5114694
994.5114687
)
;

boundaryField
{
    walls
    {
        type            zeroGradient;
    }
    wallFilmFace_top
    {
        type            zeroGradient;
    }
    region0_to_wallFilmRegion_wallFilmFace
    {
        type            zeroGradient;
    }
    mirrorFace_top
    {
        type            zeroGradient;
    }
    region0_to_wallFilmRegion_mirrorFace
    {
        type            zeroGradient;
    }
    procBoundary2to0
    {
        type            processor;
        value           nonuniform List<scalar> 
26
(
994.5114684
994.5114684
994.5114684
994.5106155
994.5105685
994.5105439
994.5114669
994.5114677
994.511468
994.5114681
994.5114681
994.5114681
994.511468
994.5114679
994.5114668
994.5113545
994.5114662
994.5114655
994.5114676
994.5114681
994.5114682
994.5114682
994.5114682
994.5114682
994.5114681
994.5114662
)
;
    }
    procBoundary2to1
    {
        type            processor;
        value           nonuniform List<scalar> 
33
(
994.5106967
994.5106967
994.511468
994.511468
994.5114665
994.5107561
994.5114684
994.5114684
994.5114684
994.5114684
994.5114684
994.5114684
994.5114684
994.5114684
994.5114684
994.510655
994.5114676
994.5114678
994.5114679
994.5114676
994.5114584
994.511151
994.5114684
994.5114684
994.5114684
994.5114684
994.5114684
994.5114684
994.5114684
994.5114684
994.5114684
994.5114684
994.5114676
)
;
    }
    procBoundary2to3
    {
        type            processor;
        value           nonuniform List<scalar> 
64
(
994.51152
994.5116721
994.5116683
994.5116675
994.5117325
994.5118069
994.5118318
994.5117965
994.5114687
994.5114734
994.511472
994.5114716
994.5114719
994.511472
994.5114721
994.5114722
994.5114722
994.511472
994.5114298
994.5114684
994.5114684
994.5114684
994.5114684
994.5114456
994.5114456
994.5114547
994.5114683
994.5114683
994.5114702
994.5114683
994.5116761
994.5117323
994.5116761
994.5117508
994.51177
994.5114794
994.5116221
994.5114734
994.5114703
994.5116761
994.5115469
994.5117623
994.5117099
994.5114831
994.5114689
994.5114687
994.5114743
994.511662
994.51147
994.5115914
994.5116721
994.5116682
994.5117155
994.5116683
994.5118259
994.5114962
994.511475
994.5118171
994.51147
994.5114688
994.5115665
994.5114704
994.5114688
994.5114687
)
;
    }
}


// ************************************************************************* //
