/*--------------------------------*- C++ -*----------------------------------*\
  =========                 |
  \\      /  F ield         | OpenFOAM: The Open Source CFD Toolbox
   \\    /   O peration     | Website:  https://openfoam.org
    \\  /    A nd           | Version:  8
     \\/     M anipulation  |
\*---------------------------------------------------------------------------*/
FoamFile
{
    version     2.0;
    format      ascii;
    class       volVectorField;
    location    "0.3/wallFilmRegion";
    object      U;
}
// * * * * * * * * * * * * * * * * * * * * * * * * * * * * * * * * * * * * * //

dimensions      [0 1 -1 0 0 0 0];

internalField   nonuniform List<vector> 
1342
(
(-8.670846253e-08 -2.576476121e-09 0)
(-1.212228667e-07 -1.036030267e-08 0)
(-1.681195789e-07 -3.891550635e-08 0)
(-2.34339993e-07 -1.006681908e-07 0)
(-4.310578436e-07 -1.97225697e-07 0)
(-5.536749733e-06 -1.234122149e-05 0)
(0.838550836 0.4996826183 0)
(0.7451017706 0.5620213097 0)
(0.6563343265 0.6042649915 0)
(0.5165356476 0.585120483 0)
(0.3713612499 0.5986151174 0)
(0.2257725534 0.6465905198 0)
(0.08631721235 0.6924373611 0)
(-0.001425097117 0.6162718917 0)
(-0.01149285321 0.2761844544 0)
(-4.655269449e-05 0.0005120422957 0)
(-1.705405624 0.8869441497 0)
(-0.9765608329 1.100576432 0)
(0.5530948738 1.015325048 0)
(0.8447486415 1.079218608 0)
(0.7972606695 1.149849091 0)
(0.7021038168 1.159234349 0)
(0.5380448411 1.009382922 0)
(0.2499741874 0.5183359946 0)
(0.001183394711 0.002536881196 0)
(-6.843547284e-12 -3.65138351e-12 0)
(0.111464197 -0.8433804181 0)
(0.1228284008 -0.8467428433 0)
(0.1272463982 -0.8125912495 0)
(0.1250995287 -0.7607372496 0)
(0.1190317907 -0.6953560476 0)
(0.1132033998 -0.612269475 0)
(0.1118025258 -0.5089361851 0)
(0.9532904062 0.51063284 0)
(0.853458946 0.5647389606 0)
(0.7639249101 0.5822854401 0)
(0.6082842577 0.5744463035 0)
(0.4684360128 0.6032206536 0)
(0.3451811 0.6764951231 0)
(0.243018318 0.7976439597 0)
(0.1756387326 0.9680457711 0)
(0.1439014103 1.192810193 0)
(0.128734211 1.42675751 0)
(-1.008445705 0.9022732235 0)
(-0.8653917276 1.383815564 0)
(-0.2327149629 1.411584363 0)
(0.701981809 1.253943429 0)
(1.004941342 1.179634644 0)
(0.9284397447 1.061895428 0)
(0.6298190842 0.8769315633 0)
(0.2193428609 0.4305961742 0)
(0.0002970080756 0.0005535205718 0)
(-2.306810117e-12 1.568280408e-12 0)
(0.0110828926 -0.08743980054 0)
(0.04264734069 -0.3195014305 0)
(0.06786084372 -0.4765315258 0)
(0.0821680715 -0.5472714635 0)
(0.08796574557 -0.569742521 0)
(0.08503461723 -0.5519945219 0)
(0.08019070683 -0.5054043628 0)
(0.06827865909 -0.4122817876 0)
(0.9943987899 0.5138051213 0)
(0.8863662762 0.5763536653 0)
(0.7980958485 0.5634164109 0)
(0.6450312594 0.5666377218 0)
(0.5217565091 0.6103444447 0)
(0.4176619078 0.7040582623 0)
(0.332968534 0.8540482924 0)
(0.2723868503 1.039553273 0)
(0.1404382409 -0.933549275 0)
(0.1147441396 -0.8922541754 0)
(0.1100155212 0.8787423516 0)
(0.1174743227 1.626278998 0)
(0.1859323244 2.186925553 0)
(0.4773924045 2.080308656 0)
(-0.4692167016 1.15223224 0)
(-0.8013216556 1.039521615 0)
(-0.8236946886 1.009407234 0)
(-0.6688505503 0.8504095607 0)
(-0.05226754199 0.06679919871 0)
(-1.505937758e-08 1.975626036e-08 0)
(1.147565905e-08 -6.436498644e-08 0)
(1.352494791e-05 -9.513718398e-05 0)
(0.0004147490701 -0.002807385039 0)
(0.002211522754 -0.01436710111 0)
(0.004720957501 -0.03058418686 0)
(-0.1841004327 0.03861269779 0)
(-0.004439720416 -0.01473854027 0)
(0.0004886831855 -0.002484665325 0)
(0.9951961585 0.5188447226 0)
(0.8854441343 0.5668169964 0)
(0.7748082244 0.5530742786 0)
(0.6559317615 0.568160705 0)
(0.5543869082 0.6261529265 0)
(0.4669876193 0.7347155626 0)
(0.3955195496 0.8750317392 0)
(0.3353866293 0.9834538635 0)
(0.2722031547 0.8744650357 0)
(0.2074663011 0.6555698264 0)
(1.133710835 0.8732812216 0)
(1.001823159 1.427828085 0)
(0.82208937 1.723032764 0)
(0.8377117263 1.493391286 0)
(-0.5106856782 1.059830088 0)
(-0.9363679736 1.11229425 0)
(-0.9640536152 1.214880457 0)
(-0.7858585737 1.174036004 0)
(-0.2829384751 0.4632976076 0)
(-0.0001113622098 0.0001813376136 0)
(6.23951995e-12 -4.771191794e-12 0)
(7.447996746e-12 -1.104977065e-11 0)
(2.93845598e-11 -3.025210484e-11 0)
(1.248354496e-09 -1.018672344e-09 0)
(1.130468536e-08 -1.41581819e-07 0)
(-0.5953913997 0.181482585 0)
(-0.318875843 0.105332237 0)
(-0.0001639443308 5.370226866e-05 0)
(0.9774264056 0.5211447118 0)
(0.8728785287 0.551174659 0)
(0.7658762047 0.5492519658 0)
(0.6691883533 0.5779498313 0)
(0.5861372669 0.6496076081 0)
(0.5136144489 0.7540259152 0)
(0.4389895117 0.8267249562 0)
(0.3500751163 0.8016121763 0)
(0.244555855 0.6565147659 0)
(0.09923935187 0.3072645923 0)
(1.790636879 0.8453604007 0)
(1.424189843 1.199709569 0)
(0.9212261379 1.238348589 0)
(0.85593464 1.131679576 0)
(-0.2108816148 0.9996874687 0)
(-0.4861237078 1.167535274 0)
(-0.5181586718 1.398358653 0)
(-0.4676236616 1.542816561 0)
(-0.3452903282 1.249843419 0)
(-0.03795470667 0.1216498552 0)
(-6.451010083e-14 -1.235616283e-12 0)
(-1.715444191e-13 -2.483080805e-12 0)
(2.658140564e-12 -4.501765204e-12 0)
(7.021632214e-12 -7.701058581e-12 0)
(1.0565563e-11 -2.335534183e-11 0)
(-1.889429628e-11 -2.690079571e-09 0)
(-0.8174246066 0.2552957638 0)
(-0.6197435115 0.209812083 0)
(-0.06469417589 0.02210013467 0)
(0.9220051878 0.5046484152 0)
(0.8566739955 0.537947535 0)
(0.7680460857 0.5508591594 0)
(0.6932505923 0.5938064068 0)
(0.630216392 0.6687694814 0)
(0.5552352481 0.7261791373 0)
(0.4429726876 0.6904814079 0)
(0.2927696094 0.5294188873 0)
(0.06354259864 0.1339529598 0)
(3.66905665e-05 9.668843937e-05 0)
(1.836038279 0.699198793 0)
(0.5487864669 -0.04555923611 0)
(0.4361920671 -0.2922014828 0)
(0.5011447256 -0.009158329111 0)
(0.200755781 0.8875983173 0)
(0.1880207455 1.237482694 0)
(0.1861166185 1.618899756 0)
(0.1966674372 2.04435221 0)
(0.2033485354 2.47002589 0)
(0.1962747554 3.073430324 0)
(1.666019552e-14 -1.157408489e-12 0)
(-8.95853226e-14 -2.160989569e-12 0)
(1.173767188e-13 -3.85663202e-12 0)
(-8.951521789e-14 -6.514867019e-12 0)
(1.266881959e-13 -2.409839153e-11 0)
(-5.542992332e-11 -5.13123943e-09 0)
(-0.9210980526 0.3032054538 0)
(-0.7430337475 0.2650417189 0)
(-0.3405581831 0.1226253668 0)
(0.7906652881 0.4533923582 0)
(0.8500052999 0.525611591 0)
(0.793984957 0.5566786642 0)
(0.7460377316 0.6084672152 0)
(0.685979673 0.6579001365 0)
(0.5699079779 0.6362437448 0)
(0.3411820936 0.4778079397 0)
(-0.06466180833 0.2350004725 0)
(-0.02218965763 0.01808803804 0)
(2.876644134e-09 -2.20536183e-09 0)
(0.3802056894 0.1368101833 0)
(0.02139995504 -0.01396037808 0)
(0.1244056471 -0.1759096 0)
(0.1369864887 -0.1495672879 0)
(0.6672887003 0.9486648009 0)
(0.6728183965 1.226163556 0)
(0.6497523748 1.550736829 0)
(0.6033936045 1.876635089 0)
(0.525123044 2.114787983 0)
(0.3654990996 2.348161658 0)
(-3.747898007e-13 -1.491809818e-12 0)
(-9.774808066e-13 -2.680365086e-12 0)
(-1.700616788e-12 -4.961301549e-12 0)
(-3.64113513e-12 -8.559426968e-12 0)
(-6.857171412e-12 -3.10337296e-11 0)
(-5.446305797e-10 -8.578950873e-09 0)
(-0.9392194353 0.334347153 0)
(-0.7887287988 0.3046224842 0)
(-0.5105011676 0.1971179911 0)
(0.6324867339 0.3959578269 0)
(0.8844184571 0.5110506818 0)
(0.8704540896 0.5608327224 0)
(0.8287552211 0.6045745122 0)
(0.7259872903 0.602360243 0)
(0.5430990607 0.5109599317 0)
(-0.1336523021 0.3575325504 0)
(-0.5196154638 0.3460396111 0)
(-0.3879529494 0.2570066005 0)
(-0.01510887742 0.01022313672 0)
(9.037501077e-06 3.210011831e-06 0)
(2.966350699e-09 -1.632962024e-09 0)
(1.658257151e-05 -2.55955532e-05 0)
(1.896132257e-05 -3.606449649e-05 0)
(1.14231497 0.9729083043 0)
(1.122668097 1.207071669 0)
(1.049471659 1.448093198 0)
(0.888149475 1.555795026 0)
(0.6892785594 1.510079896 0)
(0.3734220947 1.190836321 0)
(-4.659454732e-13 -2.028727658e-12 0)
(-1.375086489e-12 -3.660292236e-12 0)
(-2.296267028e-12 -6.847358045e-12 0)
(-5.981093204e-12 -1.277255582e-11 0)
(-1.200761658e-11 -4.037514164e-11 0)
(-1.868036795e-09 -1.398477866e-08 0)
(-0.9022398674 0.3549814769 0)
(-0.7819664113 0.3325704524 0)
(-0.5686998355 0.2393749164 0)
(0.5325154832 0.3607354612 0)
(0.96548338 0.4923427798 0)
(0.9829845663 0.5519883756 0)
(0.9039670571 0.5709760873 0)
(0.7250546297 0.5148757959 0)
(0.4283647644 0.3370227112 0)
(-0.5876715105 0.416547047 0)
(-0.7343619473 0.4709230145 0)
(-0.5866273397 0.4037939883 0)
(-0.2873132981 0.2043419458 0)
(-0.0009400629624 0.0006673876698 0)
(1.046214075e-11 -6.721411652e-12 0)
(9.190135931e-12 -3.811870344e-12 0)
(8.668878932e-10 -5.773058743e-08 0)
(1.601517185 0.9752315593 0)
(1.536912688 1.169415681 0)
(0.6421505919 1.168630988 0)
(-0.3409175042 0.9878708364 0)
(-0.5532398913 0.7595896535 0)
(-0.06075026048 0.09733680846 0)
(-1.14706831e-12 -2.912682974e-12 0)
(-2.929891636e-12 -4.964112544e-12 0)
(-6.119960483e-12 -1.074373002e-11 0)
(-1.443892067e-11 -1.975792151e-11 0)
(-3.424384022e-11 -5.906796251e-11 0)
(-5.557006328e-09 -2.51125568e-08 0)
(-0.8357562796 0.3692602859 0)
(-0.7450292643 0.3512965918 0)
(-0.5680124612 0.2631497378 0)
(0.510331902 0.3465523489 0)
(1.049577136 0.4705810395 0)
(1.079644167 0.5260735391 0)
(0.9378335565 0.5135493393 0)
(0.6706685635 0.4099079392 0)
(0.1471815222 0.09452069992 0)
(-0.9089984703 0.5499077682 0)
(-0.7962030299 0.5605273142 0)
(-0.6503548886 0.4969113486 0)
(-0.4352034407 0.339956699 0)
(-0.046168989 0.03560293992 0)
(-9.545069348e-08 8.616290995e-08 0)
(4.79330476e-12 -2.663756682e-12 0)
(4.47244334e-10 -1.573306712e-08 0)
(2.012484921 0.9620130339 0)
(1.833915319 1.096383687 0)
(0.4210774246 1.028769958 0)
(-0.6610055979 1.027280614 0)
(-0.8229540675 0.9371600043 0)
(-0.4080078181 0.4667264964 0)
(-2.01140229e-12 -4.86958932e-12 0)
(-5.350580036e-12 -8.8997014e-12 0)
(-1.186692426e-11 -1.9569243e-11 0)
(-2.8406402e-11 -3.7692594e-11 0)
(-5.893876829e-11 -8.509885857e-11 0)
(-1.540834331e-08 -5.694547e-08 0)
(-0.756046646 0.3792499347 0)
(-0.6930874248 0.363743999 0)
(-0.5325737246 0.2727897105 0)
(0.5859048394 0.3433048076 0)
(1.12202709 0.4479565639 0)
(1.131948994 0.4863146909 0)
(0.91996475 0.4424649034 0)
(0.531773729 0.2808853572 0)
(0.00681675769 0.00358654459 0)
(-0.8863396114 0.6169963703 0)
(-0.7516418051 0.6221924598 0)
(-0.6310989008 0.5702182226 0)
(-0.4649501147 0.4206233191 0)
(-0.1396746473 0.122579731 0)
(-5.186895936e-05 4.5303153e-05 0)
(-4.181824905e-12 1.387631404e-12 0)
(5.841391652e-11 -4.588170691e-09 0)
(2.308321041 0.9198749658 0)
(1.979788698 0.9691094509 0)
(0.2800500583 0.9664441146 0)
(-0.6345429325 1.081825865 0)
(-0.7416505415 1.09794713 0)
(-0.5404019724 0.8246335591 0)
(-2.105016716e-11 -7.7669849e-12 0)
(-2.915738644e-11 -1.428525928e-11 0)
(-4.576481725e-11 -3.7751698e-11 0)
(-7.40923254e-11 -6.913118451e-11 0)
(-1.388727631e-10 -1.616298767e-10 0)
(-4.905947124e-08 -1.849968668e-07 0)
(-0.666245776 0.3853602695 0)
(-0.6305712734 0.3722450005 0)
(-0.4698543903 0.268390419 0)
(0.7479707232 0.340263087 0)
(1.175608348 0.4211031821 0)
(1.12756772 0.4349469434 0)
(0.8412222633 0.36116673 0)
(0.2324851828 0.1052147265 0)
(1.386498917e-05 7.035260581e-06 0)
(-0.7261888713 0.6695630808 0)
(-0.6302620691 0.6868908613 0)
(-0.5494226442 0.6446050218 0)
(-0.4319942873 0.4890824917 0)
(-0.1789109767 0.1895097277 0)
(-0.0005745102299 0.000597081802 0)
(5.301125683e-12 -3.620817609e-11 0)
(-2.67326173e-10 -1.408544624e-09 0)
(2.332880944 0.8273106541 0)
(1.770105044 0.7627149323 0)
(-0.05988313342 0.9363608928 0)
(-0.4909416461 1.13101682 0)
(-0.5189837706 1.217586466 0)
(-0.4613561541 1.071652206 0)
(-1.184809583e-09 -1.382407989e-10 0)
(-2.795600005e-09 -4.969184972e-10 0)
(-7.479301978e-09 -2.277419556e-09 0)
(-2.57449125e-08 -8.183888283e-09 0)
(-1.31583026e-07 -4.658995389e-08 0)
(-2.34572444e-06 -2.536771569e-06 0)
(-0.5497845174 0.3848996942 0)
(-0.5479953206 0.3775922335 0)
(-0.3574677963 0.2417464747 0)
(0.9171121242 0.3280915375 0)
(1.183367589 0.3868531654 0)
(1.070165802 0.3807123105 0)
(0.6767655756 0.2662247956 0)
(0.008617755501 0.003398686806 0)
(-8.139103696e-08 -3.179700808e-08 0)
(-0.4360882636 0.8009691723 0)
(-0.4041021066 0.8145123319 0)
(-0.38942016 0.7641556412 0)
(-0.3434730751 0.5787588238 0)
(-0.1564074324 0.2254019576 0)
(-0.0009983552107 0.001382002578 0)
(0.03789605058 -0.06308744059 0)
(0.5101493579 -0.5537090234 0)
(1.725480724 0.2078674958 0)
(0.9006567448 -0.3196005008 0)
(0.4606447812 1.023093821 0)
(0.4747466951 1.256125332 0)
(0.4673848101 1.461282442 0)
(0.4475130197 2.580176277 0)
(0.4131406867 -0.8978651598 0)
(0.4757273178 -0.9473879817 0)
(0.5070808509 -0.8671346004 0)
(0.5228513324 -0.7187201607 0)
(0.5327703414 -0.5518569661 0)
(0.5421973023 -0.3783462631 0)
(0.5482031616 0.3480170718 0)
(0.5492876478 0.4640408783 0)
(0.4909697503 0.5653216247 0)
(0.9447467746 0.3546809027 0)
(1.130242403 0.3723870646 0)
(1.009297276 0.3710934678 0)
(0.7213247881 0.479658062 0)
(0.5612803553 1.137424524 0)
(0.4908824562 1.462201659 0)
(0.3973590133 1.456130685 0)
(0.2293853321 1.315370302 0)
(0.01409150936 1.10742874 0)
(-0.1402215743 0.7923166387 0)
(-0.06201207395 0.2239685228 0)
(-0.000101951134 0.0003353761756 0)
(7.305165493e-08 -1.513145244e-07 0)
(0.01982000831 -0.02406101032 0)
(0.8282343803 -0.1031373259 0)
(0.1418817784 -0.2871133388 0)
(0.7339096258 1.025793449 0)
(0.7366666199 1.255206491 0)
(0.7313802281 1.439954833 0)
(0.6350298352 2.398738648 0)
(0.4256292366 -0.7864761949 0)
(0.486985612 -0.8025848015 0)
(0.5240644878 -0.7375039763 0)
(0.5469633564 -0.628933561 0)
(0.5629742349 -0.5041820327 0)
(0.5783892223 -0.3685649566 0)
(0.6357040996 0.3523852917 0)
(0.6266419709 0.444862233 0)
(0.5997420476 0.5412060487 0)
(0.8598750042 0.4266846505 0)
(1.020115187 0.4077546224 0)
(0.9177988728 0.4478717345 0)
(0.7281383955 0.7083143136 0)
(0.6283430396 0.9906401632 0)
(0.5946907086 1.05458172 0)
(0.5637623016 1.027587136 0)
(0.5065521511 0.9768193547 0)
(0.434168706 0.9132053546 0)
(0.3879196077 0.8590485085 0)
(0.4105674474 0.8578815114 0)
(0.4910424937 1.052374108 0)
(0.5268062981 1.263507849 0)
(0.5292324757 1.445828364 0)
(0.51205814 1.414524037 0)
(0.4674007794 1.531447828 0)
(1.037997591 1.080277546 0)
(1.055387391 1.239718954 0)
(1.047764074 1.417479324 0)
(0.8714734589 2.169908836 0)
(0.3848584536 -0.6356629515 0)
(0.4602872891 -0.671449966 0)
(0.5130808594 -0.6362071659 0)
(0.5492161749 -0.5621047586 0)
(0.5754766238 -0.4701128963 0)
(0.5997113388 -0.3657235126 0)
(0.7149839027 0.3562755133 0)
(0.6937547463 0.4349504408 0)
(0.6720566671 0.5213507996 0)
(0.7728042324 0.5095146892 0)
(0.8796730759 0.5006696106 0)
(0.7870205281 0.6204261654 0)
(0.5698175073 0.8980915414 0)
(0.4838265466 0.8837349293 0)
(0.4633578839 0.7783663522 0)
(0.4637207011 0.6866553539 0)
(0.4631772456 0.7094910365 0)
(0.4766847711 0.7466230256 0)
(0.5027560301 0.8004491322 0)
(0.537535306 0.8823634864 0)
(0.5695458082 1.002133946 0)
(0.5861671114 1.137289035 0)
(0.5891635231 1.278489371 0)
(0.5779943835 1.408794512 0)
(0.5519873941 1.503025386 0)
(1.304637831 1.14180633 0)
(1.391152071 1.242414607 0)
(1.38733294 1.386212519 0)
(1.12821596 1.895107112 0)
(0.267002616 -0.4090382227 0)
(0.3708759616 -0.502281413 0)
(0.4436568239 -0.5109946289 0)
(0.4992227966 -0.4760425541 0)
(0.5403900584 -0.4176320572 0)
(0.571420109 -0.3457393574 0)
(0.7940812601 0.3517131096 0)
(0.7621561342 0.4269637843 0)
(0.7407093915 0.50749855 0)
(0.7549999853 0.559708503 0)
(0.7869130762 0.6043578605 0)
(0.6634121672 0.7561836767 0)
(0.2375529159 0.9127662396 0)
(0.08753337298 0.6466835339 0)
(0.1369228225 0.5324625423 0)
(0.250996265 0.5214443218 0)
(0.396515845 0.5906317298 0)
(0.5159920902 0.6875965008 0)
(0.5872894483 0.7871826199 0)
(0.6220133072 0.882028756 0)
(0.6389816829 0.9823792337 0)
(0.6449147543 1.091299108 0)
(0.6411201513 1.206175404 0)
(0.6252077608 1.315143892 0)
(0.5912412829 1.396556591 0)
(1.461149042 1.196880255 0)
(1.652406626 1.241895349 0)
(1.630111296 1.324260051 0)
(1.328445095 1.605149244 0)
(0.01371358266 -0.02082206006 0)
(0.148304363 -0.196438094 0)
(0.2763315682 -0.3105798694 0)
(0.35674733 -0.3334106252 0)
(0.4051226838 -0.309343671 0)
(0.4186407366 -0.2525381183 0)
(0.8482771199 0.3203049639 0)
(0.8318148406 0.4160357855 0)
(0.8121097166 0.4960004383 0)
(0.799113718 0.5727732118 0)
(0.7906819274 0.6565218841 0)
(0.6465657281 0.7725241774 0)
(0.346126886 0.7832464216 0)
(0.1131511763 0.6296516647 0)
(0.04574191909 0.4308092557 0)
(0.286318533 0.4607370978 0)
(0.511946161 0.5840853749 0)
(0.6328604638 0.7039687099 0)
(0.682237341 0.8000348699 0)
(0.700988802 0.8858980372 0)
(0.7071076379 0.9745055244 0)
(0.704469712 1.069289858 0)
(0.6908137517 1.164469899 0)
(0.6604875984 1.242592867 0)
(0.6079990513 1.277854002 0)
(1.443734405 1.216440845 0)
(1.698152869 1.211202251 0)
(1.67101051 1.235939625 0)
(1.382173697 1.335537568 0)
(1.386797009e-09 -2.103925971e-09 0)
(0.0001468354339 -0.0001952358788 0)
(0.01117177982 -0.01269537816 0)
(0.06794223143 -0.06437181456 0)
(0.1247013998 -0.0966760262 0)
(0.08213315086 -0.04961553493 0)
(0.9048128917 0.3162016981 0)
(0.9096170994 0.4091418724 0)
(0.8926812688 0.487236571 0)
(0.8821353668 0.5720776116 0)
(0.8830443398 0.672971824 0)
(0.7875803653 0.6293158019 0)
(0.5218843611 0.6165173799 0)
(0.2603961595 0.5123557197 0)
(0.02397337199 0.06988048584 0)
(0.6565299534 0.5272989692 0)
(0.736071667 0.6432285819 0)
(0.7685153115 0.7340258495 0)
(0.7802821731 0.8118259525 0)
(0.7827558633 0.887482193 0)
(0.7785902706 0.9669187679 0)
(0.7642653412 1.047365064 0)
(0.7318797676 1.11418561 0)
(0.6737766701 1.142285308 0)
(0.5928500318 1.113081818 0)
(1.226478928 1.14573487 0)
(1.539100588 1.134935855 0)
(1.515576267 1.1031794 0)
(1.24540749 1.065725722 0)
(3.769202074e-12 -6.36988562e-12 0)
(4.929029953e-12 -1.303554973e-11 0)
(1.052663265e-09 -1.033580705e-09 0)
(3.256359236e-06 -3.158863458e-06 0)
(0.0001020539584 -8.04715783e-05 0)
(1.971191173e-05 -1.410977025e-05 0)
(1.0482371 0.3370659215 0)
(1.011002585 0.4070110004 0)
(0.9918906796 0.4483990362 0)
(0.8064450818 0.4106193538 0)
(-0.1034116527 0.1904872577 0)
(0.1528439471 0.310902442 0)
(0.2557912145 0.4130117281 0)
(0.2945034507 0.4490003853 0)
(0.5388272243 0.664218886 0)
(0.8223753326 0.7060483872 0)
(0.8842111386 0.7207516101 0)
(0.8889197125 0.765695256 0)
(0.8834610999 0.8227217717 0)
(0.8743115187 0.8866867277 0)
(0.8574995488 0.9538810151 0)
(0.8221281956 1.011055605 0)
(0.7548584487 1.03194631 0)
(0.6512619324 0.9895659974 0)
(0.5221574474 0.8729269713 0)
(0.9938396899 0.9524763677 0)
(1.271345559 0.974311378 0)
(1.205377856 0.8811250067 0)
(0.6526637575 0.5290676054 0)
(5.997173169e-13 -3.94702022e-12 0)
(3.054030134e-12 -7.085505781e-12 0)
(6.77030677e-12 -1.362596542e-11 0)
(9.635806086e-12 -2.715281438e-11 0)
(1.866955972e-11 -6.573286805e-11 0)
(1.975971246e-09 -5.209434518e-08 0)
(1.19352277 0.3483901648 0)
(1.132894234 0.4037849736 0)
(1.029722157 0.3055530661 0)
(0.5715196969 0.1802391577 0)
(0.006114509733 0.1876254856 0)
(0.02581300778 0.3676279386 0)
(0.2213217231 0.4350072231 0)
(0.383869478 0.5051118011 0)
(0.559725747 0.6457272987 0)
(0.7730417429 0.7606089081 0)
(0.9002278496 0.7925042949 0)
(0.9620233312 0.8142784514 0)
(0.9800682521 0.8474176187 0)
(0.9738771445 0.8923893194 0)
(0.9452339645 0.9385322238 0)
(0.8795620654 0.9598768182 0)
(0.7603246974 0.9186741336 0)
(0.5828451243 0.7806704042 0)
(0.2920423316 0.4298210488 0)
(0.5152510889 0.4851825099 0)
(0.7358432262 0.5570593028 0)
(0.2680729864 0.1958541581 0)
(0.0008847464239 0.0007128141714 0)
(4.50145061e-13 -3.330525941e-12 0)
(8.748906672e-13 -5.958037792e-12 0)
(-8.813095594e-12 -1.10421526e-11 0)
(-1.177481396e-11 -1.981801082e-11 0)
(-1.006334246e-11 -5.713700662e-11 0)
(2.481748252e-10 -3.600577808e-08 0)
(1.341317026 0.3544617265 0)
(1.257340559 0.3951690011 0)
(0.9767570776 0.0969598228 0)
(0.4690728469 0.08228613765 0)
(-0.5651747815 0.3295992099 0)
(0.1370022543 0.4695490892 0)
(0.3577083185 0.4995121394 0)
(0.4989282411 0.5546055803 0)
(0.6194428815 0.6506589364 0)
(-0.2746421422 0.7668193087 0)
(0.01444646295 0.7706595777 0)
(0.488733368 0.8339730337 0)
(0.852662967 0.881205633 0)
(1.015935492 0.9139361023 0)
(1.028232579 0.9326995722 0)
(0.9434377599 0.9116513225 0)
(0.7676551797 0.8028756907 0)
(0.4503102565 0.5105694841 0)
(0.009292300037 0.01107579925 0)
(0.001662518046 0.001549128049 0)
(0.004388645999 0.003303256449 0)
(7.131695705e-06 5.200456001e-06 0)
(1.606612369e-12 2.410741761e-13 0)
(-5.770373485e-12 -2.88753455e-12 0)
(-2.352595437e-12 -1.493052909e-11 0)
(-4.059242706e-12 -2.570457627e-11 0)
(-4.647521332e-11 -5.442446986e-11 0)
(-3.391816366e-10 -2.557555366e-10 0)
(-5.098486165e-09 -2.726770988e-08 0)
(1.485749819 0.3566579207 0)
(1.368710222 0.379945668 0)
(0.8405843135 0.02760706411 0)
(0.1090440205 0.01472808954 0)
(-0.8089286237 0.4458343922 0)
(0.4021645236 0.5059418381 0)
(0.5118184691 0.5352520546 0)
(0.6119392937 0.5839583422 0)
(0.700056692 0.6636622784 0)
(-0.6225995904 0.7214252626 0)
(-0.6293808905 0.7554066891 0)
(-0.09893015029 0.8010940852 0)
(0.4629801301 0.845623691 0)
(0.8918138433 0.9327829338 0)
(1.060442544 0.9399600912 0)
(1.007544829 0.8851877718 0)
(0.8025066722 0.731174452 0)
(0.2722607526 0.2517286547 0)
(8.109861761e-05 7.441758075e-05 0)
(-2.112062965e-12 1.535316363e-12 0)
(2.55663378e-12 5.622004333e-12 0)
(1.311618433e-12 7.073426849e-13 0)
(1.037563311e-12 1.435985893e-13 0)
(-5.435716304e-12 -5.23576179e-12 0)
(2.254121305e-05 -2.124284382e-05 0)
(0.06938082562 -0.06543486386 0)
(0.5282258335 -0.4794083009 0)
(1.030852751 -0.7189317275 0)
(1.537968918 -0.3742610909 0)
(1.61626449 0.3502388444 0)
(1.469470531 0.3452571347 0)
(0.7418574037 -0.04923837415 0)
(0.803802391 -0.4885891243 0)
(0.8137421047 0.4502244269 0)
(0.6335266071 0.5203198171 0)
(0.6642558001 0.5563993838 0)
(0.7311951238 0.6021002927 0)
(0.7974568392 0.6753345061 0)
(-0.2422823965 0.6778186984 0)
(-0.6178154682 0.7139859948 0)
(-0.2140504613 0.8360262661 0)
(0.4581850189 0.9405294069 0)
(0.9050919362 1.000426562 0)
(1.092459712 0.97054484 0)
(1.074759415 0.8759259124 0)
(0.8867040289 0.7588048213 0)
(0.4426377038 0.3866117473 0)
(0.001661383098 0.00146192154 0)
(6.336982888e-12 4.430321815e-12 0)
(9.999190836e-13 2.167291475e-12 0)
(7.692579032e-13 3.943568718e-13 0)
(6.668905137e-13 1.129985815e-13 0)
(1.205627181e-09 -2.28765716e-10 0)
(0.005770841941 -0.004610800749 0)
(0.3116411209 -0.2463150284 0)
(0.7282901562 -0.5454357422 0)
(1.120438829 -0.6273561314 0)
(1.505469786 -0.3384157371 0)
(1.710674497 0.3138853733 0)
(1.551853255 0.2979015826 0)
(0.7557287337 -0.1353952812 0)
(0.8904103275 -0.4805756613 0)
(0.9120881031 0.4535090781 0)
(0.825549583 0.5281968893 0)
(0.9129823961 -0.1961597766 0)
(0.90729936 -0.4339262833 0)
(0.875664411 -0.1474311091 0)
(0.7643974255 0.5823603149 0)
(0.8010072019 0.8442996586 0)
(0.7355726175 1.083729288 0)
(0.7745110798 1.23134664 0)
(0.9138318375 1.273525566 0)
(1.027321569 1.213483399 0)
(1.049639488 1.083522049 0)
(0.9547259322 0.9625662675 0)
(0.7275516833 0.7711553474 0)
(0.1462023435 0.1594743757 0)
(7.533431036e-06 8.260712276e-06 0)
(2.986699824e-14 2.226841918e-12 0)
(5.42484587e-13 5.035598077e-13 0)
(4.598929845e-13 9.583099033e-14 0)
(2.317851061e-09 -2.604520138e-09 0)
(0.01822895524 -0.01309826478 0)
(0.440052334 -0.3126068626 0)
(0.8208710303 -0.5431135755 0)
(1.149515236 -0.5599725681 0)
(1.46057453 -0.3160469396 0)
(1.733176565 0.2190650337 0)
(1.521955299 0.188325369 0)
(0.7651240406 -0.3007309714 0)
(0.9613984009 -0.4754504624 0)
(1.000243651 0.4556113301 0)
(0.9543107087 0.5342416164 0)
(0.9643618589 -0.2488069659 0)
(0.9618093239 -0.6491598237 0)
(0.9396349351 -0.5113900299 0)
(1.01765975 0.6251411781 0)
(1.008148085 0.8448179187 0)
(0.9668184801 1.084469989 0)
(0.9572293825 1.291007489 0)
(0.9961645566 1.395848455 0)
(1.045081661 1.374075225 0)
(1.052942725 1.265808624 0)
(0.9941156388 1.115072125 0)
(0.7965267557 0.9276777581 0)
(0.3653920966 0.4390416537 0)
(0.000892554109 0.001082535534 0)
(-1.0032157e-13 1.798888092e-12 0)
(3.805471574e-13 8.873414206e-13 0)
(3.058731278e-13 7.971896661e-14 0)
(-1.386526986e-10 -2.947838538e-11 0)
(0.008516516388 -0.005647215754 0)
(0.4470569022 -0.2935185323 0)
(0.8367897618 -0.5121991262 0)
(1.133202171 -0.5155720182 0)
(1.402054022 -0.3135469075 0)
(1.646968649 0.05785689943 0)
(1.397509077 0.04892276213 0)
(0.850651271 -0.4937925606 0)
(1.007575938 -0.4723370258 0)
(1.091946709 0.4570218801 0)
(1.058613727 0.5412219778 0)
(0.9970016254 -0.06552974204 0)
(1.012768598 -0.5404320357 0)
(0.9962135718 -0.5552237143 0)
(1.226423961 0.6224608275 0)
(1.205401728 0.830961796 0)
(1.169106735 1.065936953 0)
(1.136182937 1.282517847 0)
(1.120692408 1.414620449 0)
(1.113148558 1.424010934 0)
(1.078877886 1.335674597 0)
(0.9780354319 1.175553112 0)
(0.7807362863 0.9562953588 0)
(0.3604826419 0.451375684 0)
(0.0006668397468 0.000839923582 0)
(1.622257598e-12 1.382034567e-12 0)
(2.556066232e-13 6.279421645e-13 0)
(1.911563224e-13 6.483028679e-14 0)
(2.502365616e-12 -1.65210341e-12 0)
(0.0002335412079 -0.0001447350644 0)
(0.3016056683 -0.1854595509 0)
(0.7761835745 -0.454678132 0)
(1.051432676 -0.4878463424 0)
(1.279290249 -0.3517739594 0)
(1.445505057 -0.1225277702 0)
(1.255588794 -0.08216124931 0)
(0.9096743451 -0.5569431404 0)
(0.9856692656 -0.4584402492 0)
(1.193631174 0.4556378223 0)
(1.149691846 0.5477364218 0)
(1.086077395 0.2132465626 0)
(1.02967635 -0.2436118121 0)
(1.085571285 -0.3393707487 0)
(1.427773907 0.5958842721 0)
(1.410510546 0.8112878922 0)
(1.366394269 1.036940977 0)
(1.308948493 1.245284673 0)
(1.248538417 1.380125516 0)
(1.183575604 1.401635321 0)
(1.08708937 1.317936463 0)
(0.92728346 1.140759486 0)
(0.7057568181 0.8903327186 0)
(0.1691644373 0.2153268052 0)
(7.133022576e-06 9.121280011e-06 0)
(6.34096948e-13 1.129517992e-12 0)
(1.592614216e-13 2.637190118e-13 0)
(1.07930383e-13 5.16310439e-14 0)
(4.697886928e-13 -1.286296623e-12 0)
(1.505135822e-09 -9.107540459e-10 0)
(0.02945892812 -0.01704916445 0)
(0.6166982132 -0.3485917376 0)
(0.9150836912 -0.4446867175 0)
(1.113953091 -0.3830174565 0)
(1.258440408 -0.2322600419 0)
(1.094445194 -0.2153244824 0)
(0.8356324088 -0.4939305681 0)
(0.8431997617 -0.3910810476 0)
(1.271172156 0.4270443399 0)
(1.207298588 0.5528821422 0)
(1.154836665 0.4086686279 0)
(1.107856425 0.04120050917 0)
(1.157129174 -0.03092589356 0)
(1.585084646 0.5934421372 0)
(1.586107802 0.7978941698 0)
(1.533130711 1.005247157 0)
(1.448359546 1.193859694 0)
(1.340926123 1.314724118 0)
(1.212150468 1.327160156 0)
(1.049595712 1.22535254 0)
(0.8415921272 1.026352516 0)
(0.5215312651 0.6504921056 0)
(0.005967297745 0.007469818732 0)
(2.512017692e-12 6.340449958e-12 0)
(1.69666235e-13 9.241969168e-13 0)
(8.501101568e-14 2.050349846e-13 0)
(5.102304324e-14 4.102509935e-14 0)
(-3.396870682e-12 2.027376491e-12 0)
(1.098994418e-12 -1.65974891e-12 0)
(2.77833314e-06 -1.520643234e-06 0)
(0.1716907806 -0.09298347788 0)
(0.6890557743 -0.3375644474 0)
(0.8916668812 -0.3391934692 0)
(0.9624907112 -0.3012896826 0)
(0.8238775675 -0.3113151005 0)
(0.5795983416 -0.3403628186 0)
(0.4977415148 -0.240857692 0)
(2.465988261 0.4986534728 0)
(2.304687663 0.5185038885 0)
(2.122597134 0.5678572626 0)
(1.956694128 0.583401825 0)
(1.860851913 0.6290300068 0)
(1.843739074 0.7094837192 0)
(1.787984899 0.8104406227 0)
(1.6835529 0.9190653597 0)
(1.541843044 1.015480007 0)
(1.377100604 1.077932415 0)
(1.200768515 1.084427359 0)
(1.013947299 1.015065572 0)
(0.7871332402 0.8443876192 0)
(0.1870072873 0.2062651373 0)
(3.739156942e-06 4.130637478e-06 0)
(4.801641199e-13 1.3795468e-12 0)
(4.194833822e-14 5.034445895e-13 0)
(2.624785634e-14 1.857769508e-13 0)
(1.399115897e-14 3.354446744e-14 0)
(0.0729313403 -0.0006968898647 -0.414785172)
(-4.014301491 -0.009151237432 -7.02512394)
(-0.1412132621 0.2057404065 -3.474197902)
(-4.764099969 0.3590107906 -6.249216745)
(-0.1890380258 0.7637143655 -3.003407673)
(-5.187343592 1.422675155 -5.595739802)
(-4.288996377 1.532471547 -6.04825281)
(-3.21355051 1.676292187 -6.594029573)
(-0.0541392729 -1.095857534 -2.068980566)
(-1.814309109 -3.563533702 -6.806325706)
(0.03007986756 -2.621960449 -4.989198352)
(1.231823395 -4.525833959 -8.617190191)
(-0.0472201475 -1.539235281 -1.687133632)
(-0.4491261583 -6.464750013 -7.049045489)
(2.114755495 -5.825351587 -6.364141876)
(3.601881297 -6.259428679 -6.861141728)
(-0.02184593299 -1.835791362 -1.170184526)
(2.577311125 -8.003987094 -5.090030165)
(5.696635374 -7.169230938 -4.54929775)
(7.99541924 -6.581608226 -4.176701989)
(-4.550836447 5.101740721 -2.464377457)
(-6.012586992 -2.309517697 1.130263098)
(-6.404783967 -4.326119608 2.105487633)
(-4.850353004 -5.167013111 2.520481361)
(4.734361304e-06 0.3724729324 -0.3201601425)
(1.386641538e-05 -0.2685896474 0.2853602703)
(-3.032656358e-05 -2.861400997 -2.281063712)
(0 0.4413954613 -0.2507218641)
(9.270778488e-06 -1.703072639 -2.708036471)
(1.213226375e-06 -1.106506015 -3.034669573)
(0 0.4781059188 -0.2122426674)
(0 1.04668374 -3.722813538)
(0 1.239729844 -3.672266423)
(0 0.4885850527 -0.1961920625)
(0 1.427606805 -3.590755424)
(0 1.611665235 -3.483649559)
(0 0.4907360998 -0.1809914155)
(0 1.775751346 -3.328310544)
(0 1.90050191 -3.119466719)
(0 0.4926599566 -0.1877244355)
(0 1.974152945 -2.872470206)
(0 1.996051942 -2.606788493)
(0 0.5429833044 -0.3492460078)
(0 1.974148313 -2.341866466)
(0 1.919182472 -2.091588289)
(0 1.429804096 -1.716635011)
(0 1.842766235 -1.862688162)
(0 1.755791175 -1.638684356)
(4.937791836e-07 1.077051839 -1.754911036)
(-2.172507646e-07 1.673005811 -1.349101542)
(-1.079889071e-05 3.228393988 -2.397882912)
(3.122645715e-06 0.2666467193 -0.1806307021)
(-0.0001076100998 5.549106796 -3.659549203)
(0.000100275539 0.7982837105 -0.6285142982)
(-0.0004327709555 -3.260160717 -1.713843119)
(0.00321136957 -3.50439878 -1.514645)
(0.0004256508329 -3.534383992 -1.465475649)
(0.002261739546 4.863648598 -2.983214171)
(0.0003978825903 4.273162461 -1.912407316)
(0.003796012001 4.368688021 -1.967852262)
(0.005240645332 -3.626944459 -1.29615704)
(0.005170823522 -3.821560566 -0.9491972472)