/*--------------------------------*- C++ -*----------------------------------*\
  =========                 |
  \\      /  F ield         | OpenFOAM: The Open Source CFD Toolbox
   \\    /   O peration     | Website:  https://openfoam.org
    \\  /    A nd           | Version:  8
     \\/     M anipulation  |
\*---------------------------------------------------------------------------*/
FoamFile
{
    version     2.0;
    format      ascii;
    class       volScalarField;
    location    "0.2";
    object      epsilon;
}
// * * * * * * * * * * * * * * * * * * * * * * * * * * * * * * * * * * * * * //

dimensions      [0 2 -3 0 0 0 0];

internalField   nonuniform List<scalar> 
67410
(
1.053565507e-05
9.449204996e-06
9.456012073e-06
9.456107942e-06
9.456111206e-06
9.456114308e-06
9.456118148e-06
9.456122649e-06
9.456127753e-06
9.456133406e-06
9.456139552e-06
9.456146131e-06
9.456153067e-06
9.456160288e-06
9.456167696e-06
9.4561752e-06
9.456182716e-06
9.456190125e-06
9.456197358e-06
9.456204319e-06
9.45621099e-06
9.456217292e-06
9.456223222e-06
9.456228759e-06
9.456234278e-06
9.456275532e-06
1.016222211e-05
9.008381013e-06
9.020360947e-06
9.020668402e-06
9.020676284e-06
9.020678789e-06
9.02068167e-06
9.020685006e-06
9.020688792e-06
9.020693016e-06
9.020697654e-06
9.020702681e-06
9.02070805e-06
9.020713722e-06
9.020719606e-06
9.020725652e-06
9.020731775e-06
9.020737857e-06
9.020743819e-06
9.020749521e-06
9.020754948e-06
9.02075993e-06
9.020764422e-06
9.020768339e-06
9.020772014e-06
9.020806469e-06
1.016446661e-05
9.014149502e-06
9.031200518e-06
9.031899238e-06
9.031923038e-06
9.031929021e-06
9.031935575e-06
9.031943116e-06
9.031951639e-06
9.031961118e-06
9.031971505e-06
9.031982706e-06
9.031994668e-06
9.032007263e-06
9.032020295e-06
9.032033659e-06
9.032047086e-06
9.032060472e-06
9.032073523e-06
9.032085999e-06
9.032097706e-06
9.032108442e-06
9.032117999e-06
9.032126212e-06
9.032133347e-06
9.032170158e-06
1.016449775e-05
9.014286483e-06
9.031622083e-06
9.032356037e-06
9.032381928e-06
9.032388359e-06
9.032395336e-06
9.032403375e-06
9.032412453e-06
9.032422551e-06
9.032433619e-06
9.032445579e-06
9.032458335e-06
9.03247174e-06
9.032485654e-06
9.032499918e-06
9.032514257e-06
9.032528556e-06
9.032542493e-06
9.032555833e-06
9.032568326e-06
9.032579785e-06
9.032589984e-06
9.032598747e-06
9.032606338e-06
9.03264349e-06
1.016450428e-05
9.014291071e-06
9.031638163e-06
9.032374039e-06
9.032400238e-06
9.032406899e-06
9.032414145e-06
9.032422485e-06
9.032431904e-06
9.032442385e-06
9.032453851e-06
9.032466248e-06
9.032479484e-06
9.032493391e-06
9.032507874e-06
9.032522668e-06
9.032537626e-06
9.032552486e-06
9.032566978e-06
9.032580853e-06
9.032593859e-06
9.032605773e-06
9.03261639e-06
9.032625516e-06
9.032633407e-06
9.032670845e-06
1.016451238e-05
9.01429399e-06
9.031645806e-06
9.032382315e-06
9.032408751e-06
9.032415682e-06
9.032423233e-06
9.032431909e-06
9.032441718e-06
9.032452635e-06
9.032464606e-06
9.03247756e-06
9.032491372e-06
9.032505925e-06
9.03252105e-06
9.032536549e-06
9.032552192e-06
9.03256775e-06
9.032582924e-06
9.032597455e-06
9.032611085e-06
9.032623568e-06
9.032634716e-06
9.032644297e-06
9.032652581e-06
9.032690406e-06
1.016452181e-05
9.014297406e-06
9.031654612e-06
9.032391805e-06
9.032418495e-06
9.032425721e-06
9.032433639e-06
9.032442746e-06
9.032453031e-06
9.032464489e-06
9.032477053e-06
9.032490649e-06
9.032505164e-06
9.032520457e-06
9.03253637e-06
9.032552669e-06
9.032569144e-06
9.03258554e-06
9.032601533e-06
9.032617069e-06
9.032638649e-06
9.032661259e-06
9.032680529e-06
9.03269436e-06
9.032702652e-06
9.03273662e-06
1.016453222e-05
9.014301342e-06
9.031664809e-06
9.032402779e-06
9.032429764e-06
9.032437333e-06
9.032445664e-06
9.032455247e-06
9.032466084e-06
9.032478144e-06
9.032491388e-06
9.032505698e-06
9.032521005e-06
9.032537135e-06
9.032553947e-06
9.032571186e-06
9.032588653e-06
9.032605957e-06
9.032627255e-06
9.032666484e-06
9.032713832e-06
9.032759868e-06
9.032798449e-06
9.032827864e-06
9.03284928e-06
9.032893043e-06
1.016454334e-05
9.014305777e-06
9.031676387e-06
9.03241524e-06
9.032442534e-06
9.032450478e-06
9.032459253e-06
9.032469361e-06
9.032480806e-06
9.032493554e-06
9.03250756e-06
9.032522725e-06
9.032538936e-06
9.032556035e-06
9.032573848e-06
9.032592146e-06
9.032610632e-06
9.032631388e-06
9.032680795e-06
9.03275279e-06
9.032829517e-06
9.03290291e-06
9.032967094e-06
9.03302324e-06
9.033069567e-06
9.033137806e-06
1.016455495e-05
9.014310674e-06
9.031689289e-06
9.032429117e-06
9.032456779e-06
9.032465151e-06
9.032474447e-06
9.032485163e-06
9.032497302e-06
9.032510826e-06
9.032525671e-06
9.032541752e-06
9.032558946e-06
9.032577097e-06
9.032595983e-06
9.032615403e-06
9.032635068e-06
9.032673136e-06
9.032754515e-06
9.032857684e-06
9.032966192e-06
9.033073765e-06
9.033176309e-06
9.03327384e-06
9.033362834e-06
9.033472584e-06
1.016456693e-05
9.014316063e-06
9.031703609e-06
9.032444525e-06
9.032472575e-06
9.032481411e-06
9.032491274e-06
9.032502632e-06
9.032515513e-06
9.032529867e-06
9.032545621e-06
9.032562677e-06
9.032580929e-06
9.032600187e-06
9.032620242e-06
9.03264086e-06
9.032661916e-06
9.032721244e-06
9.032832896e-06
9.032968247e-06
9.033118992e-06
9.033279295e-06
9.033453392e-06
9.033619929e-06
9.033764147e-06
9.033917033e-06
1.01645792e-05
9.014321913e-06
9.031719249e-06
9.032461365e-06
9.032489841e-06
9.032499178e-06
9.032509627e-06
9.032521701e-06
9.032535361e-06
9.032550598e-06
9.032567327e-06
9.032585431e-06
9.032604803e-06
9.032625224e-06
9.032646494e-06
9.032668343e-06
9.03269154e-06
9.032769468e-06
9.032908903e-06
9.033090384e-06
9.033333823e-06
9.03359312e-06
9.033826923e-06
9.034030409e-06
9.034205903e-06
9.034387594e-06
1.016459176e-05
9.014328214e-06
9.031736171e-06
9.032479576e-06
9.0325085e-06
9.03251837e-06
9.032529469e-06
9.032542284e-06
9.03255681e-06
9.032572971e-06
9.032590726e-06
9.032609939e-06
9.032630457e-06
9.032652091e-06
9.0326746e-06
9.032697713e-06
9.032721882e-06
9.032811352e-06
9.033000908e-06
9.033333713e-06
9.033655557e-06
9.033947609e-06
9.03420792e-06
9.034437276e-06
9.034639523e-06
9.034848886e-06
1.016460477e-05
9.014334959e-06
9.031754318e-06
9.032499108e-06
9.032528514e-06
9.032538948e-06
9.032550732e-06
9.032564343e-06
9.032579761e-06
9.032596933e-06
9.032615745e-06
9.032636112e-06
9.032657834e-06
9.032680707e-06
9.032704512e-06
9.032729276e-06
9.0327579e-06
9.032898248e-06
9.033267649e-06
9.03363824e-06
9.033978889e-06
9.034288096e-06
9.034566682e-06
9.034817557e-06
9.035044275e-06
9.035280947e-06
1.016461845e-05
9.014342148e-06
9.031773624e-06
9.03251989e-06
9.032549809e-06
9.032560846e-06
9.03257336e-06
9.032587807e-06
9.03260418e-06
9.032622395e-06
9.032642352e-06
9.03266394e-06
9.032686889e-06
9.032711058e-06
9.032737242e-06
9.032775875e-06
9.032890647e-06
9.033153587e-06
9.033554594e-06
9.033930903e-06
9.034279317e-06
9.034599575e-06
9.034893057e-06
9.035162911e-06
9.035412397e-06
9.035675398e-06
1.016463312e-05
9.014349781e-06
9.031794024e-06
9.032541857e-06
9.032572325e-06
9.032584009e-06
9.032597305e-06
9.032612674e-06
9.03263005e-06
9.032649348e-06
9.032670452e-06
9.032693211e-06
9.032717479e-06
9.032745293e-06
9.03280357e-06
9.032943898e-06
9.033140262e-06
9.033431085e-06
9.03382897e-06
9.034204278e-06
9.034555035e-06
9.034881489e-06
9.035185734e-06
9.035470543e-06
9.035739578e-06
9.036026662e-06
1.016464924e-05
9.014357893e-06
9.031815484e-06
9.032564967e-06
9.032596011e-06
9.032608369e-06
9.032622465e-06
9.032638739e-06
9.032657141e-06
9.032677554e-06
9.032699867e-06
9.03272399e-06
9.032753318e-06
9.032836371e-06
9.032990511e-06
9.033188303e-06
9.033431412e-06
9.033719809e-06
9.034093821e-06
9.034461595e-06
9.034808558e-06
9.035135471e-06
9.035444602e-06
9.035739382e-06
9.036023083e-06
9.03633019e-06
1.01646673e-05
9.014366434e-06
9.031837762e-06
9.032588981e-06
9.032620632e-06
9.0326337e-06
9.032648649e-06
9.032665887e-06
9.032685388e-06
9.032707038e-06
9.032730954e-06
9.032761925e-06
9.032866305e-06
9.033031557e-06
9.033235415e-06
9.03347469e-06
9.033738959e-06
9.034029986e-06
9.034356104e-06
9.034707874e-06
9.035043503e-06
9.035363884e-06
9.035671511e-06
9.035969696e-06
9.036261855e-06
9.036582872e-06
1.016468787e-05
9.014375433e-06
9.031860758e-06
9.032613771e-06
9.03264609e-06
9.032659944e-06
9.032675844e-06
9.032694206e-06
9.032714966e-06
9.03273857e-06
9.032773282e-06
9.032893463e-06
9.033068346e-06
9.03328183e-06
9.033526216e-06
9.033789787e-06
9.034066965e-06
9.034351298e-06
9.034645979e-06
9.034951544e-06
9.035266039e-06
9.035571632e-06
9.035869818e-06
9.036163682e-06
9.036456869e-06
9.036783901e-06
1.016471153e-05
9.014384897e-06
9.031884482e-06
9.032639396e-06
9.032672463e-06
9.032687202e-06
9.032704168e-06
9.032723749e-06
9.032746734e-06
9.032786279e-06
9.032918829e-06
9.033104507e-06
9.03333163e-06
9.033589145e-06
9.033861327e-06
9.034140504e-06
9.034417395e-06
9.034688587e-06
9.034956285e-06
9.035222782e-06
9.035489123e-06
9.035763981e-06
9.036043903e-06
9.036325146e-06
9.036610772e-06
9.036935165e-06
1.016473876e-05
9.014394887e-06
9.03190887e-06
9.032665751e-06
9.032699616e-06
9.032715289e-06
9.032733434e-06
9.032755678e-06
9.03279968e-06
9.032943402e-06
9.033144278e-06
9.033392513e-06
9.03367343e-06
9.0339684e-06
9.03425917e-06
9.034537232e-06
9.03480011e-06
9.035048872e-06
9.035285793e-06
9.035514421e-06
9.035740245e-06
9.035968217e-06
9.036203983e-06
9.036459458e-06
9.036728996e-06
9.037041754e-06
1.016476982e-05
9.01440531e-06
9.031933582e-06
9.032692498e-06
9.032727288e-06
9.032744259e-06
9.032766218e-06
9.032813988e-06
9.032968141e-06
9.033192174e-06
9.033479401e-06
9.033808971e-06
9.034142883e-06
9.034460416e-06
9.03474784e-06
9.035003733e-06
9.03523284e-06
9.035441997e-06
9.0356375e-06
9.035824877e-06
9.03600915e-06
9.036194952e-06
9.036387737e-06
9.036592594e-06
9.036820527e-06
9.037111663e-06
1.016480477e-05
9.014416215e-06
9.0319586e-06
9.032719704e-06
9.032755884e-06
9.032778084e-06
9.03283307e-06
9.032998981e-06
9.033258551e-06
9.033623099e-06
9.034051038e-06
9.034485471e-06
9.034863776e-06
9.035165215e-06
9.035397619e-06
9.035582284e-06
9.035739046e-06
9.035880093e-06
9.036016394e-06
9.036152743e-06
9.03629194e-06
9.036436501e-06
9.03658886e-06
9.036752117e-06
9.036931831e-06
9.03716792e-06
1.016484307e-05
9.01442793e-06
9.031983958e-06
9.032748298e-06
9.032790552e-06
9.032856445e-06
9.033035261e-06
9.033361761e-06
9.033873871e-06
9.034460527e-06
9.035008209e-06
9.035481531e-06
9.035851715e-06
9.036105387e-06
9.036252817e-06
9.036322441e-06
9.036347027e-06
9.036378504e-06
9.03642846e-06
9.036498313e-06
9.036584937e-06
9.036686124e-06
9.036800446e-06
9.036927393e-06
9.037069952e-06
9.037318209e-06
1.016488355e-05
9.014442403e-06
9.032012074e-06
9.032783342e-06
9.032883772e-06
9.033077256e-06
9.033490245e-06
9.034141827e-06
9.034828378e-06
9.035508012e-06
9.03613232e-06
9.03664962e-06
9.03701655e-06
9.037210434e-06
9.037252811e-06
9.037194648e-06
9.037079299e-06
9.036951099e-06
9.036878282e-06
9.036860839e-06
9.036885613e-06
9.036939935e-06
9.037017009e-06
9.037111933e-06
9.03725681e-06
1.016492436e-05
9.014463352e-06
9.032063241e-06
9.032899632e-06
9.03312619e-06
9.033608449e-06
9.034298548e-06
9.03506331e-06
9.035870364e-06
9.036670493e-06
9.037398662e-06
9.037981009e-06
9.038352643e-06
9.038468435e-06
9.038380159e-06
9.038165013e-06
9.037887282e-06
9.037600367e-06
9.037363462e-06
9.037236271e-06
9.037189135e-06
9.037193744e-06
9.037234361e-06
9.037300608e-06
9.037419974e-06
1.016495747e-05
9.014546486e-06
9.032200958e-06
9.033150144e-06
9.033652406e-06
9.034328743e-06
9.03512039e-06
9.03600774e-06
9.036953772e-06
9.037899166e-06
9.038759352e-06
9.039430435e-06
9.039820935e-06
9.039833666e-06
9.039583805e-06
9.039187123e-06
9.038723981e-06
9.038268724e-06
9.037870988e-06
9.037614244e-06
9.037487951e-06
9.037442402e-06
9.037448672e-06
9.037489906e-06
9.037589466e-06
1.016497753e-05
9.014701748e-06
9.032458525e-06
9.03362535e-06
9.034254354e-06
9.035007741e-06
9.03589804e-06
9.036907264e-06
9.037997339e-06
9.039101579e-06
9.040115924e-06
9.040901088e-06
9.04133949e-06
9.041216975e-06
9.040778401e-06
9.04017533e-06
9.039521081e-06
9.038899936e-06
9.038363298e-06
9.037973495e-06
9.037770657e-06
9.037679789e-06
9.037656567e-06
9.037677812e-06
9.037762938e-06
1.016498105e-05
9.014959211e-06
9.032867472e-06
9.034103925e-06
9.034779435e-06
9.03559286e-06
9.036560649e-06
9.037666094e-06
9.038868485e-06
9.040091046e-06
9.041211559e-06
9.04206215e-06
9.042520497e-06
9.042279716e-06
9.041704437e-06
9.040951942e-06
9.040153508e-06
9.039405526e-06
9.038766563e-06
9.038286038e-06
9.038024603e-06
9.037900257e-06
9.037856114e-06
9.037863957e-06
9.037907382e-06
9.038033459e-06
1.016501648e-05
9.015316744e-06
9.033265702e-06
9.034523905e-06
9.035224935e-06
9.036070708e-06
9.037082667e-06
9.038254646e-06
9.039563915e-06
9.040952322e-06
9.042298625e-06
9.043375782e-06
9.044071756e-06
9.043518764e-06
9.042657192e-06
9.041662537e-06
9.040679989e-06
9.039814069e-06
9.039104938e-06
9.038570937e-06
9.038281173e-06
9.038141852e-06
9.038088945e-06
9.038092768e-06
9.038135957e-06
9.03824127e-06
1.125004191e-05
9.957014094e-06
9.973417523e-06
9.973856654e-06
9.973894624e-06
9.973935149e-06
9.973985136e-06
9.974043786e-06
9.974110474e-06
9.974184633e-06
9.974265631e-06
9.974352703e-06
9.974445029e-06
9.974541628e-06
9.974641224e-06
9.974742608e-06
9.974844276e-06
9.974944935e-06
9.975043279e-06
9.975138093e-06
9.975228853e-06
9.975314755e-06
9.975395625e-06
9.97547126e-06
9.975541934e-06
9.975645581e-06
1.13256674e-05
1.503734422e-06
1.019835163e-06
1.00480251e-06
1.003900653e-06
1.003200459e-06
1.00238623e-06
1.001457697e-06
1.00042226e-06
9.99290318e-07
9.9807513e-07
9.967924789e-07
9.954614335e-07
9.941023275e-07
9.927401079e-07
9.91397434e-07
9.900989594e-07
9.888694283e-07
9.877288443e-07
9.86698125e-07
9.857853364e-07
9.850048645e-07
9.843591565e-07
9.83850943e-07
9.834769975e-07
9.832214636e-07
1.133344734e-05
1.158271787e-06
6.183476905e-07
5.978696745e-07
5.966383823e-07
5.958928406e-07
5.950407199e-07
5.940698068e-07
5.92986874e-07
5.918022297e-07
5.905292427e-07
5.891852314e-07
5.877887586e-07
5.863624278e-07
5.849324256e-07
5.835229348e-07
5.821629375e-07
5.808746081e-07
5.796830996e-07
5.786080048e-07
5.776631196e-07
5.768575128e-07
5.761962996e-07
5.756802173e-07
5.753067632e-07
5.750604451e-07
1.133371055e-05
1.149309927e-06
6.052303111e-07
5.838889615e-07
5.825670371e-07
5.817928804e-07
5.809123986e-07
5.799085154e-07
5.787880529e-07
5.77560854e-07
5.762403953e-07
5.748437534e-07
5.733909647e-07
5.719058677e-07
5.704143749e-07
5.689435007e-07
5.675237764e-07
5.661793017e-07
5.649372185e-07
5.638177191e-07
5.628363431e-07
5.620013558e-07
5.613173666e-07
5.607840788e-07
5.603972864e-07
5.601423172e-07
1.133375862e-05
1.148653222e-06
6.04365914e-07
5.829463026e-07
5.815933751e-07
5.807890721e-07
5.79873524e-07
5.788290939e-07
5.776620023e-07
5.763818743e-07
5.750027612e-07
5.735415636e-07
5.720188752e-07
5.704603266e-07
5.688917663e-07
5.673450616e-07
5.658492196e-07
5.644344433e-07
5.631281771e-07
5.619523489e-07
5.609230815e-07
5.600490507e-07
5.593332635e-07
5.587744158e-07
5.583677297e-07
5.580949879e-07
1.133381274e-05
1.148050438e-06
6.037307507e-07
5.822847322e-07
5.809034258e-07
5.800650965e-07
5.791093703e-07
5.78018372e-07
5.767974344e-07
5.75456298e-07
5.740086795e-07
5.724721229e-07
5.708688069e-07
5.69224174e-07
5.675675648e-07
5.659311859e-07
5.643482045e-07
5.628499584e-07
5.614669957e-07
5.602232844e-07
5.591360564e-07
5.582144878e-07
5.574590642e-07
5.56867044e-07
5.564302753e-07
5.561335941e-07
1.13338748e-05
1.147354987e-06
6.030089207e-07
5.815390596e-07
5.801283801e-07
5.79253654e-07
5.782539002e-07
5.771112158e-07
5.758312222e-07
5.74423028e-07
5.729009929e-07
5.712830982e-07
5.695920559e-07
5.678548928e-07
5.661024805e-07
5.643693774e-07
5.62689841e-07
5.610986232e-07
5.59629182e-07
5.583083465e-07
5.571815697e-07
5.562390402e-07
5.554641643e-07
5.548453296e-07
5.543709263e-07
5.540231465e-07
1.133394234e-05
1.146568775e-06
6.021953942e-07
5.807016646e-07
5.792605719e-07
5.783477907e-07
5.773021245e-07
5.761057917e-07
5.747641345e-07
5.732870534e-07
5.716883804e-07
5.699875339e-07
5.682070326e-07
5.663759279e-07
5.645256052e-07
5.626922884e-07
5.609117133e-07
5.592244212e-07
5.576784009e-07
5.563613918e-07
5.552542407e-07
5.543329246e-07
5.535709225e-07
5.529559733e-07
5.524798861e-07
5.521200099e-07
1.133401355e-05
1.14569795e-06
6.012951667e-07
5.797774195e-07
5.783060756e-07
5.773549911e-07
5.762633665e-07
5.750133689e-07
5.736104307e-07
5.720648274e-07
5.703907915e-07
5.686079432e-07
5.667404166e-07
5.648177955e-07
5.628727956e-07
5.609418948e-07
5.590648015e-07
5.572884055e-07
5.557545679e-07
5.544730951e-07
5.533981524e-07
5.525059065e-07
5.51774232e-07
5.511973216e-07
5.507564697e-07
5.504280865e-07
1.133408687e-05
1.144749476e-06
6.003147068e-07
5.787731427e-07
5.772713523e-07
5.762821953e-07
5.751449504e-07
5.738421738e-07
5.723798228e-07
5.70768588e-07
5.690236556e-07
5.671647992e-07
5.652172017e-07
5.632108496e-07
5.611799914e-07
5.591608404e-07
5.571934783e-07
5.553892918e-07
5.538864765e-07
5.526378933e-07
5.516031558e-07
5.507664902e-07
5.501108604e-07
5.496281514e-07
5.492902686e-07
5.490643989e-07
1.133416139e-05
1.143725411e-06
5.992562015e-07
5.77691052e-07
5.761598453e-07
5.751339075e-07
5.739528462e-07
5.726005555e-07
5.710829148e-07
5.694115519e-07
5.676025131e-07
5.656764681e-07
5.636586907e-07
5.615804271e-07
5.594756119e-07
5.573811053e-07
5.553366622e-07
5.535320186e-07
5.520637438e-07
5.508595037e-07
5.4991302e-07
5.49215159e-07
5.488004317e-07
5.485615215e-07
5.484081244e-07
5.483036577e-07
1.133423665e-05
1.142630515e-06
5.981246454e-07
5.76536116e-07
5.749763531e-07
5.739151726e-07
5.726932925e-07
5.712943803e-07
5.697268112e-07
5.680020117e-07
5.661371258e-07
5.641538896e-07
5.620780242e-07
5.599416213e-07
5.577782477e-07
5.556247388e-07
5.535233133e-07
5.517207216e-07
5.502927618e-07
5.492081841e-07
5.486116599e-07
5.483277592e-07
5.481466956e-07
5.480149487e-07
5.479222495e-07
5.478496612e-07
1.133431285e-05
1.141466924e-06
5.969217871e-07
5.753103281e-07
5.737230116e-07
5.726281318e-07
5.713672497e-07
5.699258672e-07
5.683126582e-07
5.665418132e-07
5.646301408e-07
5.626006922e-07
5.604803927e-07
5.583006774e-07
5.560956863e-07
5.539009367e-07
5.517552588e-07
5.499503419e-07
5.486954179e-07
5.482950504e-07
5.480656412e-07
5.479109578e-07
5.478000618e-07
5.477134556e-07
5.476458268e-07
5.475837357e-07
1.133439084e-05
1.140234447e-06
5.956473218e-07
5.740127262e-07
5.723979795e-07
5.712702513e-07
5.699722096e-07
5.684910309e-07
5.668373489e-07
5.650260928e-07
5.630770782e-07
5.610126274e-07
5.588610006e-07
5.566536301e-07
5.544241992e-07
5.522095347e-07
5.500679382e-07
5.485217138e-07
5.481438306e-07
5.479605412e-07
5.478178008e-07
5.477020029e-07
5.476045e-07
5.475222587e-07
5.474528066e-07
5.473858456e-07
1.133447231e-05
1.13893075e-06
5.942985281e-07
5.726397045e-07
5.709966068e-07
5.698353853e-07
5.685002765e-07
5.669809604e-07
5.652896534e-07
5.634439105e-07
5.614645474e-07
5.593753426e-07
5.572062291e-07
5.549879049e-07
5.527619861e-07
5.506328182e-07
5.489926883e-07
5.481259011e-07
5.47949669e-07
5.478000992e-07
5.476682201e-07
5.475525696e-07
5.474519831e-07
5.473646679e-07
5.472892338e-07
5.472155068e-07
1.133456015e-05
1.137551091e-06
5.928699117e-07
5.711843786e-07
5.69510155e-07
5.683126454e-07
5.669382379e-07
5.653790312e-07
5.636510812e-07
5.617742654e-07
5.597717999e-07
5.576694726e-07
5.554979083e-07
5.533065168e-07
5.512933711e-07
5.498113159e-07
5.486679905e-07
5.479868544e-07
5.478234222e-07
5.476762931e-07
5.475441661e-07
5.474264914e-07
5.473222409e-07
5.472303808e-07
5.47149247e-07
5.47069055e-07
1.133465766e-05
1.136086916e-06
5.913528579e-07
5.696363943e-07
5.679259784e-07
5.666868211e-07
5.652681719e-07
5.636658588e-07
5.618991189e-07
5.599919357e-07
5.579701037e-07
5.558650079e-07
5.537390956e-07
5.519255758e-07
5.505608284e-07
5.494368062e-07
5.485584012e-07
5.479282073e-07
5.477147893e-07
5.475710279e-07
5.47440721e-07
5.473233948e-07
5.472178058e-07
5.471227026e-07
5.470368646e-07
5.469507244e-07
1.133476887e-05
1.134533585e-06
5.897408607e-07
5.67986434e-07
5.66231526e-07
5.649411731e-07
5.63468151e-07
5.618132295e-07
5.5999986e-07
5.580570453e-07
5.560201713e-07
5.5396706e-07
5.52363601e-07
5.511053766e-07
5.50050006e-07
5.491858894e-07
5.484819891e-07
5.479490638e-07
5.476272553e-07
5.474856571e-07
5.473591646e-07
5.47243028e-07
5.471365812e-07
5.470389303e-07
5.469490222e-07
5.468573764e-07
1.1334898e-05
1.132880942e-06
5.880233874e-07
5.662214255e-07
5.644088705e-07
5.630519215e-07
5.615075527e-07
5.597820781e-07
5.579070323e-07
5.559264291e-07
5.539542639e-07
5.525013213e-07
5.513365384e-07
5.503721327e-07
5.495860664e-07
5.48938262e-07
5.484063253e-07
5.47971426e-07
5.476419763e-07
5.474197909e-07
5.472919463e-07
5.471791777e-07
5.470739325e-07
5.469754871e-07
5.468829736e-07
5.467870578e-07
1.133505034e-05
1.131120437e-06
5.861877455e-07
5.643241146e-07
5.624357262e-07
5.609902076e-07
5.593501794e-07
5.575313348e-07
5.555866518e-07
5.536813778e-07
5.523001071e-07
5.511930914e-07
5.503134603e-07
5.4962853e-07
5.490841289e-07
5.486478968e-07
5.482804427e-07
5.47960757e-07
5.476870033e-07
5.474578643e-07
5.472657258e-07
5.471294255e-07
5.470279288e-07
5.469309575e-07
5.468377907e-07
5.467393727e-07
1.133522973e-05
1.129242855e-06
5.842256258e-07
5.622831175e-07
5.602959112e-07
5.587344979e-07
5.569705009e-07
5.550460786e-07
5.531617955e-07
5.51785348e-07
5.506886953e-07
5.498535037e-07
5.492526981e-07
5.488302077e-07
5.485211221e-07
5.482787372e-07
5.480760436e-07
5.478910074e-07
5.477111648e-07
5.475300481e-07
5.473508859e-07
5.471760312e-07
5.470155068e-07
5.46902804e-07
5.468114254e-07
5.467127731e-07
1.133543886e-05
1.127253548e-06
5.821398114e-07
5.600974894e-07
5.579835364e-07
5.562765841e-07
5.543830931e-07
5.524843449e-07
5.510545685e-07
5.49919781e-07
5.490992445e-07
5.485662745e-07
5.482280303e-07
5.48030288e-07
5.479145701e-07
5.478440992e-07
5.477932457e-07
5.477430231e-07
5.476785133e-07
5.4758929e-07
5.474688136e-07
5.473187253e-07
5.471462745e-07
5.469652785e-07
5.468096557e-07
5.467045877e-07
1.13356786e-05
1.125161644e-06
5.7993914e-07
5.577771392e-07
5.555150006e-07
5.536691032e-07
5.517771447e-07
5.502763646e-07
5.490935655e-07
5.483260924e-07
5.479065634e-07
5.477107877e-07
5.475901067e-07
5.474954861e-07
5.474372773e-07
5.474272434e-07
5.47462931e-07
5.475167826e-07
5.475696681e-07
5.475943355e-07
5.475721258e-07
5.474932805e-07
5.473566995e-07
5.471746337e-07
5.469672314e-07
5.467583249e-07
1.13359458e-05
1.123002188e-06
5.776618766e-07
5.553724094e-07
5.529726142e-07
5.511392702e-07
5.496018767e-07
5.48482944e-07
5.479676869e-07
5.477530137e-07
5.475720171e-07
5.47429811e-07
5.473248213e-07
5.472494747e-07
5.471975792e-07
5.471625123e-07
5.47152789e-07
5.472414336e-07
5.473844184e-07
5.475281328e-07
5.476254149e-07
5.476485134e-07
5.475906348e-07
5.474529002e-07
5.472518e-07
5.469917372e-07
1.133623343e-05
1.120836291e-06
5.753791932e-07
5.529653657e-07
5.506425046e-07
5.491474796e-07
5.482268453e-07
5.479498648e-07
5.477046316e-07
5.474936936e-07
5.473257417e-07
5.472000494e-07
5.471106851e-07
5.470388731e-07
5.469896674e-07
5.469628042e-07
5.469571228e-07
5.46978444e-07
5.471484648e-07
5.473898529e-07
5.47614449e-07
5.477581376e-07
5.478017594e-07
5.477390076e-07
5.475732721e-07
1.13365303e-05
1.118736267e-06
5.732390711e-07
5.509555415e-07
5.489635664e-07
5.482826252e-07
5.480073842e-07
5.47743068e-07
5.475108815e-07
5.473283878e-07
5.47198712e-07
5.471074784e-07
5.470382281e-07
5.46936013e-07
5.468468436e-07
5.467964779e-07
5.467879712e-07
5.468075192e-07
5.469073347e-07
5.472013014e-07
5.475419832e-07
5.478101769e-07
5.479642137e-07
5.47989613e-07
5.478909954e-07
1.133682706e-05
1.117019493e-06
5.715949381e-07
5.496093057e-07
5.484213944e-07
5.481333018e-07
5.478629906e-07
5.476197509e-07
5.474341345e-07
5.473269153e-07
5.472896333e-07
5.472790462e-07
5.472579365e-07
5.47046866e-07
5.468400924e-07
5.467091541e-07
5.466582806e-07
5.466688773e-07
5.467177972e-07
5.47003248e-07
5.474267743e-07
5.478083547e-07
5.480660058e-07
5.481754162e-07
5.481419446e-07
1.133710819e-05
1.115782886e-06
5.706149379e-07
5.492733959e-07
5.483217815e-07
5.480390935e-07
5.477885824e-07
5.475900362e-07
5.474854012e-07
5.475008416e-07
5.476105142e-07
5.477316565e-07
5.477948752e-07
5.473774339e-07
5.469688598e-07
5.467044232e-07
5.465761075e-07
5.465589225e-07
5.466078529e-07
5.46829477e-07
5.473021617e-07
5.47769461e-07
5.481072937e-07
5.482809444e-07
5.482926844e-07
1.133736041e-05
1.115173425e-06
5.704324865e-07
5.492101775e-07
5.482613446e-07
5.479923518e-07
5.477753495e-07
5.476437052e-07
5.476556526e-07
5.478484838e-07
5.481794919e-07
5.484884065e-07
5.487539384e-07
5.479206395e-07
5.472405564e-07
5.467951854e-07
5.46564252e-07
5.465015471e-07
5.46538231e-07
5.467172507e-07
5.472049839e-07
5.477175241e-07
5.480927367e-07
5.482950758e-07
5.483305674e-07
5.482274004e-07
1.133763464e-05
1.115064205e-06
5.703840983e-07
5.491594074e-07
5.482135298e-07
5.479583504e-07
5.477786059e-07
5.477364506e-07
5.479440472e-07
5.485129192e-07
5.494205972e-07
5.504348998e-07
5.516173813e-07
5.49506376e-07
5.480238964e-07
5.471259709e-07
5.466513673e-07
5.464858597e-07
5.46490466e-07
5.466419433e-07
5.471355533e-07
5.476543734e-07
5.480187048e-07
5.482007075e-07
5.482161143e-07
5.480945845e-07
1.12450867e-05
9.958618655e-06
9.980233846e-06
9.981073602e-06
9.981134524e-06
9.981185229e-06
9.981246208e-06
9.981317536e-06
9.981398763e-06
9.981489405e-06
9.981588783e-06
9.981695974e-06
9.98180989e-06
9.981929225e-06
9.982052139e-06
9.982177e-06
9.982301527e-06
9.982423836e-06
9.982541907e-06
9.982654141e-06
9.982759474e-06
9.982857314e-06
9.982947511e-06
9.983030301e-06
9.983106042e-06
9.983213766e-06
1.132457494e-05
1.203802034e-06
6.723250034e-07
6.526637224e-07
6.519689799e-07
6.518521214e-07
6.517343918e-07
6.516014701e-07
6.514548659e-07
6.51296813e-07
6.511299238e-07
6.509571529e-07
6.50781641e-07
6.506066389e-07
6.504355765e-07
6.50271365e-07
6.501169067e-07
6.499742696e-07
6.498451537e-07
6.497306099e-07
6.496308763e-07
6.495458993e-07
6.494752038e-07
6.494181118e-07
6.493740605e-07
6.493312433e-07
1.133697097e-05
8.192497326e-07
1.909920051e-07
1.569983985e-07
1.550346463e-07
1.548489919e-07
1.547300283e-07
1.545992105e-07
1.544553961e-07
1.54300779e-07
1.54138032e-07
1.539702167e-07
1.538005342e-07
1.536323883e-07
1.534692399e-07
1.533141001e-07
1.531698705e-07
1.530384997e-07
1.529216691e-07
1.528202745e-07
1.52734638e-07
1.526645533e-07
1.526096693e-07
1.525693065e-07
1.525429582e-07
1.525257441e-07
1.133750353e-05
8.070812253e-07
1.686135073e-07
1.314499319e-07
1.29107458e-07
1.288896166e-07
1.287635032e-07
1.286259765e-07
1.284746308e-07
1.283116226e-07
1.281397004e-07
1.279620175e-07
1.277819997e-07
1.276033112e-07
1.274295724e-07
1.272641857e-07
1.271102916e-07
1.269701214e-07
1.268455219e-07
1.267374704e-07
1.266463467e-07
1.265719432e-07
1.265138514e-07
1.264713079e-07
1.264438147e-07
1.264279099e-07
1.133758076e-05
8.066845956e-07
1.675205948e-07
1.300506814e-07
1.276671605e-07
1.274421503e-07
1.273106834e-07
1.271671025e-07
1.270088226e-07
1.268380229e-07
1.266575387e-07
1.264706052e-07
1.262808226e-07
1.260921099e-07
1.259082879e-07
1.257332082e-07
1.255701248e-07
1.254216748e-07
1.252897674e-07
1.251754402e-07
1.250790488e-07
1.250003514e-07
1.249387871e-07
1.248935041e-07
1.248639164e-07
1.248466999e-07
1.133765621e-05
8.065835624e-07
1.673995357e-07
1.299072437e-07
1.275172503e-07
1.272872499e-07
1.271500694e-07
1.269998584e-07
1.268339911e-07
1.266546772e-07
1.264648082e-07
1.26267761e-07
1.260673808e-07
1.258677657e-07
1.256731238e-07
1.254875462e-07
1.253146036e-07
1.251571046e-07
1.250171525e-07
1.248958636e-07
1.247935979e-07
1.247101041e-07
1.246445641e-07
1.245959613e-07
1.245634235e-07
1.245438879e-07
1.133773982e-05
8.064768615e-07
1.673034125e-07
1.298052787e-07
1.274107505e-07
1.271756419e-07
1.270323741e-07
1.268750718e-07
1.267011623e-07
1.265128717e-07
1.263132055e-07
1.261056813e-07
1.258943202e-07
1.256834836e-07
1.254776906e-07
1.252812931e-07
1.250980475e-07
1.249310688e-07
1.247825527e-07
1.246541466e-07
1.245493632e-07
1.244644845e-07
1.243971874e-07
1.24345777e-07
1.243090123e-07
1.242841678e-07
1.133783033e-05
8.06358852e-07
1.671972736e-07
1.296936201e-07
1.272945306e-07
1.270542168e-07
1.269047854e-07
1.267403571e-07
1.26558384e-07
1.263612049e-07
1.261518728e-07
1.259341084e-07
1.257120749e-07
1.254904169e-07
1.252738158e-07
1.250668351e-07
1.248734883e-07
1.246971316e-07
1.24543323e-07
1.244177695e-07
1.243165135e-07
1.242344374e-07
1.241690499e-07
1.241183128e-07
1.240815422e-07
1.240556604e-07
1.133792606e-05
8.062310766e-07
1.670814232e-07
1.295718988e-07
1.27168281e-07
1.269228791e-07
1.26767467e-07
1.265961803e-07
1.2640652e-07
1.262009234e-07
1.259825766e-07
1.25755318e-07
1.255235337e-07
1.252920309e-07
1.250656419e-07
1.248490676e-07
1.24646543e-07
1.244637611e-07
1.24313825e-07
1.241943512e-07
1.24097595e-07
1.240200091e-07
1.239584885e-07
1.239124351e-07
1.238800017e-07
1.238583501e-07
1.13380253e-05
8.06095342e-07
1.669571092e-07
1.294413739e-07
1.270333071e-07
1.267830439e-07
1.26622e-07
1.264443397e-07
1.262476794e-07
1.260345608e-07
1.258083202e-07
1.255729075e-07
1.253328598e-07
1.250930779e-07
1.248585272e-07
1.246339148e-07
1.244234378e-07
1.242414036e-07
1.240973979e-07
1.239830528e-07
1.238919473e-07
1.238218136e-07
1.23769702e-07
1.237348274e-07
1.237143709e-07
1.237045363e-07
1.133812697e-05
8.059527639e-07
1.66825228e-07
1.293029709e-07
1.268906616e-07
1.266359255e-07
1.264697825e-07
1.262865126e-07
1.260838123e-07
1.258643807e-07
1.256316811e-07
1.253897938e-07
1.251433057e-07
1.248971984e-07
1.246564045e-07
1.244256064e-07
1.242094203e-07
1.240302423e-07
1.238917586e-07
1.237836703e-07
1.23704225e-07
1.236504985e-07
1.236240024e-07
1.236144505e-07
1.236138267e-07
1.23618059e-07
1.133823057e-05
8.058043699e-07
1.666866958e-07
1.291576345e-07
1.267413097e-07
1.264825324e-07
1.263119432e-07