/*--------------------------------*- C++ -*----------------------------------*\
  =========                 |
  \\      /  F ield         | OpenFOAM: The Open Source CFD Toolbox
   \\    /   O peration     | Website:  https://openfoam.org
    \\  /    A nd           | Version:  8
     \\/     M anipulation  |
\*---------------------------------------------------------------------------*/
FoamFile
{
    version     2.0;
    format      ascii;
    class       volScalarField;
    location    "0.2";
    object      htcConv;
}
// * * * * * * * * * * * * * * * * * * * * * * * * * * * * * * * * * * * * * //

dimensions      [1 0 -1 1 0 0 0];

internalField   uniform 0;

boundaryField
{
    walls
    {
        type            calculated;
        value           uniform 0;
    }
    region0_to_wallFilmRegion_wallFilmFace
    {
        type            convectiveHeatTransfer;
        L               1;
        value           nonuniform List<scalar> 
776
(
0.09740148092
0.1195524991
0.1440462314
0.1664253132
0.186440179
0.2044484174
0.2208082707
0.235813232
0.2497003897
0.2626637959
0.2748633715
0.2864292474
0.2974624545
0.3080327996
0.3181748471
0.3278825037
0.3371026983
0.3457283404
0.3535909232
0.3604535939
0.3660054373
0.3698582523
0.3715470872
0.3705358759
0.3662292444
0.3579905518
0.3451625127
0.3270816044
0.3030684436
0.2722913763
0.1171945276
0.1326167388
0.1528431302
0.1731152377
0.192029017
0.2094065955
0.2253751154
0.240118003
0.2538161479
0.2666336423
0.2787144424
0.2901806558
0.3011302547
0.3116331961
0.3217263985
0.3314075373
0.340628023
0.3492855299
0.3572162116
0.3641871683
0.369890278
0.3739385852
0.3758665901
0.3751361662
0.3711500294
0.363274245
0.350868972
0.3333259908
0.3101111463
0.2807241795
0.1395012798
0.1498693018
0.1651429808
0.1821849891
0.1990504841
0.2150672234
0.2300787001
0.2441093683
0.2572512129
0.2696183342
0.2813271518
0.2924859528
0.3031875595
0.3135024368
0.3234717164
0.3330996517
0.3423455366
0.3511152408
0.3592526321
0.3665310187
0.3726459184
0.3772105375
0.3797552899
0.3797340692
0.3765402304
0.3695362697
0.3581014894
0.3417099161
0.3199930089
0.2929101548
0.1599285997
0.1675583353
0.179294766
0.1934161194
0.208146937
0.2226142061
0.2364680389
0.2495983861
0.2620125015
0.2737737069
0.2849699639
0.2956958968
0.3060406226
0.3160777565
0.3258562027
0.3353909613
0.3446535297
0.3535621723
0.3619719313
0.3696645208
0.3763393927
0.3816073668
0.3849886034
0.3859182225
0.3837646133
0.3778666164
0.3676048558
0.3524714903
0.3322214874
0.3072415845
0.1779047045
0.1840296827
0.1934473321
0.205330961
0.2182158302
0.2312237086
0.2439149834
0.2560942403
0.26770672
0.2787761647
0.2893685683
0.2995695583
0.3094688538
0.3191475543
0.3286669395
0.3380575144
0.3473077901
0.3563526757
0.3650617272
0.3732268986
0.380550988
0.3866384829
0.3909906258
0.3930091046
0.3920155805
0.38730139
0.3781773776
0.3640671387
0.3448432832
0.3211951979
0.1935714309
0.1988232424
0.2067272363
0.2169961075
0.2284238353
0.2401908657
0.2518304828
0.2631025274
0.2739140607
0.2842634394
0.2942036544
0.3038180083
0.3132021489
0.3224496973
0.3316392649
0.3408218427
0.3500078172
0.3591533041
0.3681457949
0.3767892406
0.3847892575
0.39173973
0.397113665
0.4002634549
0.4004440102
0.3968505521
0.3886140577
0.375091723
0.3562347503
0.3329182317
0.2071153645
0.211843725
0.218755613
0.227891507
0.2382243777
0.2489977941
0.2597444267
0.2702033874
0.280260733
0.2899010093
0.2991724764
0.3081619857
0.316976182
0.3257257393
0.334510995
0.343407975
0.3524535753
0.3616296387
0.3708454338
0.3799192673
0.3885596589
0.3963467858
0.4027177371
0.4069617846
0.4082517923
0.4055634075
0.3978487204
0.3843829182
0.3651022934
0.3410151449
0.218671629
0.2230859119
0.2293521869
0.2377134733
0.2472549784
0.2572674018
0.2672891518
0.2770495266
0.2864236348
0.2953899943
0.3039977683
0.3123419085
0.3205435034
0.3287333203
0.3370366519
0.3455579996
0.3543646896
0.3634684864
0.3728046235
0.3822089907
0.3913945749
0.3999273977
0.4072047268
0.4124525559
0.4146661962
0.4125941171
0.4050222365
0.390992036
0.3704108734
0.3442760951
0.2283205104
0.2325561093
0.2384187088
0.2462745137
0.2552711841
0.2647269113
0.2741827735
0.2833619242
0.2921333247
0.300473817
0.3084370213
0.3161283146
0.3236848825
0.3312589429
0.3390019765
0.3470487457
0.3554995543
0.3643995342
0.3737139976
0.3833006888
0.392880846
0.4020080891
0.4100418615
0.4161238754
0.4190333409
0.4173109967
0.4094900248
0.3942382615
0.371426916
0.3416107055
0.2360989378
0.2402501112
0.2458879376
0.2534468189
0.2620999949
0.2711745356
0.2802082457
0.2889179324
0.2971684446
0.3049372607
0.3122840367
0.3193255072
0.3262148315
0.3331249165
0.3402326215
0.3477025091
0.3556685349
0.3642112753
0.3733296477
0.382908399
0.392681998
0.4021988547
0.4107923492
0.4174787138
0.4208545309
0.4192666852
0.4109092463
0.3938485664
0.3680349645
0.3323523528
0.2420122247
0.2461500551
0.2517042296
0.2591350602
0.2676129341
0.2764576264
0.2851971819
0.2935407043
0.3013497536
0.3086035444
0.3153687177
0.3217730011
0.3279841727
0.3341932822
0.3405994216
0.3473942946
0.3547437553
0.3627639083
0.3714898056
0.3808374837
0.3905616829
0.4002142886
0.4091133538
0.4161642133
0.419824487
0.4182595063
0.4093063593
0.3902121606
0.361298899
0.3172470301
0.2460437498
0.2502267262
0.2558165413
0.2632637582
0.2717120089
0.2804599554
0.289019949
0.2970921837
0.304535636
0.3113324336
0.3175565758
0.3233462715
0.3288816321
0.3343678817
0.3400215622
0.3460561323
0.3526653108
0.3599986983
0.3681279746
0.3770043135
0.3864104778
0.3959129255
0.4048315168
0.4120036257
0.4158165287
0.4143190843
0.4050733791
0.3845325013
0.3537391447
0.3012923267
0.2481634485
0.2524447227
0.2581793171
0.2657743761
0.2743251528
0.2830967775
0.2915816714
0.299470819
0.3066216536
0.3130207881
0.318750518
0.323958852
0.3288357865
0.3335962516
0.3384676132
0.3436783577
0.3494436776
0.3559421239
0.3632808694
0.3714493191
0.3802655928
0.3893270079
0.3979580184
0.405006364
0.4088832773
0.4076778875
0.3988866611
0.3786954102
0.3493420347
0.2944453367
0.2483358086
0.2527691114
0.258756579
0.2666273023
0.2754066228
0.2843156849
0.2928240173
0.300614008
0.3075438401
0.3136067091
0.3188946157
0.3235658043
0.327818154
0.3318711369
0.3359561671
0.3403086641
0.3451570982
0.3507030186
0.3570865048
0.3643363502
0.3723101034
0.3806402753
0.3886857888
0.3953370939
0.3989965418
0.3977839098
0.3897647408
0.3715982416
0.3443069448
0.2972421861
0.2465247891
0.2511700925
0.2575270047
0.2658073851
0.2749436918
0.2841029894
0.292731213
0.3005041092
0.3072832809
0.3130723999
0.3179771009
0.3221666534
0.325845099
0.3292315011
0.3325543503
0.336047637
0.3399445698
0.3444622528
0.3497690743
0.3559319179
0.3628526903
0.3702126331
0.3774275896
0.38346667
0.3869665343
0.3863761876
0.3797799265
0.3646855696
0.3415886906
0.3043694097
0.2427003138
0.2476313203
0.2544939514
0.2633343156
0.2729652989
0.2824922885
0.2913378266
0.2991734795
0.3058705267
0.3114501835
0.3160370277
0.3198109411
0.3229824431
0.3257643711
0.3283764427
0.331043471
0.3339947072
0.3374553327
0.3416165217
0.3465819644
0.3523068828
0.3585408837
0.364784617
0.3701473584
0.3735332764
0.3735345531
0.3684676565
0.356507069
0.3376642942
0.3088977566
0.2368392113
0.2421532805
0.2496912684
0.2592703381
0.2695527054
0.2795748368
0.2887372553
0.2967150463
0.3033979353
0.3088320604
0.3131669825
0.3166014322
0.3193462077
0.3216042108
0.3235810693
0.3254848649
0.3275334452
0.3299544896
0.3329552113
0.3366768615
0.3411347248
0.3461555304
0.3513288938
0.3559755729
0.3591386487
0.3595501587
0.3558152364
0.3465321631
0.3313699626
0.3087403589
0.2289243039
0.2347582324
0.2431954805
0.2537361458
0.2648536379
0.2755106864
0.2850947303
0.2932941328
0.3000271471
0.3053895334
0.3095587753
0.3127418882
0.3151441635
0.3169620539
0.3183842436
0.319599539
0.3208130456
0.3222482885
0.3241222593
0.326614033
0.3297985839
0.3335871403
0.3376760937
0.3415339765
0.344327774
0.3449620877
0.342277921
0.3350981908
0.3228795162
0.3047170191
0.2189393746
0.225494901
0.235137377
0.2469226314
0.2590920816
0.2705397717
0.2806570346
0.2891596875
0.2960371044
0.3014236718
0.3055078707
0.3085097722
0.3106400113
0.3120889915
0.3130306097
0.3136374575
0.3140998865
0.3146246891
0.3154407005
0.3167612029
0.3187177922
0.3213038963
0.3243200826
0.3273581279
0.3297105655
0.3304306598
0.3285339214
0.3230226902
0.3132722164
0.2987153826
0.2068516553
0.2144387097
0.2257161343
0.2391067552
0.2525802059
0.2649878336
0.2757516087
0.2846665052
0.2917877885
0.297268642
0.3013298714
0.304209304
0.3061251325
0.3072635464
0.3077871093
0.3078547754
0.3076408374
0.3073464845
0.307200079
0.3074368788
0.3082489718
0.3097092625
0.3117148701
0.3139754337
0.3158950124
0.3166661104
0.3154277786
0.3113123814
0.3037644944
0.2924679583
0.1925893323
0.2017060219
0.2152276628
0.2306695124
0.2457212793
0.2592545617
0.2707878991
0.2802178665
0.2876514422
0.2932857932
0.297373159
0.3001710374
0.3019070488
0.302768384
0.3029137763
0.3024928304
0.3016688571
0.3006361559
0.2996241174
0.2988876475
0.2986650211
0.299111884
0.3002220998
0.3017949536
0.3033745704
0.3042716859
0.3037374042
0.3010422771
0.2956673136
0.2874792097
0.1760029208
0.1874896169
0.2041126685
0.2221175435
0.2390070122
0.2538045534
0.2662008381
0.2762085301
0.2840041312
0.2898322805
0.2939756148
0.2967105446
0.2982764115
0.2988685138
0.2986478852
0.2977625787
0.2963715478
0.2946650278
0.2928754195
0.2912711201
0.2901360291
0.2897044494
0.2900667541
0.2911123858
0.2925017318
0.2937077518
0.2940486077
0.2928937151
0.2898332882
0.2847656552
0.1568046583
0.1721654255
0.1930388724
0.2140963151
0.2329922694
0.2491132524
0.2624006649
0.2730053694
0.2811810808
0.287218366
0.2914251485
0.2940941554
0.2954783457
0.2957844653
0.2951836905
0.2938307024
0.2918863847
0.2895426185
0.2870376938
0.2846571284
0.2827284599
0.2815592773
0.2813386331
0.2820642911
0.2834886272
0.28519816
0.2866358248
0.2872214924
0.2865782743
0.2845970765
0.1345225957
0.1565923847
0.1830155187
0.2073831218
0.2282551216
0.2456257376
0.2597440851
0.2709080737
0.279443562
0.2856769192
0.2899336033
0.2925168147
0.2936909865
0.2936772814
0.2926612852
0.2908105237
0.288296983
0.2853208696
0.2821318592
0.2790394289
0.2764122356
0.2746323793
0.2739947794
0.2746070463
0.2763425154
0.2787839634
0.2814493585
0.2839064945
0.2857509453
0.2867308171
0.1087495458
0.1427868882
0.1754431851
0.2028051147
0.2253189204
0.2437027703
0.2584980891
0.2701269628
0.2789630098
0.2853546719
0.2896321121
0.2921001363
0.2930305438
0.2926544999
0.291173906
0.2887748298
0.2856453972
0.282004715
0.278123664
0.2743434636
0.2710783685
0.2687885958
0.2678660065
0.2685213545
0.2707105716
0.2741220482
0.2782831969
0.2826534871
0.2867721578
0.2903375051
0.08343177426
0.1346443925
0.1718477924
0.2010530945
0.2245556087
0.2435668923
0.2588053612
0.2707561433
0.2798084345
0.2863076528
0.2905691961
0.2928940789
0.2935488227
0.2927677318
0.290767612
0.2877532456
0.2839384221
0.279569746
0.2749470766
0.2704546574
0.2665655388
0.2638123041
0.2626905995
0.2635133184
0.2890244297
0.294964557
)
;
    }
    region0_to_wallFilmRegion_mirrorFace
    {
        type            convectiveHeatTransfer;
        L               1;
        value           nonuniform List<scalar> 
703
(
2.705104688
2.819722353
2.950096054
3.11030483
3.267313134
3.363941927
3.357132917
3.246057224
3.169871052
3.187549373
3.077604396
3.208108162
3.361961874
3.521956141
3.682677208
3.871026207
4.262830522
3.738788512
3.522376191
3.414040762
3.324754057
3.338610159
3.420905777
3.489135649
3.526898877
3.522279219
3.890610235
3.470342529
3.337530149
3.255124559
0.9871628378
1.563296319
1.350486166
1.261920143
1.394323636
1.223747709
0.8945614955
1.168752993
1.068192919
0.6868613275
0.9857811983
0.86810681
0.6159305105
0.7805500782
0.6526451177
0.9571397392
0.5138679787
0.4627930701
1.283579621
1.877141922
1.288484925
1.539995858
1.883041539
2.289483543
0.8322707813
2.254456645
1.559831832
2.457669049
1.315460155
2.793290769
2.449531193
2.99009761
2.988913864
3.143684498
1.246195673
0.851594215
1.036584059
0.8899098988
0.8579850448
0.8159991319
0.8913387432
0.8136476686
0.8334381879
0.9025070174
0.7590141899
0.608007393
0.9103450058
0.5775707226
0.6296661441
1.001403629
0.7447014203
0.8174540042
1.152017482
0.8054131247
0.7912578418
1.346143276
0.8084155402
0.8344697707
1.594006408
0.8702950602
1.011672287
2.193692925
1.128521415
1.113654097
2.532972479
0.9974486773
0.9177342709
0.5732751659
0.8673692218
0.5143006169
0.416596466
0.5018655217
0.4025018374
0.5285759687
0.3574735213
0.3489196768
0.6081347994
0.3006106014
0.2683885334
0.6150797816
0.3513258482
0.3903060843
0.5879449019
0.434973931
0.4622446621
0.6087260745
0.478612771
0.4871541446
0.6807933033
0.5016854636
0.532441307
0.7613941265
0.5738116036
0.6275503881
0.623857473
0.6692511029
0.6585189359
0.4893492011
0.7220134676
0.415378455
0.3933376815
0.4859622814
0.2891858607
0.4639733709
0.3801543021
0.3146921345
0.5037967589
0.3822061652
0.3814746638
0.5240535031
0.4205286573
0.4307218105
0.5328584949
0.4493157177
0.4586415912
0.5494644439
0.4669112506
0.4713624052
0.5842587089
0.4750744011
0.4790668409
0.6013289318
0.4857153513
0.4830249265
0.9463505797
0.6216805067
0.4250500683
0.5598433054
0.4014184756
0.4548455412
0.4734799967
0.4193433829
0.4776151819
0.4590283188
0.4448588964
0.4950555077
0.4671978938
0.4667872243
0.5070095901
0.4786159125
0.4820903468
0.5176659876
0.4869338594
0.4874062629
0.5316951315
0.4873562558
0.4836476391
0.6986779693
1.460333835
0.8169763035
0.4254586087
0.629909242
0.43386448
0.461102329
0.5008871698
0.461144147
0.4789156729
0.481294299
0.4701685039
0.4941580888
0.4828165245
0.4807777872
0.5050444339
0.4895131204
0.4912220927
0.5081695688
0.4958826728
0.4928511463
1.946329162
2.1091468
2.095650448
1.973245484
2.110619839
2.13854453
1.974657526
2.167557227
2.189691276
1.969509382
2.206828542
2.222942867
1.992018413
2.263913892
2.301273626
2.011288325
2.347556215
2.340678217
1.994867275
2.310630005
2.270450612
2.011862796
2.248197292
2.242537346
2.06158582
2.255723232
2.297500077
2.297949763
2.395503695
2.592067515
3.020787819
2.879158339
3.148919119
1.206276465
1.208360675
1.174469883
1.044185386
1.158767766
1.12184122
0.9340458535
1.096404985
1.072420752
0.8248241284
1.044019699
0.9192680971
0.8264533203
0.8574847091
0.8969561938
2.263379748
2.342741846
2.443562199
2.533621858
2.654924657
2.699939624
2.60512376
2.533717563
2.575293431
2.829918078
2.479953098
2.682103924
2.762089271
2.83924031
2.911184459
2.941091381
2.891022574
2.854817574
2.843562436
1.063487504
1.01536139
0.7236516114
1.159499299
0.9588505175
1.188954279
1.216833464
1.305841365
1.35468336
1.033238974
1.308842896
1.152732091
1.135132078
1.21551255
1.368349761
2.757557496
2.88923876
2.945120901
2.882898285
3.021973215
3.092989805
3.027609987
3.192447163
3.327316918
3.371644544
3.622217921
3.651836568
3.302429182
3.692781206
3.198368934
3.166318093
3.379496033
3.344723066
3.22642815
3.3274118
3.320509309
1.291214293
1.081141172
1.214106027
1.474919466
1.411105742
1.442189416
1.293574791
1.439408476
1.424261478
1.581049065
1.549916534
1.659227584
3.222451942
3.22812463
3.284902028
3.301990551
3.369131853
3.440786729
3.43406941
3.601882598
4.330688544
3.904963382
4.883733044
3.504631939
3.429893982
3.380425687
3.377410248
3.336957632
1.423823991
1.91310944
1.630873777
1.268969938
1.549472883
1.669642537
1.457760402
1.763793578
1.869353929
2.235802397
3.265727478
3.237070626
2.845794053
3.115865886
1.877548386
2.804866364
1.881146913
2.246770537
1.751618718
1.28645024
1.816758929
1.628740419
1.661213323
1.404786176
1.763789725
2.006315056
1.802727519
1.843871492
1.828566533
2.093884834
1.848240846
1.808594519
1.830127233
2.021136689
1.811167478
2.807940873
2.031044118
1.529585899
1.295607355
0.9626099036
0.815149917
0.8875384115
0.912198529
0.9876331793
1.033274968
1.27469152
1.423371748
1.875457881
2.276674904
1.217315519
0.8927265196
0.4464800313
0.4709603599
0.5713089941
0.6186273058
0.6096209953
0.5840697043
0.6437731375
0.723321077
0.7055073991
0.7784605906
0.8747765759
0.5335755075
0.4756014065
0.4951140222
0.5210082797
0.5313841743
0.5385896139
0.5660773405
0.5982865112
0.6785928362
0.772210937
0.5906631216
0.5029050686
0.488499668
0.4958741142
0.5041654528
0.5122713694
0.5248742935
0.6721517685
1.186661172
0.5731288037
0.498611711
0.4895102729
0.4952517796
0.5035444808
0.5092097866
1.626550745
1.961672419
1.956103407
1.981189634
1.974507867
1.985902228
2.017903359
2.003426526
2.000918696
2.028705291
2.131333716
2.633241835
1.290137645
1.150488831
0.9890804053
0.9017980225
0.788471439
2.141451386
2.265842908
2.29312184
2.498860906
2.397399473
2.604737016
2.485784242
2.595846288
2.701700875
3.011460663
2.662416276
2.992935101
2.55886724
2.536144212
2.670002364
2.922822116
1.07094612
1.09862596
1.19211954
1.189865193
1.026387148
1.530653926
0.9704837619
1.457306221
1.408475681
1.406963227
1.869087358
1.617153674
1.376676895
1.337559752
1.550215975
3.062703896
3.408577765
3.378239229
3.246199467
3.21233619
3.353927406
3.18005755
3.119563865
2.951238888
2.698988582
3.137476533
2.812683521
3.137186735
2.840044662
2.848087901
2.962088291
3.489461412
3.163172915
2.995220161
2.841087432
2.714367083
2.601178331
2.143114725
2.310180079
2.390961167
3.060935114
3.54805377
3.157240519
2.899822324
2.678161441
2.635116203
2.594815392
2.452413251
2.406197788
2.36862286
3.260355717
3.582010225
2.521799435
1.79131045
2.580980922
2.317135285
1.842888479
1.842715279
1.785872309
1.843256783
1.983988967
1.561192375
1.83245362
1.839955874
1.439925112
1.677947682
1.505720752
1.659012789
1.862629364
1.854692265
1.532902019
1.75298023
1.461540538
1.093507954
1.825892773
1.820055205
1.695740994
1.796569651
1.09149442
1.285620939
1.824568509
1.828085875
2.052818929
1.830498755
1.5802476
1.777313046
1.835710012
1.840050198
1.926759664
1.8352478
1.802749989
1.869399611
1.844112343
1.849924328
1.977956956
1.847845697
2.061935316
2.194844775
1.861284674
1.867313013
1.549764384
1.834304483
2.279531677
2.378222713
1.868245273
1.882616392
2.392896906
1.867407846
2.569816322
2.821312009
1.901278904
2.001080484
2.844320799
2.584728697
3.012578986
3.564374205
2.279432411
2.7954112
2.47076959
2.544252211
2.97114418
3.016734415
2.86515013
3.011609212
3.167270847
3.249442675
3.33674885
3.422418692
3.501598874
3.569967125
3.587283728
3.506087921
3.434071914
3.125113305
3.769965416
3.98678789
3.613606189
3.458651148
3.497433838
3.558237542
3.617981435
3.685067249
3.775772451
3.925411786
4.280631257
3.794566444
3.617721614
3.295083877
3.380159538
3.287328504
3.308425307
3.458077322
3.330232736
3.346682788
3.512889179
3.347228413
3.525923387
3.31594021
3.61170927
3.075101963
3.696091529
2.400283527
3.092446571
3.391924923
3.147919206
3.291449924
3.226553028
3.094772948
3.078373965
3.274592613
3.450500095
3.271308984
3.226874721
3.202621049
3.146870523
3.197472153
3.098941217
3.051852751
3.157182204
3.005235315
2.959366915
3.053393859
2.903156272
2.828696693
2.775497338
2.744537935
2.431761041
2.793456389
2.356487091
2.450294781
2.829826447
2.514047559
2.559744003
2.844546679
2.590601134
2.614390219
2.856625229
2.637320689
2.666186796
3.263998255
3.520735533
3.264610222
3.075955953
3.1447716
3.033319149
2.914406497
2.920235946
2.800574086
2.782566789
2.692087781
2.621378476
2.642261525
2.545203696
2.4493105
2.190191509
2.369076861
2.166516996
2.240632469
2.161957001
2.216446253
2.357496243
2.257475069
2.281556842
2.420242248
2.297508412
2.316557831
3.283469249
3.554268022
3.304226394
3.031040547
3.195904929
3.094881879
2.770863377
2.998324345
2.915983168
2.65454365
2.860191593
2.829342925
2.616868147
2.838642582
2.866701886
2.497710754
2.872725046
2.816912808
2.427379612
2.758030728
2.700049266
2.385718121
2.644368357
2.592616703
2.360741007
2.54796669
2.514043311
3.403818136
)
;
    }
    procBoundary2to0
    {
        type            processor;
        value           uniform 0;
    }
    procBoundary2to1
    {
        type            processor;
        value           uniform 0;
    }
    procBoundary2to3
    {
        type            processor;
        value           uniform 0;
    }
}


// ************************************************************************* //
