/*--------------------------------*- C++ -*----------------------------------*\
  =========                 |
  \\      /  F ield         | OpenFOAM: The Open Source CFD Toolbox
   \\    /   O peration     | Website:  https://openfoam.org
    \\  /    A nd           | Version:  8
     \\/     M anipulation  |
\*---------------------------------------------------------------------------*/
FoamFile
{
    version     2.0;
    format      ascii;
    class       volScalarField;
    location    "0.2";
    object      p;
}
// * * * * * * * * * * * * * * * * * * * * * * * * * * * * * * * * * * * * * //

dimensions      [1 -1 -2 0 0 0 0];

internalField   nonuniform List<scalar> 
67410
(
100003.6498
100003.6501
100003.6506
100003.6513
100003.6522
100003.6534
100003.6548
100003.6563
100003.6581
100003.66
100003.6621
100003.6643
100003.6666
100003.6689
100003.6713
100003.6736
100003.6759
100003.6781
100003.6801
100003.6821
100003.6839
100003.6855
100003.6871
100003.6884
100003.6897
100003.6908
100003.6499
100003.6501
100003.6506
100003.6513
100003.6523
100003.6535
100003.6548
100003.6564
100003.6582
100003.6601
100003.6622
100003.6644
100003.6667
100003.6691
100003.6714
100003.6738
100003.6761
100003.6783
100003.6803
100003.6823
100003.6841
100003.6858
100003.6873
100003.6887
100003.6899
100003.6911
100003.65
100003.6503
100003.6507
100003.6515
100003.6524
100003.6536
100003.655
100003.6566
100003.6584
100003.6603
100003.6624
100003.6647
100003.667
100003.6694
100003.6717
100003.6741
100003.6764
100003.6787
100003.6808
100003.6827
100003.6846
100003.6862
100003.6878
100003.6892
100003.6905
100003.6916
100003.6502
100003.6505
100003.6509
100003.6517
100003.6526
100003.6538
100003.6552
100003.6568
100003.6586
100003.6606
100003.6627
100003.665
100003.6674
100003.6698
100003.6722
100003.6746
100003.677
100003.6792
100003.6814
100003.6834
100003.6852
100003.6869
100003.6885
100003.6899
100003.6912
100003.6924
100003.6505
100003.6507
100003.6512
100003.6519
100003.6529
100003.6541
100003.6555
100003.6571
100003.659
100003.661
100003.6631
100003.6654
100003.6678
100003.6703
100003.6727
100003.6752
100003.6776
100003.6799
100003.6821
100003.6841
100003.686
100003.6878
100003.6893
100003.6908
100003.6921
100003.6933
100003.6508
100003.651
100003.6515
100003.6522
100003.6532
100003.6544
100003.6558
100003.6575
100003.6593
100003.6614
100003.6636
100003.6659
100003.6683
100003.6708
100003.6734
100003.6759
100003.6783
100003.6807
100003.6829
100003.685
100003.6869
100003.6887
100003.6903
100003.6918
100003.6932
100003.6945
100003.6511
100003.6514
100003.6518
100003.6526
100003.6536
100003.6548
100003.6562
100003.6579
100003.6598
100003.6618
100003.6641
100003.6664
100003.6689
100003.6714
100003.674
100003.6766
100003.6791
100003.6815
100003.6837
100003.6859
100003.6878
100003.6896
100003.6913
100003.6929
100003.6943
100003.6957
100003.6515
100003.6518
100003.6523
100003.653
100003.654
100003.6552
100003.6567
100003.6584
100003.6602
100003.6623
100003.6646
100003.6669
100003.6694
100003.672
100003.6746
100003.6772
100003.6798
100003.6822
100003.6845
100003.6867
100003.6887
100003.6906
100003.6923
100003.6939
100003.6955
100003.6969
100003.652
100003.6522
100003.6527
100003.6535
100003.6545
100003.6557
100003.6572
100003.6588
100003.6607
100003.6628
100003.6651
100003.6675
100003.67
100003.6726
100003.6752
100003.6778
100003.6804
100003.6829
100003.6852
100003.6874
100003.6895
100003.6914
100003.6933
100003.695
100003.6966
100003.6982
100003.6525
100003.6528
100003.6533
100003.654
100003.655
100003.6562
100003.6577
100003.6593
100003.6612
100003.6633
100003.6656
100003.6679
100003.6705
100003.673
100003.6757
100003.6783
100003.6809
100003.6834
100003.6858
100003.688
100003.6902
100003.6922
100003.6941
100003.6959
100003.6977
100003.6994
100003.6531
100003.6534
100003.6539
100003.6546
100003.6556
100003.6568
100003.6582
100003.6599
100003.6618
100003.6638
100003.666
100003.6684
100003.6709
100003.6735
100003.6761
100003.6787
100003.6813
100003.6838
100003.6862
100003.6885
100003.6907
100003.6928
100003.6948
100003.6967
100003.6986
100003.7005
100003.6538
100003.6541
100003.6545
100003.6553
100003.6562
100003.6574
100003.6588
100003.6605
100003.6623
100003.6643
100003.6665
100003.6689
100003.6713
100003.6738
100003.6764
100003.679
100003.6816
100003.684
100003.6865
100003.6888
100003.691
100003.6932
100003.6953
100003.6973
100003.6994
100003.7014
100003.6546
100003.6548
100003.6553
100003.656
100003.657
100003.6581
100003.6595
100003.6611
100003.6629
100003.6649
100003.667
100003.6693
100003.6717
100003.6742
100003.6767
100003.6792
100003.6817
100003.6842
100003.6866
100003.6889
100003.6912
100003.6934
100003.6956
100003.6978
100003.7
100003.7022
100003.6555
100003.6557
100003.6562
100003.6569
100003.6578
100003.6589
100003.6603
100003.6618
100003.6636
100003.6655
100003.6676
100003.6698
100003.6721
100003.6745
100003.6769
100003.6794
100003.6818
100003.6842
100003.6866
100003.6889
100003.6912
100003.6935
100003.6958
100003.6981
100003.7004
100003.7028
100003.6564
100003.6567
100003.6571
100003.6578
100003.6587
100003.6598
100003.6612
100003.6627
100003.6644
100003.6662
100003.6682
100003.6703
100003.6725
100003.6748
100003.6771
100003.6795
100003.6818
100003.6842
100003.6865
100003.6888
100003.6911
100003.6934
100003.6958
100003.6982
100003.7007
100003.7032
100003.6576
100003.6578
100003.6582
100003.6589
100003.6598
100003.6609
100003.6622
100003.6636
100003.6652
100003.667
100003.6689
100003.6709
100003.673
100003.6752
100003.6774
100003.6796
100003.6819
100003.6841
100003.6864
100003.6886
100003.6909
100003.6933
100003.6956
100003.6981
100003.7007
100003.7034
100003.6589
100003.6591
100003.6595
100003.6602
100003.661
100003.6621
100003.6633
100003.6647
100003.6663
100003.668
100003.6698
100003.6716
100003.6736
100003.6756
100003.6777
100003.6798
100003.6819
100003.684
100003.6862
100003.6884
100003.6906
100003.6929
100003.6953
100003.6979
100003.7005
100003.7033
100003.6603
100003.6605
100003.661
100003.6616
100003.6625
100003.6635
100003.6647
100003.6661
100003.6676
100003.6691
100003.6708
100003.6726
100003.6744
100003.6762
100003.6781
100003.68
100003.682
100003.684
100003.686
100003.6881
100003.6903
100003.6925
100003.6949
100003.6975
100003.7002
100003.703
100003.662
100003.6622
100003.6626
100003.6633
100003.6641
100003.6652
100003.6663
100003.6677
100003.6691
100003.6706
100003.6721
100003.6737
100003.6754
100003.677
100003.6787
100003.6804
100003.6822
100003.684
100003.6858
100003.6878
100003.6899
100003.6921
100003.6944
100003.6969
100003.6996
100003.7025
100003.6639
100003.6641
100003.6645
100003.6652
100003.6661
100003.6671
100003.6683
100003.6696
100003.671
100003.6724
100003.6738
100003.6752
100003.6767
100003.6781
100003.6795
100003.681
100003.6825
100003.6841
100003.6858
100003.6875
100003.6895
100003.6916
100003.6938
100003.6963
100003.6989
100003.7018
100003.666
100003.6662
100003.6667
100003.6674
100003.6683
100003.6694
100003.6706
100003.6719
100003.6732
100003.6746
100003.6759
100003.6772
100003.6784
100003.6795
100003.6807
100003.6818
100003.683
100003.6843
100003.6858
100003.6874
100003.6891
100003.6911
100003.6932
100003.6956
100003.6982
100003.701
100003.6683
100003.6686
100003.6691
100003.6699
100003.6708
100003.672
100003.6732
100003.6746
100003.676
100003.6773
100003.6785
100003.6796
100003.6805
100003.6814
100003.6822
100003.6829
100003.6838
100003.6848
100003.686
100003.6873
100003.6888
100003.6906
100003.6926
100003.6949
100003.6973
100003.7001
100003.6709
100003.6712
100003.6718
100003.6726
100003.6737
100003.6749
100003.6763
100003.6778
100003.6792
100003.6806
100003.6817
100003.6826
100003.6833
100003.6837
100003.6841
100003.6844
100003.6849
100003.6855
100003.6863
100003.6874
100003.6887
100003.6903
100003.6921
100003.6942
100003.6966
100003.6991
100003.6737
100003.674
100003.6746
100003.6756
100003.6768
100003.6782
100003.6798
100003.6815
100003.6831
100003.6845
100003.6856
100003.6863
100003.6867
100003.6867
100003.6865
100003.6864
100003.6863
100003.6865
100003.6869
100003.6877
100003.6887
100003.6901
100003.6917
100003.6937
100003.6959
100003.6983
100003.6766
100003.6769
100003.6777
100003.6788
100003.6802
100003.6819
100003.6837
100003.6856
100003.6874
100003.689
100003.6902
100003.6908
100003.6908
100003.6903
100003.6895
100003.6887
100003.6881
100003.6877
100003.6877
100003.6881
100003.6889
100003.69
100003.6915
100003.6933
100003.6953
100003.6795
100003.68
100003.6808
100003.6821
100003.6837
100003.6857
100003.6879
100003.6901
100003.6923
100003.6941
100003.6954
100003.6959
100003.6956
100003.6944
100003.6929
100003.6914
100003.6901
100003.6892
100003.6888
100003.6888
100003.6893
100003.6902
100003.6915
100003.6931
100003.695
100003.6825
100003.6829
100003.6839
100003.6854
100003.6873
100003.6895
100003.6921
100003.6948
100003.6974
100003.6996
100003.701
100003.7015
100003.7008
100003.6989
100003.6967
100003.6944
100003.6924
100003.6909
100003.69
100003.6896
100003.6898
100003.6905
100003.6917
100003.6932
100003.695
100003.6852
100003.6858
100003.6869
100003.6885
100003.6906
100003.6932
100003.6961
100003.6992
100003.7023
100003.7049
100003.7067
100003.7071
100003.7062
100003.7034
100003.7004
100003.6973
100003.6947
100003.6926
100003.6912
100003.6906
100003.6906
100003.6911
100003.6921
100003.6935
100003.6953
100003.6877
100003.6883
100003.6895
100003.6912
100003.6935
100003.6963
100003.6995
100003.703
100003.7064
100003.7093
100003.7112
100003.7115
100003.7103
100003.7069
100003.7034
100003.6997
100003.6966
100003.6941
100003.6924
100003.6916
100003.6914
100003.6919
100003.6928
100003.6942
100003.6959
100003.698
100003.6898
100003.6904
100003.6916
100003.6934
100003.6957
100003.6986
100003.702
100003.7057
100003.7095
100003.7132
100003.716
100003.717
100003.7162
100003.7113
100003.7066
100003.7021
100003.6982
100003.6954
100003.6935
100003.6926
100003.6924
100003.6928
100003.6938
100003.6952
100003.697
100003.699
100003.529
100003.5292
100003.5297
100003.5304
100003.5314
100003.5325
100003.5339
100003.5355
100003.5373
100003.5393
100003.5414
100003.5436
100003.5459
100003.5483
100003.5506
100003.553
100003.5553
100003.5575
100003.5596
100003.5615
100003.5633
100003.565
100003.5665
100003.5678
100003.5691
100003.5702
100003.529
100003.5293
100003.5298
100003.5305
100003.5314
100003.5326
100003.534
100003.5356
100003.5374
100003.5394
100003.5415
100003.5437
100003.546
100003.5484
100003.5508
100003.5532
100003.5555
100003.5577
100003.5598
100003.5618
100003.5636
100003.5652
100003.5667
100003.5681
100003.5693
100003.5705
100003.5292
100003.5294
100003.5299
100003.5306
100003.5316
100003.5327
100003.5342
100003.5358
100003.5376
100003.5396
100003.5417
100003.544
100003.5463
100003.5487
100003.5512
100003.5536
100003.5559
100003.5582
100003.5603
100003.5623
100003.5641
100003.5657
100003.5673
100003.5686
100003.5699
100003.571
100003.5293
100003.5296
100003.5301
100003.5308
100003.5318
100003.533
100003.5344
100003.536
100003.5378
100003.5399
100003.542
100003.5443
100003.5467
100003.5492
100003.5516
100003.5541
100003.5565
100003.5588
100003.5609
100003.5629
100003.5648
100003.5665
100003.568
100003.5694
100003.5706
100003.5718
100003.5296
100003.5298
100003.5303
100003.531
100003.532
100003.5332
100003.5347
100003.5363
100003.5382
100003.5402
100003.5424
100003.5448
100003.5472
100003.5497
100003.5522
100003.5547
100003.5572
100003.5595
100003.5617
100003.5638
100003.5657
100003.5674
100003.5689
100003.5703
100003.5716
100003.5728
100003.5299
100003.5301
100003.5306
100003.5314
100003.5323
100003.5336
100003.535
100003.5367
100003.5386
100003.5406
100003.5429
100003.5453
100003.5478
100003.5503
100003.5529
100003.5555
100003.558
100003.5604
100003.5626
100003.5647
100003.5666
100003.5684
100003.5699
100003.5714
100003.5727
100003.574
100003.5302
100003.5305
100003.531
100003.5317
100003.5327
100003.5339
100003.5354
100003.5371
100003.539
100003.5411
100003.5434
100003.5458
100003.5483
100003.5509
100003.5536
100003.5562
100003.5588
100003.5612
100003.5635
100003.5656
100003.5676
100003.5694
100003.571
100003.5725
100003.5739
100003.5752
100003.5306
100003.5309
100003.5314
100003.5321
100003.5331
100003.5344
100003.5359
100003.5376
100003.5395
100003.5416
100003.5439
100003.5463
100003.5489
100003.5515
100003.5542
100003.5569
100003.5595
100003.562
100003.5643
100003.5665
100003.5685
100003.5704
100003.5721
100003.5736
100003.5751
100003.5765
100003.5311
100003.5314
100003.5319
100003.5326
100003.5336
100003.5349
100003.5363
100003.538
100003.54
100003.5421
100003.5444
100003.5469
100003.5494
100003.5521
100003.5548
100003.5575
100003.5601
100003.5627
100003.5651
100003.5673
100003.5694
100003.5713
100003.573
100003.5747
100003.5763
100003.5778
100003.5316
100003.5319
100003.5324
100003.5331
100003.5341
100003.5354
100003.5368
100003.5386
100003.5405
100003.5426
100003.5449
100003.5473
100003.5499
100003.5526
100003.5553
100003.558
100003.5607
100003.5632
100003.5656
100003.5679
100003.57
100003.572
100003.5739
100003.5756
100003.5773
100003.579
100003.5322
100003.5325
100003.533
100003.5337
100003.5347
100003.5359
100003.5374
100003.5391
100003.541
100003.5431
100003.5454
100003.5478
100003.5504
100003.553
100003.5557
100003.5584
100003.561
100003.5636
100003.566
100003.5683
100003.5705
100003.5726
100003.5745
100003.5764
100003.5783
100003.5801
100003.5329
100003.5332
100003.5336
100003.5344
100003.5354
100003.5366
100003.538
100003.5397
100003.5415
100003.5436
100003.5459
100003.5482
100003.5508
100003.5533
100003.556
100003.5586
100003.5613
100003.5638
100003.5662
100003.5686
100003.5708
100003.5729
100003.575
100003.577
100003.5791
100003.5811
100003.5337
100003.5339
100003.5344
100003.5351
100003.5361
100003.5373
100003.5387
100003.5403
100003.5421
100003.5442
100003.5463
100003.5487
100003.5511
100003.5536
100003.5562
100003.5588
100003.5614
100003.5639
100003.5663
100003.5687
100003.5709
100003.5731
100003.5753
100003.5775
100003.5796
100003.5819
100003.5345
100003.5348
100003.5352
100003.5359
100003.5369
100003.538
100003.5394
100003.541
100003.5428
100003.5447
100003.5469
100003.5491
100003.5515
100003.5539
100003.5564
100003.5589
100003.5614
100003.5639
100003.5663
100003.5686
100003.5709
100003.5732
100003.5754
100003.5777
100003.58
100003.5825
100003.5355
100003.5357
100003.5362
100003.5369
100003.5378
100003.5389
100003.5403
100003.5418
100003.5435
100003.5454
100003.5474
100003.5496
100003.5518
100003.5542
100003.5566
100003.559
100003.5614
100003.5638
100003.5661
100003.5684
100003.5707
100003.573
100003.5754
100003.5778
100003.5802
100003.5828
100003.5366
100003.5368
100003.5373
100003.538
100003.5389
100003.54
100003.5412
100003.5427
100003.5444
100003.5462
100003.5481
100003.5502
100003.5523
100003.5545
100003.5568
100003.559
100003.5613
100003.5636
100003.5659
100003.5682
100003.5705
100003.5728
100003.5752
100003.5776
100003.5802
100003.583
100003.5379
100003.5381
100003.5385
100003.5392
100003.5401
100003.5411
100003.5424
100003.5438
100003.5454
100003.5471
100003.5489
100003.5508
100003.5528
100003.5549
100003.557
100003.5591
100003.5613
100003.5635
100003.5656
100003.5679
100003.5701
100003.5724
100003.5748
100003.5773
100003.58
100003.5829
100003.5393
100003.5395
100003.54
100003.5406
100003.5415
100003.5425
100003.5437
100003.5451
100003.5466
100003.5482
100003.5499
100003.5517
100003.5536
100003.5554
100003.5574
100003.5593
100003.5613
100003.5633
100003.5654
100003.5675
100003.5697
100003.5719
100003.5743
100003.5769
100003.5796
100003.5825
100003.541
100003.5412
100003.5416
100003.5423
100003.5431
100003.5442
100003.5453
100003.5467
100003.5481
100003.5496
100003.5512
100003.5528
100003.5545
100003.5562
100003.5579
100003.5596
100003.5614
100003.5632
100003.5651
100003.5671
100003.5692
100003.5714
100003.5737
100003.5763
100003.579
100003.5819
100003.5428
100003.5431
100003.5435
100003.5442
100003.545
100003.5461
100003.5473
100003.5486
100003.5499
100003.5514
100003.5528
100003.5543
100003.5557
100003.5572
100003.5586
100003.5601
100003.5616
100003.5633
100003.5649
100003.5668
100003.5687
100003.5708
100003.5731
100003.5755
100003.5782
100003.5812
100003.5449
100003.5452
100003.5456
100003.5463
100003.5472
100003.5483
100003.5495
100003.5508
100003.5522
100003.5536
100003.5549
100003.5562
100003.5574
100003.5585
100003.5597
100003.5609
100003.5621
100003.5634
100003.5649
100003.5665
100003.5682
100003.5702
100003.5724
100003.5747
100003.5774
100003.5802
100003.5472
100003.5475
100003.548
100003.5488
100003.5497
100003.5509
100003.5522
100003.5536
100003.5549
100003.5563
100003.5575
100003.5586
100003.5595
100003.5604
100003.5611
100003.5619
100003.5628
100003.5638
100003.5649
100003.5663
100003.5679
100003.5697
100003.5717
100003.5739
100003.5765
100003.5792
100003.5498
100003.5501
100003.5507
100003.5515
100003.5526
100003.5539
100003.5553
100003.5568
100003.5583
100003.5596
100003.5608
100003.5617
100003.5623
100003.5627
100003.563
100003.5634
100003.5638
100003.5644
100003.5652
100003.5663
100003.5676
100003.5692
100003.5711
100003.5732
100003.5756
100003.5782
100003.5526
100003.5529
100003.5536
100003.5545
100003.5558
100003.5572
100003.5589
100003.5606
100003.5622
100003.5637
100003.5648
100003.5655
100003.5658
100003.5657
100003.5655
100003.5652
100003.5651
100003.5653
100003.5657
100003.5665
100003.5675
100003.5689
100003.5706
100003.5725
100003.5748
100003.5772
100003.5555
100003.5559
100003.5566
100003.5578
100003.5592
100003.5609
100003.5629
100003.5649
100003.5668
100003.5685
100003.5697
100003.5703
100003.5702
100003.5694
100003.5685
100003.5676
100003.5669
100003.5665
100003.5665
100003.5669
100003.5676
100003.5688
100003.5703
100003.5721
100003.5741
100003.5585
100003.559
100003.5598
100003.5611
100003.5629
100003.5649
100003.5672
100003.5697
100003.572
100003.5741
100003.5755
100003.576
100003.5756
100003.5739
100003.5721
100003.5704
100003.569
100003.5679
100003.5675
100003.5675
100003.5679
100003.5689
100003.5702
100003.5718
100003.5738
100003.5615
100003.562
100003.563
100003.5645
100003.5665
100003.569
100003.5717
100003.5747
100003.5776
100003.5802
100003.5819
100003.5824
100003.5816
100003.5789
100003.5762
100003.5735
100003.5713
100003.5696
100003.5686
100003.5682
100003.5684
100003.5692
100003.5703
100003.5718
100003.5737
100003.5644
100003.5649
100003.5661
100003.5678
100003.57
100003.5728
100003.5761
100003.5796
100003.5832
100003.5865
100003.5888
100003.5895
100003.5886
100003.5845
100003.5806
100003.5768
100003.5737
100003.5713
100003.5699
100003.5691
100003.5691
100003.5697
100003.5707
100003.5721
100003.5739
100003.5669
100003.5675
100003.5688
100003.5706
100003.5731
100003.5762
100003.5798
100003.5837
100003.5877
100003.5912
100003.5935
100003.5937
100003.5922
100003.5875
100003.5833
100003.5791
100003.5755
100003.5728
100003.571
100003.5701
100003.5699
100003.5704
100003.5714
100003.5728
100003.5745
100003.5766
100003.5691
100003.5697
100003.571
100003.5729
100003.5755
100003.5788
100003.5827
100003.5874
100003.5927
100003.5982
100003.603
100003.6049
100003.6046
100003.5958
100003.5894
100003.583
100003.578
100003.5745
100003.5722
100003.5711
100003.5708
100003.5713
100003.5723
100003.5738
100003.5756
100003.5776
100003.4079
100003.4081
100003.4086
100003.4093
100003.4103
100003.4115
100003.4129
100003.4146
100003.4164
100003.4184
100003.4205
100003.4228
100003.4252
100003.4276
100003.4301
100003.4325
100003.4348
100003.4371
100003.4392
100003.4411
100003.4429
100003.4445
100003.446
100003.4473
100003.4485
100003.4495
100003.4079
100003.4082
100003.4087
100003.4094
100003.4104
100003.4116
100003.413
100003.4146
100003.4165
100003.4185
100003.4207
100003.423
100003.4253
100003.4278
100003.4303
100003.4327
100003.4351
100003.4373
100003.4395
100003.4414
100003.4432
100003.4448
100003.4463
100003.4476
100003.4488
100003.4498
100003.4081
100003.4083
100003.4088
100003.4095
100003.4105
100003.4117
100003.4132
100003.4148
100003.4167
100003.4187
100003.4209
100003.4232
100003.4257
100003.4281
100003.4307
100003.4331
100003.4355
100003.4378
100003.44
100003.442
100003.4438
100003.4454
100003.4469
100003.4482
100003.4494
100003.4504
100003.4082
100003.4085
100003.409
100003.4097
100003.4107
100003.4119
100003.4134
100003.4151
100003.4169
100003.419
100003.4212
100003.4236
100003.4261
100003.4286
100003.4312
100003.4337
100003.4362
100003.4386
100003.4408
100003.4428
100003.4446
100003.4462
100003.4477
100003.449
100003.4502
100003.4513
100003.4085
100003.4087
100003.4092
100003.41
100003.411
100003.4122
100003.4137
100003.4154
100003.4173
100003.4194
100003.4217
100003.4241
100003.4266
100003.4293
100003.4319
100003.4345
100003.437
100003.4394
100003.4417
100003.4438
100003.4456
100003.4473
100003.4487
100003.4501
100003.4513
100003.4524
100003.4088
100003.409
100003.4095
100003.4103
100003.4113
100003.4126
100003.414
100003.4158
100003.4177
100003.4198
100003.4222
100003.4247
100003.4272
100003.4299
100003.4326
100003.4353
100003.4379
100003.4404
100003.4427
100003.4448
100003.4467
100003.4484
100003.4499
100003.4512
100003.4525
100003.4536
100003.4091
100003.4094
100003.4099
100003.4107
100003.4117
100003.4129
100003.4144
100003.4162
100003.4182
100003.4203
100003.4227
100003.4252
100003.4279
100003.4306
100003.4334
100003.4362
100003.4388
100003.4414
100003.4438
100003.4459
100003.4478
100003.4496
100003.4511
100003.4525
100003.4538
100003.455
100003.4095
100003.4098
100003.4103
100003.4111
100003.4121
100003.4134
100003.4149
100003.4166
100003.4186
100003.4208
100003.4232
100003.4258
100003.4285
100003.4313
100003.4341
100003.4369
100003.4397
100003.4423
100003.4447
100003.4469
100003.4489
100003.4506
100003.4522
100003.4537
100003.4551
100003.4564
100003.41
100003.4103
100003.4108
100003.4115
100003.4126
100003.4138
100003.4154
100003.4171
100003.4191
100003.4213
100003.4237
100003.4263
100003.429
100003.4319
100003.4347
100003.4376
100003.4404
100003.443
100003.4455
100003.4478
100003.4498
100003.4516
100003.4533
100003.4548
100003.4563
100003.4577
100003.4105
100003.4108
100003.4113
100003.4121
100003.4131
100003.4144
100003.4159
100003.4176
100003.4196
100003.4218
100003.4242
100003.4268
100003.4295
100003.4324
100003.4352
100003.4381
100003.4409
100003.4436
100003.4461
100003.4484
100003.4505
100003.4524
100003.4541
100003.4558
100003.4574
100003.459
100003.4111
100003.4114
100003.4119
100003.4126
100003.4136
100003.4149
100003.4164
100003.4182
100003.4201
100003.4223
100003.4247
100003.4273
100003.4299
100003.4327
100003.4356
100003.4384
100003.4412
100003.4439
100003.4464
100003.4487
100003.4509
100003.4529
100003.4547
100003.4566
100003.4583
100003.4601
100003.4118
100003.412
100003.4125
100003.4133
100003.4143
100003.4155
100003.417
100003.4187
100003.4207
100003.4228
100003.4252
100003.4277
100003.4303
100003.433
100003.4358
100003.4386
100003.4414
100003.444
100003.4465
100003.4489
100003.4511
100003.4532
100003.4552
100003.4571
100003.4591
100003.4611
100003.4125
100003.4127
100003.4132
100003.414
100003.415
100003.4162
100003.4176
100003.4193
100003.4212
100003.4233
100003.4256
100003.428
100003.4306
100003.4333
100003.436
100003.4387
100003.4414
100003.444
100003.4465
100003.4488
100003.4511
100003.4533
100003.4554
100003.4575
100003.4596
100003.4618
100003.4133
100003.4136
100003.4141
100003.4148
100003.4157
100003.4169
100003.4184
100003.42
100003.4218
100003.4239
100003.4261
100003.4284
100003.4309
100003.4335
100003.4361
100003.4387
100003.4413
100003.4438
100003.4463
100003.4486
100003.4509
100003.4532
100003.4554
100003.4576
100003.46
100003.4624
100003.4143
100003.4145
100003.415
100003.4157
100003.4166
100003.4178
100003.4192
100003.4207
100003.4225
100003.4245
100003.4266
100003.4288
100003.4312
100003.4336
100003.4361
100003.4387
100003.4411
100003.4436
100003.446
100003.4483
100003.4506
100003.4529
100003.4552
100003.4576
100003.4601
100003.4627
100003.4154
100003.4156
100003.416
100003.4167
100003.4176
100003.4188
100003.4201
100003.4216
100003.4233
100003.4252
100003.4272
100003.4293
100003.4316
100003.4339
100003.4362
100003.4386
100003.441
100003.4433
100003.4456
100003.4479
100003.4502
100003.4525
100003.4549
100003.4574
100003.46
100003.4628
100003.4166
100003.4168
100003.4173
100003.4179
100003.4188
100003.4199
100003.4212
100003.4226
100003.4243
100003.426
100003.4279
100003.4299
100003.432
100003.4342
100003.4364
100003.4386
100003.4408
100003.443
100003.4452
100003.4475
100003.4497
100003.452
100003.4544
100003.4569
100003.4597
100003.4626
100003.418
100003.4182
100003.4186
100003.4193
100003.4202
100003.4212
100003.4225
100003.4239
100003.4254
100003.4271
100003.4288
100003.4307
100003.4326
100003.4346
100003.4366
100003.4386
100003.4407
100003.4427
100003.4448
100003.4469
100003.4491
100003.4514
100003.4538
100003.4563
100003.4591
100003.4621
100003.4196
100003.4198
100003.4202
100003.4209
100003.4218
100003.4228
100003.424
100003.4254
100003.4268
100003.4284
100003.43
100003.4317
100003.4334
100003.4352
100003.4369
100003.4387
100003.4406
100003.4425
100003.4444
100003.4464
100003.4485
100003.4507
100003.453
100003.4556
100003.4584
100003.4614
100003.4214
100003.4216
100003.4221
100003.4227
100003.4236
100003.4247
100003.4259
100003.4272
100003.4286
100003.4301
100003.4316
100003.4331
100003.4345
100003.436
100003.4375
100003.4391
100003.4406
100003.4423
100003.444
100003.4458
100003.4478
100003.4499
100003.4522
100003.4547
100003.4574
100003.4605
100003.4235
100003.4237
100003.4242
100003.4249
100003.4258
100003.4268
100003.4281
100003.4294
100003.4308
100003.4322
100003.4335
100003.4348
100003.4361
100003.4373
100003.4384
100003.4396
100003.4409
100003.4423
100003.4437
100003.4454
100003.4472
100003.4491
100003.4513
100003.4537
100003.4564
100003.4594
100003.4257
100003.426
100003.4265
100003.4273
100003.4283
100003.4294
100003.4307
100003.4321
100003.4335
100003.4349
100003.4361
100003.4372
100003.4382
100003.439
100003.4397
100003.4405
100003.4414
100003.4424
100003.4436
100003.445
100003.4466
100003.4484
100003.4505
100003.4527
100003.4553
100003.4581
100003.4283
100003.4286
100003.4292
100003.43
100003.4311
100003.4324
100003.4339
100003.4354
100003.4369
100003.4383
100003.4395
100003.4404
100003.441
100003.4413
100003.4415
100003.4418
100003.4422
100003.4428
100003.4437
100003.4448
100003.4461
100003.4478
100003.4497
100003.4518
100003.4542
100003.4569
100003.4311
100003.4314
100003.4321
100003.433
100003.4343
100003.4358
100003.4375
100003.4393
100003.4411
100003.4426
100003.4438
100003.4445
100003.4447
100003.4444
100003.4439
100003.4436
100003.4434
100003.4435
100003.444
100003.4448
100003.4459
100003.4473
100003.449
100003.451
100003.4533
100003.4558
100003.434
100003.4344
100003.4352
100003.4364
100003.4379
100003.4397
100003.4418
100003.4439
100003.4461
100003.448
100003.4493
100003.4499
100003.4497
100003.4483
100003.4471
100003.4459
100003.4451
100003.4446
100003.4446
100003.445
100003.4458
100003.447
100003.4485
100003.4503
100003.4525
100003.4371
100003.4376
100003.4385
100003.4399
100003.4417
100003.4439
100003.4465
100003.4492
100003.452
100003.4545
100003.4562
100003.4566
100003.456
100003.4534
100003.4511
100003.4489
100003.4471
100003.446
100003.4454
100003.4454
100003.4459
100003.4469
100003.4482
100003.4499
100003.4519
100003.4402
100003.4408
100003.4418
100003.4435
100003.4457
100003.4483
100003.4515
100003.455
100003.4587
100003.462
100003.4644
100003.4648
100003.4638
100003.4593
100003.4558
100003.4523
100003.4495
100003.4475
100003.4464
100003.446
100003.4463
100003.447
100003.4483
100003.4498
100003.4517
100003.4432
100003.4438
100003.4451
100003.447
100003.4495
100003.4527
100003.4565
100003.461
100003.4659
100003.4709
100003.4751
100003.4765
100003.4761
100003.4681
100003.4624
100003.4567
100003.4524
100003.4494
100003.4477
100003.4469
100003.4468
100003.4474
100003.4485
100003.45
100003.4518
100003.446
100003.4467
100003.448
100003.4501
100003.4529
100003.4565
100003.4608
100003.4656
100003.4706
100003.4751
100003.4782
100003.478
100003.4759
100003.4679
100003.4628
100003.4575
100003.4534
100003.4505
100003.4486
100003.4477
100003.4475
100003.4481
100003.4491
100003.4506
100003.4524
100003.4544
100003.4484
100003.4491
100003.4505
100003.4527
100003.4557
100003.4598
100003.4652
100003.4723
100003.4812
100003.4913
100003.5016
100003.5065
100003.5074
100003.4871
100003.4772
100003.4663
100003.4585
100003.4533
100003.4503
100003.4488
100003.4485
100003.4489
100003.45
100003.4515
100003.4534
100003.4554
100003.2866
100003.2868
100003.2873
100003.2881
100003.2891
100003.2903
100003.2917
100003.2934
100003.2953
100003.2974
100003.2996
100003.302
100003.3044
100003.307
100003.3095
100003.312
100003.3144
100003.3167
100003.3189
100003.3208
100003.3226
100003.3242
100003.3256
100003.3268
100003.3279
100003.3288
100003.2866
100003.2869
100003.2874
100003.2881
100003.2891
100003.2904
100003.2918
100003.2935
100003.2954
100003.2975
100003.2997
100003.3021
100003.3046
100003.3072
100003.3097
100003.3123
100003.3147
100003.3171
100003.3192
100003.3212
100003.323
100003.3245
100003.3259
100003.3271
100003.3282
100003.3292
100003.2868
100003.287
100003.2875
100003.2883
100003.2893
100003.2905
100003.292
100003.2937
100003.2956
100003.2977
100003.3
100003.3024
100003.305
100003.3076
100003.3102
100003.3128
100003.3153
100003.3177
100003.3199
100003.3219
100003.3237
100003.3252
100003.3266
100003.3278
100003.3289
100003.3299
100003.2869
100003.2872
100003.2877
100003.2885
100003.2895
100003.2907
100003.2922
100003.294
100003.2959
100003.2981
100003.3004
100003.3029
100003.3055
100003.3082
100003.3109
100003.3136
100003.3161
100003.3186
100003.3208
100003.3229
100003.3247
100003.3262
100003.3276
100003.3288
100003.3299
100003.3308
100003.2872
100003.2874
100003.2879
100003.2887
100003.2897
100003.291
100003.2925
100003.2943
100003.2963
100003.2985
100003.3009
100003.3034
100003.3061
100003.3089
100003.3117
100003.3145
100003.3172
100003.3197
100003.322
100003.3241
100003.3259
100003.3275
100003.3288
100003.33
100003.3311
100003.3321
100003.2875
100003.2877
100003.2882
100003.289
100003.2901