/*--------------------------------*- C++ -*----------------------------------*\
  =========                 |
  \\      /  F ield         | OpenFOAM: The Open Source CFD Toolbox
   \\    /   O peration     | Website:  https://openfoam.org
    \\  /    A nd           | Version:  8
     \\/     M anipulation  |
\*---------------------------------------------------------------------------*/
FoamFile
{
    version     2.0;
    format      ascii;
    class       volScalarField;
    location    "0.2";
    object      p_rgh;
}
// * * * * * * * * * * * * * * * * * * * * * * * * * * * * * * * * * * * * * //

dimensions      [1 -1 -2 0 0 0 0];

internalField   nonuniform List<scalar> 
67410
(
100003.7102
100003.7104
100003.7109
100003.7116
100003.7126
100003.7137
100003.7151
100003.7167
100003.7185
100003.7204
100003.7225
100003.7247
100003.7269
100003.7293
100003.7316
100003.7339
100003.7362
100003.7384
100003.7405
100003.7424
100003.7442
100003.7459
100003.7474
100003.7488
100003.75
100003.7512
100003.7102
100003.7105
100003.711
100003.7117
100003.7126
100003.7138
100003.7152
100003.7168
100003.7185
100003.7205
100003.7226
100003.7248
100003.7271
100003.7294
100003.7318
100003.7341
100003.7364
100003.7386
100003.7407
100003.7426
100003.7445
100003.7461
100003.7476
100003.749
100003.7503
100003.7514
100003.7104
100003.7106
100003.7111
100003.7118
100003.7128
100003.7139
100003.7153
100003.7169
100003.7187
100003.7207
100003.7228
100003.725
100003.7273
100003.7297
100003.7321
100003.7345
100003.7368
100003.739
100003.7411
100003.7431
100003.7449
100003.7466
100003.7481
100003.7495
100003.7508
100003.752
100003.7106
100003.7108
100003.7113
100003.712
100003.713
100003.7141
100003.7155
100003.7172
100003.719
100003.721
100003.7231
100003.7253
100003.7277
100003.7301
100003.7325
100003.7349
100003.7373
100003.7396
100003.7417
100003.7437
100003.7456
100003.7473
100003.7488
100003.7502
100003.7515
100003.7527
100003.7108
100003.711
100003.7115
100003.7122
100003.7132
100003.7144
100003.7158
100003.7175
100003.7193
100003.7213
100003.7235
100003.7258
100003.7282
100003.7306
100003.7331
100003.7355
100003.7379
100003.7403
100003.7424
100003.7445
100003.7464
100003.7481
100003.7497
100003.7511
100003.7525
100003.7537
100003.7111
100003.7113
100003.7118
100003.7126
100003.7135
100003.7147
100003.7162
100003.7178
100003.7197
100003.7217
100003.7239
100003.7262
100003.7287
100003.7312
100003.7337
100003.7362
100003.7387
100003.741
100003.7432
100003.7453
100003.7473
100003.749
100003.7506
100003.7521
100003.7535
100003.7548
100003.7115
100003.7117
100003.7122
100003.7129
100003.7139
100003.7151
100003.7166
100003.7182
100003.7201
100003.7222
100003.7244
100003.7268
100003.7292
100003.7318
100003.7343
100003.7369
100003.7394
100003.7418
100003.7441
100003.7462
100003.7482
100003.75
100003.7517
100003.7532
100003.7547
100003.756
100003.7119
100003.7121
100003.7126
100003.7133
100003.7143
100003.7156
100003.717
100003.7187
100003.7206
100003.7227
100003.7249
100003.7273
100003.7298
100003.7324
100003.735
100003.7376
100003.7401
100003.7425
100003.7449
100003.747
100003.7491
100003.7509
100003.7527
100003.7543
100003.7558
100003.7573
100003.7123
100003.7126
100003.7131
100003.7138
100003.7148
100003.716
100003.7175
100003.7192
100003.7211
100003.7231
100003.7254
100003.7278
100003.7303
100003.7329
100003.7355
100003.7381
100003.7407
100003.7432
100003.7456
100003.7478
100003.7499
100003.7518
100003.7536
100003.7553
100003.7569
100003.7585
100003.7129
100003.7131
100003.7136
100003.7144
100003.7153
100003.7166
100003.718
100003.7197
100003.7216
100003.7236
100003.7259
100003.7283
100003.7308
100003.7334
100003.736
100003.7386
100003.7412
100003.7437
100003.7461
100003.7484
100003.7505
100003.7525
100003.7544
100003.7562
100003.758
100003.7597
100003.7135
100003.7137
100003.7142
100003.7149
100003.7159
100003.7171
100003.7186
100003.7202
100003.7221
100003.7242
100003.7264
100003.7288
100003.7312
100003.7338
100003.7364
100003.739
100003.7416
100003.7441
100003.7465
100003.7488
100003.751
100003.7531
100003.7551
100003.757
100003.7589
100003.7608
100003.7142
100003.7144
100003.7149
100003.7156
100003.7166
100003.7178
100003.7192
100003.7208
100003.7227
100003.7247
100003.7269
100003.7292
100003.7317
100003.7342
100003.7368
100003.7393
100003.7419
100003.7444
100003.7468
100003.7491
100003.7514
100003.7535
100003.7556
100003.7577
100003.7597
100003.7618
100003.7149
100003.7152
100003.7156
100003.7164
100003.7173
100003.7185
100003.7199
100003.7215
100003.7233
100003.7252
100003.7274
100003.7297
100003.732
100003.7345
100003.737
100003.7395
100003.7421
100003.7445
100003.7469
100003.7493
100003.7515
100003.7538
100003.756
100003.7581
100003.7603
100003.7626
100003.7158
100003.716
100003.7165
100003.7172
100003.7181
100003.7193
100003.7206
100003.7222
100003.7239
100003.7259
100003.7279
100003.7301
100003.7324
100003.7348
100003.7372
100003.7397
100003.7421
100003.7446
100003.7469
100003.7493
100003.7516
100003.7538
100003.7561
100003.7584
100003.7608
100003.7632
100003.7168
100003.717
100003.7175
100003.7182
100003.7191
100003.7202
100003.7215
100003.723
100003.7247
100003.7265
100003.7285
100003.7306
100003.7329
100003.7351
100003.7375
100003.7398
100003.7422
100003.7445
100003.7469
100003.7492
100003.7515
100003.7538
100003.7561
100003.7585
100003.761
100003.7635
100003.7179
100003.7181
100003.7186
100003.7192
100003.7201
100003.7212
100003.7225
100003.724
100003.7256
100003.7274
100003.7292
100003.7313
100003.7333
100003.7355
100003.7377
100003.7399
100003.7422
100003.7445
100003.7467
100003.749
100003.7513
100003.7536
100003.756
100003.7585
100003.761
100003.7637
100003.7192
100003.7194
100003.7199
100003.7205
100003.7214
100003.7224
100003.7237
100003.7251
100003.7266
100003.7283
100003.7301
100003.732
100003.7339
100003.736
100003.738
100003.7401
100003.7422
100003.7444
100003.7465
100003.7487
100003.751
100003.7533
100003.7557
100003.7582
100003.7609
100003.7637
100003.7207
100003.7209
100003.7213
100003.722
100003.7228
100003.7238
100003.7251
100003.7264
100003.7279
100003.7295
100003.7312
100003.7329
100003.7347
100003.7366
100003.7384
100003.7404
100003.7423
100003.7443
100003.7463
100003.7484
100003.7506
100003.7529
100003.7553
100003.7578
100003.7605
100003.7634
100003.7223
100003.7225
100003.723
100003.7236
100003.7245
100003.7255
100003.7267
100003.728
100003.7294
100003.7309
100003.7325
100003.7341
100003.7357
100003.7374
100003.739
100003.7407
100003.7425
100003.7443
100003.7462
100003.7481
100003.7502
100003.7524
100003.7548
100003.7573
100003.76
100003.7629
100003.7242
100003.7244
100003.7249
100003.7255
100003.7264
100003.7274
100003.7286
100003.7299
100003.7313
100003.7327
100003.7342
100003.7356
100003.737
100003.7384
100003.7399
100003.7413
100003.7428
100003.7444
100003.7461
100003.7479
100003.7498
100003.7519
100003.7542
100003.7566
100003.7593
100003.7622
100003.7263
100003.7266
100003.727
100003.7277
100003.7286
100003.7297
100003.7309
100003.7322
100003.7336
100003.7349
100003.7362
100003.7375
100003.7387
100003.7399
100003.741
100003.7421
100003.7434
100003.7447
100003.7461
100003.7477
100003.7495
100003.7514
100003.7536
100003.7559
100003.7585
100003.7613
100003.7287
100003.7289
100003.7294
100003.7302
100003.7312
100003.7323
100003.7336
100003.7349
100003.7363
100003.7376
100003.7388
100003.7399
100003.7409
100003.7417
100003.7425
100003.7433
100003.7441
100003.7451
100003.7463
100003.7476
100003.7492
100003.751
100003.753
100003.7552
100003.7577
100003.7604
100003.7312
100003.7315
100003.7321
100003.7329
100003.734
100003.7353
100003.7367
100003.7381
100003.7396
100003.7409
100003.742
100003.743
100003.7436
100003.7441
100003.7444
100003.7448
100003.7452
100003.7458
100003.7467
100003.7477
100003.749
100003.7506
100003.7524
100003.7545
100003.7569
100003.7595
100003.734
100003.7343
100003.735
100003.7359
100003.7371
100003.7386
100003.7402
100003.7418
100003.7434
100003.7448
100003.7459
100003.7467
100003.747
100003.747
100003.7469
100003.7467
100003.7466
100003.7468
100003.7473
100003.748
100003.749
100003.7504
100003.7521
100003.754
100003.7562
100003.7586
100003.7369
100003.7373
100003.738
100003.7391
100003.7405
100003.7422
100003.7441
100003.746
100003.7478
100003.7494
100003.7505
100003.7511
100003.7511
100003.7506
100003.7498
100003.749
100003.7484
100003.7481
100003.7481
100003.7485
100003.7492
100003.7504
100003.7518
100003.7536
100003.7557
100003.7399
100003.7403
100003.7412
100003.7424
100003.7441
100003.746
100003.7482
100003.7505
100003.7526
100003.7545
100003.7557
100003.7562
100003.7559
100003.7547
100003.7532
100003.7518
100003.7505
100003.7496
100003.7491
100003.7491
100003.7496
100003.7505
100003.7518
100003.7534
100003.7553
100003.7428
100003.7433
100003.7443
100003.7457
100003.7476
100003.7499
100003.7524
100003.7551
100003.7577
100003.7599
100003.7614
100003.7618
100003.7611
100003.7592
100003.757
100003.7547
100003.7527
100003.7512
100003.7503
100003.75
100003.7502
100003.7509
100003.752
100003.7535
100003.7553
100003.7456
100003.7461
100003.7472
100003.7488
100003.7509
100003.7535
100003.7564
100003.7596
100003.7626
100003.7652
100003.767
100003.7674
100003.7665
100003.7638
100003.7608
100003.7577
100003.755
100003.7529
100003.7516
100003.7509
100003.7509
100003.7514
100003.7525
100003.7539
100003.7556
100003.7481
100003.7486
100003.7498
100003.7515
100003.7538
100003.7566
100003.7599
100003.7633
100003.7667
100003.7696
100003.7716
100003.7719
100003.7707
100003.7673
100003.7637
100003.7601
100003.7569
100003.7544
100003.7528
100003.7519
100003.7518
100003.7522
100003.7532
100003.7545
100003.7563
100003.7583
100003.7501
100003.7507
100003.7519
100003.7537
100003.7561
100003.7589
100003.7623
100003.766
100003.7699
100003.7735
100003.7764
100003.7773
100003.7765
100003.7716
100003.767
100003.7624
100003.7586
100003.7557
100003.7539
100003.7529
100003.7527
100003.7531
100003.7541
100003.7555
100003.7573
100003.7594
100003.71
100003.7102
100003.7107
100003.7114
100003.7124
100003.7136
100003.7149
100003.7165
100003.7183
100003.7203
100003.7224
100003.7246
100003.7269
100003.7293
100003.7317
100003.734
100003.7363
100003.7385
100003.7406
100003.7426
100003.7444
100003.746
100003.7475
100003.7489
100003.7501
100003.7512
100003.71
100003.7103
100003.7108
100003.7115
100003.7124
100003.7136
100003.715
100003.7166
100003.7184
100003.7204
100003.7225
100003.7247
100003.7271
100003.7294
100003.7318
100003.7342
100003.7365
100003.7387
100003.7408
100003.7428
100003.7446
100003.7463
100003.7478
100003.7491
100003.7504
100003.7515
100003.7102
100003.7104
100003.7109
100003.7116
100003.7126
100003.7138
100003.7152
100003.7168
100003.7186
100003.7206
100003.7227
100003.725
100003.7273
100003.7297
100003.7322
100003.7346
100003.7369
100003.7392
100003.7413
100003.7433
100003.7451
100003.7468
100003.7483
100003.7496
100003.7509
100003.752
100003.7104
100003.7106
100003.7111
100003.7118
100003.7128
100003.714
100003.7154
100003.717
100003.7189
100003.7209
100003.723
100003.7253
100003.7277
100003.7302
100003.7327
100003.7351
100003.7375
100003.7398
100003.742
100003.744
100003.7458
100003.7475
100003.749
100003.7504
100003.7517
100003.7528
100003.7106
100003.7108
100003.7113
100003.7121
100003.713
100003.7143
100003.7157
100003.7173
100003.7192
100003.7212
100003.7234
100003.7258
100003.7282
100003.7307
100003.7333
100003.7358
100003.7382
100003.7405
100003.7427
100003.7448
100003.7467
100003.7484
100003.7499
100003.7513
100003.7526
100003.7538
100003.7109
100003.7111
100003.7116
100003.7124
100003.7134
100003.7146
100003.716
100003.7177
100003.7196
100003.7217
100003.7239
100003.7263
100003.7288
100003.7313
100003.7339
100003.7365
100003.739
100003.7414
100003.7436
100003.7457
100003.7476
100003.7494
100003.751
100003.7524
100003.7537
100003.755
100003.7112
100003.7115
100003.712
100003.7127
100003.7137
100003.715
100003.7164
100003.7181
100003.72
100003.7221
100003.7244
100003.7268
100003.7293
100003.7319
100003.7346
100003.7372
100003.7398
100003.7422
100003.7445
100003.7467
100003.7486
100003.7504
100003.752
100003.7535
100003.7549
100003.7562
100003.7117
100003.7119
100003.7124
100003.7132
100003.7142
100003.7154
100003.7169
100003.7186
100003.7205
100003.7226
100003.7249
100003.7274
100003.7299
100003.7326
100003.7352
100003.7379
100003.7405
100003.743
100003.7454
100003.7475
100003.7496
100003.7514
100003.7531
100003.7546
100003.7561
100003.7575
100003.7121
100003.7124
100003.7129
100003.7136
100003.7146
100003.7159
100003.7174
100003.7191
100003.721
100003.7231
100003.7254
100003.7279
100003.7305
100003.7331
100003.7358
100003.7385
100003.7412
100003.7437
100003.7461
100003.7483
100003.7504
100003.7523
100003.754
100003.7557
100003.7573
100003.7588
100003.7127
100003.7129
100003.7134
100003.7142
100003.7151
100003.7164
100003.7179
100003.7196
100003.7215
100003.7236
100003.7259
100003.7284
100003.7309
100003.7336
100003.7363
100003.739
100003.7417
100003.7442
100003.7467
100003.7489
100003.751
100003.753
100003.7549
100003.7566
100003.7584
100003.76
100003.7133
100003.7135
100003.714
100003.7147
100003.7157
100003.717
100003.7184
100003.7201
100003.722
100003.7241
100003.7264
100003.7288
100003.7314
100003.734
100003.7367
100003.7394
100003.742
100003.7446
100003.747
100003.7494
100003.7515
100003.7536
100003.7555
100003.7574
100003.7593
100003.7611
100003.7139
100003.7142
100003.7147
100003.7154
100003.7164
100003.7176
100003.719
100003.7207
100003.7226
100003.7246
100003.7269
100003.7293
100003.7318
100003.7344
100003.737
100003.7397
100003.7423
100003.7448
100003.7473
100003.7496
100003.7518
100003.754
100003.756
100003.7581
100003.7601
100003.7621
100003.7147
100003.7149
100003.7154
100003.7161
100003.7171
100003.7183
100003.7197
100003.7213
100003.7232
100003.7252
100003.7274
100003.7297
100003.7321
100003.7347
100003.7372
100003.7398
100003.7424
100003.7449
100003.7473
100003.7497
100003.7519
100003.7542
100003.7563
100003.7585
100003.7607
100003.7629
100003.7155
100003.7158
100003.7162
100003.717
100003.7179
100003.7191
100003.7204
100003.722
100003.7238
100003.7258
100003.7279
100003.7301
100003.7325
100003.7349
100003.7374
100003.7399
100003.7424
100003.7449
100003.7473
100003.7496
100003.7519
100003.7542
100003.7564
100003.7587
100003.7611
100003.7635
100003.7165
100003.7167
100003.7172
100003.7179
100003.7188
100003.7199
100003.7213
100003.7228
100003.7245
100003.7264
100003.7285
100003.7306
100003.7329
100003.7352
100003.7376
100003.74
100003.7424
100003.7448
100003.7471
100003.7495
100003.7518
100003.7541
100003.7564
100003.7588
100003.7613
100003.7638
100003.7176
100003.7179
100003.7183
100003.719
100003.7199
100003.721
100003.7223
100003.7237
100003.7254
100003.7272
100003.7291
100003.7312
100003.7333
100003.7355
100003.7378
100003.7401
100003.7424
100003.7446
100003.7469
100003.7492
100003.7515
100003.7538
100003.7562
100003.7587
100003.7612
100003.764
100003.7189
100003.7191
100003.7196
100003.7202
100003.7211
100003.7222
100003.7234
100003.7248
100003.7264
100003.7281
100003.7299
100003.7319
100003.7339
100003.7359
100003.738
100003.7402
100003.7423
100003.7445
100003.7467
100003.7489
100003.7511
100003.7534
100003.7558
100003.7584
100003.761
100003.7639
100003.7203
100003.7206
100003.721
100003.7216
100003.7225
100003.7235
100003.7248
100003.7261
100003.7276
100003.7293
100003.731
100003.7327
100003.7346
100003.7365
100003.7384
100003.7403
100003.7423
100003.7443
100003.7464
100003.7485
100003.7507
100003.7529
100003.7553
100003.7579
100003.7606
100003.7635
100003.722
100003.7222
100003.7226
100003.7233
100003.7241
100003.7252
100003.7264
100003.7277
100003.7291
100003.7307
100003.7322
100003.7339
100003.7355
100003.7372
100003.7389
100003.7406
100003.7424
100003.7443
100003.7462
100003.7481
100003.7502
100003.7524
100003.7547
100003.7573
100003.76
100003.7629
100003.7238
100003.7241
100003.7245
100003.7252
100003.726
100003.7271
100003.7283
100003.7296
100003.731
100003.7324
100003.7339
100003.7353
100003.7368
100003.7382
100003.7397
100003.7411
100003.7427
100003.7443
100003.746
100003.7478
100003.7497
100003.7518
100003.7541
100003.7566
100003.7592
100003.7622
100003.7259
100003.7262
100003.7266
100003.7273
100003.7282
100003.7293
100003.7305
100003.7318
100003.7332
100003.7346
100003.7359
100003.7372
100003.7384
100003.7396
100003.7407
100003.7419
100003.7431
100003.7444
100003.7459
100003.7475
100003.7493
100003.7512
100003.7534
100003.7558
100003.7584
100003.7612
100003.7283
100003.7285
100003.729
100003.7298
100003.7308
100003.7319
100003.7332
100003.7346
100003.736
100003.7373
100003.7385
100003.7396
100003.7406
100003.7414
100003.7421
100003.7429
100003.7438
100003.7448
100003.746
100003.7473
100003.7489
100003.7507
100003.7527
100003.755
100003.7575
100003.7602
100003.7308
100003.7311
100003.7317
100003.7325
100003.7336
100003.7349
100003.7363
100003.7378
100003.7393
100003.7406
100003.7418
100003.7427
100003.7433
100003.7438
100003.7441
100003.7444
100003.7448
100003.7454
100003.7462
100003.7473
100003.7486
100003.7502
100003.7521
100003.7542
100003.7566
100003.7592
100003.7336
100003.7339
100003.7346
100003.7355
100003.7368
100003.7383
100003.7399
100003.7416
100003.7432
100003.7447
100003.7458
100003.7466
100003.7469
100003.7468
100003.7465
100003.7462
100003.7462
100003.7463
100003.7467
100003.7475
100003.7486
100003.7499
100003.7516
100003.7536
100003.7558
100003.7583
100003.7365
100003.7369
100003.7377
100003.7388
100003.7402
100003.742
100003.7439
100003.7459
100003.7478
100003.7495
100003.7507
100003.7513
100003.7513
100003.7505
100003.7495
100003.7486
100003.7479
100003.7475
100003.7475
100003.7479
100003.7487
100003.7498
100003.7513
100003.7531
100003.7552
100003.7395
100003.74
100003.7409
100003.7422
100003.7439
100003.7459
100003.7482
100003.7507
100003.753
100003.7551
100003.7565
100003.757
100003.7566
100003.7549
100003.7532
100003.7514
100003.75
100003.749
100003.7485
100003.7485
100003.749
100003.7499
100003.7512
100003.7528
100003.7548
100003.7425
100003.743
100003.744
100003.7456
100003.7475
100003.75
100003.7527
100003.7557
100003.7586
100003.7612
100003.763
100003.7634
100003.7626
100003.76
100003.7573
100003.7546
100003.7523
100003.7506
100003.7496
100003.7493
100003.7495
100003.7502
100003.7513
100003.7528
100003.7547
100003.7454
100003.7459
100003.7471
100003.7488
100003.7511
100003.7538
100003.7571
100003.7606
100003.7642
100003.7675
100003.7698
100003.7705
100003.7696
100003.7655
100003.7617
100003.7579
100003.7547
100003.7524
100003.7509
100003.7502
100003.7501
100003.7507
100003.7517
100003.7532
100003.7549
100003.7479
100003.7486
100003.7498
100003.7517
100003.7541
100003.7572
100003.7608
100003.7648
100003.7687
100003.7722
100003.7746
100003.7747
100003.7733
100003.7685
100003.7643
100003.7601
100003.7565
100003.7538
100003.752
100003.7511
100003.7509
100003.7514
100003.7524
100003.7538
100003.7556
100003.7576
100003.7501
100003.7507
100003.752
100003.7539
100003.7565
100003.7598
100003.7637
100003.7684
100003.7737
100003.7792
100003.784
100003.7859
100003.7856
100003.7768
100003.7704
100003.764
100003.759
100003.7555
100003.7532
100003.7521
100003.7519
100003.7523
100003.7533
100003.7548
100003.7566
100003.7586
100003.7096
100003.7098
100003.7103
100003.711
100003.712
100003.7132
100003.7146
100003.7162
100003.7181
100003.7201
100003.7222
100003.7245
100003.7269
100003.7293
100003.7318
100003.7342
100003.7365
100003.7388
100003.7409
100003.7428
100003.7446
100003.7462
100003.7477
100003.749
100003.7502
100003.7512
100003.7096
100003.7099
100003.7104
100003.7111
100003.7121
100003.7133
100003.7147
100003.7163
100003.7182
100003.7202
100003.7224
100003.7247
100003.727
100003.7295
100003.732
100003.7344
100003.7368
100003.739
100003.7412
100003.7431
100003.7449
100003.7465
100003.748
100003.7493
100003.7505
100003.7515
100003.7098
100003.71
100003.7105
100003.7112
100003.7122
100003.7134
100003.7149
100003.7165
100003.7184
100003.7204
100003.7226
100003.7249
100003.7274
100003.7298
100003.7323
100003.7348
100003.7372
100003.7395
100003.7417
100003.7437
100003.7455
100003.7471
100003.7486
100003.7499
100003.7511
100003.7521
100003.7099
100003.7102
100003.7107
100003.7114
100003.7124
100003.7136
100003.7151
100003.7168
100003.7186
100003.7207
100003.7229
100003.7253
100003.7278
100003.7303
100003.7329
100003.7354
100003.7379
100003.7403
100003.7425
100003.7445
100003.7463
100003.7479
100003.7494
100003.7507
100003.7519
100003.753
100003.7102
100003.7104
100003.7109
100003.7117
100003.7127
100003.7139
100003.7154
100003.7171
100003.719
100003.7211
100003.7234
100003.7258
100003.7283
100003.7309
100003.7336
100003.7362
100003.7387
100003.7411
100003.7434
100003.7454
100003.7473
100003.749
100003.7504
100003.7518
100003.753
100003.7541
100003.7105
100003.7107
100003.7112
100003.712
100003.713
100003.7142
100003.7157
100003.7175
100003.7194
100003.7215
100003.7239
100003.7263
100003.7289
100003.7316
100003.7343
100003.737
100003.7396
100003.7421
100003.7444
100003.7465
100003.7484
100003.7501
100003.7516
100003.7529
100003.7542
100003.7553
100003.7108
100003.7111
100003.7116
100003.7124
100003.7134
100003.7146
100003.7161
100003.7179
100003.7199
100003.722
100003.7244
100003.7269
100003.7296
100003.7323
100003.7351
100003.7379
100003.7405
100003.7431
100003.7455
100003.7476
100003.7495
100003.7512
100003.7528
100003.7542
100003.7555
100003.7567
100003.7112
100003.7115
100003.712
100003.7128
100003.7138
100003.7151
100003.7166
100003.7183
100003.7203
100003.7225
100003.7249
100003.7275
100003.7302
100003.733
100003.7358
100003.7386
100003.7414
100003.744
100003.7464
100003.7486
100003.7506
100003.7523
100003.7539
100003.7554
100003.7568
100003.7581
100003.7117
100003.712
100003.7125
100003.7132
100003.7143
100003.7155
100003.7171
100003.7188
100003.7208
100003.723
100003.7254
100003.728
100003.7307
100003.7336
100003.7364
100003.7393
100003.7421
100003.7447
100003.7472
100003.7495
100003.7515
100003.7533
100003.755
100003.7565
100003.758
100003.7594
100003.7122
100003.7125
100003.713
100003.7138
100003.7148
100003.716
100003.7176
100003.7193
100003.7213
100003.7235
100003.7259
100003.7285
100003.7312
100003.734
100003.7369
100003.7398
100003.7426
100003.7453
100003.7478
100003.7501
100003.7522
100003.7541
100003.7558
100003.7575
100003.7591
100003.7607
100003.7128
100003.7131
100003.7136
100003.7143
100003.7153
100003.7166
100003.7181
100003.7199
100003.7218
100003.724
100003.7264
100003.729
100003.7316
100003.7344
100003.7373
100003.7401
100003.7429
100003.7456
100003.7481
100003.7504
100003.7526
100003.7546
100003.7564
100003.7582
100003.76
100003.7618
100003.7135
100003.7137
100003.7142
100003.715
100003.716
100003.7172
100003.7187
100003.7204
100003.7224
100003.7245
100003.7268
100003.7294
100003.732
100003.7347
100003.7375
100003.7403
100003.7431
100003.7457
100003.7482
100003.7506
100003.7528
100003.7549
100003.7569
100003.7588
100003.7608
100003.7628
100003.7142
100003.7144
100003.7149
100003.7157
100003.7167
100003.7179
100003.7193
100003.721
100003.7229
100003.725
100003.7273
100003.7297
100003.7323
100003.735
100003.7377
100003.7404
100003.7431
100003.7457
100003.7482
100003.7505
100003.7528
100003.7549
100003.7571
100003.7592
100003.7613
100003.7635
100003.715
100003.7153
100003.7158
100003.7165
100003.7174
100003.7186
100003.72
100003.7217
100003.7235
100003.7256
100003.7278
100003.7301
100003.7326
100003.7352
100003.7378
100003.7404
100003.743
100003.7455
100003.748
100003.7503
100003.7526
100003.7549
100003.7571
100003.7593
100003.7617
100003.7641
100003.716
100003.7162
100003.7167
100003.7174
100003.7183
100003.7195
100003.7209
100003.7224
100003.7242
100003.7262
100003.7283
100003.7305
100003.7329
100003.7353
100003.7378
100003.7403
100003.7428
100003.7453
100003.7477
100003.75
100003.7523
100003.7546
100003.7569
100003.7593
100003.7618
100003.7644
100003.7171
100003.7173
100003.7177
100003.7184
100003.7193
100003.7205
100003.7218
100003.7233
100003.725
100003.7269
100003.7289
100003.731
100003.7332
100003.7356
100003.7379
100003.7403
100003.7427
100003.745
100003.7473
100003.7496
100003.7519
100003.7542
100003.7566
100003.7591
100003.7617
100003.7645
100003.7183
100003.7185
100003.719
100003.7196
100003.7205
100003.7216
100003.7229
100003.7243
100003.726
100003.7277
100003.7296
100003.7316
100003.7337
100003.7359
100003.738
100003.7403
100003.7425
100003.7447
100003.7469
100003.7492
100003.7514
100003.7537
100003.7561
100003.7586
100003.7613
100003.7643
100003.7197
100003.7199
100003.7203
100003.721
100003.7219
100003.7229
100003.7242
100003.7256
100003.7271
100003.7288
100003.7305
100003.7324
100003.7343
100003.7363
100003.7383
100003.7403
100003.7424
100003.7444
100003.7465
100003.7486
100003.7508
100003.7531
100003.7555
100003.758
100003.7608
100003.7638
100003.7213
100003.7215
100003.7219
100003.7226
100003.7235
100003.7245
100003.7257
100003.7271
100003.7285
100003.7301
100003.7317
100003.7334
100003.7351
100003.7369
100003.7386
100003.7404
100003.7423
100003.7442
100003.7461
100003.7481
100003.7502
100003.7524
100003.7547
100003.7573
100003.7601
100003.7631
100003.7231
100003.7233
100003.7238
100003.7244
100003.7253
100003.7264
100003.7276
100003.7289
100003.7303
100003.7318
100003.7333
100003.7347
100003.7362
100003.7377
100003.7392
100003.7408
100003.7423
100003.744
100003.7457
100003.7475
100003.7495
100003.7516
100003.7539
100003.7564
100003.7591
100003.7622
100003.7251
100003.7254
100003.7259
100003.7266
100003.7275
100003.7285
100003.7298
100003.7311
100003.7325
100003.7339
100003.7352
100003.7365
100003.7378
100003.739
100003.7401
100003.7413
100003.7426
100003.7439
100003.7454
100003.7471
100003.7489
100003.7508
100003.753
100003.7554
100003.7581
100003.7611
100003.7274
100003.7277
100003.7282
100003.729
100003.7299
100003.7311
100003.7324
100003.7338
100003.7352
100003.7366
100003.7378
100003.7389
100003.7399
100003.7407
100003.7414
100003.7422
100003.7431
100003.7441
100003.7453
100003.7467
100003.7483
100003.7501
100003.7521
100003.7544
100003.757
100003.7598
100003.73
100003.7303
100003.7309
100003.7317
100003.7328
100003.7341
100003.7356
100003.7371
100003.7386
100003.74
100003.7412
100003.7421
100003.7427
100003.743
100003.7432
100003.7435
100003.7439
100003.7445
100003.7454
100003.7465
100003.7478
100003.7495
100003.7514
100003.7535
100003.7559
100003.7586
100003.7328
100003.7331
100003.7338
100003.7347
100003.736
100003.7375
100003.7392
100003.741
100003.7428
100003.7443
100003.7455
100003.7462
100003.7464
100003.7461
100003.7456
100003.7453
100003.7451
100003.7452
100003.7457
100003.7465
100003.7476
100003.749
100003.7507
100003.7527
100003.755
100003.7575
100003.7357
100003.7361
100003.7369
100003.7381
100003.7396
100003.7414
100003.7435
100003.7456
100003.7478
100003.7497
100003.751
100003.7516
100003.7514
100003.75
100003.7488
100003.7476
100003.7468
100003.7463
100003.7462
100003.7467
100003.7475
100003.7487
100003.7502
100003.752
100003.7542
100003.7388
100003.7393
100003.7402
100003.7416
100003.7434
100003.7456
100003.7482
100003.7509
100003.7537
100003.7562
100003.7579
100003.7583
100003.7577
100003.7551
100003.7528
100003.7506
100003.7488
100003.7476
100003.7471
100003.7471
100003.7476
100003.7486
100003.7499
100003.7516
100003.7536
100003.7419
100003.7424
100003.7435
100003.7452
100003.7473
100003.75
100003.7532
100003.7567
100003.7604
100003.7637
100003.7661
100003.7665
100003.7655
100003.761
100003.7575
100003.754
100003.7512
100003.7492
100003.7481
100003.7477
100003.748
100003.7487
100003.7499
100003.7515
100003.7534
100003.7449
100003.7455
100003.7468
100003.7487
100003.7512
100003.7544
100003.7582
100003.7627
100003.7676
100003.7726
100003.7768
100003.7782
100003.7778
100003.7698
100003.7641
100003.7584
100003.7541
100003.7511
100003.7494
100003.7486
100003.7485
100003.7491
100003.7502
100003.7517
100003.7535
100003.7477
100003.7484
100003.7497
100003.7518
100003.7546
100003.7582
100003.7625
100003.7673
100003.7723
100003.7767
100003.7799
100003.7797
100003.7776
100003.7696
100003.7645
100003.7592
100003.7551
100003.7522
100003.7503
100003.7494
100003.7492
100003.7498
100003.7508
100003.7523
100003.7541
100003.7561
100003.7501
100003.7507
100003.7522
100003.7544
100003.7574
100003.7615
100003.7669
100003.774
100003.7829
100003.793
100003.8033
100003.8082
100003.8091
100003.7888
100003.7789
100003.768
100003.7602
100003.755
100003.752
100003.7505
100003.7502
100003.7506
100003.7517
100003.7532
100003.7551
100003.7571
100003.7089
100003.7092
100003.7097
100003.7104
100003.7114
100003.7127
100003.7141
100003.7158
100003.7177
100003.7197
100003.722
100003.7243
100003.7268
100003.7293
100003.7319
100003.7344
100003.7368
100003.7391
100003.7413
100003.7432
100003.745
100003.7465
100003.7479
100003.7492
100003.7502
100003.7512
100003.709
100003.7093
100003.7098
100003.7105
100003.7115
100003.7127
100003.7142
100003.7159
100003.7178
100003.7199
100003.7221
100003.7245
100003.727
100003.7295
100003.7321
100003.7347
100003.7371
100003.7394
100003.7416
100003.7436
100003.7453
100003.7469
100003.7483
100003.7495
100003.7506
100003.7516
100003.7091
100003.7094
100003.7099
100003.7106
100003.7116
100003.7129
100003.7144
100003.7161
100003.718
100003.7201
100003.7224
100003.7248
100003.7273
100003.73
100003.7326
100003.7352
100003.7377
100003.7401
100003.7423
100003.7443
100003.746
100003.7476
100003.749
100003.7502
100003.7513
100003.7522
100003.7093
100003.7096
100003.7101
100003.7108
100003.7118
100003.7131
100003.7146
100003.7163
100003.7183
100003.7204
100003.7228
100003.7253
100003.7279
100003.7305
100003.7333
100003.7359
100003.7385
100003.741
100003.7432
100003.7452
100003.747
100003.7486
100003.75
100003.7512
100003.7522
100003.7532
100003.7096
100003.7098
100003.7103
100003.7111
100003.7121
100003.7134
100003.7149
100003.7167
100003.7187
100003.7209
100003.7232
100003.7258
100003.7285
100003.7313
100003.7341
100003.7368
100003.7395
100003.7421
100003.7444
100003.7465
100003.7483
100003.7498
100003.7512
100003.7524
100003.7535
100003.7544
100003.7098
100003.7101
100003.7106
100003.7114
100003.7124