/*--------------------------------*- C++ -*----------------------------------*\
  =========                 |
  \\      /  F ield         | OpenFOAM: The Open Source CFD Toolbox
   \\    /   O peration     | Website:  https://openfoam.org
    \\  /    A nd           | Version:  8
     \\/     M anipulation  |
\*---------------------------------------------------------------------------*/
FoamFile
{
    version     2.0;
    format      ascii;
    class       volVectorField;
    location    "0.2";
    object      U;
}
// * * * * * * * * * * * * * * * * * * * * * * * * * * * * * * * * * * * * * //

dimensions      [0 1 -1 0 0 0 0];

internalField   nonuniform List<vector> 
67410
(
(-0.0002213045031 -0.0002359540716 0.0005089852033)
(-0.0006667995585 -0.0002409794147 0.0005125178776)
(-0.001106439222 -0.0002409840131 0.0005072249253)
(-0.001534151229 -0.000241926775 0.0004995288306)
(-0.001943843078 -0.0002437675826 0.0004894663201)
(-0.002329898858 -0.0002463767309 0.0004769806582)
(-0.0026867071 -0.0002497069134 0.0004620087904)
(-0.003008644448 -0.0002537370197 0.0004445355257)
(-0.003290118869 -0.0002584613318 0.000424601271)
(-0.003525685276 -0.000263871178 0.0004023271884)
(-0.003710220895 -0.000269943678 0.0003779381854)
(-0.003839144645 -0.000276634983 0.0003517768097)
(-0.003908688616 -0.0002838700732 0.0003243296037)
(-0.003916218977 -0.0002915441972 0.0002962114195)
(-0.003860487 -0.0002995163076 0.000268171453)
(-0.003741931522 -0.0003076200157 0.0002410413401)
(-0.003562779353 -0.0003156766293 0.0002156804406)
(-0.003327053049 -0.0003235102821 0.0001929233057)
(-0.003040431341 -0.0003309842842 0.0001734443375)
(-0.002709772381 -0.0003380082833 0.0001577415471)
(-0.002342652934 -0.0003445766541 0.0001460047462)
(-0.001946770652 -0.0003507422043 0.0001382044684)
(-0.001529298024 -0.000356620365 0.0001340314862)
(-0.001096661645 -0.0003623479835 0.0001330357994)
(-0.000654318841 -0.0003680351765 0.0001346926922)
(-0.0002052165789 -0.0003737816585 0.0001384943945)
(-0.0002246666024 -0.0007149893817 0.0005126980702)
(-0.0006725621022 -0.0007284974269 0.0005186580103)
(-0.001118640519 -0.0007285901566 0.0005145808576)
(-0.001552750224 -0.0007314846319 0.0005066613228)
(-0.001968387195 -0.0007371084311 0.0004962275549)
(-0.002359926842 -0.0007450002532 0.0004833327518)
(-0.002721823885 -0.0007550085567 0.0004678796433)
(-0.003048448487 -0.0007670756843 0.0004498386079)
(-0.003334172225 -0.0007811894286 0.0004292384679)
(-0.00357348537 -0.0007973307998 0.0004061923465)
(-0.003761186148 -0.000815441097 0.0003809212301)
(-0.003892600202 -0.0008353982037 0.0003537708799)
(-0.003963864557 -0.0008569852556 0.0003252369517)
(-0.003972254809 -0.0008798972061 0.0002959568373)
(-0.00391644248 -0.000903714911 0.000266714015)
(-0.003796824892 -0.000927952423 0.0002383847725)
(-0.003615625986 -0.0009520803097 0.0002118864963)
(-0.003376934249 -0.0009755769428 0.0001881081524)
(-0.003086556929 -0.000998042481 0.0001677786147)
(-0.002751529168 -0.001019208107 0.0001514271188)
(-0.002379627081 -0.001039065399 0.0001392550892)
(-0.001978735122 -0.00105775894 0.0001312166703)
(-0.001556171872 -0.001075640705 0.0001269666753)
(-0.001118417961 -0.001093104009 0.0001260076764)
(-0.0006709447564 -0.001110517674 0.0001277618238)
(-0.0002166360053 -0.001128084288 0.0001316925522)
(-0.0002247291705 -0.001193672398 0.0005113563854)
(-0.000672621983 -0.001218478385 0.0005180305291)
(-0.001120782788 -0.001220588076 0.0005157880805)
(-0.001559041256 -0.00122603398 0.0005078815304)
(-0.001978314969 -0.001235266004 0.0004970536186)
(-0.002373014696 -0.001247841867 0.0004836835321)
(-0.002737918745 -0.001263632068 0.0004676577272)
(-0.003067502697 -0.001282600654 0.0004489215366)
(-0.003356166545 -0.00130475738 0.0004274814811)
(-0.00359836841 -0.001330089176 0.0004034336718)
(-0.003788831993 -0.001358521097 0.0003769863955)
(-0.003922768079 -0.001389870627 0.0003484887463)
(-0.003996180682 -0.001423823571 0.0003184437385)
(-0.004006195888 -0.001459910756 0.0002875261564)
(-0.003951355874 -0.001497496899 0.0002565696018)
(-0.00383197848 -0.001535840515 0.0002265268945)
(-0.003650260193 -0.001574117283 0.0001984202179)
(-0.003410384507 -0.001611541494 0.0001732208469)
(-0.003118338248 -0.001647479959 0.0001517640384)
(-0.002781442721 -0.00168154445 0.0001346227307)
(-0.002407770321 -0.001713717342 0.0001220306311)
(-0.002005464282 -0.001744286419 0.0001138838642)
(-0.001582022261 -0.001773810546 0.0001097758539)
(-0.00114394543 -0.001802933777 0.0001091078215)
(-0.0006965407545 -0.001832223358 0.000111220446)
(-0.0002424977221 -0.001862034145 0.0001154664181)
(-0.000225684688 -0.001668420896 0.0005094751311)
(-0.0006756523893 -0.001704083649 0.0005158632405)
(-0.001126670956 -0.00170948489 0.0005134890751)
(-0.001568925929 -0.001717985624 0.000505346609)
(-0.001992392976 -0.001730470609 0.0004940661484)
(-0.002391128497 -0.001746876547 0.0004800953903)
(-0.002760038206 -0.001767215158 0.0004633197493)
(-0.003093643629 -0.001791529925 0.0004436569016)
(-0.003386340619 -0.001819865336 0.0004210881368)
(-0.003632526425 -0.001852225975 0.0003956837909)
(-0.003826813807 -0.001888533129 0.0003676362267)
(-0.003964266787 -0.001928575345 0.0003372896825)
(-0.004040709213 -0.001971985699 0.0003051657526)
(-0.004053065847 -0.002018206271 0.0002719793571)
(-0.00399971099 -0.002066474812 0.0002386404999)
(-0.00388083562 -0.00211590845 0.0002062078601)
(-0.003698615261 -0.002165481604 0.0001758398017)
(-0.003457347285 -0.002214265425 0.000148649855)
(-0.003163272765 -0.002261454547 0.0001256085993)
(-0.002824099349 -0.002306608849 0.0001073710355)
(-0.002448341254 -0.00234971628 9.419237704e-05)
(-0.002044512366 -0.002391250689 8.590505092e-05)
(-0.001620320953 -0.002431969294 8.199087229e-05)
(-0.001182256325 -0.0024727377 8.171260005e-05)
(-0.0007354771579 -0.002514237571 8.426074876e-05)
(-0.0002823758405 -0.002557006369 8.887533339e-05)
(-0.0002272888063 -0.002136292171 0.0005072833156)
(-0.0006807536605 -0.002182010251 0.0005133124686)
(-0.001135498863 -0.002189392398 0.0005105162628)
(-0.001581927472 -0.002200042643 0.0005019361192)
(-0.002009838056 -0.002214763243 0.000490077017)
(-0.002413106851 -0.002233677479 0.0004753658982)
(-0.002786639733 -0.002256881885 0.0004576606392)
(-0.003124948413 -0.002284470002 0.0004368480138)
(-0.003422390387 -0.002316511022 0.0004128775819)
(-0.003673289366 -0.002353027246 0.0003857891661)
(-0.003872133382 -0.002393953563 0.0003557542707)
(-0.004013818763 -0.002439092616 0.0003231121722)
(-0.004093971497 -0.002488086561 0.0002884002183)
(-0.004109286457 -0.002540375931 0.0002523886715)
(-0.004057951287 -0.002595209327 0.0002160635938)
(-0.003939996625 -0.002651676913 0.0001806268173)
(-0.003757568808 -0.002708756674 0.0001473845641)
(-0.003515091569 -0.002765461358 0.0001176505804)
(-0.003219084917 -0.002820931019 9.256184952e-05)
(-0.002877735655 -0.002874714883 7.28953231e-05)
(-0.0025001132 -0.002926858592 5.89258269e-05)
(-0.002095200008 -0.002978028676 5.040517278e-05)
(-0.001670921025 -0.0030292046 4.665260388e-05)
(-0.001233693706 -0.003081464307 4.674504213e-05)
(-0.0007884704454 -0.003135562257 4.972290058e-05)
(-0.0003372652259 -0.003192098046 5.465244995e-05)
(-0.0002292132274 -0.002595809201 0.0005049312076)
(-0.0006868371873 -0.002650743645 0.0005106190539)
(-0.00114577074 -0.00265896734 0.0005074526051)
(-0.001596587932 -0.002670506745 0.0004984052109)
(-0.002029084651 -0.002686108546 0.0004859168822)
(-0.00243707555 -0.002705902925 0.0004703903781)
(-0.002815447539 -0.002729983532 0.0004516550993)
(-0.003158692727 -0.002758434126 0.0004295670592)
(-0.003461129235 -0.002791322278 0.0004040387757)
(-0.003717007846 -0.002828670438 0.0003750809281)
(-0.003920701692 -0.002870435305 0.0003428418243)
(-0.004066955431 -0.002916465035 0.0003076511993)
(-0.004151197922 -0.002966473236 0.0002700656637)
(-0.004169924563 -0.003020003856 0.000230897523)
(-0.004121127507 -0.003076454896 0.0001912298981)
(-0.004004702461 -0.00313507052 0.0001523902938)
(-0.003822740579 -0.003194992872 0.0001158840439)
(-0.003579716154 -0.003255312805 8.323516854e-05)
(-0.003282455344 -0.003315252689 5.578613e-05)
(-0.002939653814 -0.00337450675 3.444320976e-05)
(-0.002561044608 -0.00343314614 1.948283881e-05)
(-0.002156160271 -0.003492223725 1.056113951e-05)
(-0.001733157647 -0.003552895162 6.823156571e-06)
(-0.001298279535 -0.003616316083 7.127828892e-06)
(-0.0008561666221 -0.003683219761 1.030944376e-05)
(-0.0004081196893 -0.003754040883 1.537479145e-05)
(-0.0002312200868 -0.003046314995 0.0005025296574)
(-0.0006931805435 -0.003109697452 0.0005078685129)
(-0.001156371848 -0.003117964101 0.0005043545046)
(-0.001611518001 -0.003129300983 0.0004948476751)
(-0.002048451008 -0.003144429191 0.0004817219191)
(-0.002460969752 -0.003163411648 0.0004653611494)
(-0.002843945618 -0.003186276965 0.0004455700769)
(-0.003191862303 -0.003213048866 0.0004221733204)
(-0.003499010446 -0.00324374684 0.0003950533308)
(-0.003759592864 -0.003278377456 0.0003641887405)
(-0.003967907409 -0.003316909651 0.0003297064926)
(-0.004118585227 -0.003359264859 0.0002919269306)
(-0.004206920453 -0.003405280839 0.000251417433)
(-0.004229263688 -0.003454716654 0.0002090341875)
(-0.004183475523 -0.003507243049 0.0001659397985)
(-0.004069307565 -0.003562438365 0.0001236091212)
(-0.003888738865 -0.003619720534 8.372480411e-05)
(-0.003646280702 -0.003678458794 4.802614521e-05)
(-0.003349111351 -0.003738065858 1.808001201e-05)
(-0.00300634356 -0.003798537435 -5.079502255e-06)
(-0.00262852908 -0.003860728745 -2.121000709e-05)
(-0.002225833085 -0.003925714393 -3.078566319e-05)
(-0.001806292357 -0.003994676552 -3.483209258e-05)
(-0.001375862555 -0.004068665294 -3.467656766e-05)
(-0.0009387131781 -0.004148293038 -3.169945415e-05)
(-0.0004956490071 -0.004233669723 -2.707479671e-05)
(-0.0002331176229 -0.003487824636 0.0005001943046)
(-0.0006992058692 -0.00355891581 0.0005051720187)
(-0.0011663602 -0.003566589619 0.0005013349228)
(-0.00162543834 -0.003576789937 0.0004913985688)
(-0.002066295336 -0.00359020636 0.0004776668924)
(-0.002482727143 -0.003606785292 0.0004605108303)
(-0.002869596519 -0.003626436025 0.0004397126914)
(-0.003221386204 -0.003649072284 0.000415074112)
(-0.0035323956 -0.003674619477 0.0003864494034)
(-0.003796820361 -0.003703032187 0.0003537950264)
(-0.00400894079 -0.003734286101 0.0003172177063)
(-0.004163358399 -0.00376837951 0.0002770311705)
(-0.004255324916 -0.003805329297 0.0002338117664)
(-0.004281153608 -0.003845171392 0.0001884520659)
(-0.004238639446 -0.00388798325 0.0001421895878)
(-0.004127402364 -0.003933765225 9.661434952e-05)
(-0.003949305387 -0.003982420724 5.35581032e-05)
(-0.003708817148 -0.004033767412 1.497159326e-05)
(-0.003413447558 -0.004087668469 -1.733085427e-05)
(-0.0030734657 -0.004145151496 -4.246925511e-05)
(-0.00269978112 -0.004207527082 -6.007002708e-05)
(-0.002302283445 -0.004275777219 -7.065345519e-05)
(-0.001889102463 -0.004351015295 -7.544402138e-05)
(-0.001465858391 -0.00443416876 -7.599501023e-05)
(-0.001036169054 -0.004525680187 -7.388232883e-05)
(-0.0006003177403 -0.004625211617 -7.034227771e-05)
(-0.0002347572035 -0.003920934368 0.0004980275975)
(-0.0007044596649 -0.00399902801 0.0005026426812)
(-0.001174971685 -0.004005630719 0.0004985109807)
(-0.001637258759 -0.004013967939 0.00048819635)
(-0.002081172428 -0.004024666053 0.0004739251954)
(-0.00250049276 -0.004037511125 0.0004560592713)
(-0.002890076436 -0.004052239597 0.0004343696051)
(-0.003244425372 -0.004068595928 0.0004086397479)
(-0.00355787485 -0.004086368527 0.0003787079367)
(-0.003824682506 -0.004105412793 0.0003445162284)
(-0.004039193929 -0.004125691165 0.0003061610665)
(-0.004196085197 -0.004147279116 0.0002639569807)
(-0.004290691514 -0.004170396568 0.0002184897907)
(-0.004319429592 -0.00419541468 0.0001706779501)
(-0.004280121179 -0.004222878353 0.0001218226728)
(-0.004172327997 -0.004253352143 7.358894121e-05)
(-0.003997829821 -0.004287424248 2.793795181e-05)
(-0.003761094011 -0.004325459431 -1.297679126e-05)
(-0.003470618907 -0.004368746753 -4.762582058e-05)
(-0.003137095999 -0.004418990181 -7.473601304e-05)
(-0.002771027592 -0.004477427522 -9.39751638e-05)
(-0.002382363801 -0.004545317604 -0.0001059738092)
(-0.001979081585 -0.004623765785 -0.0001121082931)
(-0.001566403359 -0.004713544025 -0.0001141125637)
(-0.001147121178 -0.004814831913 -0.000113674201)
(-0.0007208353065 -0.004926980216 -0.0001121610672)
(-0.0002360350872 -0.004346697098 0.0004961146486)
(-0.0007086254823 -0.004431142065 0.0005003649615)
(-0.001181663442 -0.004436384459 0.0004959785495)
(-0.001646179027 -0.004442403819 0.0004853524012)
(-0.002091978258 -0.004449720149 0.0004706341083)
(-0.002512807403 -0.004457907742 0.0004521866368)
(-0.002903507073 -0.004466471 0.000429772725)
(-0.003258617388 -0.004474927569 0.0004031715465)
(-0.003572558775 -0.004482862588 0.000372215868)
(-0.003839716837 -0.004489996802 0.0003368461742)
(-0.004054611953 -0.004496235061 0.0002971621972)
(-0.004212126524 -0.004501727351 0.0002534840704)
(-0.004307834867 -0.004506900198 0.0002064141767)
(-0.00433840481 -0.004512501561 0.0001568953226)
(-0.004301842274 -0.004519581334 0.0001062649882)
(-0.004197814423 -0.004529423312 5.62222013e-05)
(-0.004027966169 -0.004543506959 8.747150035e-06)
(-0.003797530163 -0.004562977577 -3.397025333e-05)
(-0.003515477976 -0.004590716431 -7.043817002e-05)
(-0.00319202318 -0.004628539109 -9.934347992e-05)
(-0.002837589813 -0.004678216099 -0.0001203739739)
(-0.002461922641 -0.00474125593 -0.0001342332222)
(-0.002072619913 -0.004818796189 -0.0001424090787)
(-0.001674291061 -0.004911447624 -0.0001467113703)
(-0.001269005036 -0.005019108205 -0.0001489034514)
(-0.0008554629158 -0.005140915971 -0.0001504021696)
(-0.0002369091651 -0.004766452401 0.0004945027788)
(-0.000711564065 -0.004856677443 0.0004983943857)
(-0.001186174812 -0.004860504247 0.000493798529)
(-0.001651779695 -0.004864095196 0.0004829415962)
(-0.002098085527 -0.00486781019 0.0004678895105)
(-0.002518766814 -0.004870951433 0.0004490118822)
(-0.002908643748 -0.004872725947 0.0004260741749)
(-0.003262307078 -0.004872347947 0.0003988633773)
(-0.00357431368 -0.004869139353 0.0003672179597)
(-0.003839269991 -0.004862616376 0.0003310892903)
(-0.004051989955 -0.004852594212 0.0002905940008)
(-0.004207718733 -0.004839263071 0.0002460700905)
(-0.0043024439 -0.004823264822 0.0001981364562)
(-0.004333262251 -0.004805727372 0.0001477578739)
(-0.00429858002 -0.004788270928 9.627933613e-05)
(-0.00419842755 -0.004772963606 4.540520492e-05)
(-0.004034432514 -0.004762245517 -2.872291376e-06)
(-0.003812592037 -0.004758644451 -4.674219946e-05)
(-0.003542136066 -0.004765570316 -8.44641713e-05)
(-0.003232545298 -0.004785628452 -0.0001148894778)
(-0.002893986853 -0.004821169034 -0.0001377810416)
(-0.002535719874 -0.004874036683 -0.0001538972707)
(-0.002164741573 -0.004945441923 -0.0001647379938)
(-0.001784921133 -0.005035909259 -0.0001721316955)
(-0.001397445144 -0.005145149587 -0.0001778548524)
(-0.001000163747 -0.005272017236 -0.0001833260127)
(-0.0002374051624 -0.005181604337 0.0004931877452)
(-0.0007133450616 -0.005277142706 0.000496725721)
(-0.001188594237 -0.005279781519 0.0004919719712)
(-0.00165412032 -0.005281249846 0.0004809690942)
(-0.002099457845 -0.005281682899 0.000465703179)
(-0.002518170863 -0.005280038927 0.0004465579327)
(-0.002905031175 -0.005275142141 0.0004233122573)
(-0.003254705063 -0.005265817771 0.0003957646742)
(-0.003561942489 -0.005251031083 0.0003637799983)
(-0.00382166721 -0.005230023193 0.0003273288183)
(-0.004029134909 -0.005202450561 0.0002865527934)
(-0.004180129846 -0.005168512405 0.0002418160485)
(-0.004271249349 -0.00512904834 0.0001937546005)
(-0.004300228554 -0.005085580871 0.0001433433897)
(-0.00426609902 -0.00504033924 9.190712275e-05)
(-0.004169422273 -0.004996215592 4.10976638e-05)
(-0.004012342948 -0.00495662765 -7.192929538e-06)
(-0.003801152534 -0.004925478821 -5.134345418e-05)
(-0.003544908454 -0.004906589027 -8.970015821e-05)
(-0.003252669272 -0.004903477489 -0.0001212904535)
(-0.002934028507 -0.004919144574 -0.0001459765756)
(-0.002597486239 -0.004955830719 -0.0001645410325)
(-0.002249200981 -0.00501493788 -0.0001784542505)
(-0.001892146869 -0.005097035395 -0.0001895097207)
(-0.001526570089 -0.005201768725 -0.0001994618127)
(-0.001149463072 -0.005327925116 -0.0002097106219)
(-0.0002376343959 -0.005593338082 0.0004920956583)
(-0.0007142923232 -0.005693853253 0.0004952833279)
(-0.001189424205 -0.00569586346 0.0004904189816)
(-0.001653823593 -0.005696000843 0.000479351475)
(-0.002096764959 -0.00569409971 0.000463987252)
(-0.002511632729 -0.005688684813 0.0004447312516)
(-0.002893130831 -0.005678088133 0.0004213812879)
(-0.003236004818 -0.005660632529 0.0003937652768)
(-0.003535265364 -0.005634802281 0.0003617725351)
(-0.003786272935 -0.005599451241 0.0003254133221)
(-0.00398488673 -0.005553991135 0.0002848558779)
(-0.004127642707 -0.005498563694 0.0002404922327)
(-0.004211972113 -0.005434177456 0.0001929769777)
(-0.004236487678 -0.005362762189 0.000143269274)
(-0.004201089798 -0.005287169744 9.265197605e-05)
(-0.004107105274 -0.00521115126 4.268294651e-05)
(-0.003957262438 -0.005139134922 -4.897806644e-06)
(-0.003757997936 -0.005076099427 -4.860974436e-05)
(-0.003518125526 -0.005026542714 -8.703434716e-05)
(-0.003246231951 -0.004994883087 -0.0001193750612)
(-0.002951087502 -0.004984751495 -0.0001456186441)
(-0.002640210658 -0.004998865389 -0.0001665691465)
(-0.002318773631 -0.005038962863 -0.0001836617803)
(-0.001988728086 -0.005105753744 -0.0001986248167)
(-0.001649315722 -0.005199026655 -0.0002131795897)
(-0.001296498343 -0.005317572973 -0.0002286899507)
(-0.0002378020895 -0.006002268751 0.000491058776)
(-0.0007150182165 -0.006107577727 0.0004938935685)
(-0.001189645376 -0.006109894116 0.0004889577091)
(-0.001652164537 -0.006110044577 0.0004778924053)
(-0.002091477561 -0.006107471275 0.000462524889)
(-0.002500705442 -0.006100150984 0.0004432902799)
(-0.002874430241 -0.006085789997 0.0004200123877)
(-0.003207485285 -0.006062044068 0.0003925555052)
(-0.003495199928 -0.006026758524 0.0003608505473)
(-0.003733509695 -0.005978232091 0.000324943827)
(-0.003919075322 -0.005915491134 0.000285048506)
(-0.004049423193 -0.005838520116 0.0002415758045)
(-0.004123101235 -0.0057484453 0.0001951900738)
(-0.00413985549 -0.005647595085 0.0001468229784)
(-0.004100704478 -0.005539474355 9.768145432e-05)
(-0.004007929297 -0.005428706213 4.919171661e-05)
(-0.003865010904 -0.00532073732 2.859757434e-06)
(-0.003678316219 -0.005221679405 -3.972669585e-05)
(-0.003456294798 -0.005136754515 -7.766139593e-05)
(-0.003207061699 -0.005071223027 -0.0001102890141)
(-0.002938357869 -0.005029396273 -0.0001377023876)
(-0.002656612861 -0.005014541876 -0.0001607458662)
(-0.002365795051 -0.005028787123 -0.0001808164157)
(-0.002066751563 -0.005073118433 -0.000199615676)
(-0.001757634004 -0.005147505773 -0.000218815888)
(-0.001433240063 -0.005250846989 -0.0002397312421)
(-0.0002382243839 -0.006408026266 0.0004897982254)
(-0.0007164622916 -0.006518120696 0.0004922657513)
(-0.001190772594 -0.006522091653 0.0004872784471)
(-0.001651147618 -0.006524210426 0.000476252864)
(-0.002085973208 -0.006523419815 0.0004609389999)
(-0.002487982664 -0.006517011451 0.0004418094113)
(-0.002851561669 -0.006501888841 0.0004187234071)
(-0.003171608432 -0.006474835323 0.0003915944522)
(-0.003443835108 -0.006432825312 0.000360402566)
(-0.00366489067 -0.006373378432 0.0003252485649)
(-0.003832473379 -0.006294921928 0.0002863862037)
(-0.003945410085 -0.006197129294 0.0002442542652)
(-0.00400368918 -0.006081151667 0.000199516981)
(-0.004008518286 -0.005949719149 0.0001530574666)
(-0.003962301087 -0.005807047241 0.0001059863846)
(-0.00386848267 -0.005658701849 5.958705451e-05)
(-0.003731412135 -0.005511251946 1.520368715e-05)
(-0.003557275233 -0.005371928068 -2.582014628e-05)
(-0.003353971273 -0.005246916945 -6.274432472e-05)
(-0.003129094922 -0.005142299097 -9.512347545e-05)
(-0.002889236539 -0.005063132425 -0.0001231953367)
(-0.002639530994 -0.005013221396 -0.0001478418765)
(-0.002382661759 -0.00499509496 -0.0001704623553)
(-0.002118226885 -0.005010053313 -0.000192720935)
(-0.001843187298 -0.005058256948 -0.0002163031853)
(-0.001551236878 -0.005138727572 -0.0002424547569)
(-0.0002393365273 -0.006808779626 0.0004878974931)
(-0.0007199191783 -0.006923836164 0.0004899683767)
(-0.001194904551 -0.006931250079 0.0004849150389)
(-0.001653579513 -0.006937948597 0.0004739174928)
(-0.002083625805 -0.006942254915 0.0004586492746)
(-0.00247721982 -0.006940615003 0.0004396297753)
(-0.002828422386 -0.006928915569 0.0004167665861)
(-0.003132145245 -0.006902799132 0.0003900355534)
(-0.003384521012 -0.006858065972 0.0003594879448)
(-0.003583070224 -0.00679113529 0.0003252911919)
(-0.003726803398 -0.006699545008 0.0002877599968)
(-0.003816218528 -0.006582422513 0.0002473670986)
(-0.00385319816 -0.006440818465 0.0002047650671)
(-0.003840831315 -0.006277861858 0.0001607812895)
(-0.003783230144 -0.006098594619 0.000116402033)
(-0.003685241628 -0.005909693715 7.272555155e-05)
(-0.003552159411 -0.005719003119 3.090674753e-05)
(-0.003389933681 -0.005534991794 -7.960428849e-06)
(-0.003205768486 -0.00536524603 -4.32655173e-05)
(-0.00300654918 -0.005216571673 -7.478536142e-05)
(-0.002797527266 -0.00509483008 -0.0001028862034)
(-0.00258237321 -0.00500435868 -0.0001285078295)
(-0.00236232337 -0.004948060857 -0.0001530560536)
(-0.002135640925 -0.004927420655 -0.0001781855633)
(-0.001897989412 -0.004942789151 -0.000205581434)
(-0.001642048883 -0.004993148153 -0.0002365178604)
(-0.0002416999003 -0.007200709937 0.0004847837436)
(-0.0007270548886 -0.007321080357 0.0004864006765)
(-0.001204751979 -0.007334168347 0.0004812164558)
(-0.001663117957 -0.00734872476 0.0004701562835)
(-0.002088883993 -0.00736233644 0.0004548220771)
(-0.002473433705 -0.007370425383 0.0004357915974)
(-0.002810310792 -0.007367611743 0.0004130376089)
(-0.003094320277 -0.007348072369 0.0003866243706)
(-0.003322021616 -0.007306036671 0.0003567025552)
(-0.00349195951 -0.007236395661 0.0003235458007)
(-0.003604786731 -0.007135387535 0.0002875530529)
(-0.003663162311 -0.007001265031 0.0002492510291)
(-0.003671440118 -0.006834809982 0.0002092880032)
(-0.003635181759 -0.00663953831 0.0001684103139)
(-0.003560660091 -0.006421516621 0.0001274470295)
(-0.003454377668 -0.006188826624 8.728065923e-05)
(-0.003322637494 -0.005950880957 4.879080915e-05)
(-0.003171340863 -0.00571768008 1.278143277e-05)
(-0.00300658162 -0.005498638001 -2.012704064e-05)
(-0.002834074739 -0.00530127551 -5.003828379e-05)
(-0.002657711864 -0.005132349594 -7.742752393e-05)
(-0.002479400733 -0.004996699175 -0.0001032779067)
(-0.002298712026 -0.004897444334 -0.0001289973465)
(-0.002112459095 -0.004836145477 -0.0001562375909)
(-0.001914871265 -0.00481312332 -0.0001866673089)
(-0.001697731749 -0.004827305317 -0.0002216663804)
(-0.0002459905382 -0.007577443825 0.0004797077635)
(-0.0007398886868 -0.007703623385 0.0004807694834)
(-0.001223623751 -0.00772501753 0.0004753100094)
(-0.001684272338 -0.007751332897 0.0004639793916)
(-0.002107301287 -0.00777931418 0.0004483140251)
(-0.002482977875 -0.007803194263 0.0004289618267)
(-0.002804040213 -0.007816055745 0.0004059849252)
(-0.003064974871 -0.007810228041 0.0003795715848)
(-0.003262693604 -0.007777882416 0.0003500252039)
(-0.003396908471 -0.007711817612 0.00031778008)
(-0.003470297431 -0.007606410671 0.0002833875362)
(-0.003488315244 -0.007458589967 0.0002474734669)
(-0.003458585702 -0.007268612139 0.000210694542)
(-0.003389962463 -0.007040409846 0.0001736901013)
(-0.003291539613 -0.006781343238 0.0001370981577)
(-0.003171814122 -0.006501368923 0.000101491588)
(-0.003038172056 -0.00621199877 6.742087637e-05)
(-0.002896562741 -0.005925144698 3.538758258e-05)
(-0.002751487949 -0.005652140483 5.671211628e-06)
(-0.002606941134 -0.005402178025 -2.171889794e-05)
(-0.002465242278 -0.005182401264 -4.751408671e-05)
(-0.002326093698 -0.004998166249 -7.273341211e-05)
(-0.002187155171 -0.004852608568 -9.875920564e-05)
(-0.002043635714 -0.004747162086 -0.0001271980154)
(-0.001888325219 -0.004681880816 -0.0001596923584)
(-0.001712046532 -0.004655555233 -0.0001976787095)
(-0.0002529850802 -0.007929476945 0.0004717341358)
(-0.0007607393027 -0.008062038537 0.000472092322)
(-0.001255347615 -0.008094666452 0.0004661021282)
(-0.001722313473 -0.008137125791 0.0004541251713)
(-0.002145461968 -0.008185250948 0.0004376290612)
(-0.002513518431 -0.008231951949 0.0004173517372)
(-0.002817986685 -0.008268523565 0.0003934755865)
(-0.003052678765 -0.008285040086 0.0003663729191)
(-0.003214666226 -0.008271034234 0.0003365769956)
(-0.0033049002 -0.008216501932 0.0003047885961)
(-0.003328538548 -0.008113209478 0.0002718182266)
(-0.003294653812 -0.007956113546 0.0002384832997)
(-0.003215240725 -0.007744595661 0.0002055035313)
(-0.00310361131 -0.007483062037 0.0001733851574)
(-0.00297260977 -0.007180544084 0.0001424452632)
(-0.002833267589 -0.006849520604 0.000112836122)
(-0.002694020479 -0.006504366624 8.468812742e-05)
(-0.002560574488 -0.006159641871 5.804855491e-05)
(-0.002436055419 -0.005828728455 3.291784592e-05)
(-0.002321612699 -0.005522862983 9.022762631e-06)
(-0.002216952483 -0.005249900719 -1.411915736e-05)
(-0.002119607634 -0.005015332167 -3.769940907e-05)
(-0.002024869953 -0.004822037273 -6.303530541e-05)
(-0.0019261909 -0.004671048857 -9.161650855e-05)
(-0.001814914984 -0.004561935338 -0.0001250182937)
(-0.001680860002 -0.004493062785 -0.0001646466488)
(-0.0002635115869 -0.008243662986 0.0004597544114)
(-0.0007921006803 -0.008383134677 0.0004591801241)
(-0.001304083139 -0.008430008075 0.0004522536446)
(-0.001783053285 -0.008493191468 0.0004390224679)
(-0.00221074947 -0.008567617306 0.0004208793751)
(-0.002573823046 -0.00864480934 0.000398659354)
(-0.002861956272 -0.008714083592 0.0003727085609)
(-0.003067714813 -0.008762871321 0.0003436572005)
(-0.003187925095 -0.008777440209 0.0003123998241)
(-0.003224735933 -0.00874413253 0.0002800708599)
(-0.003186236488 -0.008651093707 0.0002479333891)
(-0.003086188895 -0.008490421372 0.0002171868561)
(-0.002942526457 -0.008260110778 0.0001886981728)
(-0.002774629487 -0.007965082139 0.0001627982062)
(-0.002600398616 -0.007616539004 0.0001393215545)
(-0.002434160107 -0.007230469064 0.0001177628193)
(-0.002285570066 -0.006825202311 9.756849984e-05)
(-0.002159494034 -0.006418930891 7.829057166e-05)
(-0.002056808132 -0.006027589593 5.948560745e-05)
(-0.001975477422 -0.005663982808 4.071703454e-05)
(-0.001911555048 -0.005337157715 2.135921211e-05)
(-0.001859315322 -0.005052500147 5.997547918e-07)
(-0.001811554284 -0.004812429304 -2.290390912e-05)
(-0.001759868097 -0.004617237339 -5.045182875e-05)
(-0.001694136509 -0.004465674475 -8.343607076e-05)
(-0.001603132053 -0.004355374124 -0.0001231696254)
(-0.0002783737056 -0.008502869963 0.0004425232062)
(-0.0008364104806 -0.008649544353 0.0004406969735)
(-0.001373962955 -0.008713405452 0.0004322344371)
(-0.001872392748 -0.008801591673 0.0004168382209)
(-0.00231086386 -0.008908253861 0.0003958036522)
(-0.002673300811 -0.009023609397 0.000370060674)
(-0.002946781448 -0.009134928686 0.0003401529459)
(-0.003121793845 -0.009226698991 0.0003070714894)
(-0.003194221954 -0.00928131521 0.0002722476759)
(-0.003167065088 -0.009280480074 0.0002375284849)
(-0.003051759868 -0.009207475262 0.0002049677824)
(-0.002868124607 -0.009050316783 0.000176468242)
(-0.002642141337 -0.008804846544 0.0001532481515)
(-0.002401531162 -0.008476377381 0.0001354179529)
(-0.002171211513 -0.008079084087 0.0001220298658)
(-0.001969988363 -0.007634009275 0.0001114753442)
(-0.001808702329 -0.007164884627 0.0001021826756)
(-0.001690446349 -0.006694474641 9.290274549e-05)
(-0.001612468289 -0.006241801363 8.275741348e-05)
(-0.001568404228 -0.005821309854 7.101930403e-05)
(-0.001549867482 -0.005442658742 5.712395241e-05)
(-0.001547161172 -0.005111060272 4.044746623e-05)
(-0.001550020144 -0.004828220349 2.00030603e-05)
(-0.001547893596 -0.004593295481 -5.203934857e-06)
(-0.001529224453 -0.004404000626 -3.634298972e-05)
(-0.001481812885 -0.004257095431 -7.450058399e-05)
(-0.0002982292926 -0.008685961686 0.0004187445622)
(-0.0008956969135 -0.008839629178 0.0004152333118)
(-0.001468524364 -0.008922430739 0.0004044084251)
(-0.001995573994 -0.009038837526 0.0003855727411)
(-0.002452950093 -0.009182494263 0.0003598716714)
(-0.0028211038 -0.009342592527 0.000328299881)
(-0.003083505594 -0.00950452869 0.0002916185532)
(-0.003227404271 -0.009649779571 0.0002512888176)
(-0.003246588776 -0.009756348469 0.0002095275872)
(-0.003144176548 -0.009800366503 0.000169277832)
(-0.002935144769 -0.009758656055 0.0001339523025)
(-0.002646956201 -0.009613517794 0.0001067728986)
(-0.002316411763 -0.009357706138 8.972523698e-05)
(-0.001982891225 -0.008996084572 8.265678797e-05)
(-0.001681454915 -0.00854740049 8.324904538e-05)
(-0.001436854375 -0.008040070704 8.79837592e-05)
(-0.001260624506 -0.007504713387 9.373345603e-05)
(-0.001152493436 -0.006969834889 9.809228787e-05)
(-0.001104261708 -0.006457646373 9.96226391e-05)
(-0.001103679921 -0.005984239509 9.739197067e-05)
(-0.0011367292 -0.00555950335 9.099899772e-05)
(-0.001189007948 -0.005187961452 8.005886571e-05)
(-0.001246705956 -0.004870155638 6.400714893e-05)
(-0.001297066138 -0.004603828338 4.229656559e-05)
(-0.001327353028 -0.004385443008 1.424451806e-05)
(-0.001324289775 -0.004210403609 -2.071120903e-05)
(-0.0003234285621 -0.008768295968 0.0003872133979)
(-0.0009710799844 -0.00892790175 0.0003814728905)
(-0.001589882244 -0.00903011226 0.0003672157511)
(-0.002156056459 -0.009175858912 0.0003432637217)
(-0.002642231604 -0.009358724362 0.0003105204321)
(-0.003024608334 -0.009567416607 0.0002699603273)
(-0.003281888327 -0.009785984561 0.0002225354476)
(-0.003396495985 -0.009993269184 0.0001702811084)
(-0.003358486044 -0.01016273569 0.0001165105194)
(-0.00316957217 -0.01026444764 6.578373193e-05)
(-0.002847919948 -0.01026656537 2.371933336e-05)
(-0.002430727119 -0.01014351679 -4.042671279e-06)
(-0.001968586248 -0.009882879386 -1.362938271e-05)