/*--------------------------------*- C++ -*----------------------------------*\
  =========                 |
  \\      /  F ield         | OpenFOAM: The Open Source CFD Toolbox
   \\    /   O peration     | Website:  https://openfoam.org
    \\  /    A nd           | Version:  8
     \\/     M anipulation  |
\*---------------------------------------------------------------------------*/
FoamFile
{
    version     2.0;
    format      ascii;
    class       volScalarField;
    location    "0.5";
    object      htcConv;
}
// * * * * * * * * * * * * * * * * * * * * * * * * * * * * * * * * * * * * * //

dimensions      [1 0 -1 1 0 0 0];

internalField   uniform 0;

boundaryField
{
    walls
    {
        type            calculated;
        value           uniform 0;
    }
    region0_to_wallFilmRegion_wallFilmFace
    {
        type            convectiveHeatTransfer;
        L               1;
        value           nonuniform List<scalar> 
822
(
1.539729637
1.766629398
1.494970204
1.723022156
1.999359769
2.250494144
2.298234207
2.529758034
2.81878765
3.171976262
3.659730189
3.444971153
2.991318175
2.193435146
1.639082662
1.581996722
1.627515356
1.475962799
1.307657386
1.638726729
2.072526404
2.307212095
2.366773457
2.395799918
2.365682099
2.404252663
2.531631154
2.613268776
2.595205418
2.339308371
2.14562574
1.623716342
1.624650813
1.820135982
2.230853781
2.059785002
2.477290479
3.114773549
3.550894804
3.662870314
3.680969667
3.674929988
3.656252702
3.241530228
2.553126195
1.985360942
1.798167789
1.742481055
1.716986154
1.676988961
1.880288789
2.076551704
2.147141799
2.066484588
1.96735422
2.143178054
2.473165503
2.626677759
2.624718778
2.34903501
2.103563379
1.879170331
1.745317197
1.758869825
1.839142895
1.603821804
2.094966659
2.435672548
2.783123972
3.102788694
2.550258333
3.089120203
3.045267307
2.56265468
2.035265239
1.691003507
1.712522347
1.712814267
1.702931014
1.694828359
1.832938597
1.87158666
1.876337211
1.711105796
1.631238365
2.394771293
2.706318243
2.698991373
2.560206852
2.272240505
2.119377087
2.095670387
1.950566331
1.957007871
2.086171027
1.993370014
2.37432716
2.779527256
2.972607402
3.130102226
3.932382579
3.603084871
3.277655592
2.987330228
2.436470482
1.757037332
1.595192025
1.513494477
1.512668477
1.710663822
1.73708951
1.665772254
1.744906126
1.371169739
2.158785289
2.712441564
2.932055296
2.908306072
2.6765778
2.134921378
1.902516898
2.238825921
2.068867084
1.940785603
2.156485694
2.183126385
2.579875364
3.11000547
3.678624112
4.199638111
5.046338596
4.491496715
4.222364829
3.528178367
2.972802126
2.395997042
1.774596663
1.807770822
1.754860022
2.319029426
1.933290749
1.730683524
1.969118355
1.681304686
2.188323451
2.711307677
2.9901812
3.075798794
3.014183129
2.656318356
2.116212042
2.200394708
2.326811964
2.194939993
2.134798261
2.296237032
2.351774149
2.539597006
2.945140177
3.559618927
4.22016001
4.851558775
5.042272083
4.946110682
4.18030648
3.216641481
2.7713605
2.319636229
2.421403791
2.30472066
3.182849391
2.397742139
2.704022032
2.884366
2.024598619
1.861572869
2.590563355
2.927040093
3.067340584
3.053360304
2.728412752
2.357972034
2.108871391
2.313510037
2.222838831
2.165679768
2.309802515
2.407787031
2.477974663
2.493541493
2.569800247
2.572692412
4.193821378
4.583373634
4.043260929
3.275879852
2.893085936
2.667854095
2.450343147
2.663297803
2.475585952
3.599838029
2.880739576
3.175406242
3.360051301
3.272206433
2.762849007
2.756125273
3.009820939
3.096023659
2.998335108
2.63375976
2.425219588
2.12541113
2.226832802
2.167197349
2.002669258
2.237133358
2.417761033
2.540728006
2.611081591
2.614554089
2.241364827
3.305646277
3.527537705
3.215134102
2.94554299
2.739006028
2.648131162
2.583917572
2.830964568
2.932234292
4.570371188
3.478679076
0.8129154004
3.432070383
3.724955777
3.639599301
3.400091514
3.238397422
3.087138828
2.859913391
2.512525268
2.298442739
2.089846994
2.230346943
2.102660097
1.724518804
2.020921073
2.263669203
2.426331874
2.615972823
2.787488466
2.73503488
2.755779394
2.921915169
2.973754588
2.784507519
2.428639156
2.376916325
2.419254561
2.819812924
3.681051323
5.650313609
4.717502579
3.704798728
3.171034555
3.600792296
3.691092603
3.447438067
3.196679397
2.949364033
2.666485356
2.294848839
1.996427147
2.332856145
2.188508197
1.951668029
1.48109742
1.56215075
1.782413909
1.89455985
2.126566677
2.584641223
2.807072406
2.942514066
2.95990866
2.761797948
2.327162708
2.063191666
1.935637905
1.830074432
1.999030757
3.93855375
6.156413262
7.003061937
5.978148642
4.470895174
3.881691791
3.537490232
3.192507689
2.940378397
2.679874138
2.390750078
2.033572212
1.782389115
3.641482756
2.602679615
1.578388433
0.9952507342
1.513138232
1.515607761
1.193957717
1.576964066
2.172342189
2.642183996
2.973162723
2.777982171
2.267747013
2.164028108
1.950023039
1.371183371
1.632704917
1.155831061
1.760130043
4.997177073
5.531313865
4.427105193
3.792381398
3.489976199
3.170098076
2.841271182
2.608322815
2.401843651
2.196524045
1.934787058
1.771699786
2.1965515
2.031612393
1.340983983
1.24017195
1.591176097
1.539588064
1.534927784
1.646321988
2.024958698
2.337869463
2.822492144
2.352916301
1.879504463
2.141721275
1.580797444
1.164533442
1.715077672
1.863293373
1.610722856
3.752239958
4.067873431
3.599445503
3.22734351
3.022393626
2.798399423
2.525431979
2.300453965
2.162509063
2.067250938
1.883223914
1.779419602
1.993239181
1.670934624
1.499009711
1.517843122
1.676129774
1.666428687
1.746004018
1.843028037
2.052282621
2.065432745
2.589108387
2.028879827
2.12640299
2.131198456
1.788377436
1.137659608
1.68865472
2.077202137
2.039451159
3.091693806
3.382992595
3.205490292
2.939061723
2.704912824
2.482824455
2.350825652
2.275684481
2.20600771
2.125353592
1.936970338
1.814562428
2.638500413
1.950428679
1.630511332
1.163929369
1.570408336
1.671509518
1.814631796
1.873785285
1.984122567
2.06632246
2.18514296
1.792238811
2.461143683
2.537439467
2.057352595
1.75849232
1.728905113
2.210043235
2.425878752
2.985118514
3.21198862
3.15220189
2.9666535
2.746104647
2.530438793
2.416001464
2.380163753
2.342636411
2.267607975
2.058696062
1.914235426
2.241914404
2.324446895
2.0427463
1.689053827
1.183382707
1.458638676
1.694933291
1.632360631
1.796588231
2.059589338
2.120842521
2.215504952
2.776166993
2.776319347
2.651429281
2.234997475
1.889330761
2.079718351
2.390194132
2.799711063
3.083582237
3.143467668
3.056895417
2.904737675
2.725053952
2.573502536
2.488089034
2.421932511
2.327619587
2.125050111
2.003752311
2.313773297
2.250946052
2.335975578
2.495403644
1.724588084
1.307907885
1.486548847
1.70129258
2.258114229
2.712522064
2.891527856
2.889764218
2.986487927
3.025748389
3.104742331
3.030447978
2.621035368
2.638965335
2.840358626
3.037403263
3.209068253
3.265671165
3.189491204
3.044799717
2.860120661
2.672158723
2.537522449
2.426841813
2.304625212
2.100590104
2.020023865
2.260768946
2.350134147
2.687687131
2.096354887
1.753649302
1.559888802
2.003817384
2.590698725
2.911340348
3.005405931
2.920502256
3.001259016
3.05235584
3.173288114
3.209829769
2.859452133
2.849324728
3.090914863
3.288472083
3.411107259
3.440760869
3.357614255
3.179063945
2.945145442
2.693767854
2.502895065
2.349750343
2.195940725
1.992341028
1.943634177
2.102089854
3.023988152
2.892849183
2.451059643
2.115035304
1.827802565
2.09243649
2.54855053
2.765985682
2.733963174
2.749210046
2.978889936
3.090886487
3.200189654
3.273291593
3.09668219
3.080160181
3.27686673
3.459051575
3.56686072
3.582873018
3.489161549
3.276182871
2.98564641
2.667694333
2.406462303
2.200893885
2.020190546
1.807462489
1.769779386
2.123601974
4.285988514
3.396186955
2.237955752
2.258711546
1.981590462
2.009000526
2.36952307
2.36716614
2.238103136
2.41715538
2.926481166
3.1252495
3.214337473
3.306716205
3.276407668
3.284707772
3.430473258
3.582149595
3.664453957
3.659983984
3.534184421
3.291086687
2.95306569
2.57115987
2.248139849
1.992963966
1.779271363
1.572045671
1.527286482
4.790466601
6.386093237
5.249598616
3.584765984
2.412827718
1.695813155
1.820669437
2.310663953
2.367742644
2.180949573
2.304701029
2.860782431
3.155877422
3.247998983
3.341775909
3.37159407
3.400620425
3.510673623
3.628362069
3.683518627
3.643132861
3.48410543
3.220903349
2.851412852
2.431379479
2.059833158
1.755475527
1.531149126
1.346584705
1.284253214
4.613693496
5.884306723
4.527179703
2.793532134
2.406843142
2.046560756
1.335455537
2.211902665
2.487547528
2.277745829
2.480543406
2.947087314
3.228765664
3.302230956
3.366764049
3.391396601
3.422169235
3.505820825
3.590348834
3.611070554
3.531692994
3.356524521
3.083211751
2.713679337
2.306372567
1.927731603
1.60081716
1.358565687
1.177084651
1.090357777
3.852571716
5.296709859
3.336325995
2.612622043
2.553206383
2.375801339
2.450635538
2.248349998
2.659431052
2.869154295
2.726109809
3.109118532
3.288588152
3.339345738
3.366897735
3.362775678
3.377785904
3.435390025
3.482743901
3.462131503
3.357903037
3.166071505
2.893987986
2.563074922
2.215865205
1.880981832
1.556891073
1.284524087
1.072704129
0.9489221125
3.212263041
4.345815256
2.608405534
2.626273478
2.607297069
2.588867566
2.514650916
2.386755215
2.652386224
2.83496867
2.850141431
3.164918337
3.293488945
3.337776339
3.341179924
3.310205989
3.302687214
3.327509381
3.330472765
3.275047056
3.143777344
2.941903659
2.698021879
2.430638284
2.144980953
1.851155585
1.540702817
1.252932035
1.009869126
0.8462133316
2.674009737
3.480693321
2.335312534
2.484411669
2.474133053
2.519234337
2.20910602
2.380328137
2.503446364
2.780955056
2.697289213
3.09933569
3.23597136
3.288866767
3.288416609
3.244503231
3.209928032
3.192148638
3.154688854
3.065685076
2.91699133
2.729856058
2.532949872
2.314770593
2.065562345
1.791809366
1.495340164
1.212565419
0.9585061597
0.7653770632
2.351223638
2.821398773
2.225770074
2.343922563
2.252429765
2.095120949
2.316684163
2.287162395
2.272969179
2.686304405
3.030144978
3.03086738
3.10000096
3.148433687
3.154254406
3.118039274
3.074542841
3.030392302
2.963491852
2.856807596
2.717583634
2.568537631
2.413849299
2.219075443
1.990332116
1.728323337
1.448373964
1.177316718
0.9197424028
0.7015156877
2.260597529
2.439158195
2.20026592
2.171143881
1.972616638
1.721662565
2.02219665
2.047486032
1.989999148
2.197806804
2.645793666
2.662508163
2.751475811
2.827631571
2.865788027
2.859527592
2.830437341
2.786043244
2.719073288
2.630845491
2.533270693
2.431085897
2.303220115
2.122191546
1.896821076
1.641001403
1.383791467
1.134481057
0.884256027
0.652093103
2.35047121
2.437689281
2.289122933
2.094561327
1.661907153
1.456766746
1.699138991
2.067616788
1.996291303
1.993036549
2.251822091
2.40241579
2.500183851
2.565946222
2.618446324
2.646954174
2.649743264
2.631108652
2.594664997
2.543280441
2.485282794
2.412218044
2.298349142
2.127614198
1.897146504
1.627235373
1.357484727
1.105185971
0.8550979483
0.6156460707
)
;
    }
    region0_to_wallFilmRegion_mirrorFace
    {
        type            convectiveHeatTransfer;
        L               1;
        value           nonuniform List<scalar> 
558
(
3.307756956
3.194180688
3.248493207
3.469702804
3.331335605
3.643848283
3.179254025
3.555367755
4.121062375
4.61609155
3.836552406
3.834243954
3.849941222
3.962015702
4.031910714
4.243783499
4.114082394
4.234159757
4.662992171
5.319137042
4.139015926
4.190927756
4.177534138
4.635868245
4.545329163
4.629912046
4.806657271
4.24486669
4.344919842
4.424125566
5.016563152
4.301980712
4.481885744
3.858551697
3.894804045
4.0496813
3.796318176
3.805014903
3.876348589
4.082140308
3.009019824
3.197309952
3.53218426
3.520134936
3.358433717
3.549942334
3.638935788
1.639295548
1.542623823
1.573273276
1.579654662
1.569677599
1.441439539
1.318894906
1.282380693
1.299053527
1.349795126
1.31633863
1.331823859
1.347120507
1.343874503
1.347926181
1.40643012
1.351326798
1.386245992
1.449612412
1.324419599
1.431430854
1.179216744
1.243755133
1.226080845
1.277030625
1.305956627
1.332996538
1.388676375
1.361958734
1.435982529
1.470663841
1.405449148
1.494849985
1.51897316
1.472549934
1.545977353
1.726173849
1.508224928
1.707056704
1.770757609
1.217248062
1.198317474
1.284578601
1.366160854
1.379340666
1.481384832
1.536662799
1.594067611
1.688156442
1.650301458
1.775584463
1.815703568
1.734849503
1.834257193
1.864918207
1.870839103
1.915659672
1.710935354
1.864043812
1.610506949
2.013756134
2.008065666
2.006574458
1.681338195
1.199260647
1.185124762
1.274595251
1.381618039
1.370467207
1.475819715
1.585998195
1.608021679
1.757273981
1.904712699
1.935031768
1.962770011
1.969858667
1.905932699
1.860847705
2.068054972
1.893828042
2.058643455
2.073620911
2.13630451
2.274874187
1.783644802
2.116789561
1.303054468
1.381750729
1.533036863
0.5993963432
1.397171098
1.369710399
1.458650299
1.598191366
1.558124519
1.666055234
1.833077559
1.821452721
1.945580015
1.90901475
2.038925761
1.948143973
1.459715591
1.773790894
1.867181839
1.799912447
2.057915277
1.962520519
1.976265133
1.827690076
1.773127972
1.653390921
1.881770814
1.675347534
1.581761514
1.519216009
1.611122191
1.787579204
1.714599374
1.831507645
2.010569639
1.967655417
2.131802364
2.134494506
2.289448134
2.371495861
1.973048931
2.39445842
2.28111128
1.983657443
2.101428395
2.009369501
1.977279277
2.051336425
1.885933563
1.952960251
2.062598324
2.105331427
1.743135843
1.593724108
1.663522112
1.96106862
1.761566433
1.895506836
2.335363538
2.100985104
2.42922487
2.764880611
2.635391471
2.895297136
2.702689054
2.973582805
2.775429293
2.529793459
2.956640926
3.035703355
3.751139548
3.986703109
4.295923679
1.551385744
1.683690149
1.661587467
2.189979749
1.309573446
1.34260876
1.35180755
1.387435184
1.376638839
3.308511248
1.999044061
1.215436293
1.274526047
1.33619839
1.382933181
1.437560468
1.45197338
1.07877503
1.149223633
1.289625576
1.447221839
1.602910192
1.694588727
1.884388129
1.744482299
1.701359239
1.115533075
1.287658261
1.479954648
1.71966141
1.960550081
2.020299
2.041772435
1.942341921
1.553630727
1.312288078
1.492147029
1.710540916
1.916598338
1.745976083
1.719285074
1.877968747
1.922255033
1.651861095
1.497185212
1.679909788
1.915364643
2.125539801
2.162329828
2.014714111
2.028575539
2.055177856
1.718499289
1.667253049
1.840733008
2.120484955
2.630140066
2.701144295
2.681182634
2.728098299
2.397526566
1.813478976
1.76451099
1.847706008
3.86915187
3.209748713
4.435910279
3.99451321
2.615310343
3.819913953
4.299839519
4.668193534
4.194480784
4.318308348
4.289934096
5.136878224
4.337241928
4.370151265
4.283813306
4.69797661
4.767411699
4.686567771
4.92534369
4.378805283
4.263332056
4.292824399
4.216062856
4.524735346
4.339159888
4.654078888
4.415803014
2.011016275
2.199845274
2.663888235
3.331092266
1.889504197
2.146305285
2.676683194
3.35790472
2.958207021
3.044014619
3.292493806
3.687877428
1.30402349
1.44037018
1.403952723
1.4762598
1.840307031
1.166692438
3.584708405
3.386575047
1.484341876
1.497825741
3.253737256
1.876680569
3.587802059
3.560994523
1.784631269
1.889613213
3.584155933
3.31490217
2.408343248
3.720448514
3.807657037
3.633775481
3.60205743
2.04482464
3.822244038
2.507958857
2.278926858
3.465794452
2.120298693
3.24600197
2.088865883
2.425646998
3.705622942
3.717721765
3.939295857
1.774753225
1.883843304
1.963922855
1.805846726
2.001186806
2.126014551
3.400846311
3.766125431
2.396950717
2.406967977
1.995876118
3.216072208
3.684236052
3.625552541
3.810059494
2.94490503
3.584985244
3.921779618
3.717319892
3.94079539
3.43970813
3.239300663
3.789207169
4.335519509
4.240531631
4.545532986
3.928958792
2.541569869
3.16928959
4.417441455
4.904404448
3.85013986
4.351105721
3.835145923
3.996839024
4.033459894
4.026450037
3.832176788
4.042642178
4.061556487
3.914299862
4.067018875
4.100058963
4.008395293
3.93880075
4.122279833
4.130267941
4.058998052
4.01993127
4.131962645
4.087978751
4.243924857
4.253682255
4.181607442
4.131363936
4.408018613
4.437699284
4.41856658
4.511151615
4.635998585
4.877364248
4.810145343
4.962935499
4.849169565
4.914433535
4.993983306
4.546167435
4.813031777
4.148098055
4.089715679
4.104199498
4.225824927
4.185184599
4.112287541
4.198923028
4.257307287
4.392164139
4.176287771
4.128748302
4.238116509
4.318697081
4.116481325
4.212137996
4.28939133
4.234959162
4.323700209
4.329832643
4.53954593
4.518490405
4.616458727
4.433766928
4.524416137
4.63932
4.576075816
4.610417012
4.684312307
4.708500602
4.754803029
4.830336667
4.858906745
5.110946672
5.020878677
5.396759151
5.096892247
4.781319642
4.276446502
4.301812534
4.261987331
4.27687534
4.48898497
4.495735648
4.401542623
4.412216213
4.315969311
4.324720376
4.317542446
4.256809468
4.286136816
4.261807934
4.355030689
4.308515405
4.357992432
4.628972667
4.652353079
4.560336058
4.589380127
4.796423351
4.623350428
4.662503148
4.855194837
4.682651519
4.987213665
4.62303844
4.462486505
4.689757818
4.725922819
4.830173625
4.734876085
5.09431864
4.870147683
4.282898153
4.251887607
4.070117669
4.125856853
4.329097593
4.293174843
4.12033807
4.112237852
4.242242165
4.053104884
4.185479735
4.233647722
4.233158272
4.104630442
3.796738237
4.323261619
4.072845665
4.329393677
4.077748607
4.089836868
4.111803784
4.378290491
4.140827545
4.183640127
4.280587
4.347110988
4.520382519
4.135763673
4.252757992
4.318173278
4.53954225
4.355627004
4.65280449
4.410926175
2.084691978
1.578262449
1.724070211
2.391535746
1.918646901
2.19305628
2.981892268
2.532205249
2.906915866
3.599703141
3.286479906
3.618138661
3.87225492
1.994064288
2.440044498
2.496439714
2.376004695
2.587054253
2.739439055
3.0156333
2.963071581
3.226212948
3.657495953
3.510711105
3.727489227
3.961600063
3.881800819
2.989813955
3.400162444
3.419397989
3.141063326
3.454630645
3.517340869
3.827965753
3.49316165
3.611852706
3.726902939
3.879884355
3.985040353
)
;
    }
    procBoundary1to0
    {
        type            processor;
        value           uniform 0;
    }
    procBoundary1to2
    {
        type            processor;
        value           uniform 0;
    }
    procBoundary1to3
    {
        type            processor;
        value           uniform 0;
    }
}


// ************************************************************************* //
