/*--------------------------------*- C++ -*----------------------------------*\
  =========                 |
  \\      /  F ield         | OpenFOAM: The Open Source CFD Toolbox
   \\    /   O peration     | Website:  https://openfoam.org
    \\  /    A nd           | Version:  8
     \\/     M anipulation  |
\*---------------------------------------------------------------------------*/
FoamFile
{
    version     2.0;
    format      ascii;
    class       volScalarField;
    location    "0.5";
    object      N2;
}
// * * * * * * * * * * * * * * * * * * * * * * * * * * * * * * * * * * * * * //

dimensions      [0 0 0 0 0 0 0];

internalField   nonuniform List<scalar> 
67451
(
0.7899936493
0.7899937871
0.7899939685
0.7899940033
0.7899942164
0.7899938437
0.7899939465
0.789994631
0.7899948977
0.7899953576
0.789995634
0.7899928474
0.7899928576
0.7899929579
0.7899931601
0.7899933947
0.7899935561
0.7899937831
0.7899939073
0.7899940503
0.7899938012
0.7899938512
0.7899940306
0.7899942501
0.7899946986
0.7899948087
0.7899948711
0.789994786
0.7899944855
0.7899959243
0.7899940131
0.7899932392
0.7899933779
0.7899934622
0.7899936703
0.7899939724
0.789994456
0.7899933587
0.7899929794
0.7899928674
0.7899928974
0.7899930445
0.7899932359
0.7899934077
0.78999354
0.7899936561
0.789993724
0.7899939055
0.7899938467
0.7899940339
0.7899941705
0.7899942375
0.7899946373
0.7899945841
0.7899947317
0.789995575
0.7899967076
0.790002028
0.7899991044
0.7899944335
0.7899923411
0.7899927379
0.7899932881
0.7899936518
0.7899941808
0.7899937522
0.7899933138
0.7899930914
0.7899931429
0.7899934475
0.7899937352
0.789993926
0.7899939667
0.7899939239
0.7899938756
0.7899939157
0.789994197
0.7899942589
0.7899942945
0.7899942663
0.7899943754
0.7899944175
0.7899944907
0.7899944545
0.7899945416
0.7899961965
0.7899932792
0.7899927517
0.7899935371
0.7899938708
0.7899939189
0.7899939307
0.7899941983
0.7899936261
0.7899933547
0.7899933893
0.7899937486
0.7899940796
0.7899942605
0.7899943157
0.7899943696
0.7899944505
0.7899944989
0.7899945393
0.7899944701
0.7899944298
0.789994397
0.789994289
0.7899942978
0.7899943829
0.7899942365
0.7899941747
0.7899933177
0.7899929016
0.789993476
0.7899938363
0.7899940705
0.7899942153
0.7899941924
0.7899942376
0.7899937982
0.7899937794
0.7899935248
0.7899938337
0.7899940982
0.7899942888
0.7899944332
0.7899946039
0.7899948026
0.789994925
0.78999514
0.7899950374
0.7899948678
0.7899946447
0.7899944806
0.7899942766
0.7899941563
0.7899940423
0.7899940764
0.7899936481
0.7899941411
0.7899944309
0.7899944702
0.7899944764
0.7899945798
0.789994573
0.7899944132
0.7899939849
0.7899939832
0.7899936963
0.7899938303
0.7899939642
0.7899941509
0.7899944803
0.7899947353
0.7899950078
0.7899950467
0.7899953938
0.7899953817
0.7899951027
0.7899947482
0.7899944855
0.7899942908
0.7899941777
0.7899940949
0.7899942408
0.7899942681
0.7899944098
0.7899944483
0.7899944647
0.7899945327
0.7899944086
0.7899942251
0.7899943949
0.7899941512
0.7899945462
0.7899938005
0.7899937289
0.7899937936
0.7899938005
0.789994439
0.7899948145
0.789995198
0.7899950835
0.78999496
0.7899949945
0.789994876
0.7899946849
0.7899944891
0.7899943508
0.7899942937
0.7899944014
0.7899946532
0.7899946124
0.7899946553
0.7899945331
0.7899944344
0.7899944044
0.7899936933
0.7899937347
0.7899939074
0.7899944084
0.7899950004
0.7899940549
0.7899937238
0.7899941471
0.7899938382
0.7899943237
0.7899949033
0.7899953994
0.7899952865
0.7899949949
0.7899947846
0.7899947027
0.789994596
0.7899944458
0.7899946002
0.7899946313
0.7899947507
0.7899950463
0.7899949665
0.7899948508
0.7899947308
0.7899946428
0.7899945268
0.7899941623
0.7899939626
0.7899941764
0.7899946588
0.7899955227
0.7899944348
0.7899941786
0.7899947316
0.7899949067
0.7899941166
0.7899948795
0.7899955854
0.7899954792
0.7899951026
0.7899947906
0.7899945846
0.7899944359
0.7899943021
0.789995041
0.789995085
0.7899950107
0.7899952987
0.7899952531
0.7899949739
0.7899947433
0.7899946568
0.7899946393
0.7899945134
0.789994225
0.7899941872
0.7899956163
0.7899963982
0.789995659
0.7899958674
0.7899966475
0.7899970037
0.789995377
0.7899940923
0.7899946554
0.7899951177
0.7899950057
0.789995011
0.789995133
0.7899948091
0.7899945606
0.7899952884
0.7899954209
0.7899952772
0.7899954296
0.7899954756
0.7899952652
0.7899946948
0.7899946517
0.7899946543
0.7899948279
0.7899948145
0.789994522
0.7899955592
0.7899961222
0.7899950186
0.7899947924
0.7899960746
0.789997956
0.7899955743
0.7899936434
0.7899945079
0.7899950197
0.7899952468
0.7899952996
0.7899948265
0.7899944454
0.789994928
0.7899956294
0.789995719
0.7899956127
0.7899955247
0.7899954829
0.7899954556
0.7899952703
0.7899951162
0.7899950162
0.7899946242
0.7899947672
0.7899945146
0.7899950907
0.7899957892
0.7899945198
0.7899938369
0.7899944307
0.7899959046
0.7899934611
0.7899936267
0.7899946744
0.7899951918
0.7899952522
0.7899946654
0.7899947585
0.7899951218
0.7899956152
0.7899961557
0.7899962788
0.7899961263
0.7899958433
0.7899954806
0.7899948837
0.7899945198
0.7899946391
0.7899948024
0.7899948139
0.789994784
0.7899944328
0.7899944675
0.7899953059
0.7899940426
0.7899936092
0.789993358
0.7899932507
0.789993328
0.7899942467
0.789994899
0.7899950928
0.7899947351
0.7899944662
0.7899946343
0.7899950011
0.7899955187
0.789996106
0.789996224
0.789996061
0.7899957896
0.7899954618
0.789995103
0.7899948671
0.7899948513
0.7899949221
0.7899949196
0.7899947508
0.7899943156
0.7899946812
0.7899945531
0.7899940121
0.7899937776
0.7899933874
0.7899930766
0.789993936
0.7899944723
0.7899947987
0.7899947616
0.7899947748
0.789994925
0.7899946512
0.7899946403
0.7899950113
0.7899956444
0.7899958373
0.7899957358
0.789995541
0.7899952999
0.7899950625
0.7899949221
0.7899949145
0.7899949682
0.7899949305
0.7899946943
0.7899942251
0.7899950239
0.7899945155
0.7899942674
0.7899939457
0.7899936325
0.7899937325
0.7899942212
0.7899945204
0.7899948074
0.7899950537
0.7899954366
0.7899954567
0.7899951492
0.7899948258
0.789994688
0.7899954715
0.7899956091
0.7899954502
0.7899952575
0.7899950907
0.7899949709
0.7899949207
0.7899949352
0.78999497
0.7899948937
0.7899946292
0.7899941851
0.7899948884
0.7899946507
0.7899943051
0.7899939919
0.7899937855
0.7899941541
0.789994566
0.7899947574
0.7899950008
0.7899952668
0.7899957871
0.7899958082
0.789995518
0.7899953193
0.7899947512
0.7899952384
0.7899952152
0.7899950404
0.7899948877
0.7899948223
0.7899948241
0.7899948587
0.7899948999
0.7899949136
0.7899948019
0.7899945254
0.7899941406
0.7899945846
0.7899944834
0.7899941726
0.7899939154
0.7899939329
0.7899944
0.7899947412
0.789994821
0.7899950083
0.7899950811
0.789995884
0.7899959239
0.7899956309
0.7899954544
0.7899949635
0.7899950036
0.7899949756
0.7899948798
0.7899948012
0.7899947768
0.7899947935
0.7899948233
0.7899948435
0.7899948097
0.7899946537
0.7899943736
0.7899940678
0.7899944599
0.7899943131
0.7899941049
0.7899939366
0.7899940394
0.7899944473
0.7899946625
0.7899944792
0.7899948588
0.7899944365
0.7899955366
0.7899957352
0.789995545
0.7899954141
0.7899950511
0.7899948788
0.7899948803
0.7899948539
0.789994826
0.7899948032
0.7899947766
0.7899947504
0.7899947161
0.7899946268
0.7899944397
0.7899941876
0.7899939862
0.7899948305
0.7899944941
0.7899942514
0.7899940065
0.7899939289
0.7899938212
0.7899941735
0.7899955611
0.7899987851
0.7899992345
0.7899946487
0.789993782
0.7899946785
0.7899950408
0.7899949528
0.789994773
0.7899947381
0.7899947386
0.789994735
0.78999471
0.789994649
0.789994571
0.7899944914
0.789994373
0.7899941936
0.7899940167
0.7899939287
0.7899951498
0.7899949025
0.789994641
0.7899944119
0.7899941764
0.7899938816
0.789993755
0.7899936857
0.7899954507
0.7900002382
0.789992621
0.7899928116
0.7899943739
0.7899948173
0.789994839
0.7899946901
0.7899946022
0.7899945838
0.7899945686
0.7899945203
0.7899944219
0.7899943163
0.7899942241
0.7899941084
0.7899939816
0.7899939105
0.7899939031
0.7899952741
0.789995093
0.7899949186
0.7899946532
0.7899945913
0.7899948413
0.7899952513
0.7899943882
0.7899935293
0.7899925275
0.7899916785
0.7899937022
0.7899944947
0.7899947317
0.7899947632
0.7899946415
0.7899945254
0.7899944632
0.7899944005
0.7899942984
0.789994174
0.7899940703
0.7899939812
0.7899938971
0.7899938558
0.7899938766
0.789993887
0.7899952953
0.7899951383
0.7899949675
0.7899947987
0.7899944953
0.7899947656
0.7899955191
0.7899949358
0.7899945216
0.7899920304
0.7899931902
0.7899941142
0.789994507
0.7899946787
0.789994708
0.7899946038
0.789994483
0.7899943702
0.7899942443
0.7899941092
0.7899939854
0.7899938788
0.7899937996
0.7899937762
0.7899938148
0.789993868
0.7899938169
0.7899952513
0.7899951214
0.7899949683
0.7899950343
0.7899948478
0.7899945221
0.7899949225
0.7899949814
0.7899949222
0.7899935826
0.7899936001
0.7899939994
0.7899943708
0.7899945256
0.7899945674
0.7899945112
0.7899944081
0.789994274
0.7899941256
0.7899939802
0.789993834
0.789993713
0.7899936748
0.7899937175
0.7899937819
0.7899937797
0.7899936226
0.78999517
0.7899950525
0.7899949609
0.7899955093
0.7899950601
0.7899948641
0.7899944057
0.7899948188
0.7899945156
0.7899935607
0.7899934118
0.7899939106
0.7899942032
0.7899943011
0.7899943356
0.789994329
0.7899942733
0.7899941552
0.7899939874
0.7899937861
0.7899935999
0.7899935157
0.7899935486
0.7899936169
0.7899936323
0.7899935304
0.789993306
0.7899950621
0.7899949513
0.7899950095
0.7899955276
0.7899951579
0.7899949619
0.7899945025
0.7899945431
0.7899939332
0.7899932934
0.7899933747
0.7899938481
0.7899940238
0.7899940961
0.7899941139
0.7899941412
0.7899941123
0.7899939757
0.7899937224
0.7899934386
0.7899932751
0.7899932789
0.7899933548
0.7899933948
0.7899933456
0.7899931917
0.7899929668
0.7899949465
0.7899948128
0.7899948928
0.7899951755
0.7899949722
0.7899948756
0.7899946244
0.7899943581
0.789993747
0.7899933619
0.7899934314
0.7899937365
0.7899938902
0.789993959
0.7899939758
0.7899940145
0.7899939578
0.789993738
0.7899933951
0.7899930772
0.7899929692
0.7899930352
0.7899931065
0.7899931033
0.789993025
0.7899928986
0.7899927778
0.789994841
0.7899946669
0.7899946714
0.7899947613
0.7899947525
0.7899947747
0.7899946376
0.7899942842
0.7899937673
0.7899935114
0.7899935539
0.7899936882
0.7899938354
0.7899939018
0.7899939185
0.7899939128
0.7899937732
0.7899934807
0.7899931236
0.7899928557
0.7899927995
0.7899928507
0.789992886
0.7899928717
0.7899928303
0.7899927851
0.789992751
0.789994769
0.7899945789
0.7899944561
0.7899944773
0.7899947014
0.78999472
0.7899945176
0.789994117
0.7899937185
0.7899936469
0.789993733
0.7899937641
0.7899938416
0.7899938783
0.7899938588
0.7899937721
0.789993563
0.7899932704
0.7899929714
0.7899927988
0.7899927674
0.7899927853
0.7899927979
0.7899927967
0.7899927907
0.7899927832
0.7899927747
0.7899946991
0.7899945244
0.7899943271
0.7899942624
0.7899946603
0.7899945103
0.7899942211
0.7899938893
0.7899936884
0.789993781
0.7899938756
0.7899938685
0.7899938644
0.7899938349
0.7899937618
0.7899936175
0.7899933993
0.7899931404
0.7899929019
0.7899927892
0.7899927746
0.7899927846
0.7899927925
0.789992797
0.7899927994
0.7899927982
0.7899927936
0.7899945466
0.7899943984
0.7899942566
0.7899941691
0.7899943381
0.7899941074
0.7899938845
0.7899936763
0.7899936742
0.7899938442
0.7899939403
0.7899939436
0.7899938997
0.7899938178
0.7899936947
0.7899935201
0.789993295
0.7899930269
0.789992828
0.7899927657
0.7899927716
0.7899927847
0.7899927927
0.7899927976
0.7899928007
0.7899928018
0.7899928012
0.7899938061
0.7899940154
0.7899941511
0.7899941824
0.7899941636
0.7899945395
0.7899939286
0.7899939652
0.7899950213
0.7899953163
0.7899954986
0.7899930019
0.7899929643
0.7899929818
0.7899931051
0.7899933914
0.7899935693
0.7899938937
0.7899939395
0.7899939258
0.7899937694
0.7899936393
0.7899936836
0.7899937681
0.7899938447
0.7899938843
0.7899938611
0.7899937791
0.7899934887
0.7899930488
0.7899938188
0.7899940769
0.7899937127
0.7899936478
0.7899937755
0.7899938895
0.7899940839
0.789993186
0.7899930364
0.7899929881
0.7899929668
0.7899929883
0.7899930959
0.7899932759
0.7899934516
0.7899936078
0.7899936153
0.7899936958
0.7899937019
0.7899935154
0.7899935614
0.7899937762
0.7899937572
0.7899934118
0.7899934474
0.7899936283
0.7899952196
0.789993953
0.789994023
0.7899937034
0.7899938062
0.7899936018
0.7899935397
0.7899936633
0.7899939853
0.7899934087
0.7899931524
0.7899930149
0.7899930212
0.7899931455
0.7899932938
0.7899935422
0.7899936183
0.7899936281
0.7899935717
0.789993588
0.7899935364
0.7899934742
0.7899934635
0.7899935532
0.7899937174
0.7899936673
0.7899936501
0.7899938277
0.7899940899
0.7899935332
0.7899937037
0.7899935567
0.7899934061
0.7899935813
0.7899937326
0.7899939056
0.7899941687
0.7899933765
0.7899931887
0.7899931539
0.7899933526
0.7899935757
0.7899937304
0.7899937554
0.789993801
0.7899939139
0.7899939142
0.7899939479
0.789993891
0.7899937991
0.7899936682
0.7899936489
0.789993719
0.7899938261
0.7899938579
0.7899939243
0.7899940521
0.7899939545
0.7899937374
0.7899936265
0.7899938891
0.789994303
0.7899943864
0.7899944113
0.7899935367
0.7899934431
0.7899932933
0.7899935027
0.7899936891
0.7899938594
0.7899939468
0.7899941852
0.7899945569
0.7899950107
0.7899951928
0.7899950077
0.78999471
0.7899942885
0.7899938273
0.789993716
0.7899938219
0.7899938419
0.7899938401
0.7899945885
0.7899946223
0.7899945004
0.7899942985
0.7899940823
0.7899945511
0.7899947697
0.7899946927
0.7899936969
0.7899935922
0.7899935176
0.7899935813
0.7899937614
0.7899939414
0.7899941039
0.7899944415
0.7899949507
0.7899954196
0.7899957323
0.7899955012
0.7899950458
0.7899943923
0.7899938902
0.7899937747
0.7899938755
0.7899939641
0.7899940313
0.7899941705
0.7899941918
0.7899940535
0.7899937901
0.7899936797
0.789994372
0.7899946766
0.7899946432
0.7899937905
0.7899936395
0.7899936957
0.7899937306
0.7899938766
0.7899939846
0.7899942413
0.7899946804
0.7899950518
0.7899953127
0.7899954793
0.7899952557
0.789994838
0.7899943679
0.7899940794
0.7899939887
0.7899940311
0.7899941899
0.7899943077
0.7899942087
0.7899940145
0.7899938648
0.7899939038
0.7899939065
0.7899940371
0.7899937595
0.7899941699
0.7899937913
0.789993511
0.7899938729
0.7899937648
0.7899940923
0.7899940247
0.7899942277
0.7899946126
0.7899950412
0.7899950224
0.7899950212
0.7899948267
0.7899945636
0.7899943058
0.7899941646
0.7899941927
0.7899943491
0.7899945565
0.7899946715
0.789994545
0.7899941925
0.7899940017
0.7899939388
0.7899939527
0.7899938691
0.7899937432
0.7899939357
0.789994065
0.7899950534
0.7899937753
0.7899935349
0.7899935289
0.7899935658
0.7899940827
0.7899945975
0.7899952959
0.789995298
0.7899947581
0.7899945178
0.7899943493
0.7899941952
0.7899941417
0.7899943709
0.7899946789
0.7899949789
0.7899952793
0.7899951672
0.7899945913
0.7899940547
0.7899938013
0.7899938471
0.7899939541
0.789993838
0.7899938934
0.7899938351
0.7899952319
0.7899940307
0.7899928252
0.7899937389
0.7899932763
0.7899934467
0.7899945804
0.7899950816
0.7899949724
0.7899942922
0.7899940776
0.7899940442
0.7899941739
0.7899942759
0.789994483
0.7899949236
0.7899953194
0.7899956986
0.7899956682
0.7899951726
0.7899945907
0.7899941633
0.7899939648
0.7899939154
0.7899940444
0.7899940652
0.7899938866
0.7899948248
0.7899936278
0.7899931951
0.7899946737
0.7899923977
0.7899935304
0.7899938059
0.7899943143
0.7899941994
0.7899939213
0.7899941752
0.7899942662
0.7899942979
0.7899952509
0.7899955457
0.7899955434
0.7899955565
0.789995704
0.7899956706
0.7899954766
0.7899951335
0.7899948019
0.7899945032
0.7899944599
0.7899942128
0.7899941489
0.7899941252
0.7899935437
0.789993834
0.7899935725
0.7899939537
0.7899931275
0.7899939172
0.7899939436
0.789993982
0.7899940571
0.7899942848
0.7899942849
0.7899943868
0.789994862
0.7899955478
0.7899958854
0.7899959683
0.7899958886
0.7899956875
0.7899954874
0.7899945424
0.7899935478
0.7899939713
0.789994121
0.789994141
0.7899941523
0.7899940831
0.7899944534
0.7899940739
0.7899939094
0.7899937279
0.7899938768
0.7899935017
0.7899941706
0.7899941821
0.7899942992
0.7899944621
0.7899945107
0.7899944994
0.7899945758
0.7899945745
0.7899953572
0.7899956857
0.7899957712
0.7899957035
0.7899956005
0.7899954458
0.7899950515
0.7899946306
0.7899944805
0.7899943652
0.789994296
0.7899941826
0.789994009
0.7899952894
0.7899947292
0.7899940086
0.7899937062
0.789993713
0.7899939496
0.7899941517
0.7899943088
0.7899945046
0.7899946781
0.7899949308
0.789994936
0.7899947143
0.7899943903
0.789994591
0.7899947796
0.7899949773
0.7899951627
0.7899953107
0.7899952836
0.7899950292
0.7899947062
0.7899944903
0.7899943401
0.7899942664
0.7899941526
0.7899939484
0.789995445
0.7899950712
0.7899942067
0.7899935804
0.7899935521
0.7899938129
0.7899940851
0.7899943058
0.789994641
0.7899950911
0.7899954796
0.7899952807
0.7899949673
0.7899945694
0.7899943737
0.7899941454
0.7899942788
0.789994669
0.789994987
0.7899950573
0.7899948993
0.78999465
0.7899944236
0.7899942727
0.789994233
0.7899941512
0.7899939626
0.7899951238
0.7899948966
0.7899940887
0.789993465
0.7899935192
0.7899938602
0.789994099
0.789994208
0.7899945722
0.7899952328
0.7899957768
0.7899956532
0.7899952451
0.7899947109
0.7899944311
0.7899943776
0.7899944553
0.789994581
0.7899947378
0.789994793
0.7899946978
0.7899945221
0.789994337
0.7899942149
0.7899941881
0.7899941177
0.7899939694
0.7899946343
0.789994473
0.789993827
0.7899934184
0.7899936298
0.7899939638
0.7899941527
0.7899941176
0.7899947271
0.7899952223
0.7899958613
0.7899958077
0.7899953737
0.7899948468
0.7899944308
0.7899944536
0.7899944691
0.7899944153
0.7899944458
0.7899944931
0.7899944588
0.7899943705
0.7899942642
0.7899941897
0.7899941391
0.7899940499
0.7899939427
0.7899942599
0.7899940863
0.7899936834
0.7899934925
0.7899937055
0.7899939324
0.789994096
0.789993765
0.7899950665
0.7899942063
0.7899952987
0.7899955328
0.789995304
0.7899948679
0.7899943606
0.789994254
0.789994247
0.7899941787
0.7899941765
0.7899942312
0.7899942473
0.7899942432
0.7899942159
0.7899941584
0.7899940644
0.7899939605
0.7899938966
0.7899943486
0.7899941191
0.7899938876
0.7899937377
0.7899938139
0.7899939174
0.7899944604
0.7899932512
0.7899945329
0.789992858
0.7899949388
0.7899953356
0.7899951653
0.7899947312
0.7899942817
0.7899940618
0.7899939936
0.7899939452
0.7899939546
0.7899940386
0.7899941011
0.7899941573
0.7899941501
0.7899940688
0.7899939526
0.7899938648
0.7899938459
0.7899943817
0.7899941876
0.7899940683
0.789994014
0.7899938925
0.7899938423
0.7899935985
0.7899935711
0.7899949634
0.7899910872
0.7899949585
0.7899951812
0.7899947842
0.7899944885
0.7899941522
0.7899939512
0.7899938364
0.7899937907
0.7899938324
0.789993941
0.7899940293
0.7899940637
0.7899940105
0.7899939074
0.7899938054
0.7899937663
0.7899937915
0.7899945057
0.7899942465
0.7899941932
0.7899941685
0.7899941832
0.7899938718
0.7899939613
0.7899940399
0.7899940372
0.7899940983
0.7899949116
0.7899946936
0.7899942748
0.7899941322
0.7899939846
0.7899938656
0.7899937714
0.7899937597
0.7899938375
0.7899939494
0.7899939807
0.7899939163
0.7899938029
0.7899936996
0.7899936438
0.7899936676
0.7899937142
0.7899946532
0.7899944697
0.7899943674
0.7899943882
0.789994277
0.7899938544
0.7899946002
0.7899940114
0.7899935359
0.7899941533
0.7899943909
0.7899944893
0.7899942847
0.7899941349
0.7899940142
0.7899939379
0.7899938692
0.7899938769
0.7899939428
0.7899939674
0.7899938708
0.789993711
0.7899935772
0.789993511
0.7899935103
0.7899935586
0.7899935715
0.7899946184
0.789994617
0.7899945824
0.7899948175
0.7899944974
0.7899942172
0.7899943805
0.7899937643
0.7899934847
0.7899937374
0.7899939383
0.789994295
0.7899943466
0.7899942115
0.7899940338
0.7899939768
0.789993957
0.7899939556
0.7899939386
0.7899938354
0.7899936436
0.7899934712
0.7899933885
0.7899933818
0.7899933992
0.7899933918
0.7899933238
0.789994529
0.7899946607
0.7899946983
0.7899951982
0.789994577
0.7899941913
0.7899941096
0.7899935413
0.7899933385
0.789993487
0.7899936559
0.7899939416
0.7899941562
0.7899941195
0.7899939026
0.789993823
0.7899938248
0.7899937965
0.7899936899
0.7899935046
0.7899933247
0.789993241
0.7899932437
0.7899932646
0.7899932482
0.7899931629
0.7899930228
0.7899945125
0.7899946226
0.7899946213
0.7899954055
0.7899947402
0.7899941944
0.7899938975
0.7899935393
0.789993431
0.7899934448
0.7899935112
0.7899936518
0.7899938365
0.7899938671
0.7899936703
0.7899935145
0.7899935281
0.7899934748
0.7899933054
0.7899931187
0.7899930381
0.789993063
0.789993109
0.7899931142
0.7899930633
0.7899929609
0.7899928362
0.7899944954
0.7899945626
0.7899944711
0.7899951087
0.7899945558
0.7899940598
0.7899937253
0.7899935602
0.7899935737
0.7899935785
0.7899935693
0.7899936224
0.7899936611
0.7899936346
0.789993437
0.7899932452
0.7899932676
0.7899931927
0.7899930142
0.7899928868
0.7899928916
0.7899929547
0.7899929933
0.7899929874
0.7899929511
0.7899929032
0.7899928535
0.7899944488
0.7899944666
0.7899943613
0.789994457
0.7899941076
0.789993876
0.7899936313
0.7899936555
0.7899937239
0.7899937877
0.7899937654
0.7899937324
0.7899936546
0.7899935172
0.7899933134
0.7899931998
0.7899931746
0.7899930553
0.7899929054
0.7899928557
0.7899928923
0.7899929412
0.7899929669
0.7899929735
0.7899929713
0.7899929671
0.7899929641
0.7899944022
0.7899943398
0.7899942408
0.7899941153
0.789993897
0.7899937612
0.7899937319
0.789993746
0.7899937815
0.7899939064
0.7899938982
0.7899938137
0.7899936932
0.7899935178
0.7899933697
0.7899932803
0.7899931707
0.7899930143
0.7899929054
0.7899929036
0.789992952
0.7899929933
0.7899930184
0.7899930357
0.789993047
0.7899930513
0.7899930582
0.7899943641
0.7899942373
0.7899941271
0.7899940304
0.7899938851
0.789993851
0.7899938364
0.7899937104
0.7899937045
0.7899938243
0.7899938492
0.7899937928
0.7899936984
0.7899935753
0.7899934554
0.7899933163
0.7899931447
0.7899929801
0.7899929091
0.7899929389
0.7899929969
0.7899930405
0.7899930681
0.7899930871
0.7899930998
0.7899931056
0.7899931132
0.7899942721
0.7899941564
0.7899940861
0.7899940449
0.7899940033
0.789993859
0.7899936969
0.789993541
0.7899935687
0.7899937079
0.7899937845
0.7899937869
0.7899937403
0.7899936533
0.7899935218
0.7899933297
0.7899930899
0.7899929053
0.7899928751
0.7899929436
0.7899930164
0.7899930644
0.7899930936
0.7899931124
0.7899931246
0.7899931322
0.7899931417
0.789993657
0.7899940647
0.7899942933
0.7899944175
0.7899944034
0.7899944454
0.7899939561
0.7899937056
0.7899942764
0.7899951196
0.7899954975
0.789995527
0.7899952139
0.7899945408
0.7899937202
0.7899932979
0.7899932443
0.7899932148
0.7899932813
0.7899935508
0.7899932689
0.7899940877
0.7899940817
0.7899941067
0.7899937995
0.7899934984
0.789993575
0.7899937341
0.7899938932
0.7899937095
0.7899934841
0.789993313
0.7899930763
0.789992705
0.7899930773
0.7899932497
0.7899932843
0.7899935256
0.7899937217
0.7899937745
0.7899938913
0.7899933309
0.7899932944
0.7899932727
0.7899932379
0.7899931948
0.7899932088
0.7899933235
0.7899934917
0.7899937203
0.7899936965
0.789993806
0.7899935846
0.7899934475
0.789993385
0.7899934228
0.7899933746
0.78999317
0.7899932855
0.789994418
0.7899947001
0.7899947014
0.7899937691
0.7899929279
0.7899931531
0.7899932866
0.789993398
0.7899935357
0.7899938798
0.7899933771
0.7899932627
0.7899932054
0.7899932142
0.7899932871
0.7899933361
0.7899933567
0.7899934183
0.7899935309
0.7899935594
0.7899936939
0.7899934919
0.7899934167
0.7899933001
0.789993282
0.7899933504
0.7899932939
0.7899933131
0.7899933313
0.7899937819
0.7899933148
0.7899930849
0.7899930939
0.7899933123
0.7899936769
0.7899938539
0.7899940114
0.7899942006
0.7899933444
0.7899932744
0.7899932843
0.7899933971
0.7899934435
0.7899934797
0.7899935262
0.7899935906
0.7899937508
0.7899941978
0.7899942332
0.7899938394
0.7899934914
0.7899932864
0.7899932783
0.7899933315
0.789993504
0.7899936679
0.7899942648
0.78999477
0.7899946389
0.7899940137
0.7899941529
0.7899947597
0.7899950542
0.7899949396
0.7899946592
0.7899934582
0.7899935691
0.7899933891
0.7899936279
0.7899935012
0.7899936026
0.7899937399
0.7899940584
0.7899945709
0.7899952556
0.789995409
0.7899950405
0.7899946139
0.7899940372
0.7899934207
0.7899934244
0.7899935933
0.7899937209
0.7899944973
0.7899949389
0.7899949702
0.7899946286
0.7899945093
0.7899947703
0.7899951482
0.7899952362
0.7899950448
0.7899934988
0.7899934358
0.7899934014
0.7899934753
0.7899936119
0.7899936782
0.7899939721
0.7899944904
0.7899951061
0.7899956824
0.7899959218
0.7899956003
0.7899950379
0.7899941226
0.7899935468
0.7899935673
0.7899937222
0.7899938146
0.7899938967
0.7899944541
0.7899944682
0.7899941071
0.78999374
0.7899940505
0.7899948041
0.789995045
0.7899949142
0.7899935587
0.7899935506
0.7899935289
0.7899935477
0.7899935821
0.7899937458
0.7899941708
0.7899947866
0.7899952938
0.7899955791
0.7899957482
0.7899954069
0.7899948586
0.7899940421
0.7899937935
0.7899937905
0.7899939236
0.7899940806
0.7899940876
0.7899939433
0.7899938109
0.789993684
0.789993662
0.789993694
0.7899939683
0.7899941404
0.7899946548
0.789993625
0.7899936757
0.7899937231
0.7899935656
0.789993622
0.7899936185
0.7899940083
0.7899949484
0.7899953227
0.7899953194
0.7899951596
0.7899947364
0.7899943674
0.7899940081
0.7899939946
0.7899940357
0.7899942291
0.7899944562
0.7899944625
0.7899940164
0.7899937721
0.7899936811
0.7899936876
0.7899936772
0.7899937315
0.7899937321
0.7899939671
0.7899947556
0.7899950819
0.7899942248
0.789993869
0.7899949275
0.789993609
0.7899939792
0.7899947252
0.7899953603
0.7899953862
0.7899948235
0.789994211
0.789994031
0.7899940473
0.7899941102
0.7899942555
0.7899945702
0.7899949568
0.7899952951
0.7899952624
0.7899947221
0.7899939177
0.7899936783
0.7899936789
0.7899937378
0.789993651
0.789993758
0.7899942108
0.7899951245
0.789994411
0.7899932012
0.7899944244
0.7899931928
0.7899934588
0.7899945001
0.7899950621
0.7899948808
0.7899941868
0.7899940358
0.7899940795
0.7899942391
0.7899943858
0.7899945999
0.7899950203
0.7899956175
0.7899959152
0.789995915
0.78999523
0.7899942449
0.7899937398
0.7899935556
0.7899936707
0.7899937558
0.7899937908
0.7899941107
0.7899947616
0.789993726
0.7899935205
0.7899946987
0.78999374
0.7899937528
0.7899936262
0.7899940994
0.7899942229
0.7899940396
0.78999419
0.7899943316
0.7899952377
0.7899957229
0.7899960116
0.789996106
0.7899961271
0.7899961383
0.789995933
0.7899956997
0.7899950915
0.7899947474
0.789994182
0.7899938885
0.7899938537
0.7899938723
0.7899938674
0.7899937323
0.7899937064
0.7899936352
0.7899933035
0.7899936705
0.7899937408
0.7899937747
0.7899939807
0.7899941413
0.7899943194
0.789994407
0.7899946904
0.7899954569
0.7899959334
0.7899962505
0.7899963326
0.7899963173
0.7899960531
0.7899957371
0.7899942983
0.7899898925
0.7899930404
0.7899937819
0.7899937701
0.7899937284
0.7899937931
0.7899945985
0.7899939978
0.7899937015
0.7899936322
0.7899935976
0.7899936955
0.7899938891
0.7899940005
0.7899941619
0.7899944265
0.789994792
0.789994888
0.7899949665
0.7899951815
0.7899956245
0.7899959485
0.7899960791
0.7899961028
0.7899959961
0.7899957705
0.7899950912
0.7899943625
0.7899943794
0.7899942281
0.7899940149
0.7899938148
0.7899937786
0.7899955194
0.789994908
0.7899938994
0.789993485
0.7899934551
0.7899936432
0.7899938317
0.7899940241
0.789994307
0.7899947317
0.7899953051
0.7899950983
0.7899949928
0.7899946357
0.7899948994
0.7899950862
0.7899952997
0.7899955158
0.7899956102
0.7899955041
0.7899951477
0.7899946261
0.7899943769
0.7899941607
0.7899939728
0.7899937625
0.7899937452
0.7899956999
0.7899952555
0.7899942133
0.789993367
0.7899933107
0.7899934838
0.7899936832
0.7899938299
0.7899942335
0.7899950917
0.7899956791
0.7899949372
0.7899950346
0.7899944105
0.7899945173
0.7899945595
0.7899946674
0.7899949274
0.7899951739
0.7899952395
0.78999504
0.7899947095
0.7899944161
0.7899941791
0.7899940176
0.7899938906
0.7899938279
0.7899953471
0.789995026
0.7899939749
0.7899932561
0.7899932581
0.7899934505
0.7899936134
0.7899936277
0.7899941415
0.7899952017
0.7899958668
0.7899955012
0.7899952456
0.7899944606
0.789994603
0.7899946377
0.789994619
0.789994692
0.7899948566
0.7899949631
0.7899948921
0.7899947126
0.7899944833
0.7899942434
0.7899940519
0.7899939314
0.7899938682
0.7899947439
0.7899944301
0.7899935125
0.7899932277
0.7899933657
0.7899935056
0.78999357
0.789993423
0.7899934216
0.7899947785
0.7899956208
0.7899955809
0.7899952412
0.7899945204
0.7899945973
0.7899946617
0.789994573
0.7899944856
0.7899945802
0.7899947097
0.7899947332
0.7899946507
0.7899944824
0.7899942595
0.7899940393
0.7899939008
0.7899938529
0.7899942637
0.7899939569
0.7899933214
0.7899932005
0.7899932919
0.7899931598
0.7899934686
0.7899931953
0.7899941224
0.789994593
0.7899946058
0.7899950813
0.7899950417
0.7899945282
0.7899943216
0.7899942736
0.7899942276
0.7899941951
0.7899943251
0.7899944645
0.7899945236
0.7899944945
0.7899943806
0.7899941819
0.7899939566
0.7899938201
0.7899937999
0.7899940608
0.7899937852
0.7899935485
0.7899934071
0.7899934432
0.789993287
0.7899936892
0.7899926844
0.7899931813
0.7899926253
0.7899938859
0.7899945764
0.7899946208
0.7899942791
0.789993972
0.7899938499
0.7899938776
0.7899939725
0.7899941518
0.7899942597
0.7899942892
0.789994271
0.7899941852
0.7899940099
0.7899938081
0.7899937068
0.7899937257
0.7899938958
0.7899937175
0.7899936307
0.7899935665
0.789993491
0.7899932675
0.7899939209
0.7899932803
0.7899938454
0.7899932529
0.7899936937
0.7899939827
0.7899940407
0.7899938677
0.7899937227
0.7899936732
0.7899937502
0.7899938937
0.7899940459
0.789994096
0.7899940634
0.7899940156
0.7899939312
0.7899937793
0.7899936247
0.7899935769
0.7899936354
0.7899941081
0.7899940111
0.7899937368
0.7899936633
0.7899936563
0.7899929144
0.7899939433
0.7899935245
0.7899932326
0.7899933625
0.7899936446
0.7899936378
0.7899937514
0.7899936912
0.7899936491
0.7899936524
0.7899937263
0.7899938587
0.7899939688
0.7899939538
0.7899938491
0.7899937497
0.7899936587
0.789993547
0.7899934536
0.7899934441
0.7899935085
0.7899944322
0.7899944917
0.7899940731
0.7899940135
0.7899938446
0.7899932837
0.7899942805
0.7899936012
0.789993296
0.7899934293
0.7899937085
0.7899938736
0.7899941355
0.789994004
0.7899937973
0.7899937296
0.7899937485
0.7899938248
0.7899938726
0.7899937872
0.7899936231
0.7899935007
0.7899934346
0.7899933793
0.7899933284
0.7899933045
0.7899933175
0.7899944356
0.7899947583
0.789994725
0.7899946612
0.7899939536
0.7899936633
0.7899939828
0.7899934207
0.7899932777
0.7899932938
0.7899935877
0.7899940575
0.7899943706
0.789994257
0.7899939137
0.7899937433
0.7899937095
0.7899937103
0.7899936744