/*--------------------------------*- C++ -*----------------------------------*\
  =========                 |
  \\      /  F ield         | OpenFOAM: The Open Source CFD Toolbox
   \\    /   O peration     | Website:  https://openfoam.org
    \\  /    A nd           | Version:  8
     \\/     M anipulation  |
\*---------------------------------------------------------------------------*/
FoamFile
{
    version     2.0;
    format      ascii;
    class       volScalarField;
    location    "0.5";
    object      O2;
}
// * * * * * * * * * * * * * * * * * * * * * * * * * * * * * * * * * * * * * //

dimensions      [0 0 0 0 0 0 0];

internalField   nonuniform List<scalar> 
67451
(
0.2100063507
0.2100062129
0.2100060315
0.2100059967
0.2100057836
0.2100061563
0.2100060535
0.210005369
0.2100051023
0.2100046424
0.210004366
0.2100071526
0.2100071424
0.2100070421
0.2100068399
0.2100066053
0.2100064439
0.2100062169
0.2100060927
0.2100059497
0.2100061988
0.2100061488
0.2100059694
0.2100057499
0.2100053014
0.2100051913
0.2100051289
0.210005214
0.2100055145
0.2100040757
0.2100059869
0.2100067608
0.2100066221
0.2100065378
0.2100063297
0.2100060276
0.210005544
0.2100066413
0.2100070206
0.2100071326
0.2100071026
0.2100069555
0.2100067641
0.2100065923
0.21000646
0.2100063439
0.210006276
0.2100060945
0.2100061533
0.2100059661
0.2100058295
0.2100057625
0.2100053627
0.2100054159
0.2100052683
0.210004425
0.2100032924
0.209997972
0.2100008956
0.2100055665
0.2100076589
0.2100072621
0.2100067119
0.2100063482
0.2100058192
0.2100062478
0.2100066862
0.2100069086
0.2100068571
0.2100065525
0.2100062648
0.210006074
0.2100060333
0.2100060761
0.2100061244
0.2100060843
0.210005803
0.2100057411
0.2100057055
0.2100057337
0.2100056246
0.2100055825
0.2100055093
0.2100055455
0.2100054584
0.2100038035
0.2100067208
0.2100072483
0.2100064629
0.2100061292
0.2100060811
0.2100060693
0.2100058017
0.2100063739
0.2100066453
0.2100066107
0.2100062514
0.2100059204
0.2100057395
0.2100056843
0.2100056304
0.2100055495
0.2100055011
0.2100054607
0.2100055299
0.2100055702
0.210005603
0.210005711
0.2100057022
0.2100056171
0.2100057635
0.2100058253
0.2100066823
0.2100070984
0.210006524
0.2100061637
0.2100059295
0.2100057847
0.2100058076
0.2100057624
0.2100062018
0.2100062206
0.2100064752
0.2100061663
0.2100059018
0.2100057112
0.2100055668
0.2100053961
0.2100051974
0.210005075
0.21000486
0.2100049626
0.2100051322
0.2100053553
0.2100055194
0.2100057234
0.2100058437
0.2100059577
0.2100059236
0.2100063519
0.2100058589
0.2100055691
0.2100055298
0.2100055236
0.2100054202
0.210005427
0.2100055868
0.2100060151
0.2100060168
0.2100063037
0.2100061697
0.2100060358
0.2100058491
0.2100055197
0.2100052647
0.2100049922
0.2100049533
0.2100046062
0.2100046183
0.2100048973
0.2100052518
0.2100055145
0.2100057092
0.2100058223
0.2100059051
0.2100057592
0.2100057319
0.2100055902
0.2100055517
0.2100055353
0.2100054673
0.2100055914
0.2100057749
0.2100056051
0.2100058488
0.2100054538
0.2100061995
0.2100062711
0.2100062064
0.2100061995
0.210005561
0.2100051855
0.210004802
0.2100049165
0.21000504
0.2100050055
0.210005124
0.2100053151
0.2100055109
0.2100056492
0.2100057063
0.2100055986
0.2100053468
0.2100053876
0.2100053447
0.2100054669
0.2100055656
0.2100055956
0.2100063067
0.2100062653
0.2100060926
0.2100055916
0.2100049996
0.2100059451
0.2100062762
0.2100058529
0.2100061618
0.2100056763
0.2100050967
0.2100046006
0.2100047135
0.2100050051
0.2100052154
0.2100052973
0.210005404
0.2100055542
0.2100053998
0.2100053687
0.2100052493
0.2100049537
0.2100050335
0.2100051492
0.2100052692
0.2100053572
0.2100054732
0.2100058377
0.2100060374
0.2100058236
0.2100053412
0.2100044773
0.2100055652
0.2100058214
0.2100052684
0.2100050933
0.2100058834
0.2100051205
0.2100044146
0.2100045208
0.2100048974
0.2100052094
0.2100054154
0.2100055641
0.2100056979
0.210004959
0.210004915
0.2100049893
0.2100047013
0.2100047469
0.2100050261
0.2100052567
0.2100053432
0.2100053607
0.2100054866
0.210005775
0.2100058128
0.2100043837
0.2100036018
0.210004341
0.2100041326
0.2100033525
0.2100029963
0.210004623
0.2100059077
0.2100053446
0.2100048823
0.2100049943
0.210004989
0.210004867
0.2100051909
0.2100054394
0.2100047116
0.2100045791
0.2100047228
0.2100045704
0.2100045244
0.2100047348
0.2100053052
0.2100053483
0.2100053457
0.2100051721
0.2100051855
0.210005478
0.2100044408
0.2100038778
0.2100049814
0.2100052076
0.2100039254
0.210002044
0.2100044257
0.2100063566
0.2100054921
0.2100049803
0.2100047532
0.2100047004
0.2100051735
0.2100055546
0.210005072
0.2100043706
0.210004281
0.2100043873
0.2100044753
0.2100045171
0.2100045444
0.2100047297
0.2100048838
0.2100049838
0.2100053758
0.2100052328
0.2100054854
0.2100049093
0.2100042108
0.2100054802
0.2100061631
0.2100055693
0.2100040954
0.2100065389
0.2100063733
0.2100053256
0.2100048082
0.2100047478
0.2100053346
0.2100052415
0.2100048782
0.2100043848
0.2100038443
0.2100037212
0.2100038737
0.2100041567
0.2100045194
0.2100051163
0.2100054802
0.2100053609
0.2100051976
0.2100051861
0.210005216
0.2100055672
0.2100055325
0.2100046941
0.2100059574
0.2100063908
0.210006642
0.2100067493
0.210006672
0.2100057533
0.210005101
0.2100049072
0.2100052649
0.2100055338
0.2100053657
0.2100049989
0.2100044813
0.210003894
0.210003776
0.210003939
0.2100042104
0.2100045382
0.210004897
0.2100051329
0.2100051487
0.2100050779
0.2100050804
0.2100052492
0.2100056844
0.2100053188
0.2100054469
0.2100059879
0.2100062224
0.2100066126
0.2100069234
0.210006064
0.2100055277
0.2100052013
0.2100052384
0.2100052252
0.210005075
0.2100053488
0.2100053597
0.2100049887
0.2100043556
0.2100041627
0.2100042642
0.210004459
0.2100047001
0.2100049375
0.2100050779
0.2100050855
0.2100050318
0.2100050695
0.2100053057
0.2100057749
0.2100049761
0.2100054845
0.2100057326
0.2100060543
0.2100063675
0.2100062675
0.2100057788
0.2100054796
0.2100051926
0.2100049463
0.2100045634
0.2100045433
0.2100048508
0.2100051742
0.210005312
0.2100045285
0.2100043909
0.2100045498
0.2100047425
0.2100049093
0.2100050291
0.2100050793
0.2100050648
0.21000503
0.2100051063
0.2100053708
0.2100058149
0.2100051116
0.2100053493
0.2100056949
0.2100060081
0.2100062145
0.2100058459
0.210005434
0.2100052426
0.2100049992
0.2100047332
0.2100042129
0.2100041918
0.210004482
0.2100046807
0.2100052488
0.2100047616
0.2100047848
0.2100049596
0.2100051123
0.2100051777
0.2100051759
0.2100051413
0.2100051001
0.2100050864
0.2100051981
0.2100054746
0.2100058594
0.2100054154
0.2100055166
0.2100058274
0.2100060846
0.2100060671
0.2100056
0.2100052588
0.210005179
0.2100049917
0.2100049189
0.210004116
0.2100040761
0.2100043691
0.2100045456
0.2100050365
0.2100049964
0.2100050244
0.2100051202
0.2100051988
0.2100052232
0.2100052065
0.2100051767
0.2100051565
0.2100051903
0.2100053463
0.2100056264
0.2100059322
0.2100055401
0.2100056869
0.2100058951
0.2100060634
0.2100059606
0.2100055527
0.2100053375
0.2100055208
0.2100051412
0.2100055635
0.2100044634
0.2100042648
0.210004455
0.2100045859
0.2100049489
0.2100051212
0.2100051197
0.2100051461
0.210005174
0.2100051968
0.2100052234
0.2100052496
0.2100052839
0.2100053732
0.2100055603
0.2100058124
0.2100060138
0.2100051695
0.2100055059
0.2100057486
0.2100059935
0.2100060711
0.2100061788
0.2100058265
0.2100044389
0.2100012149
0.2100007655
0.2100053513
0.210006218
0.2100053215
0.2100049592
0.2100050472
0.210005227
0.2100052619
0.2100052614
0.210005265
0.21000529
0.210005351
0.210005429
0.2100055086
0.210005627
0.2100058064
0.2100059833
0.2100060713
0.2100048502
0.2100050975
0.210005359
0.2100055881
0.2100058236
0.2100061184
0.210006245
0.2100063143
0.2100045493
0.2099997618
0.210007379
0.2100071884
0.2100056261
0.2100051827
0.210005161
0.2100053099
0.2100053978
0.2100054162
0.2100054314
0.2100054797
0.2100055781
0.2100056837
0.2100057759
0.2100058916
0.2100060184
0.2100060895
0.2100060969
0.2100047259
0.210004907
0.2100050814
0.2100053468
0.2100054087
0.2100051587
0.2100047487
0.2100056118
0.2100064707
0.2100074725
0.2100083215
0.2100062978
0.2100055053
0.2100052683
0.2100052368
0.2100053585
0.2100054746
0.2100055368
0.2100055995
0.2100057016
0.210005826
0.2100059297
0.2100060188
0.2100061029
0.2100061442
0.2100061234
0.210006113
0.2100047047
0.2100048617
0.2100050325
0.2100052013
0.2100055047
0.2100052344
0.2100044809
0.2100050642
0.2100054784
0.2100079696
0.2100068098
0.2100058858
0.210005493
0.2100053213
0.210005292
0.2100053962
0.210005517
0.2100056298
0.2100057557
0.2100058908
0.2100060146
0.2100061212
0.2100062004
0.2100062238
0.2100061852
0.210006132
0.2100061831
0.2100047487
0.2100048786
0.2100050317
0.2100049657
0.2100051522
0.2100054779
0.2100050775
0.2100050186
0.2100050778
0.2100064174
0.2100063999
0.2100060006
0.2100056292
0.2100054744
0.2100054326
0.2100054888
0.2100055919
0.210005726
0.2100058744
0.2100060198
0.210006166
0.210006287
0.2100063252
0.2100062825
0.2100062181
0.2100062203
0.2100063774
0.21000483
0.2100049475
0.2100050391
0.2100044907
0.2100049399
0.2100051359
0.2100055943
0.2100051812
0.2100054844
0.2100064393
0.2100065882
0.2100060894
0.2100057968
0.2100056989
0.2100056644
0.210005671
0.2100057267
0.2100058448
0.2100060126
0.2100062139
0.2100064001
0.2100064843
0.2100064514
0.2100063831
0.2100063677
0.2100064696
0.210006694
0.2100049379
0.2100050487
0.2100049905
0.2100044724
0.2100048421
0.2100050381
0.2100054975
0.2100054569
0.2100060668
0.2100067066
0.2100066253
0.2100061519
0.2100059762
0.2100059039
0.2100058861
0.2100058588
0.2100058877
0.2100060243
0.2100062776
0.2100065614
0.2100067249
0.2100067211
0.2100066452
0.2100066052
0.2100066544
0.2100068083
0.2100070332
0.2100050535
0.2100051872
0.2100051072
0.2100048245
0.2100050278
0.2100051244
0.2100053756
0.2100056419
0.210006253
0.2100066381
0.2100065686
0.2100062635
0.2100061098
0.210006041
0.2100060242
0.2100059855
0.2100060422
0.210006262
0.2100066049
0.2100069228
0.2100070308
0.2100069648
0.2100068935
0.2100068967
0.210006975
0.2100071014
0.2100072222
0.210005159
0.2100053331
0.2100053286
0.2100052387
0.2100052475
0.2100052253
0.2100053624
0.2100057158
0.2100062327
0.2100064886
0.2100064461
0.2100063118
0.2100061646
0.2100060982
0.2100060815
0.2100060872
0.2100062268
0.2100065193
0.2100068764
0.2100071443
0.2100072005
0.2100071493
0.210007114
0.2100071283
0.2100071697
0.2100072149
0.210007249
0.210005231
0.2100054211
0.2100055439
0.2100055227
0.2100052986
0.21000528
0.2100054824
0.210005883
0.2100062815
0.2100063531
0.210006267
0.2100062359
0.2100061584
0.2100061217
0.2100061412
0.2100062279
0.210006437
0.2100067296
0.2100070286
0.2100072012
0.2100072326
0.2100072147
0.2100072021
0.2100072033
0.2100072093
0.2100072168
0.2100072253
0.2100053009
0.2100054756
0.2100056729
0.2100057376
0.2100053397
0.2100054897
0.2100057789
0.2100061107
0.2100063116
0.210006219
0.2100061244
0.2100061315
0.2100061356
0.2100061651
0.2100062382
0.2100063825
0.2100066007
0.2100068596
0.2100070981
0.2100072108
0.2100072254
0.2100072154
0.2100072075
0.210007203
0.2100072006
0.2100072018
0.2100072064
0.2100054534
0.2100056016
0.2100057434
0.2100058309
0.2100056619
0.2100058926
0.2100061155
0.2100063237
0.2100063258
0.2100061558
0.2100060597
0.2100060564
0.2100061003
0.2100061822
0.2100063053
0.2100064799
0.210006705
0.2100069731
0.210007172
0.2100072343
0.2100072284
0.2100072153
0.2100072073
0.2100072024
0.2100071993
0.2100071982
0.2100071988
0.2100061939
0.2100059846
0.2100058489
0.2100058176
0.2100058364
0.2100054605
0.2100060714
0.2100060348
0.2100049787
0.2100046837
0.2100045014
0.2100069981
0.2100070357
0.2100070182
0.2100068949
0.2100066086
0.2100064307
0.2100061063
0.2100060605
0.2100060742
0.2100062306
0.2100063607
0.2100063164
0.2100062319
0.2100061553
0.2100061157
0.2100061389
0.2100062209
0.2100065113
0.2100069512
0.2100061812
0.2100059231
0.2100062873
0.2100063522
0.2100062245
0.2100061105
0.2100059161
0.210006814
0.2100069636
0.2100070119
0.2100070332
0.2100070117
0.2100069041
0.2100067241
0.2100065484
0.2100063922
0.2100063847
0.2100063042
0.2100062981
0.2100064846
0.2100064386
0.2100062238
0.2100062428
0.2100065882
0.2100065526
0.2100063717
0.2100047804
0.210006047
0.210005977
0.2100062966
0.2100061938
0.2100063982
0.2100064603
0.2100063367
0.2100060147
0.2100065913
0.2100068476
0.2100069851
0.2100069788
0.2100068545
0.2100067062
0.2100064578
0.2100063817
0.2100063719
0.2100064283
0.210006412
0.2100064636
0.2100065258
0.2100065365
0.2100064468
0.2100062826
0.2100063327
0.2100063499
0.2100061723
0.2100059101
0.2100064668
0.2100062963
0.2100064433
0.2100065939
0.2100064187
0.2100062674
0.2100060944
0.2100058313
0.2100066235
0.2100068113
0.2100068461
0.2100066474
0.2100064243
0.2100062696
0.2100062446
0.210006199
0.2100060861
0.2100060858
0.2100060521
0.210006109
0.2100062009
0.2100063318
0.2100063511
0.210006281
0.2100061739
0.2100061421
0.2100060757
0.2100059479
0.2100060455
0.2100062626
0.2100063735
0.2100061109
0.210005697
0.2100056136
0.2100055887
0.2100064633
0.2100065569
0.2100067067
0.2100064973
0.2100063109
0.2100061406
0.2100060532
0.2100058148
0.2100054431
0.2100049893
0.2100048072
0.2100049923
0.21000529
0.2100057115
0.2100061727
0.210006284
0.2100061781
0.2100061581
0.2100061599
0.2100054115
0.2100053777
0.2100054996
0.2100057015
0.2100059177
0.2100054489
0.2100052303
0.2100053073
0.2100063031
0.2100064078
0.2100064824
0.2100064187
0.2100062386
0.2100060586
0.2100058961
0.2100055585
0.2100050493
0.2100045804
0.2100042677
0.2100044988
0.2100049542
0.2100056077
0.2100061098
0.2100062253
0.2100061245
0.2100060359
0.2100059687
0.2100058295
0.2100058082
0.2100059465
0.2100062099
0.2100063203
0.210005628
0.2100053234
0.2100053568
0.2100062095
0.2100063605
0.2100063043
0.2100062694
0.2100061234
0.2100060154
0.2100057587
0.2100053196
0.2100049482
0.2100046873
0.2100045207
0.2100047443
0.210005162
0.2100056321
0.2100059206
0.2100060113
0.2100059689
0.2100058101
0.2100056923
0.2100057913
0.2100059855
0.2100061352
0.2100060962
0.2100060935
0.2100059629
0.2100062405
0.2100058301
0.2100062087
0.210006489
0.2100061271
0.2100062352
0.2100059077
0.2100059753
0.2100057723
0.2100053874
0.2100049588
0.2100049776
0.2100049788
0.2100051733
0.2100054364
0.2100056942
0.2100058354
0.2100058073
0.2100056509
0.2100054435
0.2100053285
0.210005455
0.2100058075
0.2100059983
0.2100060612
0.2100060473
0.2100061309
0.2100062568
0.2100060643
0.210005935
0.2100049466
0.2100062247
0.2100064651
0.2100064711
0.2100064342
0.2100059173
0.2100054025
0.2100047041
0.210004702
0.2100052419
0.2100054822
0.2100056507
0.2100058048
0.2100058583
0.2100056291
0.2100053211
0.2100050211
0.2100047207
0.2100048328
0.2100054087
0.2100059453
0.2100061987
0.2100061529
0.2100060459
0.210006162
0.2100061066
0.2100061649
0.2100047681
0.2100059693
0.2100071748
0.2100062611
0.2100067237
0.2100065533
0.2100054196
0.2100049184
0.2100050276
0.2100057078
0.2100059224
0.2100059558
0.2100058261
0.2100057241
0.210005517
0.2100050764
0.2100046806
0.2100043014
0.2100043318
0.2100048274
0.2100054093
0.2100058367
0.2100060352
0.2100060846
0.2100059556
0.2100059348
0.2100061134
0.2100051752
0.2100063722
0.2100068049
0.2100053263
0.2100076023
0.2100064696
0.2100061941
0.2100056857
0.2100058006
0.2100060787
0.2100058248
0.2100057338
0.2100057021
0.2100047491
0.2100044543
0.2100044566
0.2100044435
0.210004296
0.2100043294
0.2100045234
0.2100048665
0.2100051981
0.2100054968
0.2100055401
0.2100057872
0.2100058511
0.2100058748
0.2100064563
0.210006166
0.2100064275
0.2100060463
0.2100068725
0.2100060828
0.2100060564
0.210006018
0.2100059429
0.2100057152
0.2100057151
0.2100056132
0.210005138
0.2100044522
0.2100041146
0.2100040317
0.2100041114
0.2100043125
0.2100045126
0.2100054576
0.2100064522
0.2100060287
0.210005879
0.210005859
0.2100058477
0.2100059169
0.2100055466
0.2100059261
0.2100060906
0.2100062721
0.2100061232
0.2100064983
0.2100058294
0.2100058179
0.2100057008
0.2100055379
0.2100054893
0.2100055006
0.2100054242
0.2100054255
0.2100046428
0.2100043143
0.2100042288
0.2100042965
0.2100043995
0.2100045542
0.2100049485
0.2100053694
0.2100055195
0.2100056348
0.210005704
0.2100058174
0.210005991
0.2100047106
0.2100052708
0.2100059914
0.2100062938
0.210006287
0.2100060504
0.2100058483
0.2100056912
0.2100054954
0.2100053219
0.2100050692
0.210005064
0.2100052857
0.2100056097
0.210005409
0.2100052204
0.2100050227
0.2100048373
0.2100046893
0.2100047164
0.2100049708
0.2100052938
0.2100055097
0.2100056599
0.2100057336
0.2100058474
0.2100060516
0.210004555
0.2100049288
0.2100057933
0.2100064196
0.2100064479
0.2100061871
0.2100059149
0.2100056942
0.210005359
0.2100049089
0.2100045204
0.2100047193
0.2100050327
0.2100054306
0.2100056263
0.2100058546
0.2100057212
0.210005331
0.210005013
0.2100049427
0.2100051007
0.21000535
0.2100055764
0.2100057273
0.210005767
0.2100058488
0.2100060374
0.2100048762
0.2100051034
0.2100059113
0.210006535
0.2100064808
0.2100061398
0.210005901
0.210005792
0.2100054278
0.2100047672
0.2100042232
0.2100043468
0.2100047549
0.2100052891
0.2100055689
0.2100056224
0.2100055447
0.210005419
0.2100052622
0.210005207
0.2100053022
0.2100054779
0.210005663
0.2100057851
0.2100058119
0.2100058823
0.2100060306
0.2100053657
0.210005527
0.210006173
0.2100065816
0.2100063702
0.2100060362
0.2100058473
0.2100058824
0.2100052729
0.2100047777
0.2100041387
0.2100041923
0.2100046263
0.2100051532
0.2100055692
0.2100055464
0.2100055309
0.2100055847
0.2100055542
0.2100055069
0.2100055412
0.2100056295
0.2100057358
0.2100058103
0.2100058609
0.2100059501
0.2100060573
0.2100057401
0.2100059137
0.2100063166
0.2100065075
0.2100062945
0.2100060676
0.210005904
0.210006235
0.2100049335
0.2100057937
0.2100047013
0.2100044672
0.210004696
0.2100051321
0.2100056394
0.210005746
0.210005753
0.2100058213
0.2100058235
0.2100057688
0.2100057527
0.2100057568
0.2100057841
0.2100058416
0.2100059356
0.2100060395
0.2100061034
0.2100056514
0.2100058809
0.2100061124
0.2100062623
0.2100061861
0.2100060826
0.2100055396
0.2100067488
0.2100054671
0.210007142
0.2100050612
0.2100046644
0.2100048347
0.2100052688
0.2100057183
0.2100059382
0.2100060064
0.2100060548
0.2100060454
0.2100059614
0.2100058989
0.2100058427
0.2100058499
0.2100059312
0.2100060474
0.2100061352
0.2100061541
0.2100056183
0.2100058124
0.2100059317
0.210005986
0.2100061075
0.2100061577
0.2100064015
0.2100064289
0.2100050366
0.2100089128
0.2100050415
0.2100048188
0.2100052158
0.2100055115
0.2100058478
0.2100060488
0.2100061636
0.2100062093
0.2100061676
0.210006059
0.2100059707
0.2100059363
0.2100059895
0.2100060926
0.2100061946
0.2100062337
0.2100062085
0.2100054943
0.2100057535
0.2100058068
0.2100058315
0.2100058168
0.2100061282
0.2100060387
0.2100059601
0.2100059628
0.2100059017
0.2100050884
0.2100053064
0.2100057252
0.2100058678
0.2100060154
0.2100061344
0.2100062286
0.2100062403
0.2100061625
0.2100060506
0.2100060193
0.2100060837
0.2100061971
0.2100063004
0.2100063562
0.2100063324
0.2100062858
0.2100053468
0.2100055303
0.2100056326
0.2100056118
0.210005723
0.2100061456
0.2100053998
0.2100059886
0.2100064641
0.2100058467
0.2100056091
0.2100055107
0.2100057153
0.2100058651
0.2100059858
0.2100060621
0.2100061308
0.2100061231
0.2100060572
0.2100060326
0.2100061292
0.210006289
0.2100064228
0.210006489
0.2100064897
0.2100064414
0.2100064285
0.2100053816
0.210005383
0.2100054176
0.2100051825
0.2100055026
0.2100057828
0.2100056195
0.2100062357
0.2100065153
0.2100062626
0.2100060617
0.210005705
0.2100056534
0.2100057885
0.2100059662
0.2100060232
0.210006043
0.2100060444
0.2100060614
0.2100061646
0.2100063564
0.2100065288
0.2100066115
0.2100066182
0.2100066008
0.2100066082
0.2100066762
0.210005471
0.2100053393
0.2100053017
0.2100048018
0.210005423
0.2100058087
0.2100058904
0.2100064587
0.2100066615
0.210006513
0.2100063441
0.2100060584
0.2100058438
0.2100058805
0.2100060974
0.210006177
0.2100061752
0.2100062035
0.2100063101
0.2100064954
0.2100066753
0.210006759
0.2100067563
0.2100067354
0.2100067518
0.2100068371
0.2100069772
0.2100054875
0.2100053774
0.2100053787
0.2100045945
0.2100052598
0.2100058056
0.2100061025
0.2100064607
0.210006569
0.2100065552
0.2100064888
0.2100063482
0.2100061635
0.2100061329
0.2100063297
0.2100064855
0.2100064719
0.2100065252
0.2100066946
0.2100068813
0.2100069619
0.210006937
0.210006891
0.2100068858
0.2100069367
0.2100070391
0.2100071638
0.2100055046
0.2100054374
0.2100055289
0.2100048913
0.2100054442
0.2100059402
0.2100062747
0.2100064398
0.2100064263
0.2100064215
0.2100064307
0.2100063776
0.2100063389
0.2100063654
0.210006563
0.2100067548
0.2100067324
0.2100068073
0.2100069858
0.2100071132
0.2100071084
0.2100070453
0.2100070067
0.2100070126
0.2100070489
0.2100070968
0.2100071465
0.2100055512
0.2100055334
0.2100056387
0.210005543
0.2100058924
0.210006124
0.2100063687
0.2100063445
0.2100062761
0.2100062123
0.2100062346
0.2100062676
0.2100063454
0.2100064828
0.2100066866
0.2100068002
0.2100068254
0.2100069447
0.2100070946
0.2100071443
0.2100071077
0.2100070588
0.2100070331
0.2100070265
0.2100070287
0.2100070329
0.2100070359
0.2100055978
0.2100056602
0.2100057592
0.2100058847
0.210006103
0.2100062388
0.2100062681
0.210006254
0.2100062185
0.2100060936
0.2100061018
0.2100061863
0.2100063068
0.2100064822
0.2100066303
0.2100067197
0.2100068293
0.2100069857
0.2100070946
0.2100070964
0.210007048
0.2100070067
0.2100069816
0.2100069643
0.210006953
0.2100069487
0.2100069418
0.2100056359
0.2100057627
0.2100058729
0.2100059696
0.2100061149
0.210006149
0.2100061636
0.2100062896
0.2100062955
0.2100061757
0.2100061508
0.2100062072
0.2100063016
0.2100064247
0.2100065446
0.2100066837
0.2100068553
0.2100070199
0.2100070909
0.2100070611
0.2100070031
0.2100069595
0.2100069319
0.2100069129
0.2100069002
0.2100068944
0.2100068868
0.2100057279
0.2100058436
0.2100059139
0.2100059551
0.2100059967
0.210006141
0.2100063031
0.210006459
0.2100064313
0.2100062921
0.2100062155
0.2100062131
0.2100062597
0.2100063467
0.2100064782
0.2100066703
0.2100069101
0.2100070947
0.2100071249
0.2100070564
0.2100069836
0.2100069356
0.2100069064
0.2100068876
0.2100068754
0.2100068678
0.2100068583
0.210006343
0.2100059353
0.2100057067
0.2100055825
0.2100055966
0.2100055546
0.2100060439
0.2100062944
0.2100057236
0.2100048804
0.2100045025
0.210004473
0.2100047861
0.2100054592
0.2100062798
0.2100067021
0.2100067557
0.2100067852
0.2100067187
0.2100064492
0.2100067311
0.2100059123
0.2100059183
0.2100058933
0.2100062005
0.2100065016
0.210006425
0.2100062659
0.2100061068
0.2100062905
0.2100065159
0.210006687
0.2100069237
0.210007295
0.2100069227
0.2100067503
0.2100067157
0.2100064744
0.2100062783
0.2100062255
0.2100061087
0.2100066691
0.2100067056
0.2100067273
0.2100067621
0.2100068052
0.2100067912
0.2100066765
0.2100065083
0.2100062797
0.2100063035
0.210006194
0.2100064154
0.2100065525
0.210006615
0.2100065772
0.2100066254
0.21000683
0.2100067145
0.210005582
0.2100052999
0.2100052986
0.2100062309
0.2100070721
0.2100068469
0.2100067134
0.210006602
0.2100064643
0.2100061202
0.2100066229
0.2100067373
0.2100067946
0.2100067858
0.2100067129
0.2100066639
0.2100066433
0.2100065817
0.2100064691
0.2100064406
0.2100063061
0.2100065081
0.2100065833
0.2100066999
0.210006718
0.2100066496
0.2100067061
0.2100066869
0.2100066687
0.2100062181
0.2100066852
0.2100069151
0.2100069061
0.2100066877
0.2100063231
0.2100061461
0.2100059886
0.2100057994
0.2100066556
0.2100067256
0.2100067157
0.2100066029
0.2100065565
0.2100065203
0.2100064738
0.2100064094
0.2100062492
0.2100058022
0.2100057668
0.2100061606
0.2100065086
0.2100067136
0.2100067217
0.2100066685
0.210006496
0.2100063321
0.2100057352
0.21000523
0.2100053611
0.2100059863
0.2100058471
0.2100052403
0.2100049458
0.2100050604
0.2100053408
0.2100065418
0.2100064309
0.2100066109
0.2100063721
0.2100064988
0.2100063974
0.2100062601
0.2100059416
0.2100054291
0.2100047444
0.210004591
0.2100049595
0.2100053861
0.2100059628
0.2100065793
0.2100065756
0.2100064067
0.2100062791
0.2100055027
0.2100050611
0.2100050298
0.2100053714
0.2100054907
0.2100052297
0.2100048518
0.2100047638
0.2100049552
0.2100065012
0.2100065642
0.2100065986
0.2100065247
0.2100063881
0.2100063218
0.2100060279
0.2100055096
0.2100048939
0.2100043176
0.2100040782
0.2100043997
0.2100049621
0.2100058774
0.2100064532
0.2100064327
0.2100062778
0.2100061854
0.2100061033
0.2100055459
0.2100055318
0.2100058929
0.21000626
0.2100059495
0.2100051959
0.210004955
0.2100050858
0.2100064413
0.2100064494
0.2100064711
0.2100064523
0.2100064179
0.2100062542
0.2100058292
0.2100052134
0.2100047062
0.2100044209
0.2100042518
0.2100045931
0.2100051414
0.2100059579
0.2100062065
0.2100062095
0.2100060764
0.2100059194
0.2100059124
0.2100060567
0.2100061891
0.210006316
0.210006338
0.210006306
0.2100060317
0.2100058596
0.2100053452
0.210006375
0.2100063243
0.2100062769
0.2100064344
0.210006378
0.2100063815
0.2100059917
0.2100050516
0.2100046773
0.2100046806
0.2100048404
0.2100052636
0.2100056326
0.2100059919
0.2100060054
0.2100059643
0.2100057709
0.2100055438
0.2100055375
0.2100059836
0.2100062279
0.2100063189
0.2100063124
0.2100063228
0.2100062685
0.2100062679
0.2100060329
0.2100052444
0.2100049181
0.2100057752
0.210006131
0.2100050725
0.210006391
0.2100060208
0.2100052748
0.2100046397
0.2100046138
0.2100051765
0.210005789
0.210005969
0.2100059527
0.2100058898
0.2100057445
0.2100054298
0.2100050432
0.2100047049
0.2100047376
0.2100052779
0.2100060823
0.2100063217
0.2100063211
0.2100062622
0.210006349
0.210006242
0.2100057892
0.2100048755
0.210005589
0.2100067988
0.2100055756
0.2100068072
0.2100065412
0.2100054999
0.2100049379
0.2100051192
0.2100058132
0.2100059642
0.2100059205
0.2100057609
0.2100056142
0.2100054001
0.2100049797
0.2100043825
0.2100040848
0.210004085
0.21000477
0.2100057551
0.2100062602
0.2100064444
0.2100063293
0.2100062442
0.2100062092
0.2100058893
0.2100052384
0.210006274
0.2100064795
0.2100053013
0.21000626
0.2100062472
0.2100063738
0.2100059006
0.2100057771
0.2100059604
0.21000581
0.2100056684
0.2100047623
0.2100042771
0.2100039884
0.210003894
0.2100038729
0.2100038617
0.210004067
0.2100043003
0.2100049085
0.2100052526
0.210005818
0.2100061115
0.2100061463
0.2100061277
0.2100061326
0.2100062677
0.2100062936
0.2100063648
0.2100066965
0.2100063295
0.2100062592
0.2100062253
0.2100060193
0.2100058587
0.2100056806
0.210005593
0.2100053096
0.2100045431
0.2100040666
0.2100037495
0.2100036674
0.2100036827
0.2100039469
0.2100042629
0.2100057017
0.2100101075
0.2100069596
0.2100062181
0.2100062299
0.2100062716
0.2100062069
0.2100054015
0.2100060022
0.2100062985
0.2100063678
0.2100064024
0.2100063045
0.2100061109
0.2100059995
0.2100058381
0.2100055735
0.210005208
0.210005112
0.2100050335
0.2100048185
0.2100043755
0.2100040515
0.2100039209
0.2100038972
0.2100040039
0.2100042295
0.2100049088
0.2100056375
0.2100056206
0.2100057719
0.2100059851
0.2100061852
0.2100062214
0.2100044806
0.210005092
0.2100061006
0.210006515
0.2100065449
0.2100063568
0.2100061683
0.2100059759
0.210005693
0.2100052683
0.2100046949
0.2100049017
0.2100050072
0.2100053643
0.2100051006
0.2100049138
0.2100047003
0.2100044842
0.2100043898
0.2100044959
0.2100048523
0.2100053739
0.2100056231
0.2100058393
0.2100060272
0.2100062375
0.2100062548
0.2100043001
0.2100047445
0.2100057867
0.210006633
0.2100066893
0.2100065162
0.2100063168
0.2100061701
0.2100057665
0.2100049083
0.2100043209
0.2100050628
0.2100049654
0.2100055895
0.2100054827
0.2100054405
0.2100053326
0.2100050726
0.2100048261
0.2100047605
0.21000496
0.2100052905
0.2100055839
0.2100058209
0.2100059824
0.2100061094
0.2100061721
0.2100046529
0.210004974
0.2100060251
0.2100067439
0.2100067419
0.2100065495
0.2100063866
0.2100063723
0.2100058585
0.2100047983
0.2100041332
0.2100044988
0.2100047544
0.2100055394
0.210005397
0.2100053623
0.210005381
0.210005308
0.2100051434
0.2100050369
0.2100051079
0.2100052874
0.2100055167
0.2100057566
0.2100059481
0.2100060686
0.2100061318
0.2100052561
0.2100055699
0.2100064875
0.2100067723
0.2100066343
0.2100064944
0.21000643
0.210006577
0.2100065784
0.2100052215
0.2100043792
0.2100044191
0.2100047588
0.2100054796
0.2100054027
0.2100053383
0.210005427
0.2100055144
0.2100054198
0.2100052903
0.2100052668
0.2100053493
0.2100055176
0.2100057405
0.2100059607
0.2100060992
0.2100061471
0.2100057363
0.2100060431
0.2100066786
0.2100067995
0.2100067081
0.2100068402
0.2100065314
0.2100068047
0.2100058776
0.210005407
0.2100053942
0.2100049187
0.2100049583
0.2100054718
0.2100056784
0.2100057264
0.2100057724
0.2100058049
0.2100056749
0.2100055355
0.2100054764
0.2100055055
0.2100056194
0.2100058181
0.2100060434
0.2100061799
0.2100062001
0.2100059392
0.2100062148
0.2100064515
0.2100065929
0.2100065568
0.210006713
0.2100063108
0.2100073156
0.2100068187
0.2100073747
0.2100061141
0.2100054236
0.2100053792
0.2100057209
0.210006028
0.2100061501
0.2100061224
0.2100060275
0.2100058482
0.2100057403
0.2100057108
0.210005729
0.2100058148
0.2100059901
0.2100061919
0.2100062932
0.2100062743
0.2100061042
0.2100062825
0.2100063693
0.2100064335
0.210006509
0.2100067325
0.2100060791
0.2100067197
0.2100061546
0.2100067471
0.2100063063
0.2100060173
0.2100059593
0.2100061323
0.2100062773
0.2100063268
0.2100062498
0.2100061063
0.2100059541
0.210005904
0.2100059366
0.2100059844
0.2100060688
0.2100062207
0.2100063753
0.2100064231
0.2100063646
0.2100058919
0.2100059889
0.2100062632
0.2100063367
0.2100063437
0.2100070856
0.2100060567
0.2100064755
0.2100067674
0.2100066375
0.2100063554
0.2100063622
0.2100062486
0.2100063088
0.2100063509
0.2100063476
0.2100062737
0.2100061413
0.2100060312
0.2100060462
0.2100061509
0.2100062503
0.2100063413
0.210006453
0.2100065464
0.2100065559
0.2100064915
0.2100055678
0.2100055083
0.2100059269
0.2100059865
0.2100061554
0.2100067163
0.2100057195
0.2100063988
0.210006704
0.2100065707
0.2100062915
0.2100061264
0.2100058645
0.210005996
0.2100062027
0.2100062704
0.2100062515
0.2100061752
0.2100061274
0.2100062128
0.2100063769
0.2100064993
0.2100065654
0.2100066207
0.2100066716
0.2100066955
0.2100066825
0.2100055644
0.2100052417
0.210005275
0.2100053388
0.2100060464
0.2100063367
0.2100060172
0.2100065793
0.2100067223
0.2100067062
0.2100064123
0.2100059425
0.2100056294
0.210005743
0.2100060863
0.2100062567
0.2100062905
0.2100062897
0.2100063256