/*--------------------------------*- C++ -*----------------------------------*\
  =========                 |
  \\      /  F ield         | OpenFOAM: The Open Source CFD Toolbox
   \\    /   O peration     | Website:  https://openfoam.org
    \\  /    A nd           | Version:  8
     \\/     M anipulation  |
\*---------------------------------------------------------------------------*/
FoamFile
{
    version     2.0;
    format      ascii;
    class       volScalarField;
    location    "0.5";
    object      p;
}
// * * * * * * * * * * * * * * * * * * * * * * * * * * * * * * * * * * * * * //

dimensions      [1 -1 -2 0 0 0 0];

internalField   nonuniform List<scalar> 
67451
(
100003.8176
100003.8577
100003.8672
100003.9699
100003.8788
100004.1243
100003.9118
100003.8959
100003.976
100003.9613
100003.9606
100003.7955
100003.799
100003.8032
100003.8056
100003.821
100003.8679
100003.8618
100003.8999
100003.8535
100003.8393
100003.8355
100003.8528
100003.8664
100003.8218
100003.8706
100003.8471
100003.8803
100003.8597
100003.8193
100003.7332
100003.7268
100003.8297
100003.8835
100003.9041
100003.8932
100003.8986
100003.7771
100003.7862
100003.7987
100003.8015
100003.8103
100003.8178
100003.8289
100003.8493
100003.8577
100003.8818
100003.8596
100003.9158
100003.9054
100003.8868
100003.906
100003.8618
100003.9354
100003.9218
100003.9412
100004.3671
100005.1845
100004.4892
100003.6604
100003.8478
100004.0222
100004.0405
100003.9933
100003.9732
100003.7717
100003.7816
100003.7968
100003.8029
100003.8191
100003.8376
100003.8508
100003.8655
100003.8763
100003.8882
100003.8855
100003.8967
100003.876
100003.8784
100003.8901
100003.887
100003.8661
100003.8478
100003.7681
100003.6744
100003.6885
100003.8761
100003.9163
100003.9366
100003.917
100003.913
100003.9115
100003.9295
100003.7709
100003.7821
100003.7968
100003.8107
100003.8295
100003.8456
100003.8583
100003.8743
100003.89
100003.8944
100003.8903
100003.8943
100003.8943
100003.9052
100003.9034
100003.9106
100003.8725
100003.8854
100003.7475
100003.7938
100003.9931
100003.9827
100003.943
100003.939
100003.9514
100003.9537
100003.9759
100003.7812
100003.8403
100003.8083
100003.8449
100003.8494
100003.8589
100003.8511
100003.8594
100003.8762
100003.8934
100003.908
100003.9127
100003.9144
100003.91
100003.914
100003.9389
100003.9303
100003.9527
100003.896
100004.0559
100004.0904
100004.0443
100003.9568
100003.923
100003.9665
100003.9668
100004.0106
100003.7749
100003.7955
100003.7995
100003.8196
100003.8467
100003.8657
100003.8498
100003.8593
100003.8858
100003.9155
100003.9403
100003.935
100003.925
100003.9149
100003.9168
100003.9428
100003.9532
100003.9676
100003.9282
100003.9864
100003.9539
100003.9622
100003.9309
100003.9148
100003.9278
100003.9539
100003.9677
100003.7757
100003.7687
100003.8039
100003.8205
100003.8318
100003.89
100003.8565
100003.8544
100003.8802
100003.9072
100003.9358
100003.9318
100003.9199
100003.9185
100003.9312
100003.9623
100003.9669
100003.9672
100003.9419
100004.0073
100003.9902
100004.0031
100004.0026
100003.9423
100004.2847
100004.1378
100004.2924
100003.7254
100003.66
100003.7705
100003.7554
100003.7648
100003.8533
100003.8459
100003.8666
100003.9009
100003.893
100003.9108
100003.922
100003.9238
100003.9352
100003.9523
100003.9725
100003.9631
100003.947
100003.9333
100003.9566
100003.9791
100004.0069
100003.9974
100003.9927
100004.0344
100004.0347
100004.0714
100003.8201
100004.0387
100003.9273
100003.7814
100003.9551
100003.8594
100003.9122
100004.0536
100004.1012
100004.015
100003.9198
100003.9022
100003.9211
100003.9435
100003.9567
100003.9625
100003.9668
100003.9751
100004.0141
100004.0347
100004.0338
100003.9956
100003.9992
100004.0138
100004.0907
100004.0775
100004.1035
100003.8906
100004.3367
100004.0768
100004.031
100004.8477
100004.6419
100003.9844
100004.0394
100004.1092
100004.0193
100003.9376
100003.9233
100003.9572
100004.0019
100003.9983
100003.9884
100004.0164
100004.0511
100004.1205
100004.1588
100004.1959
100004.3562
100004.1508
100004.0697
100004.0257
100004.0697
100004.1407
100003.8139
100004.0739
100003.9621
100003.8787
100004.3558
100004.3135
100003.9424
100003.9762
100004.0057
100003.9315
100003.949
100004.0136
100004.0492
100004.0495
100004.0911
100004.1504
100004.1745
100004.1656
100004.1802
100004.1877
100004.1687
100004.182
100004.151
100004.1143
100004.3303
100004.1282
100004.2099
100003.7806
100003.7502
100003.8628
100003.8055
100003.7225
100003.6962
100003.879
100003.924
100003.9535
100003.9595
100004.039
100004.0846
100004.0619
100004.074
100004.2008
100004.3264
100004.3625
100004.3244
100004.3091
100004.3294
100004.5039
100004.5788
100004.3813
100004.2257
100004.197
100004.1507
100004.228
100003.8545
100003.7894
100003.8684
100003.8643
100003.8083
100003.7711
100003.9284
100003.9465
100003.987
100004.0283
100004.0699
100004.0839
100004.0621
100004.0681
100004.1785
100004.2969
100004.3333
100004.3056
100004.275
100004.2529
100004.262
100004.2586
100004.1924
100004.1349
100004.1292
100004.1374
100004.2197
100003.8778
100003.8641
100003.8767
100003.9045
100003.8995
100003.9117
100003.9645
100003.9913
100004.0334
100004.0668
100004.0808
100004.1189
100004.1011
100004.0869
100004.0891
100004.1457
100004.1855
100004.1886
100004.182
100004.166
100004.1572
100004.1379
100004.0979
100004.0706
100004.08
100004.1089
100004.1954
100003.8711
100003.8919
100003.8913
100003.9373
100003.963
100003.9908
100003.9881
100004.0108
100004.0488
100004.0976
100004.0964
100004.1551
100004.1138
100004.1053
100004.0772
100004.0557
100004.0749
100004.0737
100004.07
100004.056
100004.0427
100004.0272
100004.0105
100004.007
100004.0287
100004.065
100004.1535
100003.8605
100003.8777
100003.8844
100003.9193
100003.9614
100003.985
100003.9704
100003.9972
100004.0813
100004.1786
100004.092
100004.1489
100004.0899
100004.0802
100004.0677
100004.0724
100004.0693
100004.0319
100004.0003
100003.9763
100003.9613
100003.9519
100003.9483
100003.9563
100003.983
100004.0195
100004.1037
100003.8629
100003.8765
100003.8953
100003.9452
100003.9815
100003.9857
100003.9421
100003.9061
100003.8865
100004.0965
100004.0513
100004.1157
100004.0779
100004.0594
100004.0369
100004.0524
100004.0502
100004.0057
100003.9547
100003.9207
100003.9047
100003.9
100003.9041
100003.9179
100003.9457
100003.9799
100004.0553
100003.8763
100003.8771
100003.8972
100003.942
100003.9724
100003.964
100003.8774
100003.7308
100004.0266
100004.1099
100003.9672
100004.0483
100004.0407
100004.0171
100003.9916
100004.0003
100003.9987
100003.961
100003.906
100003.8699
100003.8577
100003.8609
100003.8733
100003.8912
100003.9185
100003.9491
100004.0131
100003.8823
100003.8883
100003.9197
100003.9942
100004.0122
100003.9841
100003.8351
100003.6046
100004.8809
100004.9543
100003.9802
100004.0139
100004.0637
100004.0287
100003.979
100003.9546
100003.9358
100003.9064
100003.8598
100003.829
100003.8246
100003.8383
100003.8566
100003.8758
100003.9013
100003.9269
100003.9783
100003.8515
100003.8673
100003.8946
100003.9208
100003.9786
100003.9651
100003.9931
100004.0268
100004.4699
100004.7346
100004.0867
100004.0056
100004.0164
100003.9667
100003.9267
100003.8942
100003.8673
100003.8473
100003.8196
100003.8037
100003.8128
100003.8323
100003.8518
100003.8703
100003.892
100003.9115
100003.9503
100003.8423
100003.8513
100003.878
100003.9251
100003.9222
100003.8682
100003.9795
100004.2659
100003.938
100003.7175
100004.0124
100004.0299
100003.9853
100003.9219
100003.8878
100003.854
100003.8239
100003.8076
100003.7975
100003.8014
100003.8184
100003.838
100003.8561
100003.8713
100003.8871
100003.9004
100003.9277
100003.841
100003.848
100003.8746
100003.9201
100003.9404
100003.865
100004.0899
100004.1776
100003.9852
100003.9653
100003.9779
100003.9876
100003.9544
100003.9006
100003.8684
100003.8403
100003.8153
100003.8037
100003.8046
100003.8168
100003.8343
100003.8513
100003.865
100003.8741
100003.8837
100003.8916
100003.9103
100003.8309
100003.842
100003.8623
100003.8833
100003.9109
100003.8927
100003.9316
100004.0128
100003.9067
100003.9883
100003.9542
100003.9571
100003.9357
100003.8935
100003.8605
100003.8366
100003.8214
100003.8174
100003.8243
100003.8385
100003.8538
100003.8653
100003.8722
100003.8756
100003.8807
100003.8842
100003.8966
100003.8249
100003.8634
100003.8629
100003.9315
100003.8928
100003.9252
100003.9025
100003.8393
100003.8285
100003.916
100003.9269
100003.9205
100003.9052
100003.8749
100003.8484
100003.8305
100003.8256
100003.8306
100003.8429
100003.8572
100003.8675
100003.8723
100003.8739
100003.8741
100003.8765
100003.8771
100003.8866
100003.8231
100003.8516
100003.8434
100003.9535
100003.9351
100003.8979
100003.8623
100003.8162
100003.8313
100003.8849
100003.8983
100003.8841
100003.8695
100003.8517
100003.8338
100003.8246
100003.829
100003.8402
100003.8538
100003.8652
100003.8706
100003.8714
100003.8711
100003.8706
100003.8719
100003.8724
100003.8788
100003.8149
100003.8301
100003.8085
100003.8876
100003.8986
100003.8649
100003.8178
100003.8113
100003.8394
100003.8684
100003.8762
100003.8641
100003.8472
100003.8356
100003.8253
100003.824
100003.8331
100003.8443
100003.8555
100003.8648
100003.8685
100003.8681
100003.8674
100003.867
100003.8678
100003.868
100003.8709
100003.8076
100003.8133
100003.7921
100003.8014
100003.8208
100003.8138
100003.7895
100003.8105
100003.8423
100003.8605
100003.8612
100003.8518
100003.8373
100003.8284
100003.8242
100003.8279
100003.8361
100003.8448
100003.8548
100003.8621
100003.8642
100003.8638
100003.8632
100003.8626
100003.8627
100003.8623
100003.8633
100003.8168
100003.8143
100003.8012
100003.7824
100003.7752
100003.7951
100003.8009
100003.8279
100003.852
100003.8607
100003.8554
100003.8472
100003.8383
100003.8325
100003.8314
100003.8357
100003.8409
100003.8474
100003.855
100003.8589
100003.8595
100003.859
100003.8584
100003.8577
100003.8573
100003.8568
100003.8571
100003.8383
100003.8295
100003.8198
100003.8086
100003.7959
100003.8243
100003.835
100003.8527
100003.8629
100003.8616
100003.8539
100003.8471
100003.8422
100003.8402
100003.8403
100003.8415
100003.8438
100003.8495
100003.8543
100003.8559
100003.8557
100003.8551
100003.8545
100003.8538
100003.8533
100003.8528
100003.8529
100003.9147
100003.9016
100003.8894
100003.8722
100003.913
100003.9261
100003.9172
100003.9082
100003.8984
100003.8865
100003.8752
100003.8674
100003.8644
100003.865
100003.864
100003.8623
100003.8611
100003.8598
100003.8583
100003.8567
100003.8551
100003.8538
100003.8529
100003.8521
100003.8516
100003.8512
100003.851
100003.648
100003.666
100003.6522
100003.6256
100003.6443
100003.2663
100003.5891
100003.5444
100003.5158
100003.634
100003.6025
100003.6609
100003.6632
100003.6616
100003.6574
100003.6588
100003.7316
100003.6705
100003.6837
100003.6682
100003.6338
100003.6652
100003.6769
100003.6675
100003.6382
100003.6325
100003.6061
100003.5855
100003.5808
100003.3544
100003.1467
100003.1589
100003.4553
100003.6185
100003.6962
100003.7079
100003.7231
100003.6482
100003.6553
100003.6617
100003.6678
100003.6719
100003.6745
100003.6738
100003.6849
100003.6766
100003.7046
100003.68
100003.6438
100003.6929
100003.6856
100003.6796
100003.6378
100003.6451
100003.5597
100003.6026
100003.4972
100003.6832
100003.3884
100002.9817
100003.0226
100003.4254
100003.6602
100003.7155
100003.7428
100003.642
100003.6513
100003.6582
100003.669
100003.6803
100003.6963
100003.7047
100003.7113
100003.7059
100003.7098
100003.7079
100003.7002
100003.709
100003.7115
100003.7113
100003.689
100003.6249
100003.6038
100003.4558
100003.398
100003.2604
100003.139
100003.2576
100003.5329
100003.5838
100003.6558
100003.6805
100003.7149
100003.6356
100003.6212
100003.6596
100003.6672
100003.6815
100003.6842
100003.6907
100003.697
100003.7063
100003.7147
100003.7195
100003.734
100003.7344
100003.7395
100003.7265
100003.6943
100003.6503
100003.6082
100003.5053
100003.2432
100003.4119
100003.4676
100003.5837
100003.6219
100003.6787
100003.6996
100003.732
100003.6295
100003.6491
100003.6675
100003.6857
100003.6882
100003.686
100003.6818
100003.6805
100003.6938
100003.7175
100003.7324
100003.7418
100003.7464
100003.7476
100003.7417
100003.7445
100003.7459
100003.7268
100003.6772
100003.5765
100003.6571
100003.633
100003.6642
100003.6753
100003.7191
100003.736
100003.7632
100003.597
100003.5474
100003.63
100003.6361
100003.6201
100003.6291
100003.64
100003.6572
100003.6861
100003.7203
100003.7489
100003.7565
100003.759
100003.7575
100003.7509
100003.7555
100003.758
100003.7634
100003.7213
100003.6768
100003.6673
100003.679
100003.6873
100003.6992
100003.7107
100003.7388
100003.7325
100003.5655
100003.5119
100003.5974
100003.6161
100003.5494
100003.5642
100003.6276
100003.6413
100003.6772
100003.7049
100003.7396
100003.7526
100003.7535
100003.7564
100003.7602
100003.777
100003.7866
100003.781
100003.7487
100003.7223
100003.7429
100003.6963
100003.7085
100003.7015
100003.606
100003.8619
100003.8161
100003.5186
100003.492
100003.4619
100003.3972
100003.2249
100003.3453
100003.5048
100003.6164
100003.6634
100003.6907
100003.703
100003.7291
100003.7548
100003.775
100003.786
100003.7749
100003.7674
100003.7503
100003.7286
100003.7236
100003.7412
100003.7489
100003.7638
100003.7782
100003.7955
100003.8358
100003.8402
100003.6003
100003.5788
100003.5785
100003.4827
100003.6035
100003.5296
100003.5474
100003.618
100003.7065
100003.7246
100003.7246
100003.7126
100003.7352
100003.7707
100003.7904
100003.7445
100003.7413
100003.7561
100003.7894
100003.7977
100003.8004
100003.7672
100003.7675
100003.7591
100003.7946
100003.8432
100003.8809
100003.602
100003.6408
100003.5709
100003.5084
100003.5873
100003.6401
100003.4306
100003.5316
100003.664
100003.7124
100003.7089
100003.7211
100003.7138
100003.7484
100003.7558
100003.7333
100003.7494
100003.7891
100003.8601
100003.8889
100003.9407
100003.9249
100003.9121
100003.8783
100003.8082
100003.834
100003.8897
100003.6031
100003.5648
100003.589
100003.436
100003.5289
100003.8093
100003.5124
100003.5147
100003.612
100003.6624
100003.6799
100003.7233
100003.779
100003.8267
100003.7999
100003.8308
100003.8529
100003.8765
100003.9066
100003.9369
100003.9175
100003.9044
100003.8802
100003.8451
100003.6542
100003.8234
100003.9047
100003.5118
100003.5405
100003.485
100003.3335
100003.2677
100003.476
100003.305
100003.458
100003.6028
100003.659
100003.7039
100003.8044
100003.7859
100003.7893
100003.8419
100003.8876
100003.916
100003.9308
100003.9994
100004.0581
100004.4163
100004.8923
100004.4258
100004.1337
100003.9743
100003.9191
100003.9716
100003.5588
100003.5236
100003.5623
100003.5446
100003.4057
100003.3166
100003.4061
100003.5494
100003.6371
100003.6885
100003.7878
100003.88
100003.8284
100003.8401
100003.859
100003.8987
100003.9237
100003.933
100003.9557
100003.9815
100004.0531
100004.1384
100004.0521
100003.9623
100003.9065
100003.9141
100003.9782
100003.6383
100003.569
100003.64
100003.6552
100003.6164
100003.4116
100003.5925
100003.6558
100003.718
100003.8011
100003.875
100003.9588
100003.9124
100003.8772
100003.8588
100003.8669
100003.878
100003.8856
100003.905
100003.9221
100003.9618
100003.991
100003.9534
100003.9078
100003.8928
100003.9126
100003.9713
100003.6695
100003.6632
100003.6984
100003.7263
100003.7591
100003.7125
100003.7257
100003.7322
100003.7545
100003.8192
100003.8678
100004.0226
100003.9159
100003.9205
100003.8664
100003.8323
100003.8369
100003.8306
100003.8395
100003.8474
100003.8618
100003.8701
100003.8608
100003.8443
100003.8469
100003.8714
100003.937
100003.6787
100003.683
100003.7085
100003.731
100003.7777
100003.7659
100003.7509
100003.7429
100003.7682
100003.8246
100003.8332
100003.9319
100003.8825
100003.8691
100003.8735
100003.8222
100003.8289
100003.8118
100003.8018
100003.7963
100003.7987
100003.8016
100003.8003
100003.794
100003.8038
100003.8303
100003.8967
100003.6879
100003.6996
100003.7242
100003.7517
100003.8018
100003.7774
100003.6964
100003.6793
100003.5803
100003.6876
100003.7148
100003.8116
100003.8244
100003.8197
100003.8401
100003.8113
100003.8119
100003.7892
100003.7693
100003.7566
100003.7549
100003.7557
100003.7556
100003.7538
100003.7696
100003.7984
100003.8598
100003.7008
100003.7066
100003.7397
100003.7681
100003.8333
100003.8103
100003.7027
100003.5883
100003.5762
100003.7613
100003.6159
100003.6935
100003.7427
100003.7513
100003.7816
100003.7686
100003.7701
100003.7495
100003.7281
100003.7161
100003.7163
100003.7154
100003.7162
100003.7227
100003.7472
100003.7773
100003.8298
100003.6973
100003.7096
100003.7415
100003.7687
100003.7828
100003.6567
100003.2808
100003.2848
100003.4076
100003.7475
100003.0831
100003.3667
100003.5659
100003.6662
100003.7264
100003.7211
100003.7211
100003.706
100003.6877
100003.68
100003.6792
100003.675
100003.6856
100003.7061
100003.7377
100003.7656
100003.8071
100003.6754
100003.6938
100003.729
100003.7371
100003.8078
100003.6678
100003.7533
100003.4467
100003.3772
100004.0623
100002.9592
100003.1496
100003.516
100003.5966
100003.6892
100003.6824
100003.6801
100003.6693
100003.6581
100003.6537
100003.6455
100003.6511
100003.6775
100003.7076
100003.7385
100003.7593
100003.7901
100003.671
100003.6781
100003.6928
100003.7082
100003.6579
100003.5452
100003.4931
100003.4217
100003.256
100002.8908
100002.864
100003.2667
100003.5723
100003.6244
100003.6722
100003.6592
100003.6507
100003.6453
100003.6399
100003.6318
100003.6346
100003.6579
100003.6926
100003.7204
100003.7425
100003.7542
100003.778
100003.6692
100003.6738
100003.6871
100003.6905
100003.6676
100003.5353
100003.6267
100003.4936
100003.4634
100002.997
100003.2601
100003.4621
100003.6408
100003.6558
100003.6724
100003.6557
100003.6405
100003.6318
100003.6291
100003.6352
100003.6571
100003.6886
100003.7161
100003.7325
100003.7445
100003.7498
100003.7691
100003.6649
100003.6688
100003.6909
100003.6688
100003.6639
100003.5895
100003.5968
100003.5216
100003.4771
100003.2889
100003.4756
100003.5987
100003.6784
100003.6796
100003.6769
100003.661
100003.6461
100003.6409
100003.6491
100003.6709
100003.6978
100003.72
100003.7334
100003.7389
100003.7446
100003.7475
100003.7627
100003.6597
100003.6684
100003.684
100003.6568
100003.6213
100003.5927
100003.5811
100003.5256
100003.4928
100003.4174
100003.5969
100003.6504
100003.6885
100003.6868
100003.6782
100003.6679
100003.6636
100003.6691
100003.6865
100003.7102
100003.7285
100003.7377
100003.7408
100003.741
100003.7443
100003.7466
100003.7574
100003.6488
100003.6662
100003.6595
100003.6683
100003.6425
100003.5949
100003.5812
100003.546
100003.5233
100003.5544
100003.6716
100003.6841
100003.69
100003.6881
100003.6804
100003.6765
100003.6784
100003.6905
100003.7114
100003.7302
100003.74
100003.7422
100003.7417
100003.7408
100003.7431
100003.7444
100003.751
100003.6417
100003.6557
100003.6279
100003.6557
100003.6333
100003.5972
100003.5906
100003.5712
100003.5749
100003.6289
100003.7009
100003.6989
100003.6921
100003.6897
100003.6858
100003.6838
100003.6865
100003.7004
100003.7204
100003.7339
100003.7393
100003.7398
100003.7391
100003.7385
100003.7398
100003.7405
100003.7438
100003.6421
100003.65
100003.6123
100003.6254
100003.6079
100003.5914
100003.5996
100003.5852
100003.6155
100003.6726
100003.7079
100003.7045
100003.6928
100003.6894
100003.6866
100003.6843
100003.6898
100003.7063
100003.7229
100003.7324
100003.7354
100003.7355
100003.7351
100003.7348
100003.7352
100003.7353
100003.7368
100003.6577
100003.6612
100003.6205
100003.61
100003.6048
100003.6025
100003.5986
100003.6031
100003.6572
100003.6973
100003.7116
100003.7072
100003.6954
100003.6901
100003.6869
100003.6873
100003.6976
100003.7139
100003.7254
100003.7306
100003.7316
100003.7315
100003.7311
100003.7307
100003.7307
100003.7306
100003.7311
100003.6808
100003.6751
100003.6483
100003.6148
100003.5781
100003.5855
100003.5931
100003.6426
100003.6909
100003.7094
100003.7114
100003.7066
100003.6974
100003.6901
100003.6876
100003.6934
100003.7066
100003.7191
100003.7263
100003.7286
100003.7288
100003.7284
100003.7279
100003.7275
100003.7274
100003.7272
100003.7274
100003.7455
100003.7328
100003.7117
100003.6824
100003.6362
100003.6505
100003.68
100003.7178
100003.7324
100003.7313
100003.7274
100003.7219
100003.7157
100003.7114
100003.7115
100003.7172
100003.724
100003.7288
100003.7301
100003.7294
100003.7283
100003.7274
100003.7267
100003.7262
100003.7259
100003.7258
100003.7257
100003.526
100003.5222
100003.5382
100003.5461
100003.5641
100003.5673
100003.5755
100003.5841
100003.6066
100003.5791
100003.5873
100003.5757
100003.5638
100003.5639
100003.516
100003.5273
100003.5331
100003.5445
100003.5783
100003.5893
100004.0152
100003.5741
100003.6322
100003.5806
100003.6033
100003.609
100003.6165
100003.6321
100003.6013
100003.5977
100003.5611
100003.572
100003.5573
100003.5572
100003.5367
100003.5228
100003.5203
100003.5305
100003.5442
100003.5471
100003.5561
100003.5163
100003.5213
100003.5264
100003.5315
100003.5356
100003.5453
100003.5472
100003.592
100003.5826
100003.6683
100003.6019
100003.6
100003.612
100003.6151
100003.6269
100003.6195
100003.6272
100003.5795
100003.6403
100003.5784
100003.7339
100003.4625
100003.5529
100003.5225
100003.5553
100003.5757
100003.5792
100003.5865
100003.5133
100003.5197
100003.5262
100003.536
100003.5457
100003.5619
100003.5747
100003.609
100003.5937
100003.6193
100003.6244
100003.6223
100003.6328
100003.6421
100003.6508
100003.6424
100003.6342
100003.6092
100003.6156
100003.5719
100003.598
100003.5992
100003.5736
100003.568
100003.5707
100003.5737
100003.5737
100003.5881
100003.5153
100003.5172
100003.5315
100003.5377
100003.5529
100003.5612
100003.5788
100003.59
100003.6101
100003.6264
100003.6342
100003.655
100003.6643
100003.7289
100003.671
100003.6529
100003.6194
100003.6309
100003.6067
100003.6606
100003.6265
100003.601
100003.5916
100003.6014
100003.6157
100003.6147
100003.6232
100003.5157
100003.528
100003.5393
100003.5506
100003.5634
100003.5711
100003.5813
100003.5893
100003.6024
100003.6198
100003.631
100003.6418
100003.648
100003.6641
100003.6576
100003.6478
100003.6431
100003.629
100003.6412
100003.6386
100003.6338
100003.6241
100003.5993
100003.6863
100003.6834
100003.65
100003.6333
100003.5163
100003.5239
100003.5299
100003.539
100003.5496
100003.5668
100003.5781
100003.5919
100003.6099
100003.6253
100003.6375
100003.6469
100003.652
100003.6595
100003.6538
100003.6479
100003.6408
100003.6422
100003.6231
100003.6469
100003.6325
100003.615
100003.6065
100003.6213
100003.6352
100003.624
100003.6043
100003.5177
100003.5339
100003.5417
100003.5558
100003.5641
100003.5818
100003.584
100003.5939
100003.6092
100003.6282
100003.6423
100003.6484
100003.6489
100003.6493
100003.6472
100003.6503
100003.6474
100003.6416
100003.6376
100003.6438
100003.6427
100003.6284
100003.6086
100003.6545
100003.6147
100003.6648
100003.4416
100003.5172
100003.5487
100003.5278
100003.5542
100003.5305
100003.6305
100003.5832
100003.6089
100003.6143
100003.6314
100003.6346
100003.6479
100003.6484
100003.6518
100003.6547
100003.6526
100003.6415
100003.6295
100003.6235
100003.6145
100003.6346
100003.6394
100003.6454
100003.6518
100003.6499
100003.652
100003.6268
100003.5103
100003.5157
100003.5696
100003.6266
100003.6105
100003.6658
100003.6028
100003.6158
100003.6209
100003.6268
100003.6403
100003.6438
100003.6516
100003.6611
100003.6656
100003.6608
100003.6394
100003.6399
100003.6482
100003.652
100003.6332
100003.6275
100003.6285
100003.6342
100003.6656
100003.6743
100003.6672
100003.5501
100003.5666
100003.6082
100003.6766
100003.7056
100003.8967
100003.6589
100003.6895
100003.6411
100003.6551
100003.6364
100003.6596
100003.6729
100003.6786
100003.7021
100003.6861
100003.6649
100003.6733
100003.7101
100003.7072
100003.8081
100003.9191
100003.8458
100003.7478
100003.715
100003.7008
100003.6979
100003.5146
100003.5118
100003.5553
100003.5757
100003.5128
100003.6144
100003.5488
100003.5979
100003.6311
100003.6325
100003.6641
100003.6949
100003.6958
100003.7235
100003.6886
100003.6939
100003.7019
100003.7146
100003.7177
100003.7353
100003.6593
100003.7074
100003.6258
100003.6804
100003.6656
100003.6893
100003.7075
100003.5454
100003.5302
100003.557
100003.5896
100003.5666
100003.6893
100003.6353
100003.6441
100003.6548
100003.6889
100003.709
100003.7566
100003.7433
100003.7322
100003.7391
100003.7527
100003.7613
100003.7454
100003.8387
100003.913
100004.3072
100006.9592
100004.7786
100004.1221
100003.9082
100003.8261
100003.8037
100003.5429
100003.5466
100003.559
100003.5743
100003.5537
100003.6659
100003.6252
100003.6441
100003.6699
100003.7019
100003.7379
100003.8314
100003.7715
100003.7743
100003.7468
100003.7592
100003.7628
100003.7558
100003.7732
100003.7966
100003.872
100004.121
100003.9238
100003.813
100003.7633
100003.7786
100003.786
100003.5506
100003.561
100003.5726
100003.5882
100003.5958
100003.6259
100003.6369
100003.6619
100003.6914
100003.7737
100003.7698
100003.9499
100003.8384
100003.8508
100003.7778
100003.7626
100003.7514
100003.7448
100003.7594
100003.7706
100003.8056
100003.9019
100003.8335
100003.7829
100003.7777
100003.8259
100003.7916
100003.5563
100003.5744
100003.5947
100003.6135
100003.6353
100003.6604
100003.6594
100003.7018
100003.7244
100003.83
100003.8007
100004.2535
100003.887
100003.9019
100003.8089
100003.7791
100003.7494
100003.7231
100003.7124
100003.7041
100003.7126
100003.7305
100003.7203
100003.7099
100003.7182
100003.7384
100003.742
100003.5544
100003.5745
100003.601
100003.6291
100003.673
100003.7019
100003.6817
100003.7257
100003.7091
100003.8386
100003.7749
100004.0069
100003.843
100003.8399
100003.7844
100003.7522
100003.7259
100003.6961
100003.6717
100003.6585
100003.6587
100003.6618
100003.6613
100003.6613
100003.6725
100003.6838
100003.7036
100003.5555
100003.5782
100003.6087
100003.6424
100003.6833
100003.7377
100003.687
100003.7875
100003.8752
100003.8494
100003.7819
100003.8808
100003.8027
100003.7793
100003.7398
100003.7088
100003.682
100003.6525
100003.6285
100003.6209
100003.6214
100003.6224
100003.6248
100003.6287
100003.6406
100003.65
100003.6735
100003.5644
100003.5866
100003.6393
100003.701
100003.8059
100003.9939
100003.7404
100003.8103
100003.5999
100003.8245
100003.7559
100003.8078
100003.7633
100003.7307
100003.6938
100003.6606
100003.6343
100003.607
100003.5876
100003.5869
100003.5904
100003.5939
100003.5999
100003.6069
100003.6193
100003.6285
100003.6511
100003.557
100003.5779
100003.6208
100003.666
100003.6921
100003.8186
100003.6217
100003.7796
100003.7679
100004.1722
100003.7563
100003.7802
100003.7299
100003.6931
100003.6571
100003.6232
100003.5967
100003.5745
100003.5625
100003.5628
100003.5687
100003.5757
100003.5851
100003.5937
100003.6063
100003.6156
100003.6356
100003.5543
100003.5709
100003.6111
100003.6462
100003.6941
100003.8003
100003.6991
100003.8016
100003.5241
100003.764
100003.6874
100003.7161
100003.6944
100003.6652
100003.6312
100003.5985
100003.5737
100003.5584
100003.5502
100003.5508
100003.5594
100003.5676
100003.5787
100003.588
100003.6006
100003.609
100003.6254
100003.5513
100003.5594
100003.5844
100003.6116
100003.619
100003.7214
100003.5993
100003.7448
100003.5447
100003.8242
100003.6312
100003.676
100003.6482
100003.6265
100003.6066
100003.5823
100003.5639
100003.5517
100003.5479
100003.5522
100003.5588
100003.5675
100003.5793
100003.5886
100003.6002
100003.606
100003.6197
100003.5501
100003.5562
100003.5725
100003.6032
100003.5873
100003.6619
100003.5601
100003.7039
100003.5522
100003.7098
100003.6078
100003.6512
100003.6404
100003.6187
100003.591
100003.5691
100003.5566
100003.5513
100003.5525
100003.5574
100003.5648
100003.5744
100003.5854
100003.5932
100003.6023
100003.6054
100003.6169
100003.546
100003.5487
100003.5619
100003.5547
100003.5706
100003.5814
100003.5639
100003.5909
100003.5291
100003.6292
100003.5779
100003.6121
100003.6067
100003.5917
100003.5758
100003.5584
100003.5519
100003.5523
100003.5579
100003.5665
100003.5761
100003.5851
100003.5931
100003.598
100003.6043
100003.6059
100003.6154
100003.5396
100003.5458
100003.5546
100003.5484
100003.5557
100003.5513
100003.537
100003.5522
100003.5528
100003.5961
100003.5833
100003.5944
100003.5909
100003.579
100003.5669
100003.5562
100003.5548
100003.5589
100003.5677
100003.5784
100003.5878
100003.594
100003.5984
100003.6009
100003.6052
100003.6062
100003.6135
100003.532
100003.5418
100003.5462
100003.5388
100003.5443
100003.5276
100003.5298
100003.5404
100003.5592
100003.5739
100003.5798
100003.58
100003.5791
100003.5723
100003.565
100003.5601
100003.5633
100003.5688
100003.5778
100003.5877
100003.5941
100003.5976
100003.6
100003.6014
100003.6045
100003.6057
100003.6104
100003.5264
100003.5351
100003.5356
100003.5287
100003.5346
100003.5116
100003.5303
100003.5404
100003.5578
100003.5686
100003.5773
100003.5758
100003.5752
100003.5699
100003.5667
100003.5675
100003.5712
100003.5764
100003.5841
100003.5915
100003.596
100003.5982
100003.5998
100003.6007
100003.6028
100003.6037
100003.6064
100003.5219
100003.5276
100003.5209
100003.5217
100003.522
100003.512
100003.5291
100003.5444
100003.5563
100003.5678
100003.5742
100003.5737
100003.5723
100003.5694
100003.5694
100003.572
100003.5749
100003.5797
100003.5866
100003.5922
100003.5954
100003.5971
100003.5983
100003.599
100003.6002
100003.6007
100003.6022
100003.5261
100003.527
100003.5243
100003.5299
100003.522
100003.5213
100003.5468
100003.5484
100003.5604
100003.569
100003.573
100003.5726
100003.5713
100003.5715
100003.5729
100003.5751
100003.5779
100003.5828
100003.5882
100003.5921
100003.5944
100003.5956
100003.5964
100003.5968
100003.5975
100003.5979
100003.5986
100003.5302
100003.5245
100003.5222
100003.5251
100003.527
100003.5347
100003.5413
100003.5508
100003.5612
100003.569
100003.5709
100003.5702
100003.5687
100003.5689
100003.57
100003.5729
100003.5773
100003.5837
100003.5885
100003.5917
100003.5934
100003.5943
100003.5948
100003.5952
100003.5956
100003.5958
100003.5961
100003.5592
100003.5508
100003.5454
100003.5439
100003.5441
100003.5502
100003.5582
100003.5686
100003.5758
100003.5794
100003.5794
100003.5773
100003.5754
100003.5752
100003.5766
100003.5799
100003.5845
100003.5886
100003.5912
100003.5927
100003.5935