/*--------------------------------*- C++ -*----------------------------------*\
  =========                 |
  \\      /  F ield         | OpenFOAM: The Open Source CFD Toolbox
   \\    /   O peration     | Website:  https://openfoam.org
    \\  /    A nd           | Version:  8
     \\/     M anipulation  |
\*---------------------------------------------------------------------------*/
FoamFile
{
    version     2.0;
    format      ascii;
    class       volScalarField;
    location    "0.9/wallFilmRegion";
    object      kappa;
}
// * * * * * * * * * * * * * * * * * * * * * * * * * * * * * * * * * * * * * //

dimensions      [1 1 -3 -1 0 0 0];

internalField   nonuniform List<scalar> 
1369
(
0.6088100031
0.608810005
0.6088100071
0.6088100093
0.6088100082
0.6088100072
0.6088100087
0.6088100031
0.6088100051
0.6088100093
0.6088100153
0.6088100165
0.6088100165
0.6088100134
0.6088100012
0.6088100089
0.6088100051
0.6088100028
0.6088100031
0.6088100055
0.6088100139
0.608810022
0.6088100216
0.6088100151
0.6088100028
0.6088100001
0.6088100046
0.6088100025
0.6088100009
0.6088100002
0.6088100001
0.608810003
0.6088100045
0.6088100127
0.6088100207
0.6088100135
0.6088100017
0.6088100002
0.60881
0.6088100001
0.6088100006
0.6088100003
0.6088100001
0.6088100002
0.6088100005
0.6088100008
0.6088100011
0.6088100033
0.6088100031
0.6088100054
0.6088100119
0.6088100181
0.6088100124
0.6088100053
0.6088100022
0.6088100002
0.6088100014
0.6088100004
0.6088100001
0.6088100002
0.6088100004
0.6088100007
0.6088100015
0.6088100105
0.6088100123
0.6088100125
0.6088100115
0.6088100032
0.608810008
0.6088100168
0.608810015
0.6088100061
0.6088100023
0.6088100011
0.6088100007
0.6088100007
0.6088100002
0.6088100002
0.6088100003
0.6088100005
0.6088100007
0.6088100014
0.6088100087
0.6088100064
0.6088100057
0.6088100062
0.6088100248
0.6088100411
0.6088100086
0.6088100102
0.6088100031
0.6088100067
0.6088100152
0.6088100069
0.6088100025
0.6088100011
0.6088100006
0.6088100004
0.6088100003
0.6088100002
0.6088100002
0.6088100004
0.6088100005
0.6088100006
0.6088100011
0.6088100053
0.608810002
0.6088100009
0.6088100017
0.6088100363
0.6088100455
0.6088100007
0.6088099982
0.6088099965
0.6088099965
0.6088100031
0.6088100083
0.6088100099
0.6088100028
0.6088100012
0.6088100006
0.6088100003
0.6088100002
0.6088100002
0.6088100002
0.6088100003
0.6088100004
0.6088100005
0.6088100005
0.6088100009
0.6088100038
0.6088100002
0.6088099982
0.6088099988
0.6088100791
0.6088100307
0.6088099986
0.6088099977
0.6088099959
0.6088099999
0.6088100138
0.6088100032
0.6088100066
0.6088100036
0.6088100014
0.6088100007
0.6088100004
0.6088100003
0.6088100002
0.6088100003
0.6088100003
0.6088100004
0.6088100004
0.6088100004
0.6088100005
0.6088100007
0.6088100031
0.6088100005
0.608809998
0.6088099972
0.6088099966
0.6088099968
0.608809997
0.6088099972
0.6088099938
0.6088100016
0.6088099998
0.6088100032
0.6088100027
0.6088100017
0.608810001
0.6088100006
0.6088100004
0.6088100002
0.6088100002
0.6088100004
0.6088100005
0.6088100006
0.6088100005
0.6088100005
0.6088100005
0.6088100009
0.6088100046
0.608810003
0.6088100023
0.6088100003
0.6088099942
0.6088099935
0.6088099933
0.6088099926
0.6088100044
0.608810005
0.6088099975
0.6088099957
0.6088100031
0.6088100022
0.6088100015
0.608810001
0.6088100006
0.6088100003
0.6088100002
0.6088100001
0.6088100007
0.6088100006
0.6088100007
0.608810001
0.608810001
0.6088100014
0.6088100035
0.608810019
0.6088100843
0.6088101708
0.6088100149
0.6088100119
0.6088100074
0.608810004
0.6088099953
0.6088099939
0.6088100202
0.6088099972
0.6088099968
0.6088100032
0.6088100066
0.6088100051
0.6088100028
0.6088100014
0.6088100008
0.6088100007
0.6088100012
0.6088100063
0.6088100033
0.6088100018
0.6088100011
0.6088100009
0.608810001
0.6088100014
0.6088100017
0.6088100009
0.6088100022
0.6088100036
0.608810005
0.6088100042
0.608809999
0.6088099936
0.608809994
0.608810054
0.6088100003
0.6088099994
0.6088100031
0.608810007
0.6088100058
0.6088100042
0.6088100022
0.6088100012
0.6088100009
0.6088100016
0.6088100096
0.608810005
0.6088100026
0.6088100015
0.608810001
0.6088100009
0.6088100011
0.6088100018
0.6088100003
0.6088100005
0.6088100009
0.6088100019
0.6088100023
0.6088099989
0.6088099954
0.6088099955
0.6088100464
0.6088100022
0.6088099992
0.6088099959
0.6088100029
0.608810004
0.6088100035
0.6088100036
0.6088100035
0.608810002
0.6088100014
0.6088100019
0.608810013
0.6088100061
0.6088100033
0.6088100019
0.6088100013
0.6088100011
0.6088100014
0.6088100363
0.6088100055
0.6088100071
0.6088100061
0.6088100044
0.6088100035
0.6088100025
0.6088099993
0.6088099988
0.6088100024
0.6088100003
0.6088099989
0.6088099963
0.6088100391
0.6088100027
0.6088100026
0.6088100023
0.6088100024
0.6088100032
0.6088100036
0.6088100024
0.6088100027
0.6088100219
0.6088100112
0.6088100052
0.6088100028
0.6088100018
0.6088100014
0.6088100017
0.6088100398
0.6088100125
0.6088100168
0.6088100102
0.6088100053
0.6088100056
0.6088100073
0.6088100003
0.6088100001
0.6088100019
0.6088100006
0.608809999
0.6088099968
0.6088101378
0.6088100026
0.6088100019
0.6088100017
0.6088100018
0.6088100024
0.6088100041
0.6088100052
0.6088100053
0.6088100158
0.6088100121
0.6088100077
0.6088100045
0.6088100028
0.6088100021
0.6088100022
0.6088100047
0.6088100082
0.608810012
0.6088100021
0.6088100014
0.6088100029
0.6088100048
0.6088100049
0.6088100031
0.6088100037
0.6088100026
0.6088100088
0.6088100023
0.6088100189
0.6088100025
0.6088100016
0.6088100015
0.6088100016
0.608810002
0.6088100031
0.6088100065
0.608810007
0.6088100078
0.6088100061
0.6088100042
0.6088100032
0.6088100032
0.6088100041
0.6088100044
0.6088100086
0.6088100045
0.608810005
0.6088100066
0.6088100068
0.6088100052
0.6088100042
0.6088100034
0.6088100027
0.6088100029
0.6088100033
0.608810004
0.6088100052
0.6088100092
0.6088100853
0.6088100228
0.608813367
0.6088130877
0.6088100008
0.6088100025
0.6088100016
0.6088100015
0.6088100016
0.6088100017
0.6088100019
0.6088100023
0.608810003
0.6088100033
0.6088100027
0.608810002
0.6088100018
0.6088100023
0.6088100072
0.6088100127
0.6088100162
0.6088100178
0.6088100216
0.6088100271
0.6088100331
0.608810036
0.6088100405
0.6088100496
0.6088100647
0.6088100595
0.6088100061
0.6088100076
0.6088100092
0.60881001
0.6088100115
0.6088100339
0.6088100755
0.608810412
0.608810002
0.6088100022
0.6088100018
0.6088100019
0.6088100021
0.6088100021
0.608810002
0.6088100019
0.6088100019
0.608810002
0.6088100015
0.6088100011
0.6088100008
0.6088100009
0.6088100095
0.6088100259
0.6088100288
0.6088100291
0.6088100282
0.6088100274
0.6088100224
0.6088100111
0.6088100051
0.6088100022
0.6088100179
0.6088100576
0.6088100065
0.6088100026
0.6088099981
0.6088099974
0.6088100011
0.608810028
0.6088100166
0.6088100172
0.6088100212
0.6088100019
0.6088100016
0.6088100022
0.608810003
0.6088100042
0.6088100076
0.6088100079
0.6088100015
0.6088100011
0.6088100012
0.6088100006
0.6088100002
0.6088100002
0.6088100113
0.6088100317
0.6088100342
0.6088100329
0.6088100282
0.608810024
0.6088100215
0.6088100154
0.6088100035
0.6088099999
0.6088100048
0.6088100223
0.6088100062
0.6088100019
0.6088100007
0.6088100115
0.6088100126
0.6088100136
0.6088100121
0.6088100047
0.608810002
0.6088100016
0.608810002
0.6088100024
0.6088100028
0.6088100029
0.6088100025
0.6088100019
0.6088100014
0.6088100009
0.6088100003
0.6088099998
0.6088099997
0.6088100078
0.6088100369
0.6088100405
0.6088100385
0.6088100294
0.6088100215
0.6088100167
0.6088100118
0.6088100024
0.6088099992
0.6088100019
0.6088100127
0.6088100067
0.6088100035
0.6088100068
0.6088100072
0.6088100058
0.6088100064
0.6088100112
0.6088100021
0.6088100017
0.6088100019
0.6088100025
0.608810003
0.6088100034
0.6088100031
0.6088100022
0.6088100009
0.6088099999
0.6088099998
0.6088099994
0.6088099995
0.6088100013
0.6088100406
0.6088100513
0.6088100576
0.6088100385
0.6088100232
0.6088100169
0.6088100154
0.608810002
0.6088099982
0.6088100003
0.6088100313
0.6088100077
0.6088100041
0.6088100057
0.608810007
0.6088100048
0.6088100079
0.6088100079
0.6088100023
0.6088100016
0.6088100017
0.6088100018
0.6088100017
0.6088100008
0.6088099995
0.6088099989
0.6088099987
0.608809999
0.6088099999
0.6088100019
0.6088100041
0.6088100407
0.6088100452
0.6088100671
0.608810169
0.6088100641
0.6088100313
0.608810017
0.6088100202
0.6088100027
0.6088099967
0.6088099987
0.6088100414
0.6088100093
0.6088100036
0.6088100046
0.6088100079
0.6088100007
0.6088099985
0.608809998
0.6088100022
0.6088100012
0.6088100011
0.608810001
0.6088100009
0.6088100008
0.6088100011
0.608810002
0.6088100046
0.6088100125
0.6088100214
0.6088100248
0.6088100186
0.6088100477
0.6088100344
0.608810023
0.608810014
0.608810009
0.6088100057
0.6088100041
0.6088100035
0.6088100024
0.608809997
0.6088099981
0.6088100045
0.6088100116
0.6088100032
0.6088100038
0.6088100064
0.6088100038
0.6088099995
0.6088100012
0.6088100009
0.6088100007
0.6088100005
0.6088100005
0.6088100008
0.6088100016
0.6088100032
0.6088100059
0.6088100107
0.6088100171
0.6088100249
0.6088100321
0.6088100482
0.6088100171
0.6088100085
0.6088100055
0.6088100049
0.6088100056
0.6088100067
0.6088100096
0.6088099993
0.6088099957
0.6088099979
0.6088099974
0.6088100101
0.6088100027
0.6088100004
0.6088099962
0.6088099909
0.6088099905
0.6088100003
0.6088100009
0.6088100005
0.6088100003
0.6088100003
0.6088100006
0.6088100012
0.608810002
0.608810003
0.6088100043
0.6088100062
0.6088100094
0.6088100142
0.6088100175
0.6088100091
0.6088100076
0.6088103459
0.6088100544
0.6088100063
0.6088100017
0.6088101762
0.6088099981
0.6088099955
0.6088099956
0.6088099939
0.6088099979
0.608810001
0.6088099973
0.6088099911
0.6088099886
0.6088099941
0.6088100003
0.608810001
0.6088100006
0.6088100002
0.6088099999
0.6088099997
0.6088099995
0.6088099992
0.608809999
0.6088099988
0.6088099989
0.6088099992
0.6088100001
0.6088100021
0.6088100176
0.6088100449
0.6088100919
0.6088100081
0.6088100018
0.6088100007
0.6088106547
0.608809999
0.6088099975
0.608809996
0.6088099883
0.6088099816
0.6088099826
0.6088099835
0.608809983
0.6088099906
0.6088099987
0.6088100013
0.6088100013
0.6088100007
0.6088100002
0.6088099998
0.6088099994
0.608809999
0.6088099985
0.6088099977
0.6088099958
0.6088099949
0.6088099957
0.6088100003
0.6088100154
0.6088100496
0.6088100551
0.6088100097
0.6088100028
0.6088100011
0.6088100004
0.6088100097
0.6088100611
0.6088099968
0.6088099973
0.6088099981
0.6088099826
0.6088099825
0.6088099857
0.6088099772
0.6088099931
0.6088099983
0.6088100022
0.6088100021
0.6088100012
0.6088100004
0.60881
0.6088099996
0.6088099992
0.6088099989
0.6088099985
0.6088099977
0.6088099975
0.60881
0.6088100107
0.6088100485
0.60881008
0.6088100269
0.6088100067
0.6088100026
0.6088100008
0.6088100002
0.6088100679
0.6088100553
0.6088099979
0.6088099986
0.6088099986
0.6088099938
0.6088099898
0.6088099866
0.6088099856
0.608809995
0.608809998
0.6088100025
0.6088100037
0.6088100021
0.608810001
0.6088100004
0.60881
0.6088099997
0.6088099995
0.6088099993
0.6088099987
0.6088099977
0.6088099971
0.6088100006
0.608810017
0.608810055
0.6088100317
0.6088100086
0.608810003
0.6088100007
0.6088100001
0.6088100398
0.608810053
0.6088100103
0.6088100001
0.6088099982
0.6088099959
0.6088099884
0.6088099912
0.6088099934
0.6088099965
0.6088099987
0.6088100025
0.6088100048
0.608810003
0.6088100017
0.608810001
0.6088100007
0.6088100006
0.6088100014
0.6088100055
0.608810016
0.608810016
0.6088100124
0.6088100095
0.6088100102
0.6088100167
0.6088100285
0.6088100187
0.6088100179
0.6088100134
0.60881
0.6088100093
0.6088100182
0.6088100097
0.6088100015
0.6088099994
0.608809998
0.6088099907
0.6088099945
0.6088099964
0.6088099978
0.6088099984
0.6088100025
0.6088100049
0.6088100035
0.6088100025
0.6088100019
0.6088100016
0.608810002
0.6088100037
0.6088100079
0.6088100122
0.608810013
0.608810013
0.6088100135
0.6088100102
0.6088100015
0.6088100005
0.6088100002
0.6088100001
0.60881
0.60881
0.6088100001
0.6088100005
0.6088100012
0.6088100038
0.6088100014
0.6088099969
0.6088099951
0.6088099948
0.6088099968
0.6088099975
0.6088099982
0.6088100025
0.6088100037
0.6088100025
0.6088100017
0.6088100013
0.6088100011
0.6088100013
0.608810002
0.6088100036
0.6088100059
0.6088100065
0.6088100032
0.6088100011
0.6088100005
0.6088100003
0.6088100003
0.6088100002
0.6088100001
0.6088100001
0.60881
0.6088100003
0.6088100008
0.6088100013
0.6088100016
0.6088100017
0.6088100009
0.6088099999
0.6088099965
0.608809997
0.6088099973
0.6088099974
0.6088100024
0.6088100018
0.6088100003
0.6088099993
0.6088099988
0.6088099984
0.6088099981
0.608809998
0.6088099983
0.6088099998
0.608810004
0.6088100036
0.6088100013
0.6088100005
0.6088100002
0.6088100002
0.6088100002
0.6088100002
0.6088100001
0.60881
0.6088100006
0.608810001
0.6088100011
0.6088100018
0.608810002
0.608810002
0.608810002
0.6088099998
0.608809998
0.6088099982
0.6088099975
0.6088100025
0.6088100035
0.6088100022
0.6088100009
0.6088100009
0.6088100006
0.6088099998
0.6088099991
0.6088099989
0.6088099998
0.6088100032
0.6088100055
0.6088100026
0.608810001
0.6088100005
0.6088100003
0.6088100003
0.6088100003
0.6088100002
0.6088100001
0.6088100011
0.6088100012
0.608810001
0.6088100019
0.6088100021
0.6088100023
0.6088100022
0.6088100066
0.6088100008
0.6088099991
0.6088099981
0.6088100025
0.6088100021
0.6088100016
0.6088100014
0.6088100016
0.6088100018
0.6088100011
0.60881
0.6088099994
0.6088099997
0.6088100016
0.6088100056
0.6088100054
0.608810003
0.6088100015
0.6088100008
0.6088100006
0.6088100004
0.6088100003
0.6088100002
0.6088100018
0.6088100014
0.6088100011
0.6088100019
0.6088100023
0.6088100027
0.6088100023
0.6088100028
0.6088100016
0.6088100004
0.6088100002
0.6088100026
0.6088100028
0.6088100018
0.6088100015
0.6088100015
0.6088100016
0.6088100015
0.6088100007
0.6088099998
0.6088099995
0.6088100001
0.6088100019
0.6088100031
0.6088100065
0.6088100044
0.6088100022
0.6088100012
0.6088100008
0.6088100006
0.6088100005
0.6088100023
0.6088100013
0.6088100013
0.6088100021
0.608810003
0.6088100034
0.6088100024
0.6088100023
0.6088100021
0.6088100016
0.6088100017
0.6088100008
0.6088100027
0.6088100018
0.6088100016
0.6088100015
0.6088100016
0.6088100015
0.6088100011
0.6088100004
0.6088099998
0.6088099995
0.6088099998
0.6088099996
0.6088100048
0.6088100061
0.6088100054
0.6088100026
0.6088100019
0.6088100013
0.6088100009
0.6088100022
0.6088100016
0.608810002
0.6088100034
0.6088100047
0.6088100042
0.6088100025
0.608810002
0.6088100025
0.6088100026
0.6088100029
0.6088100021
0.6088100024
0.6088100018
0.6088100016
0.6088100015
0.6088100015
0.6088100015
0.6088100014
0.6088100011
0.6088100005
0.6088099999
0.6088099992
0.6088099984
0.6088100037
0.6088100045
0.6088100055
0.6088100043
0.6088100023
0.6088100013
0.6088100013
0.6088100027
0.6088100023
0.6088100039
0.6088100066
0.6088100083
0.608810005
0.6088100028
0.6088100021
0.6088100026
0.6088100032
0.6088100038
0.6088100026
0.6088100022
0.6088100018
0.6088100016
0.6088100015
0.6088100014
0.6088100014
0.6088100015
0.6088100016
0.6088100014
0.6088100008
0.6088099993
0.6088099982
0.6088100032
0.6088100049
0.6088100066
0.6088100052
0.6088100018
0.6088100013
0.6088100019
0.6088100035
0.6088100036
0.6088100056
0.6088100091
0.6088100138
0.6088100059
0.6088100033
0.6088100024
0.6088100029
0.6088100035
0.6088100044
0.6088100028
0.6088100022
0.6088100018
0.6088100016
0.6088100015
0.6088100014
0.6088100014
0.6088100015
0.6088100018
0.6088100023
0.6088100023
0.6088100001
0.6088099985
0.608810003
0.6088100015
0.6088100011
0.6088100005
0.6088100002
0.6088100002
0.6088100017
0.6088100016
0.6088100018
0.6088100029
0.6088100076
0.608810016
0.6088100062
0.6088100042
0.6088100031
0.6088100029
0.6088100013
0.6088099989
0.608810003
0.6088100022
0.6088100018
0.6088100017
0.6088100016
0.6088100015
0.6088100015
0.6088100016
0.6088100019
0.6088100028
0.608810004
0.6088100016
0.6088099991
0.6088100031
0.6088100014
0.6088100008
0.6088100004
0.6088100002
0.6088100001
0.6088100012
0.6088100013
0.6088100019
0.6088100035
0.6088100106
0.6088100192
0.6088100127
0.608810006
0.6088100045
0.6088100038
0.6088100023
0.6088100004
0.6088100032
0.6088100035
0.6088100034
0.6088100028
0.6088100017
0.6088100016
0.6088100016
0.6088100017
0.608810002
0.6088100031
0.6088100051
0.6088100039
0.60881
0.6088100035
0.6088100019
0.608810001
0.6088100005
0.6088100003
0.6088100001
0.6088100014
0.6088100018
0.608810003
0.6088100057
0.6088100148
0.6088100208
0.6088100135
0.6088100164
0.6088100046
0.6088100043
0.6088099995
0.6088100011
0.6088100034
0.6088100044
0.6088100041
0.6088100036
0.6088100037
0.6088100019
0.6088100018
0.6088100018
0.6088100021
0.6088100032
0.6088100052
0.6088100051
0.6088100009
0.6088100043
0.6088100028
0.6088100016
0.6088100009
0.6088100005
0.6088100004
0.6088100025
0.6088100033
0.6088100051
0.6088100098
0.6088100176
0.6088100226
0.6088100132
0.6088100206
0.6088100085
0.6088100042
0.6088100029
0.6088100021
0.6088100038
0.6088100042
0.608810004
0.6088100036
0.6088100036
0.6088100037
0.6088100023
0.6088100021
0.6088100023
0.6088100033
0.6088100049
0.6088100046
0.6088100019
0.6088100056
0.6088100044
0.6088100026
0.6088100016
0.6088100011
0.6088100009
0.6088100043
0.6088100054
0.6088100081
0.6088100127
0.6088100197
0.6088100251
0.6088100133
0.6088100217
0.6088100208
0.6088100047
0.6088100038
0.6088100046
0.6088100039
0.6088100039
0.6088100035
0.6088100034
0.6088100035
0.6088100037
0.6088100037
0.608810004
0.6088100026
0.6088100034
0.6088100046
0.6088100045
0.6088100032
0.6088100073
0.6088100072
0.6088100043
0.6088100026
0.6088100019
0.6088100018
0.6088100054
0.6088100068
0.6088100081
0.6088100108
0.6088100185
0.6088100275
0.608810014
0.6088100215
0.6088100248
0.608810006
0.6088100033
0.6088100039
0.6088100036
0.6088100031
0.6088100031
0.6088100034
0.6088100038
0.6088100041
0.608810004
0.6088100041
0.6088100031
0.6088100034
0.6088100043
0.6088100046
0.6088100045
0.6088100079
0.6088100097
0.608810007
0.6088100042
0.6088100028
0.6088100025
0.608810005
0.6088100051
0.6088100051
0.6088100067
0.6088100122
0.6088100279
0.6088100147
0.608810018
0.6088100226
0.6088100044
0.6088100031
0.6088100035
0.608810003
0.6088100028
0.6088100034
0.6088100039
0.6088100037
0.6088100035
0.6088100034
0.6088100033
0.608810003
0.6088100028
0.6088100026
0.6088100024
0.6088100023
0.6088100023
0.6088100023
0.6088100024
0.6088100025
0.6088100025
0.6088100026
0.6088100027
0.6088100028
0.6088100029
0.6088100031
0.608810004
0.6088100086
0.6088100111
0.6088100034
0.6088100029
0.6088100029
0.6088100029
0.6088100028
)
;

boundaryField
{
    walls
    {
        type            zeroGradient;
    }
    wallFilmFace_top
    {
        type            zeroGradient;
    }
    region0_to_wallFilmRegion_wallFilmFace
    {
        type            zeroGradient;
    }
    mirrorFace_top
    {
        type            zeroGradient;
    }
    region0_to_wallFilmRegion_mirrorFace
    {
        type            zeroGradient;
    }
    procBoundary1to0
    {
        type            processor;
        value           nonuniform List<scalar> 
52
(
0.608810003
0.6088100051
0.6088100061
0.6088100062
0.6088100042
0.608810003
0.6088100043
0.6088100111
0.6088100111
0.6088100121
0.6088100086
0.6088100061
0.6088100014
0.6088100014
0.608810001
0.6088100002
0.6088100002
0.6088100005
0.6088100009
0.6088100011
0.6088100056
0.6088100056
0.6088100059
0.6088100229
0.6088100229
0.6088100356
0.60881002
0.6088100129
0.6088099963
0.6088099963
0.6088099957
0.6088100025
0.6088100025
0.6088100129
0.6088100054
0.6088100054
0.6088099937
0.6088099951
0.6088099956
0.6088099956
0.6088099939
0.6088099939
0.6088099934
0.6088099952
0.6088100126
0.6088100126
0.6088099979
0.6088100143
0.6088114843
0.6088100017
0.6088099979
0.6088100003
)
;
    }
    procBoundary1to2
    {
        type            processor;
        value           nonuniform List<scalar> 
33
(
0.6088100063
0.608810002
0.608810002
0.6088100016
0.6088100016
0.6088099995
0.6088099978
0.6088099982
0.6088099982
0.6088099957
0.608809997
0.6088099967
0.6088100161
0.608810007
0.6088100036
0.6088099981
0.6088099986
0.6088099979
0.6088099979
0.6088099983
0.6088100015
0.6088100026
0.6088100033
0.6088100042
0.6088100052
0.6088100057
0.6088100055
0.6088099995
0.6088099984
0.6088100017
0.6088100048
0.6088100058
0.6088100025
)
;
    }
}


// ************************************************************************* //
