/*--------------------------------*- C++ -*----------------------------------*\
  =========                 |
  \\      /  F ield         | OpenFOAM: The Open Source CFD Toolbox
   \\    /   O peration     | Website:  https://openfoam.org
    \\  /    A nd           | Version:  8
     \\/     M anipulation  |
\*---------------------------------------------------------------------------*/
FoamFile
{
    version     2.0;
    format      ascii;
    class       volScalarField;
    location    "0.9/wallFilmRegion";
    object      mu;
}
// * * * * * * * * * * * * * * * * * * * * * * * * * * * * * * * * * * * * * //

dimensions      [1 -1 -1 0 0 0 0];

internalField   nonuniform List<scalar> 
1369
(
0.0008861473671
0.0008861473403
0.000886147311
0.0008861472811
0.0008861472957
0.0008861473097
0.0008861472891
0.0008861473668
0.0008861473397
0.0008861472809
0.0008861471963
0.0008861471793
0.0008861471795
0.0008861472238
0.0008861473943
0.0008861472859
0.0008861473389
0.0008861473715
0.0008861473675
0.0008861473335
0.0008861472159
0.0008861471026
0.0008861471092
0.0008861471994
0.0008861473718
0.0008861474084
0.0008861473459
0.0008861473752
0.0008861473976
0.0008861474071
0.0008861474087
0.0008861473682
0.0008861473479
0.0008861472326
0.0008861471207
0.0008861472212
0.000886147387
0.0008861474079
0.0008861474103
0.0008861474092
0.0008861474019
0.0008861474062
0.0008861474088
0.0008861474073
0.000886147404
0.0008861473994
0.0008861473951
0.0008861473645
0.0008861473667
0.0008861473343
0.0008861472444
0.0008861471574
0.0008861472377
0.0008861473369
0.0008861473794
0.0008861474082
0.0008861473904
0.0008861474045
0.0008861474083
0.0008861474076
0.0008861474046
0.0008861474002
0.000886147389
0.0008861472645
0.000886147239
0.000886147236
0.0008861472502
0.0008861473662
0.000886147299
0.0008861471752
0.0008861472006
0.000886147325
0.0008861473787
0.000886147395
0.0008861474012
0.0008861474011
0.0008861474075
0.0008861474081
0.0008861474063
0.0008861474036
0.0008861474004
0.0008861473914
0.0008861472887
0.0008861473217
0.0008861473314
0.0008861473235
0.0008861470634
0.0008861468365
0.0008861472906
0.0008861472676
0.0008861473674
0.0008861473165
0.0008861471975
0.0008861473145
0.0008861473755
0.0008861473956
0.0008861474026
0.0008861474052
0.0008861474057
0.000886147408
0.000886147407
0.0008861474051
0.0008861474034
0.0008861474015
0.0008861473951
0.0008861473367
0.0008861473825
0.0008861473973
0.0008861473872
0.0008861469041
0.0008861467752
0.0008861474008
0.0008861474351
0.0008861474599
0.0008861474594
0.0008861473673
0.0008861472949
0.0008861472722
0.0008861473707
0.0008861473938
0.0008861474021
0.0008861474057
0.0008861474071
0.0008861474073
0.0008861474073
0.0008861474057
0.0008861474045
0.0008861474039
0.0008861474027
0.0008861473983
0.0008861473575
0.0008861474079
0.0008861474354
0.0008861474269
0.0008861463054
0.0008861469811
0.0008861474302
0.000886147442
0.0008861474674
0.0008861474117
0.0008861472179
0.0008861473658
0.0008861473177
0.0008861473595
0.000886147391
0.0008861474001
0.0008861474045
0.0008861474068
0.0008861474075
0.0008861474068
0.0008861474057
0.0008861474044
0.0008861474045
0.0008861474043
0.0008861474034
0.0008861473999
0.0008861473674
0.0008861474034
0.0008861474389
0.0008861474499
0.0008861474581
0.0008861474551
0.0008861474516
0.0008861474498
0.0008861474968
0.0008861473884
0.000886147413
0.0008861473662
0.000886147373
0.000886147387
0.0008861473964
0.0008861474018
0.0008861474053
0.0008861474072
0.0008861474069
0.0008861474044
0.0008861474034
0.0008861474024
0.000886147404
0.0008861474039
0.0008861474028
0.0008861473983
0.0008861473457
0.0008861473685
0.0008861473786
0.0008861474064
0.0008861474912
0.0008861475016
0.0008861475035
0.0008861475135
0.0008861473483
0.0008861473406
0.0008861474459
0.0008861474706
0.0008861473675
0.0008861473803
0.0008861473888
0.0008861473959
0.0008861474017
0.0008861474059
0.0008861474079
0.0008861474083
0.0008861474009
0.0008861474026
0.0008861474
0.0008861473969
0.0008861473957
0.0008861473909
0.0008861473621
0.0008861471444
0.0008861462341
0.0008861450261
0.0008861472019
0.0008861472442
0.0008861473069
0.0008861473542
0.0008861474763
0.0008861474955
0.0008861471278
0.000886147449
0.0008861474545
0.0008861473656
0.0008861473177
0.000886147339
0.000886147371
0.0008861473906
0.0008861473989
0.0008861474005
0.0008861473932
0.0008861473217
0.0008861473645
0.000886147385
0.0008861473947
0.0008861473979
0.0008861473971
0.0008861473914
0.0008861473868
0.000886147398
0.0008861473791
0.0008861473605
0.0008861473412
0.0008861473514
0.0008861474246
0.000886147499
0.0008861474945
0.0008861466571
0.0008861474056
0.0008861474183
0.0008861473676
0.0008861473132
0.0008861473294
0.000886147352
0.0008861473799
0.0008861473938
0.0008861473971
0.0008861473884
0.0008861472766
0.000886147341
0.0008861473735
0.0008861473895
0.0008861473964
0.000886147398
0.0008861473948
0.0008861473856
0.0008861474055
0.0008861474038
0.0008861473974
0.0008861473841
0.0008861473777
0.0008861474252
0.0008861474739
0.000886147473
0.0008861467628
0.0008861473802
0.0008861474212
0.000886147468
0.0008861473705
0.0008861473552
0.0008861473622
0.0008861473599
0.0008861473615
0.0008861473828
0.0008861473914
0.0008861473837
0.0008861472294
0.000886147325
0.0008861473641
0.0008861473832
0.0008861473926
0.0008861473956
0.0008861473909
0.0008861469031
0.0008861473336
0.0008861473119
0.0008861473258
0.0008861473482
0.0008861473613
0.000886147376
0.0008861474201
0.0008861474273
0.0008861473766
0.0008861474057
0.0008861474254
0.0008861474613
0.000886146864
0.0008861473724
0.0008861473746
0.0008861473785
0.000886147377
0.0008861473663
0.0008861473596
0.000886147377
0.0008861473721
0.0008861471043
0.0008861472543
0.0008861473373
0.0008861473709
0.000886147385
0.0008861473906
0.000886147386
0.0008861468544
0.0008861472364
0.0008861471752
0.0008861472674
0.0008861473368
0.0008861473319
0.0008861473091
0.0008861474055
0.0008861474093
0.0008861473835
0.0008861474015
0.0008861474242
0.000886147455
0.0008861454865
0.0008861473736
0.0008861473841
0.0008861473867
0.0008861473847
0.0008861473769
0.0008861473524
0.0008861473376
0.0008861473361
0.0008861471892
0.000886147242
0.0008861473032
0.0008861473479
0.0008861473708
0.0008861473807
0.0008861473797
0.0008861473453
0.0008861472965
0.0008861472427
0.0008861473811
0.0008861473909
0.0008861473701
0.0008861473439
0.0008861473424
0.000886147367
0.0008861473592
0.0008861473739
0.000886147287
0.0008861473782
0.0008861471471
0.0008861473756
0.0008861473874
0.0008861473894
0.0008861473874
0.0008861473822
0.0008861473675
0.0008861473202
0.0008861473122
0.0008861473011
0.0008861473254
0.000886147351
0.0008861473662
0.000886147365
0.0008861473534
0.0008861473492
0.0008861472902
0.000886147347
0.0008861473402
0.0008861473188
0.0008861473155
0.0008861473376
0.0008861473514
0.0008861473627
0.0008861473723
0.0008861473698
0.0008861473641
0.0008861473552
0.0008861473371
0.0008861472814
0.0008861462197
0.000886147092
0.0008861004072
0.0008861043062
0.0008861473989
0.0008861473752
0.0008861473877
0.0008861473894
0.0008861473883
0.0008861473866
0.000886147384
0.0008861473784
0.0008861473683
0.0008861473636
0.0008861473727
0.0008861473819
0.0008861473855
0.0008861473787
0.0008861473093
0.0008861472336
0.0008861471843
0.0008861471625
0.0008861471092
0.0008861470315
0.000886146948
0.0008861469081
0.0008861468443
0.0008861467174
0.0008861465077
0.0008861465801
0.0008861473249
0.0008861473049
0.0008861472824
0.0008861472704
0.0008861472495
0.0008861469371
0.0008861463558
0.0008861416584
0.0008861473818
0.0008861473796
0.0008861473857
0.0008861473844
0.0008861473816
0.0008861473813
0.000886147383
0.0008861473845
0.000886147384
0.0008861473828
0.000886147389
0.0008861473953
0.0008861473998
0.0008861473976
0.0008861472777
0.0008861470482
0.0008861470089
0.0008861470047
0.0008861470163
0.0008861470283
0.0008861470981
0.0008861472561
0.0008861473387
0.0008861473798
0.0008861471601
0.0008861466056
0.0008861473189
0.0008861473742
0.0008861474368
0.0008861474465
0.0008861473953
0.0008861470191
0.000886147179
0.00088614717
0.0008861471146
0.0008861473835
0.0008861473875
0.0008861473792
0.0008861473688
0.0008861473511
0.0008861473045
0.0008861473007
0.00088614739
0.0008861473944
0.0008861473941
0.0008861474021
0.0008861474076
0.0008861474078
0.0008861472519
0.0008861469675
0.0008861469331
0.0008861469511
0.0008861470167
0.0008861470759
0.0008861471107
0.000886147196
0.0008861473618
0.0008861474124
0.0008861473435
0.0008861470985
0.0008861473235
0.0008861473844
0.0008861474003
0.0008861472497
0.0008861472341
0.0008861472199
0.0008861472419
0.0008861473453
0.0008861473821
0.0008861473874
0.0008861473829
0.0008861473764
0.000886147371
0.00088614737
0.0008861473759
0.0008861473842
0.0008861473902
0.0008861473974
0.0008861474057
0.0008861474131
0.000886147414
0.0008861473018
0.0008861468948
0.0008861468453
0.0008861468725
0.0008861470003
0.0008861471097
0.0008861471767
0.0008861472453
0.0008861473762
0.0008861474222
0.000886147384
0.0008861472333
0.0008861473162
0.000886147362
0.0008861473157
0.0008861473094
0.0008861473298
0.0008861473213
0.0008861472536
0.0008861473807
0.0008861473871
0.0008861473833
0.0008861473761
0.0008861473681
0.0008861473626
0.0008861473669
0.0008861473801
0.0008861473971
0.0008861474113
0.0008861474131
0.0008861474184
0.0008861474174
0.0008861473923
0.0008861468438
0.0008861466937
0.0008861466065
0.0008861468734
0.0008861470864
0.0008861471751
0.0008861471947
0.0008861473827
0.0008861474352
0.0008861474056
0.0008861469731
0.0008861473035
0.0008861473526
0.0008861473303
0.0008861473125
0.0008861473429
0.0008861473
0.0008861472999
0.0008861473783
0.0008861473886
0.000886147387
0.0008861473846
0.0008861473868
0.0008861473992
0.0008861474167
0.0008861474257
0.0008861474283
0.000886147425
0.0008861474121
0.0008861473838
0.0008861473536
0.0008861468427
0.0008861467793
0.0008861464734
0.0008861450511
0.0008861465151
0.0008861469741
0.0008861471727
0.000886147129
0.0008861473732
0.000886147456
0.0008861474288
0.0008861468319
0.0008861472799
0.0008861473597
0.0008861473459
0.0008861472997
0.0008861474011
0.0008861474318
0.0008861474387
0.0008861473793
0.0008861473937
0.0008861473952
0.0008861473962
0.000886147398
0.0008861473992
0.0008861473954
0.0008861473823
0.0008861473459
0.0008861472353
0.0008861471113
0.0008861470645
0.0008861471507
0.0008861467447
0.0008861469299
0.0008861470891
0.0008861472143
0.0008861472846
0.0008861473304
0.0008861473538
0.0008861473613
0.0008861473763
0.0008861474518
0.0008861474375
0.0008861473472
0.0008861472487
0.0008861473661
0.0008861473568
0.0008861473208
0.0008861473576
0.0008861474173
0.0008861473938
0.0008861473974
0.000886147401
0.0008861474029
0.0008861474028
0.0008861473989
0.0008861473874
0.000886147366
0.0008861473276
0.0008861472612
0.000886147171
0.0008861470625
0.0008861469617
0.0008861467371
0.0008861471716
0.0008861472922
0.0008861473336
0.0008861473418
0.0008861473328
0.0008861473163
0.000886147276
0.0008861474201
0.0008861474705
0.000886147439
0.0008861474465
0.0008861472687
0.0008861473723
0.0008861474043
0.0008861474631
0.0008861475369
0.0008861475436
0.0008861474059
0.0008861473981
0.0008861474028
0.000886147406
0.0008861474063
0.0008861474025
0.0008861473939
0.0008861473827
0.0008861473689
0.0008861473507
0.0008861473238
0.0008861472787
0.0008861472119
0.0008861471667
0.000886147283
0.0008861473047
0.0008861425817
0.0008861466503
0.0008861473224
0.000886147387
0.0008861449501
0.0008861474365
0.000886147473
0.0008861474717
0.0008861474953
0.0008861474392
0.0008861473963
0.0008861474487
0.0008861475343
0.0008861475701
0.0008861474927
0.0008861474065
0.0008861473969
0.0008861474026
0.0008861474078
0.0008861474115
0.0008861474146
0.000886147418
0.0008861474214
0.0008861474244
0.0008861474266
0.000886147426
0.0008861474209
0.0008861474096
0.0008861473808
0.0008861471642
0.0008861467834
0.000886146128
0.0008861472976
0.0008861473851
0.0008861474002
0.000886138271
0.0008861474247
0.0008861474454
0.0008861474657
0.0008861475731
0.0008861476673
0.0008861476529
0.0008861476406
0.0008861476479
0.0008861475416
0.0008861474283
0.0008861473916
0.0008861473927
0.0008861474003
0.0008861474075
0.0008861474133
0.0008861474188
0.0008861474247
0.0008861474317
0.000886147443
0.0008861474683
0.0008861474814
0.0008861474706
0.0008861474064
0.000886147195
0.0008861467181
0.0008861466413
0.0008861472751
0.0008861473706
0.0008861473949
0.0008861474053
0.0008861472743
0.0008861465579
0.0008861474548
0.0008861474475
0.0008861474371
0.000886147653
0.000886147655
0.0008861476106
0.0008861477284
0.0008861475066
0.0008861474335
0.0008861473791
0.0008861473809
0.0008861473941
0.0008861474042
0.000886147411
0.0008861474165
0.0008861474213
0.0008861474259
0.000886147431
0.0008861474423
0.0008861474448
0.0008861474106
0.0008861472609
0.0008861467338
0.0008861462933
0.0008861470355
0.0008861473172
0.0008861473738
0.0008861473988
0.0008861474079
0.0008861464622
0.000886146639
0.000886147439
0.0008861474295
0.0008861474299
0.0008861474974
0.0008861475533
0.0008861475976
0.0008861476108
0.0008861474798
0.0008861474388
0.0008861473756
0.0008861473585
0.0008861473815
0.0008861473969
0.000886147405
0.0008861474105
0.0008861474144
0.0008861474171
0.0008861474199
0.0008861474286
0.000886147442
0.0008861474513
0.0008861474016
0.0008861471729
0.0008861466429
0.0008861469676
0.0008861472902
0.0008861473691
0.000886147401
0.0008861474093
0.0008861468551
0.0008861466702
0.0008861472671
0.000886147409
0.0008861474348
0.0008861474671
0.0008861475719
0.0008861475333
0.0008861475023
0.000886147459
0.0008861474279
0.0008861473749
0.0008861473438
0.0008861473691
0.0008861473868
0.0008861473959
0.0008861474009
0.0008861474013
0.0008861473912
0.000886147333
0.0008861471866
0.0008861471866
0.0008861472374
0.0008861472774
0.0008861472678
0.000886147177
0.0008861470124
0.0008861471491
0.0008861471609
0.0008861472239
0.0008861474099
0.0008861472806
0.0008861471559
0.0008861472753
0.0008861473897
0.0008861474186
0.0008861474386
0.0008861475402
0.0008861474871
0.0008861474606
0.0008861474406
0.0008861474328
0.0008861473748
0.0008861473424
0.000886147361
0.0008861473758
0.0008861473843
0.0008861473875
0.0008861473826
0.0008861473593
0.0008861473005
0.0008861472406
0.0008861472288
0.0008861472291
0.0008861472214
0.0008861472674
0.0008861473897
0.0008861474038
0.0008861474076
0.0008861474091
0.0008861474099
0.0008861474107
0.0008861474083
0.0008861474027
0.000886147393
0.0008861473569
0.0008861473906
0.000886147454
0.0008861474788
0.0008861474829
0.0008861474551
0.0008861474452
0.0008861474354
0.0008861473752
0.0008861473587
0.0008861473754
0.0008861473868
0.0008861473924
0.0008861473947
0.0008861473922
0.000886147382
0.00088614736
0.000886147328
0.0008861473199
0.0008861473656
0.0008861473946
0.0008861474041
0.0008861474063
0.0008861474065
0.0008861474073
0.0008861474084
0.0008861474095
0.0008861474104
0.0008861474064
0.0008861473995
0.0008861473921
0.0008861473874
0.0008861473868
0.0008861473972
0.0008861474113
0.0008861474588
0.0008861474516
0.000886147448
0.000886147446
0.0008861473763
0.0008861473846
0.000886147406
0.0008861474204
0.0008861474275
0.0008861474327
0.0008861474367
0.0008861474382
0.0008861474341
0.0008861474134
0.0008861473545
0.0008861473604
0.0008861473925
0.0008861474038
0.000886147407
0.0008861474073
0.0008861474071
0.0008861474075
0.0008861474087
0.0008861474098
0.0008861474018
0.0008861473962
0.0008861473948
0.000886147385
0.0008861473826
0.0008861473818
0.0008861473824
0.000886147413
0.0008861474382
0.0008861474348
0.0008861474455
0.000886147375
0.0008861473611
0.0008861473802
0.0008861473976
0.0008861473974
0.0008861474016
0.0008861474134
0.0008861474231
0.0008861474252
0.0008861474127
0.0008861473661
0.0008861473332
0.0008861473742
0.0008861473959
0.0008861474031
0.0008861474055
0.000886147406
0.0008861474064
0.0008861474075
0.0008861474089
0.0008861473955
0.0008861473936
0.0008861473959
0.0008861473838
0.0008861473817
0.0008861473785
0.0008861473802
0.0008861473189
0.0008861473995
0.0008861474233
0.0008861474375
0.000886147376
0.0008861473804
0.0008861473875
0.0008861473914
0.0008861473884
0.0008861473855
0.0008861473946
0.0008861474098
0.0008861474186
0.0008861474151
0.0008861473878
0.0008861473325
0.0008861473348
0.000886147369
0.0008861473895
0.0008861473985
0.0008861474025
0.0008861474043
0.0008861474058
0.0008861474074
0.0008861473855
0.000886147391
0.0008861473953
0.0008861473833
0.0008861473784
0.0008861473729
0.0008861473784
0.0008861473715
0.0008861473883
0.0008861474041
0.0008861474077
0.0008861473747
0.0008861473717
0.0008861473851
0.0008861473894
0.0008861473889
0.0008861473873
0.0008861473901
0.000886147401
0.0008861474126
0.0008861474173
0.0008861474093
0.0008861473838
0.0008861473669
0.0008861473201
0.0008861473491
0.0008861473799
0.000886147394
0.0008861473994
0.0008861474024
0.0008861474035
0.0008861473789
0.0008861473921
0.000886147392
0.0008861473804
0.000886147369
0.000886147363
0.0008861473768
0.0008861473789
0.0008861473805
0.0008861473879
0.0008861473861
0.0008861473992
0.0008861473721
0.0008861473846
0.0008861473881
0.0008861473891
0.0008861473887
0.000886147389
0.0008861473943
0.0008861474044
0.0008861474134
0.0008861474167
0.0008861474129
0.0008861474166
0.0008861473438
0.0008861473254
0.0008861473351
0.0008861473741
0.0008861473844
0.0008861473919
0.0008861473974
0.0008861473795
0.0008861473881
0.0008861473821
0.000886147363
0.0008861473445
0.000886147352
0.000886147375
0.0008861473825
0.0008861473753
0.0008861473746
0.0008861473699
0.0008861473814
0.0008861473764
0.0008861473849
0.0008861473882
0.0008861473898
0.0008861473901
0.0008861473897
0.0008861473905
0.0008861473953
0.0008861474036
0.0008861474124
0.000886147422
0.0008861474334
0.0008861473583
0.0008861473471
0.0008861473336
0.0008861473498
0.0008861473783
0.0008861473927
0.0008861473919
0.0008861473731
0.0008861473776
0.0008861473558
0.0008861473177
0.0008861472941
0.0008861473404
0.0008861473713
0.0008861473814
0.0008861473736
0.0008861473659
0.0008861473567
0.0008861473734
0.0008861473791
0.0008861473851
0.0008861473881
0.00088614739
0.0008861473908
0.0008861473904
0.0008861473891
0.0008861473883
0.0008861473905
0.0008861473988
0.0008861474202
0.0008861474359
0.0008861473662
0.0008861473414
0.0008861473181
0.0008861473382
0.0008861473846
0.0008861473918
0.0008861473841
0.0008861473611
0.0008861473599
0.0008861473329
0.0008861472839
0.0008861472177
0.0008861473284
0.0008861473637
0.0008861473762
0.0008861473704
0.0008861473616
0.0008861473492
0.0008861473708
0.0008861473799
0.0008861473848
0.0008861473874
0.0008861473894
0.0008861473904
0.0008861473904
0.0008861473888
0.0008861473849
0.0008861473783
0.0008861473777
0.0008861474094
0.0008861474319
0.0008861473688
0.0008861473897
0.0008861473957
0.0008861474036
0.0008861474078
0.0008861474069
0.0008861473869
0.0008861473886
0.0008861473854
0.0008861473697
0.0008861473046
0.0008861471875
0.0008861473244
0.0008861473523
0.0008861473673
0.0008861473704
0.0008861473922
0.0008861474252
0.0008861473688
0.0008861473798
0.0008861473845
0.0008861473865
0.000886147388
0.0008861473892
0.0008861473896
0.0008861473884
0.0008861473836
0.0008861473707
0.0008861473542
0.0008861473873
0.0008861474231
0.0008861473668
0.000886147391
0.0008861473998
0.000886147405
0.0008861474081
0.0008861474087
0.0008861473936
0.0008861473925
0.0008861473835
0.0008861473609
0.0008861472624
0.0008861471419
0.0008861472337
0.0008861473272
0.0008861473475
0.0008861473569
0.0008861473782
0.0008861474044
0.0008861473657
0.0008861473611
0.0008861473635
0.000886147371
0.0008861473868
0.0008861473873
0.000886147388
0.0008861473872
0.0008861473828
0.0008861473674
0.0008861473393
0.0008861473553
0.000886147411
0.0008861473611
0.0008861473844
0.0008861473965
0.0008861474031
0.0008861474068
0.0008861474083
0.0008861473915
0.0008861473846
0.000886147369
0.0008861473304
0.0008861472036
0.0008861471203
0.0008861472219
0.0008861471812
0.0008861473456
0.0008861473502
0.0008861474167
0.0008861473944
0.0008861473626
0.0008861473484
0.0008861473538
0.0008861473594
0.0008861473585
0.0008861473845
0.0008861473855
0.0008861473851
0.0008861473811
0.0008861473659
0.0008861473376
0.0008861473391
0.0008861473982
0.0008861473506
0.000886147371
0.0008861473883
0.000886147398
0.0008861474032
0.0008861474054
0.0008861473751
0.0008861473645
0.0008861473391
0.0008861472737
0.0008861471646
0.0008861470948
0.0008861472261
0.0008861471229
0.0008861472913
0.0008861473517
0.00088614737
0.0008861473806
0.0008861473579
0.0008861473517
0.0008861473551
0.0008861473599
0.0008861473596
0.0008861473586
0.0008861473783
0.0008861473814
0.0008861473785
0.0008861473647
0.0008861473416
0.0008861473459
0.0008861473845
0.0008861473318
0.0008861473486
0.0008861473745
0.0008861473886
0.0008861473956
0.0008861473975
0.0008861473499
0.0008861473344
0.0008861472971
0.0008861472326
0.0008861471352
0.0008861470601
0.000886147224
0.0008861471068
0.0008861471202
0.0008861473443
0.0008861473574
0.0008861473455
0.0008861473562
0.0008861473555
0.0008861473616
0.0008861473622
0.0008861473618
0.0008861473594
0.0008861473591
0.0008861473543
0.0008861473735
0.0008861473635
0.0008861473463
0.0008861473475
0.0008861473657
0.0008861473082
0.0008861473101
0.000886147351
0.0008861473739
0.0008861473838
0.0008861473849
0.0008861473349
0.000886147316
0.0008861472967
0.0008861472597
0.0008861471517
0.0008861470267
0.0008861472155
0.0008861471095
0.0008861470642
0.000886147326
0.0008861473639
0.000886147356
0.0008861473605
0.0008861473667
0.000886147367
0.0008861473624
0.0008861473566
0.0008861473533
0.0008861473541
0.0008861473531
0.0008861473675
0.0008861473627
0.0008861473499
0.0008861473455
0.000886147347
0.0008861473002
0.0008861472754
0.000886147312
0.000886147352
0.0008861473716
0.0008861473754
0.0008861473402
0.0008861473385
0.0008861473386
0.0008861473166
0.0008861472397
0.000886147021
0.0008861472058
0.0008861471586
0.0008861470952
0.0008861473483
0.0008861473675
0.0008861473617
0.0008861473685
0.0008861473717
0.0008861473635
0.0008861473562
0.0008861473588
0.0008861473619
0.000886147363
0.0008861473643
0.0008861473683
0.0008861473715
0.000886147374
0.0008861473762
0.0008861473778
0.0008861473785
0.0008861473784
0.0008861473773
0.000886147376
0.0008861473752
0.0008861473738
0.0008861473722
0.0008861473717
0.0008861473705
0.0008861473676
0.0008861473547
0.0008861472906
0.0008861472552
0.0008861473629
0.0008861473694
0.0008861473704
0.00088614737
0.0008861473719
)
;

boundaryField
{
    walls
    {
        type            zeroGradient;
    }
    wallFilmFace_top
    {
        type            zeroGradient;
    }
    region0_to_wallFilmRegion_wallFilmFace
    {
        type            zeroGradient;
    }
    mirrorFace_top
    {
        type            zeroGradient;
    }
    region0_to_wallFilmRegion_mirrorFace
    {
        type            zeroGradient;
    }
    procBoundary1to0
    {
        type            processor;
        value           nonuniform List<scalar> 
52
(
0.000886147368
0.0008861473387
0.0008861473259
0.000886147324
0.0008861473514
0.0008861473689
0.0008861473508
0.0008861472547
0.0008861472547
0.0008861472416
0.0008861472907
0.0008861473248
0.0008861473903
0.0008861473903
0.0008861473965
0.0008861474071
0.0008861474071
0.0008861474037
0.000886147398
0.0008861473947
0.0008861473319
0.0008861473319
0.0008861473279
0.0008861470908
0.0008861470908
0.0008861469136
0.0008861471316
0.00088614723
0.0008861474617
0.0008861474617
0.0008861474708
0.0008861473756
0.0008861473756
0.0008861472299
0.0008861473349
0.0008861473349
0.0008861474987
0.000886147479
0.0008861474715
0.0008861474715
0.0008861474951
0.0008861474951
0.0008861475023
0.0008861474775
0.0008861472338
0.0008861472338
0.0008861474399
0.000886147211
0.0008861266896
0.0008861473872
0.00088614744
0.0008861474063
)
;
    }
    procBoundary1to2
    {
        type            processor;
        value           nonuniform List<scalar> 
33
(
0.0008861473218
0.0008861473822
0.0008861473822
0.0008861473886
0.0008861473886
0.0008861474172
0.0008861474411
0.0008861474359
0.0008861474359
0.0008861474706
0.0008861474519
0.0008861474564
0.0008861471856
0.0008861473121
0.0008861473608
0.0008861474371
0.0008861474305
0.0008861474394
0.0008861474399
0.0008861474335
0.0008861473891
0.0008861473736
0.0008861473645
0.000886147352
0.0008861473375
0.0008861473306
0.0008861473335
0.0008861474169
0.0008861474328
0.000886147387
0.0008861473435
0.00088614733
0.0008861473759
)
;
    }
}


// ************************************************************************* //
