/*--------------------------------*- C++ -*----------------------------------*\
  =========                 |
  \\      /  F ield         | OpenFOAM: The Open Source CFD Toolbox
   \\    /   O peration     | Website:  https://openfoam.org
    \\  /    A nd           | Version:  8
     \\/     M anipulation  |
\*---------------------------------------------------------------------------*/
FoamFile
{
    version     2.0;
    format      ascii;
    class       surfaceScalarField;
    location    "0.9/wallFilmRegion";
    object      phi;
}
// * * * * * * * * * * * * * * * * * * * * * * * * * * * * * * * * * * * * * //

dimensions      [1 0 -1 0 0 0 0];

internalField   nonuniform List<scalar> 
2656
(
0.0001104321107
-0.008223881036
1.132619602e-05
-8.891942014e-05
-7.57022521e-05
-0.0001131657976
-7.840347304e-05
-4.493412344e-05
-9.261453535e-05
-5.113200739e-05
-9.205375001e-05
-5.641367033e-05
-7.824283359e-05
0.0001282283412
-0.008523617027
-1.833534774e-05
-4.794441828e-05
-6.280782402e-05
-5.004308819e-05
-5.596594948e-05
-2.568477161e-05
-5.493724364e-05
-3.137659244e-05
-7.02864997e-05
-4.908137051e-05
-0.000500224762
-0.0005861965605
-6.273514068e-05
-0.02152189645
-8.50965766e-05
-7.383637799e-05
-0.0001284826518
-0.0001126198394
-0.0002741633415
0.0001843383936
-0.009010293104
-3.119175784e-05
3.114565163e-05
-5.856238842e-05
-2.322726986e-05
-5.804473147e-05
-2.09830413e-05
-8.166079862e-05
-4.66144409e-05
-0.0006135523095
-0.0003430766666
-0.006875534603
-0.006562077892
-5.2590374e-05
-0.09473671709
-5.841638873e-05
-0.00084517334
-0.0002381307262
-0.0002385639512
-0.0005094660519
-0.0005669908414
-0.0008242420744
-0.001118106194
-0.001427106519
-3.296424921e-05
-0.008642856143
-5.505228637e-05
7.3904533e-05
-7.185856669e-05
-4.7862078e-05
-0.0001279183759
-2.432689209e-05
-0.001879208563
-4.691409804e-05
-0.02015834831
-0.0001201804164
-0.09703259856
-8.706460642e-05
0.02410331222
0.06044621271
0.002968206236
-0.0001538424347
0.0002713003101
-0.0003976646372
-0.0008307561253
-0.0008932730857
-0.0009322681758
-0.00133377146
-0.0006876104015
-0.001229167035
-0.0003470770975
-0.0007905745487
-0.000102202332
-0.0003375300896
-2.278192291e-05
-2.506129012e-05
-2.215721811e-05
-0.0009895120011
-0.006642003358
-0.0003523284771
-0.0003406982375
-0.0001010870767
-0.0002141130264
-0.0001043046446
-4.358371465e-05
-0.0001934444024
-0.0001275399145
-0.0003728664685
-0.0004554260794
-0.002662596281
-0.0004800992328
-0.0002376605394
0.007035014351
-0.0004819966497
-0.0002708966149
-0.0008823804755
-0.0006932601907
-0.001087835317
-0.001185223221
-0.0008643317049
-0.001292354731
-0.0004860584199
-0.001012820477
-0.000190528262
-0.0006598794328
-2.144514447e-05
-0.0003071477931
-9.508958277e-06
-2.585073263e-05
-1.526914985e-06
-3.128542399e-05
5.113793623e-06
-2.996455355e-05
-2.200419237e-05
0.0001326233731
-0.005714160853
-4.62006803e-05
-0.0002405779933
-9.388729291e-05
-0.0001566311273
-0.0001888822209
-0.0001015034977
-0.000475529858
-0.0004014766934
-0.0009064853268
-0.00127757398
-0.001099602893
-0.002395230568
-0.0005076366781
-0.0006693499388
-0.0009733801952
-0.0005312973808
-0.00136271325
-0.001042386564
-0.001235625929
-0.001265660385
-0.0008355762043
-0.001087663302
-0.0004834589783
-0.0008420199898
-0.0001994110739
-0.0005925293842
-2.29248379e-05
-0.0002919301026
-1.588897992e-05
-3.040202153e-05
-6.705878501e-06
-4.974528646e-05
-1.56197542e-07
-4.11963498e-05
8.359767055e-06
-2.452606344e-05
6.156470594e-06
-3.662999392e-06
5.311474488e-06
-5.480812102e-06
1.471594686e-05
-8.024709324e-05
2.163451056e-05
0.0001309613873
-0.004459159395
-2.396715613e-07
-9.576090798e-05
-0.0001435908686
-0.0001512708754
-0.0004429729027
-0.0002540124455
-0.001138000799
-0.0009408798378
-0.001929783549
-0.002352646926
-0.001965567753
-0.003723667857
-0.001160885825
-0.003322435316
-0.001752710508
-0.0009164232071
-0.00172873771
-0.001228336989
-0.001255826683
-0.001073379379
-0.0008467021477
-0.0008481625223
-0.0005314220551
-0.0007025244042
-0.000230879028
-0.0005287669058
-3.045389879e-05
-0.0002628189703
-2.272188834e-05
-3.217065518e-05
-2.009979571e-05
-8.423061017e-05
-1.507663897e-05
-6.859426928e-05
5.164436399e-06
-4.600191156e-05
2.7418337e-06
-4.773313216e-07
2.636075122e-06
-3.712710048e-06
-0.0005278108634
1.137813797e-05
-0.001330109391
0.0001949693749
-0.0002988482914
-9.150690165e-05
-3.787437387e-05
3.9414056e-05
-0.003370146493
2.115992515e-05
-6.478247356e-05
-0.0003524230683
-0.0001693184098
-0.001086434776
-0.0005756814923
-0.002274962473
-0.001650151525
-0.003173273587
-0.00311512484
-0.003022328733
-0.003951732771
-0.002262594313
-0.003334414198
-0.002405970344
-0.001168846
-0.001782412086
-0.0010875998
-0.001218111911
-0.000793609961
-0.0008890628207
-0.0006269107822
-0.0005939390958
-0.0005491138076
-0.000257822772
-0.0004244031228
-2.258072104e-05
-0.0002049390561
1.593549482e-05
-3.393707009e-05
6.192680149e-06
-0.0001062159471
-3.775792421e-05
-0.0001512201927
-1.971397533e-06
-0.0001904018173
-2.784590605e-06
9.293025654e-07
1.363600613e-07
-5.925199553e-07
-0.001631673954
-9.328903241e-05
-0.0006787280028
-0.0001462920697
-4.716181099e-05
-2.587610892e-05
-6.629588421e-06
-2.53262214e-06
4.459103813e-06
-0.0001476214778
-0.002914736018
-0.0002852630436
-0.0001447105476
-0.001065608483
-0.0004310950268
-0.002441306474
-0.001232028774
-0.003689374901
-0.002296860845
-0.003941199337
-0.002898682215
-0.003502784337
-0.002762780283
-0.003007534403
-0.002088581138
-0.002361054019
-0.0009259785573
-0.001549595281
-0.0008238893535
-0.001100617212
-0.000642047824
-0.0008740915662
-0.0003741113298
-0.0006022562375
-0.0003019140749
-0.0002567675057
-0.0002367375569
-6.446776944e-06
-0.0001122469381
5.487505048e-05
-1.906505653e-05
0.0001594799884
-3.976093003e-05
0.0001147242654
-7.385688859e-05
-0.0005971393963
-0.0002728788423
-0.001525150766
-0.0003601002712
-0.001846002516
-0.0002858235795
-0.0009638892244
-0.0002065207172
-4.977374284e-05
-4.585916749e-05
-1.44983268e-05
-7.309055576e-07
-8.630814512e-06
1.264650233e-05
7.089467241e-05
-0.0009276873619
-0.00297718042
-0.001938910351
-0.0004697770439
-0.003738500667
-0.00099686551
-0.00513498762
-0.001537122673
-0.004874664981
-0.001636532158
-0.003643364712
-0.001397921416
-0.002559722775
-0.001075168765
-0.001882926215
-0.0006000293711
-0.001206249491
-0.0002258705475
-0.0008353582957
-0.0004391599577
-0.0006232267751
-0.0008355858363
-0.0006045545233
-9.969623516e-05
-0.0004223458485
-3.40119492e-07
-0.0001794694747
8.704454645e-08
-1.303643142e-06
-1.746913446e-07
3.856188389e-05
-2.944871956e-06
0.0001004485953
-4.514066448e-07
0.0001936316245
-1.91971956e-07
9.275413463e-05
-1.510449101e-05
-0.0009386982107
-1.636790505e-05
-0.0007888592885
-3.688904841e-05
-0.0002040210684
-9.326740723e-05
-4.248781795e-06
4.032486303e-06
-4.603969956e-07
1.895510176e-06
6.964915741e-06
3.754822638e-06
-3.591092265e-05
0.0002551181272
0.0002953301312
-0.003139284067
-0.002642399443
-0.005915097091
-8.288210511e-05
-0.007663718937
-5.136260758e-05
-0.006772832678
-1.098906914e-05
-0.004553613772
3.660033665e-05
-0.002655796207
3.76538855e-05
-0.001211398888
3.328800715e-05
-7.061826858e-06
1.134472781e-05
0.0006319639008
-3.401811103e-05
0.001247075187
-2.630401453e-05
0.0007999200547
4.240105946e-05
-0.0001776644507
0.0003297580085
-0.0001630082535
0.0001493985286
-7.468098812e-05
0.0001018185988
-1.430750595e-05
4.400251681e-05
-1.696076063e-06
-2.275489241e-05
-1.326514607e-07
5.621157647e-07
6.167483832e-07
2.272742216e-07
1.646543056e-05
-3.73563673e-05
3.913971103e-05
-2.801070482e-05
9.9696566e-05
-5.935290427e-05
3.389594773e-05
5.918014296e-06
-1.530924069e-05
0.0001141080162
-5.138872247e-07
1.733244908e-05
2.257819385e-06
1.901514854e-06
5.992419342e-05
0.0003186333226
0.0004239942673
-0.0003558548547
-0.002757537456
-0.000432994366
-9.203002396e-05
-0.0006247126794
-3.431397158e-05
-0.000845903459
0.0001289860163
-0.0009582192777
0.0002948636065
-0.0008450448852
0.0003937921801
-0.0005032767287
0.0004026308723
-0.0001278731381
0.0002696177151
-0.0002038430499
-1.273936803e-05
-0.0003273794947
5.577552521e-05
-0.0004600270963
0.0002082674105
-0.0003608791422
0.0003655759061
-0.0002463599229
0.0003126137305
-0.000121410828
0.0002236778105
-4.348942536e-05
0.0001182089547
0.0001408077154
-9.784627984e-05
0.0003974835901
-0.0002504638801
0.000110264397
-0.0002605167478
7.068111691e-05
-0.0001274839824
8.541299756e-05
-5.804255602e-05
0.0001524863718
-9.024111213e-05
-0.0001003338761
0.0001938419985
-3.74788574e-05
0.0002130585118
-8.768686968e-07
2.891393191e-05
1.421520488e-06
1.434903746e-06
0.0001068232306
0.0003000263455
0.001054929523
-0.0002969459917
-0.002848992881
-0.0003931862291
-0.0003279105527
-0.0004914238154
-0.0003098136271
-0.0006742064294
-8.407726481e-06
-0.0007706098754
0.0002389039189
-0.000711994388
0.0004743932256
-0.0004298425207
0.0005288031512
-8.946179362e-05
0.0003548883452
-0.0001844767353
-8.789004404e-06
-0.0003168299526
1.656141787e-05
-0.0004380828055
0.0001912552249
-0.0004098963788
0.0003952838449
-0.0002753086234
0.0004374222586
-0.0001192626228
0.0003287108812
-8.712291539e-06
0.0001630666159
0.0001173305087
-2.530356012e-06
0.001043321528
1.24479501e-05
0.0007567155878
-2.708725139e-06
0.000315130254
-1.283795899e-05
0.0002833218664
-3.045789809e-05
0.000371898307
-5.668061199e-05
-0.0003552944548
-0.0001185889275
-9.259380108e-05
0.0003303508645
-1.660812647e-06
5.661029143e-05
3.084536639e-06
1.36652251e-06
0.0001400944915
1.532317799e-05
-0.0005045857597
0.0009776461944
0.001770351821
-0.0007113058977
-0.002918891823
-0.0008752300548
-0.0008943831991
-0.0006858802283
-0.0008588581211
-0.0005638718823
-0.0003997735735
-0.0005975739991
1.38058177e-05
-0.0005516873793
0.000355936941
-0.0003305499921
0.000501484092
-4.558206047e-05
0.0003488302221
-0.0001089822854
2.485977554e-06
-0.0002207845138
1.611949014e-05
-0.0003427081878
0.0001104642966
-0.0003844340313
0.0003248564265
-0.0002822191975
0.0004745667461
-0.0001189583802
0.000407464356
-2.592756722e-06
0.0002006394585
1.414645961e-06
-1.255519375e-06
3.068898319e-05
1.633197677e-05
4.209944105e-05
1.112179243e-05
8.361488599e-05
-2.931797888e-06
0.0001791810557
-3.0472153e-05
0.0003087082645
-3.234500846e-05
0.0004976778638
-2.944095137e-05
-9.961271814e-05
0.0003673913587
-1.769966035e-05
0.0005055929161
7.640020579e-05
3.191010462e-05
6.639656554e-05
4.210782468e-05
-0.0005600324863
0.0001988023481
-7.528941164e-07
0.001031328471
2.044752759e-06
-0.001574442965
-0.003494258819
-0.001587291586
-0.001390342233
-0.001060500467
-0.00112113127
-0.0006508365471
-0.0006702630602
-0.0004163181412
-0.0002625443728
-0.0003815385311
9.919354129e-05
-0.0002481749654
0.0003427142031
-2.071460563e-05
0.0002649698647
-4.141916622e-05
8.507317239e-06
-0.0001061748837
1.836564363e-05
-0.0002294862011
6.126939328e-05
-0.0003310202264
0.0002155509876
-0.0002885894834
0.0004236356167
-0.0001319057383
0.000446557561
-2.940712377e-06
0.0002349117946
-1.132244709e-07
4.602104604e-07
8.541905912e-06
1.282157133e-05
1.142573425e-05
9.334881772e-06
2.902700607e-05
6.545866084e-06
8.525251739e-05
-7.093642133e-05
8.328884962e-05
5.550620815e-06
4.492224483e-05
-9.343837337e-06
-0.0002187537792
-4.475130634e-05
-8.172136129e-05
0.0004676774098
-7.785133983e-05
0.0001172196826
-9.013927261e-05
0.0001075906902
-0.0002915010283
1.03053327e-05
-6.594073635e-08
0.0002120551887
2.941088855e-07
-0.002177757873
-0.003396127426
-0.00179804174
-0.001210610957
-0.001324280379
-0.000953169479
-0.0008031546137
-0.0006774200537
-0.0003383505439
-0.0003776865631
-0.0001957913251
-1.672818032e-05
-0.0001616409461
0.0001407824363
-3.725395623e-05
0.0001339741417
-4.524773671e-05
1.894729293e-05
-7.556343431e-05
2.173991189e-05
-0.0001594613335
2.837470869e-05
-0.0002930903549
6.551744411e-05
-0.0003339686524
0.0001853882733
-0.0001796199738
0.0003186178533
-4.227835052e-05
0.0002591832253
-3.915237426e-06
1.041059191e-05
3.178058587e-06
3.145215049e-05
1.72139435e-05
1.382535757e-05
0.0003603451338
-5.983877758e-05
0.0002066978859
-5.360867644e-05
0.0001488234524
-4.259521824e-05
0.0002231355165
-9.803686199e-05
0.0003364116562
-0.0001711772945
-0.0002178197353
-0.0001131066179
-0.0001883872664
2.280085617e-05
-2.393667304e-05
5.843702136e-06
7.674164223e-06
-0.0003043600445
-1.461564209e-05
-1.508033649e-05
-8.583853652e-06
-0.00173818921
-0.002203278082
-0.001414555394
-0.0006838272591
-0.001281639682
-0.0005355681708
-0.001060954523
-0.0004809231515
-0.000591634994
-0.0004119943317
-0.000208861878
-5.159746587e-05
-0.0001499091699
8.04226046e-05
-0.0001037585083
7.701805039e-05
-0.0001388018405
4.264841872e-05
-0.0002568395527
3.047735235e-05
-0.000516673817
-8.061842868e-05
-0.000627338731
-0.0004052889191
-0.0004661225698
-0.0003387499468
-0.0002736404149
-8.955920033e-05
-0.0001219975573
5.912249476e-05
2.467234002e-05
-7.949323706e-05
0.0003165899997
-6.640071818e-05
0.0001977803828
-5.656258642e-05
0.0001435321405
-4.339166937e-05
0.0001923842262
-1.593342289e-05
0.0002733627473
-6.348465742e-07
0.0003590035022
-2.063119037e-06
0.0004696783682
-1.931361801e-06
0.0008804893315
-1.385582286e-06
0.001704674042
-6.360367088e-07
0.00210405573
3.038018872e-05
0.001219923795
9.665959067e-06
0.000290645207
4.065125689e-05
1.585338341e-05
2.795462468e-05
1.144215241e-07
4.389244596e-07
-1.517254062e-09
-8.600530236e-06
-1.496141215e-09
2.391630288e-08
1.309530575e-08
1.496340332e-08
-1.37498681e-05
-0.001009312757
-0.001243864817
-0.000846001969
-0.0002670044135
-0.000975766984
-0.0001566294356
-0.001277846272
-0.0001110639181
-0.001582757713
-0.0001001616325
-0.001325850604
-8.188040925e-05
-0.0006305817875
3.66798496e-05
-0.0004168294802
0.0001200651595
-0.0005510769409
8.160665628e-05
-0.0008357132485
-5.792549376e-05
-0.0009058467805
-0.0003386243231
-0.0006253016336
-0.0005740756695
-0.0001869569973
-0.0005533308333
-0.0001032409665
-8.852636625e-05
-7.373277105e-05
-6.335299772e-06
-8.814243615e-05
-2.180229256e-05
-5.689279581e-05
-3.916288839e-05
-3.208218053e-05
-4.633709099e-05
-1.620493804e-05
-4.504810801e-05
-1.367654305e-06
-2.904002479e-05
4.329228461e-06
5.80401321e-07
6.985167459e-06
-2.108648483e-06
7.80727839e-06
-1.533750916e-06
6.990313782e-06
7.499721687e-07
6.459745622e-06
5.023146758e-06
6.161797295e-05
0.0002763695826
3.58185389e-05
9.307030015e-05
-6.169905646e-06
3.061868369e-05
-6.115755775e-06
8.241449055e-06
-2.05226395e-06
9.611438087e-06
-5.478303339e-07
-4.108098209e-06
-6.565320416e-08
3.83683176e-06
1.241581206e-07
4.514880468e-07
-7.529229323e-06
-0.0005154906861
0.0002849604908
-0.0003262008746
-7.025186884e-05
-0.0002672909541
-3.925907382e-05
-0.000260822549
-2.356138908e-05
-0.0003600864976
-1.141317943e-05
-0.0007047885111
-2.342590601e-06
-0.001108716269
-1.564484076e-06
-0.0008954688903
-1.447560131e-05
-0.0008424111934
2.213833286e-05
-0.0007608472994
-0.0002051560548
-0.0006377849018
-0.0002865028998
-0.0004402118638
-0.0005490969533
-6.075317684e-05
-0.0007963634735
-1.818882009e-05
-7.550106315e-05
-1.82378503e-05
6.116662183e-07
-1.987159017e-05
-1.09120697e-05
-2.117379406e-05
-2.608892148e-05
-2.66077526e-05
-3.5068474e-05
-4.490193275e-05
-3.683892312e-05
-7.120058944e-05
-2.153978764e-05
-8.936225175e-05
-3.361311e-06
-8.54076514e-05
-4.565966678e-05
-6.067339754e-06
-0.0002005074192
6.452227461e-06
-2.687194502e-05
5.827863217e-06
2.187514325e-06
-8.371973369e-05
0.0006305145545
-0.0002901761702
0.0001488167985
-0.0003517083945
3.208569617e-05
-9.864756076e-05
-5.852127748e-06
-5.99349393e-06
-1.027734549e-06
-5.360474552e-06
5.343054693e-07
-2.660741373e-06
2.562376444e-05
-2.891861634e-06
1.992036825e-05
-0.0003745225526
0.002535652502
-0.0002269103882
5.679248695e-05
-0.000158324961
3.450270895e-05
-8.538081552e-05
2.076554125e-05
-2.748484834e-05
1.001284669e-05
-1.530237346e-07
2.283050948e-06
2.589818141e-05
6.567163925e-07
0.0002550411755
-1.230393859e-05
-0.0003165553035
-2.109573841e-05
-0.0004438524738
-8.364294564e-05
-0.0003946795293
-0.0001611765525
-0.00040783174
-0.0004130669645
-3.592580623e-05
-0.001255461778
-1.479181582e-05
-8.344082075e-05
-1.40373875e-05
5.692318685e-06
-1.365263218e-05
-3.931705382e-06
-1.484574498e-05
-1.50805476e-05
-1.668651062e-05
-2.388387789e-05
-1.588911972e-05
-3.429644796e-05
-1.266249047e-05
-3.301873837e-05
-3.11763869e-05
4.436277442e-06
-3.057156887e-05
-0.0001914155959
-1.05946635e-05
-0.001078319381
2.898904772e-05
-0.0001181694657
5.365774502e-06
1.858385243e-06
-0.0002645144928
0.0009112309622
-0.000376064946
0.0003279059404
-2.724675961e-05
-1.395698347e-05
-2.591010671e-05
2.402418516e-06
-2.126955389e-05
2.32661247e-06
-1.486984464e-05
4.607200782e-06
5.750968297e-06
2.206520125e-05
-0.0004628402645
0.003828338222
-0.0003143750507
0.0001819545665
-0.0002457052782
0.0001192469788
-0.0001987859005
8.553194681e-05
-0.0001839726822
6.544012575e-05
-0.0002034891688
4.661948826e-05
-0.0002336327539
3.666912489e-05
-0.0002732472062
4.126069123e-05
-0.0002663368596
1.064481813e-05
-0.0002012292262
-8.703924314e-05
-0.0001005778982
-0.0001529897568
-1.826595563e-05
-0.000261590812
-1.852364971e-05
-0.001485782448
-9.641860058e-06
-0.0001999411792
-1.044105841e-05
9.922432874e-06
-8.464239323e-06
4.925250367e-07
-9.233373697e-06
-5.622658829e-06
-1.125397811e-05
-1.036342773e-05
-1.472362759e-05
-1.905648312e-05
-2.03783751e-05
-3.10355702e-05
-1.120091652e-05
8.108125298e-06
0.0003419428157
-0.0003356316583
4.03951319e-05
-0.00167302441
3.557337539e-05
-0.0001556464448
4.746615458e-06
1.027109791e-05
-0.0001417055464
0.0006226565501
-7.406248764e-05
0.0004040214801
-7.93222024e-05
7.594726525e-05
-7.26348528e-05
-9.205219532e-06
-5.785307175e-05
-1.420725777e-05
-2.19966759e-05
-1.213238608e-05
1.498950012e-05
-0.0004798823057
0.004515931775
-0.000346617714
0.0002858745508
-0.000273356231
0.0001988184413
-0.0002168823644
0.0001383552616
-0.0001888283733
9.675686981e-05
-0.0001954050056
5.157258462e-05
-0.0002316029089
1.667678952e-05
-0.0002967414013
2.11313677e-06
-0.0003797950835
-0.0001369340554
-0.0003218873003
-0.0003320119229
-6.437398366e-05
-0.0002807042619
0.001116889301
-4.327206012e-05
0.001021742689
0.0002640092415
-6.285877282e-06
-2.869612416e-06
-6.500889294e-06
1.44969518e-05
-3.272669943e-06
3.021807808e-06
-2.689996073e-06
-7.795727387e-07
-6.745210237e-07
-2.881621991e-06
3.275671154e-06
-6.831649156e-06
3.998657816e-06
-1.493821138e-05
2.216817449e-05
-6.573848277e-06
0.0002055471232
-0.0001234174411
-3.464607553e-05
-0.0008860557449
-4.899464462e-06
-0.000179590566
-1.136900517e-07
8.54738201e-06
4.465092621e-05
0.0002659026651
-6.980871613e-05
0.0006425847329
-2.710707662e-05
0.0002533790336
-1.689019591e-05
2.830112725e-06
-1.465982827e-05
4.37923299e-07
-2.499501891e-05
1.322178443e-06
2.506556046e-05
-0.0005170214177
0.004816657712
-0.0003977489633
0.0004119313488
-0.0003314847927
0.0002988587514
-0.0002772069856
0.0002080235934
-0.0002665968218
0.0001481545835
-0.0003418534174
9.117982028e-05
-0.0005533066759
4.713597805e-05
-0.0008922046543
3.233263348e-05
-0.000915325486
1.764669256e-05
-0.0005245957174
-7.76026156e-07
-0.0002411875111
-1.619118171e-06
-0.0001042991296
-4.034975454e-07
-1.229034516e-05
3.448167544e-05
-1.408225544e-05
1.79133483e-06
-4.353508279e-06
1.132075967e-05
-3.004924264e-07
3.064995429e-06
3.787043931e-07
3.047264201e-08
2.191568212e-06
5.939918433e-08
6.382052115e-06
1.689556792e-07
1.410536347e-05
2.95275892e-07
1.721765074e-05
2.985624435e-06
5.17643848e-05
-3.792578943e-07
8.996801858e-05
-0.0007201828953
-3.279942452e-06
-0.0001233578445
-1.246193587e-05
6.757140207e-07
2.57261224e-05
0.0001197571366
9.873992275e-05
0.0009492141402
-1.897808804e-05
0.0006422882215
-0.0001064742255
2.872207895e-05
-0.0004333311005
5.612215412e-05
-0.001061289533
0.0001414591339
-0.0008398195411
0.00733104778
-0.0007260289635
0.0007636340746
-0.0006664539009
0.0005691756479
-0.000597992034
0.0004085979776
-0.0004958156717
0.0002784950123
-0.0003540957354
0.0001475662402
-0.0002211828295
7.261931595e-05
-0.0001090537013
4.322336765e-05
-4.044307058e-05
2.357148954e-05
-2.132649107e-05
1.039095229e-05
-1.720376719e-05
5.85895186e-06
-2.167666655e-05
5.448205956e-06
-5.58194444e-06
8.480323025e-06
-3.742438863e-06
3.123361345e-06
9.930120041e-06
8.272923361e-06
2.317525895e-05
1.041946513e-05
4.322524201e-05
1.309748196e-05
8.066584998e-05
1.764258886e-05
0.0001602453872
2.862518487e-05
0.0003628526697
1.478024064e-05
0.0006482548033
6.680647929e-05
0.0008612145559
2.30051259e-05
0.0004818690927
-0.0004784565718
4.019858307e-05
-7.572286598e-05
-9.162831458e-06
-3.08029707e-05
2.477183073e-07
6.96368753e-05
1.350837661e-05
0.001276714195
-7.404840482e-05
0.000656766494
-0.000104562662
5.934317015e-05
-0.0003123098495
1.157665743e-05
-6.605322815e-05
-0.001808137772
0.007748783482
-0.001517435548
0.001374719568
-0.001219006388
0.001053995851
-0.0008928445072
0.0007056615701
-0.0005601710243
0.0004197713369
-0.0003205642528
0.0002034961222
-0.0001829141863
0.0001050097047
-9.959549459e-05
6.348668512e-05
-5.220383731e-05
3.834561e-05
-2.841063316e-05
2.262076634e-05
-1.636018916e-05
1.421129422e-05
-9.902266881e-06
9.886766736e-06
-4.127774692e-06
7.435740831e-06
-1.069537235e-06
3.783180734e-06
2.056234881e-05
8.540608395e-06
8.208643217e-05
2.268187617e-05
0.000330372555
-6.297839019e-07
0.0006697581512
-2.583908622e-06
0.0005833146224
-3.011985314e-05
0.0001844165402
-0.0002951906985
4.17105754e-05
7.035208119e-06
6.918702047e-06
5.334906527e-05
0.0001591074767
-0.0003212745193
2.244307354e-05
-0.0001686289356
-9.197204779e-06
-9.298206296e-05
-8.872295918e-05
5.373042105e-05
-0.0004232849044
0.001485968283
-0.0007498578686
0.00122980207
-0.0006841346181
0.0002568747284
-0.0003507083576
-0.0004017653534
-0.0001146479772
-0.002558345741
0.005224598319
-0.002309420588
0.001594744362
-0.001780515794
0.001430426258
-0.001231925278
0.0009999670496
-0.0007727174959
0.0006072283693
-0.0004991432423
0.0003313198772
-0.0003484245381
0.0002034396892
-0.0002438392505
0.0001455589792
-0.00016300894
0.0001082139539
-9.837724395e-05
7.86140609e-05
-5.196213355e-05
5.560062249e-05
-2.516367574e-05
3.709834919e-05
-1.233014192e-05
2.330906523e-05
-7.163295078e-06
1.590993691e-05
3.653736113e-05
1.247006878e-05
-8.377466203e-08
2.369377168e-05
-4.737242004e-06
-1.29964945e-06
-3.690199589e-05
-1.998601882e-05
-0.0001379415356
-0.0002957981561
-1.017847951e-07
-0.001551775226
6.521864154e-07
2.563706108e-07
-6.200656041e-06
0.000495267199
-0.0002392329214
8.604767643e-05
-8.728272317e-06
0.0001353230941
0.0001659684567
-0.0002344285558
0.0002600603132
0.0002384269886
0.0002199313897
0.0009815558522
-0.0002008275631
0.0009594707154
-0.0001282003513
0.0001892925458
-0.0001644769846
-9.396485378e-05
-3.80551961e-05
-0.002308479108
0.002673165169
-0.002394600082
0.001201523941
-0.002067456954
0.001409173787
-0.001676148494
0.001182017239
-0.001519286946
0.0008804404894
-0.001762945213
0.0007135277895
-0.002441911574
0.0007066451592
-0.003444734682
0.0007314979139
-0.004076715286
0.0003987033434
-0.003511563024
-0.0001212123745
-0.002389317691
-8.581089391e-05
-0.001191391568
-4.100828316e-05
-0.0003143713462
-1.475679253e-05
-1.638190776e-05
-2.352319413e-06
-1.661327282e-06
8.793981455e-06
-1.176291821e-06
4.49943924e-06
-1.630397703e-05
1.15120254e-07
-0.0001270045025
-5.241922434e-05
-0.0003712389239
-0.000883182066
-4.223514505e-08
-0.003590481969
1.259053187e-07
7.304685942e-08
0.0001916393521
-6.94497488e-07
0.0001896205246
5.91953587e-05
4.492497909e-05
6.385248876e-05
-0.0003389091273
1.138964145e-05
-0.0003556080658
0.0003216560496
-0.0004049280799
0.000563619167
-0.0006567675266
0.0002402011284
-0.0005519201841
-0.00068376175
-0.0001779499601
-0.0004487285693
-8.648477212e-05
-0.001538072904
0.001756130211
-0.001855927309
0.0006905592657
-0.001886334725
0.001070739531
-0.001709851967
0.001122106923
-0.001599687238
0.0009591596677
-0.001655236327
0.0007662036561
-0.001699597741
0.0005690539112
-0.001299788832
0.0002236226005
-0.0005447740321
-4.43483291e-05
-0.0003001283675
-5.356383023e-05
-0.0001756358336
-2.97954161e-05
-8.846389393e-05
-1.927964805e-05
-3.33059569e-05
-1.129072274e-05
-8.780440826e-06
-5.242783472e-06
-5.410016182e-06
3.520534935e-06
-2.021112917e-05
3.450225596e-06
-8.994208204e-05
1.017864237e-05
-0.0003042699692
-0.0001230841662
-0.0007243438307
-0.001384942128
2.853865891e-05
-0.005844998453
1.383199386e-05
9.627587076e-06
2.538346342e-06
1.077954667e-06
2.913084298e-05
-7.651737563e-05
5.891407993e-05
5.502408904e-07
1.464463137e-05
3.333625243e-05
3.603554181e-05
0.0001167081665
0.0001937153074
0.000120896874
-0.0005388528874
-0.0002036123179
-0.0007244478988
-0.001033204126
-0.0001734368453
-0.0006274109171
-0.0001156466173
-0.0008688969651
0.001947298693
-0.001175118907
0.0003619801437
-0.001442375746
0.0006908104538
-0.001480167669
0.0008786092425
-0.00133767674
0.000867606281
-0.001099940682
0.0006765006318
-0.0006969961364
0.0003893710613
-0.0002672256316
0.0001167030079
-7.603817998e-05
-1.144533786e-05
-3.316889484e-05
-1.706389429e-05
-2.162056481e-05
-1.254531364e-05
-1.298579007e-05
-1.010374005e-05
-6.604391107e-06
-6.947842359e-06
-6.066395705e-06
-3.12961232e-06
-1.232511449e-05
1.884351239e-06
-4.190532857e-05
8.422151953e-06
-0.00012945196
2.311099752e-05
-0.0003397551811
-0.0001212147637
-0.001119576944
-0.001133060384
-1.011233756e-06
-0.00698909003
1.921842015e-08
3.003972696e-06
-2.328888917e-06
4.090420423e-06
2.932237269e-05
-2.026335527e-06
4.472779133e-05
1.67758163e-05
5.652219753e-05
5.087720826e-05
0.0001301649737
6.802040666e-05
0.0001289197499
0.0001978157923
-0.001742202661
-0.0004837321081
-0.000622476821
-0.0008842133296
-0.0001926180556
-0.0004805308648
-7.181454504e-05
-0.0004347823552
0.002828556124
-0.0006463922738
0.00018954676
-0.0009270068503
0.0004219168496
-0.001089462524
0.0005832697424
-0.001036510949
0.0006657398766
-0.0007658767643
0.000560165591
-0.0003824945185
0.0003068076199
-0.0001155111204
0.000107638469
-3.264863512e-05
1.496331484e-05
-1.916064078e-05
5.736970148e-07
-1.681895324e-05
3.982700111e-07
-1.412282995e-05
9.107510155e-07
-9.818192578e-06
1.717637921e-06
-6.849074223e-06
2.326039276e-06
-1.135489547e-05
3.029450044e-06
-3.516223204e-05
9.299238339e-06
-7.898628035e-05
2.407019783e-05
-0.0002434071399
-5.883928239e-06
-0.001483516059
-2.94315128e-05
-6.837273147e-07
-0.006342672121
2.975080379e-06
3.979044694e-06
1.495749983e-07
8.494880236e-06
4.591270489e-06
7.320178677e-06
6.8876429e-05
1.143002538e-05
0.0002468863635
0.0001584774291
0.0001632862089
0.0001875051566
-0.001601346112
0.0004288877535
-0.001381215456
-0.0003774721369
-0.0005310268835
-0.0006109317245
-0.0001423718607
-0.000244503197
1.90575387e-05
-0.0003340162054
0.004110094953
-0.0004465273701
0.0001590918718
-0.0006132979228
0.0002787322609
-0.0007169365777
0.0003636924102
-0.0006757471365
0.0004344149515
-0.0004621947443
0.0003868518532
-0.0002089497769
0.0002257340756
-5.661499549e-05
8.687645499e-05
-1.786740902e-05
2.358113004e-05
-1.407572982e-05
8.921795501e-06
-1.267934929e-05
7.408175404e-06
-1.06477926e-05
7.265580881e-06
-7.102112397e-06
6.836844426e-06
-2.416470045e-06
5.62008873e-06
3.294313096e-06
4.856745244e-06
8.208946765e-06
6.443409337e-06
1.82345659e-05
1.212918544e-05
2.047723719e-05
1.183544827e-05
7.956126973e-06
1.814313578e-05
1.06683379e-05
-0.001686752021
3.491547383e-05
2.433203376e-05
6.853182163e-06
3.902053449e-05
1.57720962e-05
2.207697197e-05
0.0003434755636
1.554569827e-05
0.0008912867769
-0.0003389028911
0.0002779635629
-0.001407482835
-0.0009338368501
-0.001571363369
-0.0009528995613
-0.0001030832705
-0.0011518396
-0.0003475730833
-0.001230253502
4.206831018e-05
0.0003096235134
-0.0003794225492
0.005525143407
-0.0004020935854
0.0002140248736
-0.0004427496787
0.000240099785
-0.0004561061484
0.0002526074044
-0.0004009592822
0.0002836533255
-0.000269289166
0.0002532852534
-0.0001351265273
0.0001639309163
-6.060671642e-05
7.897837153e-05
-3.54053388e-05
3.59375118e-05
-2.652845273e-05
2.214658076e-05
-1.966280485e-05
1.765278707e-05
-1.314204255e-05
1.423903498e-05
-1.141878502e-05
1.058396618e-05
-0.0001122376276
1.113346231e-05
-0.00113647299
0.0001007017322
-0.003033398523
0.0005383821132
-0.00443063536
0.001087922717
-0.005170932105
0.001976377252
-0.00401540825
0.00346857003
0.0004709342147
0.005005810623
0.00155265028
0.001240266923
0.001412901895
0.0007392445948
0.0007528783696
0.0004154552933
0.0001517808768
0.0001028295372
5.499282095e-06
-0.001017326216
-0.002626556554
-0.003158949869
-6.798194201e-05
-0.006117584936
-0.0001394986295
0.0003113036968
-0.0005973324639
-0.0001310623023
-0.00100956205
1.554347651e-05
0.0002365204802
-0.0007708045206
0.006871430503
-0.0008106837103
0.0003859738582
-0.0008169989021
0.0003323716645
-0.0008168929486
0.0002689081886
-0.0007319797591
0.0002390705471
-0.0005554952432
0.0001925098992
-0.0003542471161
0.000137523735
-0.0001973506696
9.215612462e-05
-0.0001052860542
6.388100851e-05
-7.403214955e-05
4.664664991e-05
-0.0001238764032
4.857516786e-05
-0.0003132178111
9.277860408e-05
-0.0006014729057
0.0001874570764
-0.0008789069821
0.0003080691888
-0.001277027094
0.0004478936836
-0.001930842973
0.0006872529278
-0.002786896819
0.001142769836
-0.003539134242
0.002169874067
-0.00331281332
0.004382150815
0.0002333722488
0.007717657421
0.0008351987458
0.001021711319
0.000776503253
0.0006089248049
0.0005932745008
0.0004414978295
0.0003883440993
0.0002669678201
-0.0002512261247
-0.0009915530315
-0.001237336194
-0.002267861825
-0.0001357209649
-0.003211222987
0.0003631184823
-9.234184726e-05
-0.0003728475762
0.0002766034166
-0.000901320354
0.0001746978587
0.000283670593
-0.001845162427
0.007950216634
-0.002440974295
0.0006750203288
-0.002982973438
0.0005930626988
-0.0035127843
0.0003044685902
-0.003496121888
-9.890133017e-06
-0.002989508155
-4.593963596e-05
-0.002163445756
-3.959631248e-05
-0.001173099634
-1.380907161e-05
-0.0003962805294
9.710782247e-05