/*--------------------------------*- C++ -*----------------------------------*\
  =========                 |
  \\      /  F ield         | OpenFOAM: The Open Source CFD Toolbox
   \\    /   O peration     | Website:  https://openfoam.org
    \\  /    A nd           | Version:  8
     \\/     M anipulation  |
\*---------------------------------------------------------------------------*/
FoamFile
{
    version     2.0;
    format      ascii;
    class       volScalarField;
    location    "0.9/wallFilmRegion";
    object      sigma;
}
// * * * * * * * * * * * * * * * * * * * * * * * * * * * * * * * * * * * * * //

dimensions      [1 0 -2 0 0 0 0];

internalField   nonuniform List<scalar> 
1369
(
0.07244713437
0.0724471341
0.07244713379
0.07244713348
0.07244713363
0.07244713378
0.07244713356
0.07244713437
0.07244713409
0.07244713348
0.0724471326
0.07244713242
0.07244713243
0.07244713289
0.07244713466
0.07244713353
0.07244713408
0.07244713442
0.07244713438
0.07244713403
0.0724471328
0.07244713163
0.0724471317
0.07244713263
0.07244713442
0.0724471348
0.07244713415
0.07244713446
0.07244713469
0.07244713479
0.07244713481
0.07244713439
0.07244713418
0.07244713298
0.07244713182
0.07244713286
0.07244713458
0.0724471348
0.07244713482
0.07244713481
0.07244713474
0.07244713478
0.07244713481
0.07244713479
0.07244713476
0.07244713471
0.07244713467
0.07244713435
0.07244713437
0.07244713403
0.0724471331
0.0724471322
0.07244713303
0.07244713406
0.0724471345
0.0724471348
0.07244713462
0.07244713476
0.0724471348
0.0724471348
0.07244713476
0.07244713472
0.0724471346
0.07244713331
0.07244713304
0.07244713301
0.07244713316
0.07244713437
0.07244713367
0.07244713238
0.07244713265
0.07244713394
0.07244713449
0.07244713466
0.07244713473
0.07244713473
0.07244713479
0.0724471348
0.07244713478
0.07244713475
0.07244713472
0.07244713463
0.07244713356
0.0724471339
0.072447134
0.07244713392
0.07244713122
0.07244712886
0.07244713358
0.07244713334
0.07244713438
0.07244713385
0.07244713261
0.07244713383
0.07244713446
0.07244713467
0.07244713474
0.07244713477
0.07244713478
0.0724471348
0.07244713479
0.07244713477
0.07244713475
0.07244713473
0.07244713467
0.07244713406
0.07244713453
0.07244713469
0.07244713458
0.07244712957
0.07244712823
0.07244713472
0.07244713508
0.07244713534
0.07244713533
0.07244713438
0.07244713363
0.07244713339
0.07244713441
0.07244713465
0.07244713474
0.07244713478
0.07244713479
0.07244713479
0.07244713479
0.07244713478
0.07244713476
0.07244713476
0.07244713474
0.0724471347
0.07244713427
0.0724471348
0.07244713508
0.072447135
0.07244712335
0.07244713037
0.07244713503
0.07244713515
0.07244713542
0.07244713484
0.07244713283
0.07244713436
0.07244713386
0.0724471343
0.07244713462
0.07244713472
0.07244713476
0.07244713479
0.07244713479
0.07244713479
0.07244713478
0.07244713476
0.07244713476
0.07244713476
0.07244713475
0.07244713471
0.07244713438
0.07244713475
0.07244713512
0.07244713523
0.07244713532
0.07244713529
0.07244713525
0.07244713523
0.07244713572
0.0724471346
0.07244713485
0.07244713437
0.07244713444
0.07244713458
0.07244713468
0.07244713474
0.07244713477
0.07244713479
0.07244713479
0.07244713476
0.07244713475
0.07244713474
0.07244713476
0.07244713476
0.07244713475
0.0724471347
0.07244713415
0.07244713439
0.07244713449
0.07244713478
0.07244713566
0.07244713577
0.07244713579
0.07244713589
0.07244713418
0.0724471341
0.07244713519
0.07244713545
0.07244713438
0.07244713451
0.0724471346
0.07244713467
0.07244713473
0.07244713478
0.0724471348
0.0724471348
0.07244713473
0.07244713474
0.07244713472
0.07244713468
0.07244713467
0.07244713462
0.07244713432
0.07244713206
0.07244712261
0.07244711007
0.07244713266
0.0724471331
0.07244713375
0.07244713424
0.07244713551
0.07244713571
0.07244713189
0.07244713523
0.07244713528
0.07244713436
0.07244713386
0.07244713408
0.07244713442
0.07244713462
0.07244713471
0.07244713472
0.07244713465
0.0724471339
0.07244713435
0.07244713456
0.07244713466
0.07244713469
0.07244713469
0.07244713463
0.07244713458
0.0724471347
0.0724471345
0.07244713431
0.07244713411
0.07244713421
0.07244713497
0.07244713574
0.0724471357
0.072447127
0.07244713477
0.07244713491
0.07244713438
0.07244713381
0.07244713398
0.07244713422
0.07244713451
0.07244713465
0.07244713469
0.0724471346
0.07244713344
0.0724471341
0.07244713444
0.07244713461
0.07244713468
0.0724471347
0.07244713466
0.07244713457
0.07244713477
0.07244713476
0.07244713469
0.07244713455
0.07244713448
0.07244713498
0.07244713548
0.07244713547
0.0724471281
0.07244713451
0.07244713494
0.07244713542
0.07244713441
0.07244713425
0.07244713432
0.0724471343
0.07244713432
0.07244713454
0.07244713463
0.07244713455
0.07244713295
0.07244713394
0.07244713434
0.07244713454
0.07244713464
0.07244713467
0.07244713462
0.07244712956
0.07244713403
0.0724471338
0.07244713395
0.07244713418
0.07244713431
0.07244713447
0.07244713492
0.072447135
0.07244713447
0.07244713478
0.07244713498
0.07244713535
0.07244712915
0.07244713443
0.07244713445
0.07244713449
0.07244713448
0.07244713437
0.0724471343
0.07244713448
0.07244713443
0.07244713165
0.0724471332
0.07244713407
0.07244713441
0.07244713456
0.07244713462
0.07244713457
0.07244712905
0.07244713302
0.07244713238
0.07244713334
0.07244713406
0.07244713401
0.07244713377
0.07244713477
0.07244713481
0.07244713454
0.07244713473
0.07244713497
0.07244713529
0.07244711485
0.07244713444
0.07244713455
0.07244713458
0.07244713456
0.07244713448
0.07244713422
0.07244713407
0.07244713405
0.07244713253
0.07244713308
0.07244713371
0.07244713417
0.07244713441
0.07244713452
0.07244713451
0.07244713415
0.07244713364
0.07244713308
0.07244713452
0.07244713462
0.07244713441
0.07244713413
0.07244713412
0.07244713437
0.07244713429
0.07244713445
0.07244713354
0.07244713449
0.07244713209
0.07244713446
0.07244713459
0.07244713461
0.07244713459
0.07244713453
0.07244713438
0.07244713389
0.0724471338
0.07244713369
0.07244713394
0.07244713421
0.07244713437
0.07244713435
0.07244713423
0.07244713419
0.07244713358
0.07244713417
0.0724471341
0.07244713387
0.07244713384
0.07244713407
0.07244713421
0.07244713433
0.07244713443
0.0724471344
0.07244713434
0.07244713425
0.07244713406
0.07244713348
0.07244712246
0.07244713152
0.07244664675
0.07244668724
0.0724471347
0.07244713446
0.07244713459
0.07244713461
0.0724471346
0.07244713458
0.07244713455
0.07244713449
0.07244713439
0.07244713434
0.07244713443
0.07244713453
0.07244713457
0.07244713449
0.07244713377
0.07244713299
0.07244713248
0.07244713225
0.0724471317
0.07244713089
0.07244713002
0.07244712961
0.07244712895
0.07244712763
0.07244712545
0.0724471262
0.07244713394
0.07244713373
0.0724471335
0.07244713337
0.07244713315
0.07244712991
0.07244712387
0.0724470751
0.07244713453
0.0724471345
0.07244713457
0.07244713455
0.07244713453
0.07244713452
0.07244713454
0.07244713456
0.07244713455
0.07244713454
0.0724471346
0.07244713467
0.07244713471
0.07244713469
0.07244713345
0.07244713106
0.07244713065
0.07244713061
0.07244713073
0.07244713086
0.07244713158
0.07244713322
0.07244713408
0.07244713451
0.07244713223
0.07244712647
0.07244713387
0.07244713445
0.0724471351
0.0724471352
0.07244713467
0.07244713076
0.07244713242
0.07244713233
0.07244713175
0.07244713455
0.07244713459
0.0724471345
0.07244713439
0.07244713421
0.07244713372
0.07244713369
0.07244713461
0.07244713466
0.07244713466
0.07244713474
0.0724471348
0.0724471348
0.07244713318
0.07244713023
0.07244712987
0.07244713006
0.07244713074
0.07244713135
0.07244713171
0.0724471326
0.07244713432
0.07244713485
0.07244713413
0.07244713159
0.07244713392
0.07244713455
0.07244713472
0.07244713316
0.07244713299
0.07244713285
0.07244713307
0.07244713415
0.07244713453
0.07244713458
0.07244713454
0.07244713447
0.07244713442
0.0724471344
0.07244713447
0.07244713455
0.07244713461
0.07244713469
0.07244713478
0.07244713485
0.07244713486
0.0724471337
0.07244712947
0.07244712896
0.07244712924
0.07244713057
0.0724471317
0.0724471324
0.07244713311
0.07244713447
0.07244713495
0.07244713455
0.07244713298
0.07244713385
0.07244713432
0.07244713384
0.07244713378
0.07244713399
0.0724471339
0.0724471332
0.07244713452
0.07244713458
0.07244713454
0.07244713447
0.07244713438
0.07244713433
0.07244713437
0.07244713451
0.07244713469
0.07244713483
0.07244713485
0.07244713491
0.0724471349
0.07244713464
0.07244712894
0.07244712738
0.07244712648
0.07244712925
0.07244713146
0.07244713238
0.07244713258
0.07244713454
0.07244713508
0.07244713477
0.07244713028
0.07244713371
0.07244713422
0.07244713399
0.07244713381
0.07244713412
0.07244713368
0.07244713368
0.07244713449
0.0724471346
0.07244713458
0.07244713456
0.07244713458
0.07244713471
0.07244713489
0.07244713498
0.07244713501
0.07244713498
0.07244713484
0.07244713455
0.07244713423
0.07244712893
0.07244712827
0.07244712509
0.07244711033
0.07244712553
0.07244713029
0.07244713236
0.0724471319
0.07244713444
0.0724471353
0.07244713502
0.07244712882
0.07244713347
0.0724471343
0.07244713415
0.07244713368
0.07244713473
0.07244713505
0.07244713512
0.0724471345
0.07244713465
0.07244713467
0.07244713468
0.0724471347
0.07244713471
0.07244713467
0.07244713453
0.07244713415
0.07244713301
0.07244713172
0.07244713123
0.07244713213
0.07244712791
0.07244712983
0.07244713149
0.07244713279
0.07244713352
0.07244713399
0.07244713424
0.07244713431
0.07244713447
0.07244713525
0.07244713511
0.07244713417
0.07244713315
0.07244713436
0.07244713427
0.07244713389
0.07244713428
0.0724471349
0.07244713465
0.07244713469
0.07244713473
0.07244713475
0.07244713475
0.07244713471
0.07244713459
0.07244713436
0.07244713396
0.07244713327
0.07244713234
0.07244713121
0.07244713016
0.07244712783
0.07244713234
0.0724471336
0.07244713403
0.07244713411
0.07244713402
0.07244713385
0.07244713343
0.07244713493
0.07244713545
0.07244713512
0.0724471352
0.07244713335
0.07244713443
0.07244713476
0.07244713537
0.07244713614
0.07244713621
0.07244713478
0.0724471347
0.07244713475
0.07244713478
0.07244713478
0.07244713474
0.07244713465
0.07244713454
0.07244713439
0.0724471342
0.07244713393
0.07244713346
0.07244713276
0.07244713229
0.0724471335
0.07244713373
0.07244708469
0.07244712693
0.07244713391
0.07244713458
0.07244710928
0.0724471351
0.07244713547
0.07244713546
0.07244713571
0.07244713512
0.07244713468
0.07244713522
0.07244713611
0.07244713648
0.07244713568
0.07244713478
0.07244713468
0.07244713474
0.0724471348
0.07244713484
0.07244713487
0.0724471349
0.07244713494
0.07244713497
0.07244713499
0.07244713499
0.07244713493
0.07244713482
0.07244713452
0.07244713227
0.07244712831
0.07244712151
0.07244713365
0.07244713456
0.07244713472
0.07244703992
0.07244713497
0.07244713519
0.0724471354
0.07244713651
0.07244713749
0.07244713734
0.07244713721
0.07244713729
0.07244713619
0.07244713501
0.07244713463
0.07244713464
0.07244713472
0.07244713479
0.07244713485
0.07244713491
0.07244713497
0.07244713505
0.07244713516
0.07244713543
0.07244713556
0.07244713545
0.07244713478
0.07244713259
0.07244712764
0.07244712684
0.07244713342
0.07244713441
0.07244713466
0.07244713477
0.07244713341
0.07244712597
0.07244713529
0.07244713521
0.0724471351
0.07244713734
0.07244713736
0.0724471369
0.07244713813
0.07244713582
0.07244713506
0.0724471345
0.07244713452
0.07244713465
0.07244713476
0.07244713483
0.07244713489
0.07244713494
0.07244713498
0.07244713504
0.07244713516
0.07244713518
0.07244713483
0.07244713327
0.0724471278
0.07244712323
0.07244713093
0.07244713386
0.07244713444
0.0724471347
0.0724471348
0.07244712498
0.07244712681
0.07244713512
0.07244713502
0.07244713503
0.07244713573
0.07244713631
0.07244713677
0.07244713691
0.07244713554
0.07244713512
0.07244713446
0.07244713429
0.07244713452
0.07244713468
0.07244713477
0.07244713483
0.07244713487
0.07244713489
0.07244713492
0.07244713501
0.07244713515
0.07244713525
0.07244713473
0.07244713236
0.07244712686
0.07244713023
0.07244713358
0.0724471344
0.07244713473
0.07244713481
0.07244712906
0.07244712714
0.07244713334
0.07244713481
0.07244713508
0.07244713541
0.0724471365
0.0724471361
0.07244713578
0.07244713533
0.07244713501
0.07244713446
0.07244713413
0.07244713439
0.07244713458
0.07244713467
0.07244713473
0.07244713473
0.07244713462
0.07244713402
0.0724471325
0.0724471325
0.07244713303
0.07244713344
0.07244713334
0.0724471324
0.07244713069
0.07244713211
0.07244713223
0.07244713289
0.07244713482
0.07244713348
0.07244713218
0.07244713342
0.07244713461
0.07244713491
0.07244713512
0.07244713617
0.07244713562
0.07244713535
0.07244713514
0.07244713506
0.07244713445
0.07244713412
0.07244713431
0.07244713446
0.07244713455
0.07244713459
0.07244713454
0.07244713429
0.07244713368
0.07244713306
0.07244713294
0.07244713294
0.07244713286
0.07244713334
0.07244713461
0.07244713476
0.0724471348
0.07244713481
0.07244713482
0.07244713483
0.0724471348
0.07244713474
0.07244713464
0.07244713427
0.07244713462
0.07244713528
0.07244713553
0.07244713558
0.07244713529
0.07244713519
0.07244713508
0.07244713446
0.07244713429
0.07244713446
0.07244713458
0.07244713464
0.07244713466
0.07244713464
0.07244713453
0.0724471343
0.07244713397
0.07244713388
0.07244713436
0.07244713466
0.07244713476
0.07244713478
0.07244713478
0.07244713479
0.0724471348
0.07244713482
0.07244713482
0.07244713478
0.07244713471
0.07244713463
0.07244713459
0.07244713458
0.07244713469
0.07244713483
0.07244713533
0.07244713525
0.07244713521
0.07244713519
0.07244713447
0.07244713456
0.07244713478
0.07244713493
0.072447135
0.07244713506
0.0724471351
0.07244713511
0.07244713507
0.07244713485
0.07244713424
0.0724471343
0.07244713464
0.07244713476
0.07244713479
0.07244713479
0.07244713479
0.07244713479
0.07244713481
0.07244713482
0.07244713473
0.07244713468
0.07244713466
0.07244713456
0.07244713454
0.07244713453
0.07244713453
0.07244713485
0.07244713511
0.07244713508
0.07244713519
0.07244713446
0.07244713431
0.07244713451
0.07244713469
0.07244713469
0.07244713473
0.07244713486
0.07244713496
0.07244713498
0.07244713485
0.07244713436
0.07244713402
0.07244713445
0.07244713467
0.07244713475
0.07244713477
0.07244713478
0.07244713478
0.07244713479
0.07244713481
0.07244713467
0.07244713465
0.07244713467
0.07244713455
0.07244713453
0.07244713449
0.07244713451
0.07244713387
0.07244713471
0.07244713496
0.07244713511
0.07244713447
0.07244713451
0.07244713459
0.07244713463
0.0724471346
0.07244713457
0.07244713466
0.07244713482
0.07244713491
0.07244713487
0.07244713459
0.07244713402
0.07244713404
0.07244713439
0.07244713461
0.0724471347
0.07244713474
0.07244713476
0.07244713478
0.07244713479
0.07244713457
0.07244713462
0.07244713467
0.07244713454
0.07244713449
0.07244713443
0.07244713449
0.07244713442
0.07244713459
0.07244713476
0.0724471348
0.07244713445
0.07244713442
0.07244713456
0.07244713461
0.0724471346
0.07244713458
0.07244713461
0.07244713473
0.07244713485
0.0724471349
0.07244713481
0.07244713455
0.07244713437
0.07244713389
0.07244713419
0.07244713451
0.07244713465
0.07244713471
0.07244713474
0.07244713475
0.0724471345
0.07244713463
0.07244713463
0.07244713451
0.07244713439
0.07244713433
0.07244713447
0.0724471345
0.07244713451
0.07244713459
0.07244713457
0.07244713471
0.07244713443
0.07244713456
0.07244713459
0.0724471346
0.0724471346
0.0724471346
0.07244713466
0.07244713476
0.07244713486
0.07244713489
0.07244713485
0.07244713489
0.07244713413
0.07244713394
0.07244713404
0.07244713445
0.07244713455
0.07244713463
0.07244713469
0.0724471345
0.07244713459
0.07244713453
0.07244713433
0.07244713414
0.07244713422
0.07244713446
0.07244713453
0.07244713446
0.07244713445
0.0724471344
0.07244713452
0.07244713447
0.07244713456
0.07244713459
0.07244713461
0.07244713461
0.07244713461
0.07244713462
0.07244713467
0.07244713475
0.07244713485
0.07244713494
0.07244713506
0.07244713428
0.07244713417
0.07244713403
0.0724471342
0.07244713449
0.07244713464
0.07244713463
0.07244713444
0.07244713448
0.07244713426
0.07244713386
0.07244713362
0.0724471341
0.07244713442
0.07244713452
0.07244713444
0.07244713436
0.07244713427
0.07244713444
0.0724471345
0.07244713456
0.07244713459
0.07244713461
0.07244713462
0.07244713462
0.0724471346
0.0724471346
0.07244713462
0.0724471347
0.07244713493
0.07244713509
0.07244713437
0.07244713411
0.07244713387
0.07244713407
0.07244713456
0.07244713463
0.07244713455
0.07244713431
0.0724471343
0.07244713402
0.07244713351
0.07244713282
0.07244713397
0.07244713434
0.07244713447
0.07244713441
0.07244713432
0.07244713419
0.07244713441
0.07244713451
0.07244713456
0.07244713458
0.07244713461
0.07244713462
0.07244713462
0.0724471346
0.07244713456
0.07244713449
0.07244713448
0.07244713481
0.07244713505
0.07244713439
0.07244713461
0.07244713467
0.07244713475
0.0724471348
0.07244713479
0.07244713458
0.0724471346
0.07244713456
0.0724471344
0.07244713373
0.07244713251
0.07244713393
0.07244713422
0.07244713438
0.07244713441
0.07244713464
0.07244713498
0.07244713439
0.07244713451
0.07244713456
0.07244713458
0.07244713459
0.0724471346
0.07244713461
0.0724471346
0.07244713455
0.07244713441
0.07244713424
0.07244713458
0.07244713496
0.07244713437
0.07244713462
0.07244713471
0.07244713477
0.0724471348
0.07244713481
0.07244713465
0.07244713464
0.07244713454
0.07244713431
0.07244713329
0.07244713204
0.07244713299
0.07244713396
0.07244713417
0.07244713427
0.07244713449
0.07244713476
0.07244713436
0.07244713431
0.07244713434
0.07244713441
0.07244713458
0.07244713458
0.07244713459
0.07244713458
0.07244713454
0.07244713438
0.07244713409
0.07244713425
0.07244713483
0.07244713431
0.07244713455
0.07244713468
0.07244713475
0.07244713479
0.0724471348
0.07244713463
0.07244713456
0.07244713439
0.07244713399
0.07244713268
0.07244713181
0.07244713287
0.07244713244
0.07244713415
0.0724471342
0.07244713489
0.07244713466
0.07244713433
0.07244713418
0.07244713424
0.07244713429
0.07244713429
0.07244713456
0.07244713457
0.07244713456
0.07244713452
0.07244713436
0.07244713407
0.07244713408
0.0724471347
0.0724471342
0.07244713442
0.07244713459
0.07244713469
0.07244713475
0.07244713477
0.07244713446
0.07244713435
0.07244713408
0.0724471334
0.07244713227
0.07244713155
0.07244713291
0.07244713184
0.07244713359
0.07244713421
0.07244713441
0.07244713451
0.07244713428
0.07244713421
0.07244713425
0.0724471343
0.0724471343
0.07244713429
0.07244713449
0.07244713452
0.07244713449
0.07244713435
0.07244713411
0.07244713415
0.07244713455
0.07244713401
0.07244713418
0.07244713445
0.0724471346
0.07244713467
0.07244713469
0.0724471342
0.07244713404
0.07244713365
0.07244713298
0.07244713197
0.07244713119
0.07244713289
0.07244713167
0.07244713181
0.07244713414
0.07244713427
0.07244713415
0.07244713426
0.07244713425
0.07244713432
0.07244713432
0.07244713432
0.07244713429
0.07244713429
0.07244713424
0.07244713444
0.07244713434
0.07244713416
0.07244713417
0.07244713436
0.07244713376
0.07244713378
0.07244713421
0.07244713445
0.07244713455
0.07244713456
0.07244713404
0.07244713384
0.07244713364
0.07244713326
0.07244713214
0.07244713084
0.0724471328
0.0724471317
0.07244713123
0.07244713395
0.07244713434
0.07244713426
0.07244713431
0.07244713437
0.07244713437
0.07244713433
0.07244713427
0.07244713423
0.07244713424
0.07244713423
0.07244713438
0.07244713433
0.0724471342
0.07244713415
0.07244713417
0.07244713368
0.07244713342
0.0724471338
0.07244713422
0.07244713442
0.07244713446
0.07244713409
0.07244713408
0.07244713408
0.07244713385
0.07244713305
0.07244713078
0.0724471327
0.07244713221
0.07244713155
0.07244713418
0.07244713438
0.07244713432
0.07244713439
0.07244713442
0.07244713434
0.07244713426
0.07244713429
0.07244713432
0.07244713433
0.07244713435
0.07244713439
0.07244713442
0.07244713445
0.07244713447
0.07244713449
0.07244713449
0.07244713449
0.07244713448
0.07244713447
0.07244713446
0.07244713444
0.07244713443
0.07244713442
0.07244713441
0.07244713438
0.07244713425
0.07244713358
0.07244713321
0.07244713433
0.0724471344
0.07244713441
0.0724471344
0.07244713442
)
;

boundaryField
{
    walls
    {
        type            zeroGradient;
    }
    wallFilmFace_top
    {
        type            zeroGradient;
    }
    region0_to_wallFilmRegion_wallFilmFace
    {
        type            zeroGradient;
    }
    mirrorFace_top
    {
        type            zeroGradient;
    }
    region0_to_wallFilmRegion_mirrorFace
    {
        type            zeroGradient;
    }
    procBoundary1to0
    {
        type            processor;
        value           nonuniform List<scalar> 
52
(
0.07244713438
0.07244713408
0.07244713395
0.07244713393
0.07244713421
0.07244713439
0.0724471342
0.07244713321
0.07244713321
0.07244713307
0.07244713358
0.07244713394
0.07244713462
0.07244713462
0.07244713468
0.07244713479
0.07244713479
0.07244713475
0.0724471347
0.07244713466
0.07244713401
0.07244713401
0.07244713397
0.07244713151
0.07244713151
0.07244712967
0.07244713193
0.07244713295
0.07244713536
0.07244713536
0.07244713545
0.07244713446
0.07244713446
0.07244713295
0.07244713404
0.07244713404
0.07244713574
0.07244713554
0.07244713546
0.07244713546
0.0724471357
0.0724471357
0.07244713578
0.07244713552
0.07244713299
0.07244713299
0.07244713513
0.07244713275
0.07244691967
0.07244713458
0.07244713513
0.07244713478
)
;
    }
    procBoundary1to2
    {
        type            processor;
        value           nonuniform List<scalar> 
33
(
0.0724471339
0.07244713453
0.07244713453
0.0724471346
0.0724471346
0.07244713489
0.07244713514
0.07244713509
0.07244713509
0.07244713545
0.07244713525
0.0724471353
0.07244713249
0.0724471338
0.07244713431
0.0724471351
0.07244713503
0.07244713513
0.07244713513
0.07244713506
0.0724471346
0.07244713444
0.07244713435
0.07244713422
0.07244713407
0.072447134
0.07244713403
0.07244713489
0.07244713506
0.07244713458
0.07244713413
0.07244713399
0.07244713447
)
;
    }
}


// ************************************************************************* //
