/*--------------------------------*- C++ -*----------------------------------*\
  =========                 |
  \\      /  F ield         | OpenFOAM: The Open Source CFD Toolbox
   \\    /   O peration     | Website:  https://openfoam.org
    \\  /    A nd           | Version:  8
     \\/     M anipulation  |
\*---------------------------------------------------------------------------*/
FoamFile
{
    version     2.0;
    format      ascii;
    class       volScalarField;
    location    "0.9/wallFilmRegion";
    object      T;
}
// * * * * * * * * * * * * * * * * * * * * * * * * * * * * * * * * * * * * * //

dimensions      [0 0 0 1 0 0 0];

internalField   nonuniform List<scalar> 
1369
(
300.0000022
300.0000036
300.0000052
300.0000067
300.000006
300.0000052
300.0000063
300.0000023
300.0000037
300.0000067
300.0000111
300.000012
300.000012
300.0000097
300.0000008
300.0000065
300.0000037
300.000002
300.0000022
300.000004
300.0000101
300.000016
300.0000157
300.000011
300.000002
300.0000001
300.0000034
300.0000018
300.0000007
300.0000002
300.0000001
300.0000022
300.0000032
300.0000092
300.0000151
300.0000098
300.0000012
300.0000001
300
300.0000001
300.0000004
300.0000002
300.0000001
300.0000002
300.0000003
300.0000006
300.0000008
300.0000024
300.0000023
300.000004
300.0000086
300.0000132
300.000009
300.0000038
300.0000016
300.0000001
300.000001
300.0000003
300.0000001
300.0000001
300.0000003
300.0000005
300.0000011
300.0000076
300.0000089
300.0000091
300.0000083
300.0000023
300.0000058
300.0000122
300.0000109
300.0000044
300.0000016
300.0000008
300.0000005
300.0000005
300.0000001
300.0000001
300.0000002
300.0000004
300.0000005
300.000001
300.0000063
300.0000046
300.0000041
300.0000045
300.0000181
300.0000299
300.0000062
300.0000074
300.0000022
300.0000049
300.0000111
300.000005
300.0000018
300.0000008
300.0000004
300.0000003
300.0000002
300.0000001
300.0000002
300.0000003
300.0000004
300.0000005
300.0000008
300.0000038
300.0000015
300.0000007
300.0000012
300.0000263
300.0000331
300.0000005
299.9999987
299.9999974
299.9999974
300.0000022
300.000006
300.0000072
300.0000021
300.0000009
300.0000004
300.0000002
300.0000002
300.0000002
300.0000002
300.0000002
300.0000003
300.0000003
300.0000004
300.0000006
300.0000028
300.0000001
299.9999987
299.9999991
300.0000575
300.0000223
299.999999
299.9999984
299.999997
299.9999999
300.00001
300.0000023
300.0000048
300.0000026
300.000001
300.0000005
300.0000003
300.0000002
300.0000001
300.0000002
300.0000002
300.0000003
300.0000003
300.0000003
300.0000004
300.0000005
300.0000022
300.0000004
299.9999985
299.9999979
299.9999975
299.9999977
299.9999979
299.9999979
299.9999955
300.0000011
299.9999999
300.0000023
300.0000019
300.0000012
300.0000007
300.0000004
300.0000003
300.0000002
300.0000002
300.0000003
300.0000004
300.0000004
300.0000003
300.0000003
300.0000004
300.0000006
300.0000034
300.0000022
300.0000017
300.0000002
299.9999958
299.9999952
299.9999952
299.9999946
300.0000032
300.0000036
299.9999981
299.9999969
300.0000022
300.0000016
300.0000011
300.0000008
300.0000004
300.0000002
300.0000001
300.0000001
300.0000005
300.0000004
300.0000005
300.0000007
300.0000008
300.000001
300.0000025
300.0000138
300.0000612
300.0001241
300.0000108
300.0000086
300.0000054
300.0000029
299.9999966
299.9999956
300.0000147
299.999998
299.9999977
300.0000023
300.0000048
300.0000037
300.000002
300.000001
300.0000006
300.0000005
300.0000009
300.0000046
300.0000024
300.0000013
300.0000008
300.0000006
300.0000007
300.000001
300.0000012
300.0000006
300.0000016
300.0000026
300.0000036
300.0000031
299.9999993
299.9999954
299.9999956
300.0000392
300.0000002
299.9999996
300.0000022
300.0000051
300.0000042
300.000003
300.0000016
300.0000009
300.0000007
300.0000011
300.000007
300.0000036
300.0000019
300.0000011
300.0000007
300.0000006
300.0000008
300.0000013
300.0000003
300.0000003
300.0000007
300.0000014
300.0000017
299.9999992
299.9999967
299.9999967
300.0000337
300.0000016
299.9999994
299.999997
300.0000021
300.0000029
300.0000025
300.0000026
300.0000025
300.0000014
300.000001
300.0000014
300.0000094
300.0000044
300.0000024
300.0000014
300.0000009
300.0000008
300.000001
300.0000264
300.000004
300.0000051
300.0000044
300.0000032
300.0000026
300.0000018
299.9999995
299.9999991
300.0000018
300.0000002
299.9999992
299.9999973
300.0000284
300.000002
300.0000019
300.0000017
300.0000017
300.0000023
300.0000026
300.0000017
300.000002
300.0000159
300.0000081
300.0000038
300.0000021
300.0000013
300.000001
300.0000013
300.0000289
300.0000091
300.0000122
300.0000074
300.0000038
300.0000041
300.0000053
300.0000003
300.0000001
300.0000014
300.0000005
299.9999993
299.9999977
300.0001001
300.0000019
300.0000014
300.0000012
300.0000013
300.0000017
300.000003
300.0000038
300.0000039
300.0000115
300.0000088
300.0000056
300.0000033
300.0000021
300.0000015
300.0000016
300.0000034
300.0000059
300.0000087
300.0000015
300.000001
300.0000021
300.0000035
300.0000035
300.0000023
300.0000027
300.0000019
300.0000064
300.0000017
300.0000137
300.0000018
300.0000012
300.0000011
300.0000012
300.0000015
300.0000022
300.0000047
300.0000051
300.0000057
300.0000044
300.0000031
300.0000023
300.0000024
300.000003
300.0000032
300.0000063
300.0000033
300.0000037
300.0000048
300.0000049
300.0000038
300.0000031
300.0000025
300.000002
300.0000021
300.0000024
300.0000029
300.0000038
300.0000067
300.000062
300.0000166
300.0024462
300.0022432
300.0000006
300.0000018
300.0000012
300.0000011
300.0000011
300.0000012
300.0000014
300.0000017
300.0000022
300.0000024
300.000002
300.0000015
300.0000013
300.0000016
300.0000053
300.0000092
300.0000118
300.0000129
300.0000157
300.0000197
300.0000241
300.0000261
300.0000295
300.0000361
300.000047
300.0000432
300.0000044
300.0000055
300.0000067
300.0000073
300.0000084
300.0000246
300.0000549
300.0002993
300.0000015
300.0000016
300.0000013
300.0000014
300.0000015
300.0000015
300.0000014
300.0000013
300.0000014
300.0000014
300.0000011
300.0000008
300.0000005
300.0000007
300.0000069
300.0000188
300.0000209
300.0000211
300.0000205
300.0000199
300.0000162
300.000008
300.0000037
300.0000016
300.000013
300.0000419
300.0000048
300.0000019
299.9999986
299.9999981
300.0000008
300.0000204
300.000012
300.0000125
300.0000154
300.0000014
300.0000012
300.0000016
300.0000022
300.0000031
300.0000055
300.0000057
300.0000011
300.0000008
300.0000008
300.0000004
300.0000001
300.0000001
300.0000082
300.000023
300.0000248
300.0000239
300.0000205
300.0000174
300.0000156
300.0000112
300.0000025
299.9999999
300.0000035
300.0000162
300.0000045
300.0000013
300.0000005
300.0000084
300.0000092
300.0000099
300.0000088
300.0000034
300.0000015
300.0000012
300.0000014
300.0000018
300.000002
300.0000021
300.0000018
300.0000014
300.000001
300.0000007
300.0000002
299.9999999
299.9999998
300.0000056
300.0000268
300.0000294
300.000028
300.0000213
300.0000156
300.0000122
300.0000086
300.0000018
299.9999994
300.0000014
300.0000092
300.0000049
300.0000025
300.0000049
300.0000053
300.0000042
300.0000046
300.0000082
300.0000015
300.0000012
300.0000014
300.0000018
300.0000022
300.0000025
300.0000023
300.0000016
300.0000007
299.9999999
299.9999999
299.9999996
299.9999996
300.0000009
300.0000295
300.0000373
300.0000418
300.0000279
300.0000169
300.0000122
300.0000112
300.0000014
299.9999987
300.0000002
300.0000228
300.0000056
300.000003
300.0000042
300.0000051
300.0000035
300.0000057
300.0000057
300.0000017
300.0000011
300.0000012
300.0000013
300.0000012
300.0000006
299.9999997
299.9999992
299.9999991
299.9999992
299.9999999
300.0000014
300.000003
300.0000295
300.0000328
300.0000488
300.0001228
300.0000466
300.0000227
300.0000124
300.0000146
300.0000019
299.9999976
299.999999
300.0000301
300.0000068
300.0000026
300.0000034
300.0000058
300.0000005
299.9999989
299.9999985
300.0000016
300.0000009
300.0000008
300.0000007
300.0000006
300.0000006
300.0000008
300.0000015
300.0000034
300.0000091
300.0000156
300.000018
300.0000135
300.0000346
300.000025
300.0000167
300.0000102
300.0000065
300.0000042
300.0000029
300.0000026
300.0000018
299.9999978
299.9999986
300.0000033
300.0000084
300.0000023
300.0000028
300.0000047
300.0000027
299.9999996
300.0000009
300.0000007
300.0000005
300.0000004
300.0000004
300.0000006
300.0000012
300.0000023
300.0000043
300.0000078
300.0000125
300.0000181
300.0000233
300.000035
300.0000124
300.0000061
300.000004
300.0000036
300.000004
300.0000049
300.000007
299.9999995
299.9999969
299.9999985
299.9999981
300.0000074
300.000002
300.0000003
299.9999973
299.9999934
299.9999931
300.0000002
300.0000006
300.0000004
300.0000002
300.0000002
300.0000004
300.0000009
300.0000014
300.0000022
300.0000031
300.0000045
300.0000068
300.0000103
300.0000127
300.0000066
300.0000055
300.0002513
300.0000396
300.0000046
300.0000012
300.000128
299.9999986
299.9999967
299.9999968
299.9999956
299.9999985
300.0000007
299.999998
299.9999935
299.9999917
299.9999957
300.0000002
300.0000007
300.0000004
300.0000001
299.9999999
299.9999998
299.9999996
299.9999994
299.9999993
299.9999992
299.9999992
299.9999995
300
300.0000015
300.0000128
300.0000326
300.0000667
300.0000059
300.0000013
300.0000005
300.0004756
299.9999993
299.9999982
299.9999971
299.9999915
299.9999866
299.9999874
299.999988
299.9999876
299.9999932
299.9999991
300.000001
300.0000009
300.0000005
300.0000001
299.9999998
299.9999996
299.9999993
299.9999989
299.9999983
299.999997
299.9999963
299.9999969
300.0000002
300.0000112
300.000036
300.00004
300.000007
300.0000021
300.0000008
300.0000003
300.0000071
300.0000444
299.9999977
299.9999981
299.9999986
299.9999874
299.9999873
299.9999896
299.9999834
299.999995
299.9999988
300.0000016
300.0000015
300.0000008
300.0000003
300
299.9999997
299.9999994
299.9999992
299.9999989
299.9999983
299.9999982
300
300.0000078
300.0000352
300.0000581
300.0000195
300.0000048
300.0000019
300.0000006
300.0000001
300.0000493
300.0000401
299.9999985
299.999999
299.999999
299.9999955
299.9999926
299.9999903
299.9999896
299.9999964
299.9999985
300.0000018
300.0000027
300.0000015
300.0000007
300.0000003
300
299.9999998
299.9999996
299.9999995
299.999999
299.9999984
299.9999979
300.0000005
300.0000124
300.0000399
300.000023
300.0000062
300.0000021
300.0000005
300.0000001
300.0000289
300.0000385
300.0000075
300.0000001
299.9999987
299.999997
299.9999916
299.9999936
299.9999952
299.9999975
299.9999991
300.0000018
300.0000035
300.0000021
300.0000012
300.0000008
300.0000005
300.0000005
300.000001
300.000004
300.0000116
300.0000116
300.000009
300.0000069
300.0000074
300.0000121
300.0000207
300.0000136
300.000013
300.0000097
300
300.0000068
300.0000132
300.000007
300.0000011
299.9999996
299.9999985
299.9999932
299.999996
299.9999974
299.9999984
299.9999988
300.0000018
300.0000035
300.0000026
300.0000018
300.0000014
300.0000012
300.0000014
300.0000027
300.0000057
300.0000088
300.0000094
300.0000094
300.0000098
300.0000074
300.0000011
300.0000003
300.0000001
300.0000001
300
300
300.0000001
300.0000004
300.0000009
300.0000028
300.000001
299.9999977
299.9999964
299.9999962
299.9999977
299.9999982
299.9999987
300.0000018
300.0000027
300.0000018
300.0000012
300.0000009
300.0000008
300.0000009
300.0000015
300.0000026
300.0000043
300.0000047
300.0000023
300.0000008
300.0000003
300.0000002
300.0000002
300.0000002
300.0000001
300
300
300.0000002
300.0000006
300.0000009
300.0000012
300.0000012
300.0000007
299.9999999
299.9999975
299.9999979
299.999998
299.9999981
300.0000018
300.0000013
300.0000002
299.9999995
299.9999991
299.9999988
299.9999986
299.9999986
299.9999988
299.9999998
300.0000029
300.0000026
300.0000009
300.0000003
300.0000002
300.0000002
300.0000002
300.0000001
300.0000001
300
300.0000004
300.0000007
300.0000008
300.0000013
300.0000014
300.0000015
300.0000015
299.9999999
299.9999985
299.9999987
299.9999982
300.0000018
300.0000026
300.0000016
300.0000007
300.0000007
300.0000005
299.9999998
299.9999993
299.9999992
299.9999999
300.0000023
300.000004
300.0000019
300.0000008
300.0000004
300.0000003
300.0000002
300.0000002
300.0000001
300.0000001
300.0000008
300.0000009
300.0000008
300.0000014
300.0000015
300.0000017
300.0000016
300.0000048
300.0000006
299.9999993
299.9999986
300.0000018
300.0000016
300.0000012
300.000001
300.0000011
300.0000013
300.0000008
300
299.9999996
299.9999998
300.0000012
300.000004
300.0000039
300.0000021
300.0000011
300.0000006
300.0000004
300.0000003
300.0000002
300.0000002
300.0000013
300.000001
300.0000008
300.0000014
300.0000017
300.0000019
300.0000017
300.000002
300.0000011
300.0000003
300.0000001
300.0000019
300.000002
300.0000013
300.0000011
300.0000011
300.0000012
300.0000011
300.0000005
299.9999999
299.9999996
300.0000001
300.0000014
300.0000023
300.0000047
300.0000032
300.0000016
300.0000009
300.0000006
300.0000004
300.0000004
300.0000016
300.000001
300.000001
300.0000016
300.0000022
300.0000025
300.0000017
300.0000016
300.0000016
300.0000012
300.0000013
300.0000006
300.000002
300.0000013
300.0000012
300.0000011
300.0000011
300.0000011
300.0000008
300.0000003
299.9999998
299.9999997
299.9999999
299.9999997
300.0000035
300.0000044
300.0000039
300.0000019
300.0000013
300.000001
300.0000007
300.0000016
300.0000012
300.0000015
300.0000025
300.0000034
300.000003
300.0000018
300.0000014
300.0000018
300.0000019
300.0000021
300.0000015
300.0000018
300.0000013
300.0000012
300.0000011
300.0000011
300.0000011
300.000001
300.0000008
300.0000004
299.9999999
299.9999994
299.9999988
300.0000027
300.0000033
300.000004
300.0000031
300.0000017
300.0000009
300.000001
300.0000019
300.0000017
300.0000028
300.0000048
300.000006
300.0000036
300.000002
300.0000015
300.0000019
300.0000023
300.0000028
300.0000019
300.0000016
300.0000013
300.0000012
300.0000011
300.000001
300.000001
300.0000011
300.0000011
300.000001
300.0000006
299.9999995
299.9999987
300.0000023
300.0000036
300.0000048
300.0000038
300.0000013
300.000001
300.0000014
300.0000026
300.0000026
300.000004
300.0000066
300.00001
300.0000043
300.0000024
300.0000018
300.0000021
300.0000025
300.0000032
300.0000021
300.0000016
300.0000013
300.0000012
300.0000011
300.000001
300.000001
300.0000011
300.0000013
300.0000017
300.0000017
300
299.9999989
300.0000022
300.0000011
300.0000008
300.0000004
300.0000001
300.0000002
300.0000012
300.0000011
300.0000013
300.0000021
300.0000055
300.0000116
300.0000045
300.000003
300.0000022
300.0000021
300.0000009
299.9999992
300.0000022
300.0000016
300.0000013
300.0000012
300.0000012
300.0000011
300.0000011
300.0000011
300.0000014
300.0000021
300.0000029
300.0000012
299.9999993
300.0000023
300.000001
300.0000006
300.0000003
300.0000001
300.0000001
300.0000009
300.0000009
300.0000014
300.0000026
300.0000077
300.000014
300.0000092
300.0000043
300.0000033
300.0000028
300.0000017
300.0000003
300.0000023
300.0000026
300.0000024
300.000002
300.0000012
300.0000012
300.0000012
300.0000012
300.0000014
300.0000022
300.0000037
300.0000029
300
300.0000026
300.0000013
300.0000007
300.0000004
300.0000002
300.0000001
300.000001
300.0000013
300.0000021
300.0000042
300.0000108
300.0000151
300.0000098
300.0000119
300.0000034
300.0000031
299.9999997
300.0000008
300.0000025
300.0000032
300.0000029
300.0000027
300.0000027
300.0000013
300.0000013
300.0000013
300.0000015
300.0000023
300.0000038
300.0000037
300.0000006
300.0000031
300.000002
300.0000011
300.0000006
300.0000004
300.0000003
300.0000018
300.0000024
300.0000037
300.0000071
300.0000128
300.0000164
300.0000096
300.000015
300.0000062
300.0000031
300.0000021
300.0000015
300.0000027
300.000003
300.0000029
300.0000026
300.0000026
300.0000027
300.0000017
300.0000015
300.0000017
300.0000024
300.0000036
300.0000034
300.0000013
300.0000041
300.0000032
300.0000019
300.0000011
300.0000008
300.0000007
300.0000031
300.0000039
300.0000059
300.0000093
300.0000143
300.0000182
300.0000097
300.0000158
300.0000151
300.0000034
300.0000028
300.0000034
300.0000028
300.0000029
300.0000025
300.0000025
300.0000025
300.0000027
300.0000027
300.0000029
300.0000019
300.0000024
300.0000033
300.0000033
300.0000023
300.0000053
300.0000052
300.0000031
300.0000019
300.0000014
300.0000013
300.0000039
300.0000049
300.0000059
300.0000078
300.0000135
300.00002
300.0000101
300.0000157
300.000018
300.0000044
300.0000024
300.0000028
300.0000026
300.0000023
300.0000023
300.0000025
300.0000028
300.000003
300.0000029
300.000003
300.0000022
300.0000025
300.0000031
300.0000034
300.0000033
300.0000057
300.000007
300.0000051
300.000003
300.000002
300.0000018
300.0000037
300.0000037
300.0000037
300.0000049
300.0000089
300.0000203
300.0000106
300.0000131
300.0000164
300.0000032
300.0000022
300.0000025
300.0000022
300.000002
300.0000024
300.0000028
300.0000027
300.0000025
300.0000025
300.0000024
300.0000022
300.000002
300.0000019
300.0000018
300.0000017
300.0000017
300.0000017
300.0000017
300.0000018
300.0000018
300.0000019
300.000002
300.000002
300.0000021
300.0000022
300.0000029
300.0000062
300.0000081
300.0000025
300.0000021
300.0000021
300.0000021
300.000002
)
;

boundaryField
{
    walls
    {
        type            zeroGradient;
    }
    wallFilmFace_top
    {
        type            zeroGradient;
    }
    region0_to_wallFilmRegion_wallFilmFace
    {
        type            zeroGradient;
    }
    mirrorFace_top
    {
        type            zeroGradient;
    }
    region0_to_wallFilmRegion_mirrorFace
    {
        type            zeroGradient;
    }
    procBoundary1to0
    {
        type            processor;
        value           nonuniform List<scalar> 
52
(
300.0000022
300.0000037
300.0000044
300.0000045
300.0000031
300.0000022
300.0000031
300.0000081
300.0000081
300.0000088
300.0000062
300.0000044
300.000001
300.000001
300.0000007
300.0000002
300.0000002
300.0000003
300.0000006
300.0000008
300.0000041
300.0000041
300.0000043
300.0000166
300.0000166
300.0000259
300.0000145
300.0000094
299.9999973
299.9999973
299.9999969
300.0000018
300.0000018
300.0000094
300.0000039
300.0000039
299.9999954
299.9999964
299.9999968
299.9999968
299.9999956
299.9999956
299.9999952
299.9999965
300.0000092
300.0000092
299.9999985
300.0000104
300.0010783
300.0000012
299.9999985
300.0000002
)
;
    }
    procBoundary1to2
    {
        type            processor;
        value           nonuniform List<scalar> 
33
(
300.0000046
300.0000015
300.0000015
300.0000011
300.0000011
299.9999996
299.9999984
299.9999987
299.9999987
299.9999969
299.9999978
299.9999976
300.0000117
300.0000051
300.0000026
299.9999986
299.999999
299.9999985
299.9999985
299.9999988
300.0000011
300.0000019
300.0000024
300.000003
300.0000038
300.0000041
300.000004
299.9999997
299.9999988
300.0000012
300.0000035
300.0000042
300.0000018
)
;
    }
}


// ************************************************************************* //
