/*--------------------------------*- C++ -*----------------------------------*\
  =========                 |
  \\      /  F ield         | OpenFOAM: The Open Source CFD Toolbox
   \\    /   O peration     | Website:  https://openfoam.org
    \\  /    A nd           | Version:  8
     \\/     M anipulation  |
\*---------------------------------------------------------------------------*/
FoamFile
{
    version     2.0;
    format      ascii;
    class       volVectorField;
    location    "0.9/wallFilmRegion";
    object      U;
}
// * * * * * * * * * * * * * * * * * * * * * * * * * * * * * * * * * * * * * //

dimensions      [0 1 -1 0 0 0 0];

internalField   nonuniform List<vector> 
1369
(
(-0.3066634513 -0.7839743758 0)
(-0.3305012905 0.796210174 0)
(-0.4474495794 -0.706857155 0)
(-0.5829101605 -0.5545341703 0)
(-0.6757238588 -0.441854707 0)
(-0.7393081078 -0.4219239718 0)
(-0.7808848224 -0.5602214409 0)
(-0.2630349969 -0.7304786801 0)
(-0.2298824242 0.7435352298 0)
(-0.3725356982 -0.884947247 0)
(-0.523264381 -0.8018060206 0)
(-0.6264373872 -0.7530287952 0)
(-0.6926465746 -0.7682219926 0)
(-0.9606007952 -0.9383986836 0)
(-5.468184172 -0.8491890547 0)
(-0.6508610011 -0.8358679951 0)
(-0.5307045015 -0.5880745319 0)
(-0.461923084 -0.4185696418 0)
(-0.2267521535 -0.6961803919 0)
(-0.04828755979 0.7123637003 0)
(-0.2301404601 -1.117346239 0)
(-0.3868987538 -1.146527524 0)
(-0.5212189502 -1.169572595 0)
(-0.6764209386 -1.315328202 0)
(-2.425277695 -2.550695266 0)
(-4.221900276 -0.8261681667 0)
(-0.5315823817 -0.09312238131 0)
(-0.4832781771 -0.4805328444 0)
(-0.5571656293 -0.4850930209 0)
(-0.6921787996 -0.4851425396 0)
(-0.8367277021 -0.4783561483 0)
(-0.1947423663 -0.6898918021 0)
(0.2289793039 0.5588003916 0)
(0.009957125884 -1.123565553 0)
(-0.2212844385 -1.148577202 0)
(-0.4320993026 -1.705329157 0)
(-0.5018469315 -5.335435474 0)
(-0.4920795062 -4.441758785 0)
(-0.4906104625 -0.8236730478 0)
(-0.4882351328 2.133062988 0)
(-0.4783564076 1.775986827 0)
(-0.620622349 -0.5829905906 0)
(-0.8330384641 -0.6532694088 0)
(-1.094135958 -0.7227480207 0)
(-1.297322902 -0.7282286985 0)
(-1.256795706 -0.5910583259 0)
(-0.4851196383 -0.1758830644 0)
(-0.5545404821 -0.08333032209 0)
(-0.1718441388 -0.6967494364 0)
(0.01696040826 -0.2540275638 0)
(-0.1782337845 -1.09582204 0)
(-0.2549128698 -1.062853181 0)
(-0.4251050666 -1.016228809 0)
(-0.5857919499 -0.8935791983 0)
(0.1321870388 -0.7869881255 0)
(3.497709459 -0.8146021421 0)
(-0.3579679017 -0.611586993 0)
(-0.4666552841 -0.6379402284 0)
(-0.6263273415 -0.7057810721 0)
(-0.8660194426 -0.8059625348 0)
(-1.081471442 -0.8629714067 0)
(-1.185636383 -0.8023780782 0)
(-1.170980429 -0.6926692976 0)
(-0.5927780556 -0.3139602857 0)
(-0.652439668 -0.2512369385 0)
(-0.6873726996 0.1505485805 0)
(-0.6058775862 0.1866669573 0)
(-0.2025741637 -0.7413978772 0)
(-0.4949179916 0.7506959092 0)
(-0.5036560095 -0.9098735363 0)
(-0.4967836223 -0.8566443241 0)
(-0.598922804 -0.7977740517 0)
(-0.7912364665 -0.7707597732 0)
(-0.8713097356 -0.7518244538 0)
(0.3822556569 -0.7470320852 0)
(-0.332939095 -0.6653639321 0)
(-0.4495198361 -0.7379369161 0)
(-0.6428774164 -0.8539967899 0)
(-0.8421501773 -0.9276654678 0)
(-0.980452777 -0.9280673928 0)
(-0.9990613269 -0.8180574421 0)
(-0.9692511514 -0.6977763665 0)
(-0.4870204754 -0.346861023 0)
(-0.5006413921 -0.2919935264 0)
(-0.5392625293 -0.007475455083 0)
(-0.4336100114 -0.0005741825525 0)
(-0.6296352106 0.431394924 0)
(-0.5624239314 0.5843124493 0)
(-0.1872401096 0.2738256705 0)
(0.005146878517 0.02693449288 0)
(-0.1995136071 -0.7989480903 0)
(-0.2988881346 0.810815118 0)
(-0.4352196678 -0.8104099259 0)
(-0.525167521 -0.7667163378 0)
(-0.6923972178 -0.7875983976 0)
(-0.8446560095 -0.8020419216 0)
(-0.9520649606 -0.8005488213 0)
(-0.8727056497 -0.7705516733 0)
(-0.3156480523 -0.7754455012 0)
(-0.4588589623 -0.8907804428 0)
(-0.6260974479 -1.000056016 0)
(-0.7658457266 -1.025336896 0)
(-0.8192132485 -0.9488522895 0)
(-0.8131982033 -0.8242697899 0)
(-0.7871452186 -0.6910949767 0)
(-0.3370036474 -0.2093768278 0)
(-0.2606343903 -0.1699571501 0)
(-0.203282167 -0.2252671691 0)
(-0.1949917105 -0.1962745886 0)
(-0.5151774684 0.3406718884 0)
(-0.4192813768 0.5941466368 0)
(-0.02015359523 -0.07897874063 0)
(0.0692034435 -0.1376995889 0)
(0.04382982446 -0.1979998683 0)
(-0.2252532849 -0.3904577186 0)
(-0.1895623884 -0.8506720777 0)
(-0.2806093559 0.8564651663 0)
(-0.3403074484 -0.7146064471 0)
(-0.4903683583 -0.8224646133 0)
(-0.6497238472 -0.8681688809 0)
(-0.8212410242 -0.8891648781 0)
(-0.9332379091 -0.863530437 0)
(-0.8235157292 -0.8197523336 0)
(-0.3206319613 -0.8940042282 0)
(-0.4467453102 -1.041075662 0)
(-0.5720361005 -1.129373164 0)
(-0.6457601905 -1.08224552 0)
(-0.6597712496 -0.9596010326 0)
(-0.6495486707 -0.8328010943 0)
(-0.6379740282 -0.6923223736 0)
(-0.2830694516 0.2175210389 0)
(-0.202302235 0.1175542823 0)
(-0.1129330211 -0.08042478351 0)
(-0.08543303148 -0.1706495252 0)
(0.3685095027 -0.4901531046 0)
(0.07192008309 0.2058051284 0)
(0.04998896119 -0.1808250075 0)
(0.004197304134 -0.212204452 0)
(-0.1059939031 -0.2901628542 0)
(-0.2048327198 -0.2941894324 0)
(-0.1769364916 -0.3243343494 0)
(-0.183248549 -0.8857302276 0)
(-0.1629032937 -0.2208691956 0)
(-0.2173467436 -0.8025705022 0)
(-0.3620204185 -0.9186404777 0)
(-0.5318680087 -0.9883643192 0)
(-0.7169993149 -0.9990569632 0)
(-0.8409886401 -0.9313054324 0)
(-0.7292037185 -0.8481040805 0)
(-0.3139769874 -0.9332504989 0)
(-0.4092949578 -1.094057712 0)
(-0.4774001921 -1.141346154 0)
(-0.5294312852 -1.109406401 0)
(-0.5350411999 -0.9654254382 0)
(-0.5215061618 -0.8474532527 0)
(-0.5122280215 -0.7246420208 0)
(-0.3273826406 0.5981341766 0)
(-0.2720552616 0.4786826614 0)
(-0.1565780924 0.2983025705 0)
(-0.08515956251 -0.07524141614 0)
(-0.07682252909 -0.2762790854 0)
(-0.07219282457 -0.2787702008 0)
(-0.07598608582 -0.2818002448 0)
(-0.0841483791 -0.2923089445 0)
(-0.1162339705 -0.1739872879 0)
(0.1673195303 -0.06025232264 0)
(0.5583144652 -0.07564299652 0)
(-0.1673435913 -0.8895507154 0)
(-0.06629356988 -0.7140325949 0)
(-0.1116110391 -0.8995656938 0)
(-0.2301421344 -1.060631746 0)
(-0.378894952 -1.160635935 0)
(-0.5467534146 -1.157809386 0)
(-0.6675081522 -1.012337499 0)
(-0.6147175109 -0.7844717122 0)
(-0.3127810641 -0.6058598482 0)
(-0.3546356872 -0.6142896365 0)
(-0.3588896134 -0.572704733 0)
(-0.3923291519 -1.10243759 0)
(-0.4092155286 -0.9602317329 0)
(-0.4070680676 -0.8469659134 0)
(-0.3999370567 -0.7440638128 0)
(-0.3537453236 0.69325368 0)
(-0.3585463543 0.809671656 0)
(-0.3437978541 0.9282374735 0)
(-0.42350055 0.5028152843 0)
(-0.1585236765 -0.3141764736 0)
(-0.122059997 -0.3816248031 0)
(-0.1211222121 -0.4394039122 0)
(-0.1160299395 -0.5317425449 0)
(-0.01153882762 -0.2787664079 0)
(0.02002696668 0.2616215829 0)
(0.4649279204 -0.002263393168 0)
(0.2818387426 -0.08636801437 0)
(-0.1521996879 -0.8876051831 0)
(-0.199025502 -1.046995764 0)
(-0.2487285767 -1.285475706 0)
(-0.2813954224 -1.496864967 0)
(-0.3072138201 -1.600758648 0)
(-0.3226944692 -1.488838497 0)
(-0.3297637102 -1.19846188 0)
(-0.3411416562 -0.9067163135 0)
(-0.3499977461 0.8841069035 0)
(-0.3618436662 1.138724523 0)
(-0.3169309741 1.080807468 0)
(0.1953759053 -0.375012296 0)
(0.4070282557 -0.8691958727 0)
(0.4074089864 -0.7931210912 0)
(0.3967041475 -0.714055501 0)
(0.1515864493 -0.3574061269 0)
(0.1844386405 -0.3562106015 0)
(0.1749639985 0.2290089717 0)
(-0.2326724353 0.3624013929 0)
(-0.2006541084 0.4178385946 0)
(-0.1649368071 0.5182351992 0)
(-0.1287454045 0.3275835739 0)
(0.133668013 -0.2285152863 0)
(0.3429854477 -0.4460974691 0)
(0.1081362521 0.3560884231 0)
(0.4601862364 0.03947970667 0)
(0.3861896924 0.1467784301 0)
(-0.1337609721 -0.896584767 0)
(-0.1888888885 -0.922756565 0)
(0.01327867831 -1.238796353 0)
(0.2400456199 -1.308475112 0)
(0.3225837967 -1.309068492 0)
(0.3461216151 -1.222360339 0)
(0.3606443545 -1.082877187 0)
(0.3592221854 -0.9016961186 0)
(-0.04192179254 -0.7055006091 0)
(0.2018524603 -0.646962108 0)
(0.3512250417 -0.6403171038 0)
(0.4560802996 -0.7482906158 0)
(0.5520438509 -0.7859773357 0)
(0.5443891959 -0.7106358063 0)
(0.4173317239 -0.4690237841 0)
(-0.2267356572 0.3123256953 0)
(0.03567310318 0.195019315 0)
(0.02531370313 0.1615139097 0)
(-0.04319729574 0.1901806118 0)
(-0.09024968212 0.3792064508 0)
(-0.1036468547 0.5886928091 0)
(0.1445130949 0.1642429762 0)
(0.3314872095 -0.4568395304 0)
(0.3571217607 -0.4932492954 0)
(0.1971665528 0.2402355995 0)
(0.4480538855 0.1703693524 0)
(0.193347857 0.02667909146 0)
(-0.1071117893 -0.8620253148 0)
(-0.2496835114 -0.686554236 0)
(-0.1629553317 -1.184112439 0)
(0.2421815238 -1.250877908 0)
(0.5138539201 -1.248204335 0)
(0.6075265477 -1.169705381 0)
(0.6461903132 -1.050126564 0)
(0.6153673173 -0.9120688862 0)
(-0.2014868749 -0.9526749147 0)
(0.1373762153 -0.7410771237 0)
(0.399473248 -0.6907734194 0)
(0.5554670851 -0.7259539355 0)
(0.666267896 -0.7295035296 0)
(0.7011970762 -0.6796394341 0)
(0.6355031489 -0.5060508653 0)
(-0.3213969775 0.452713153 0)
(-0.1411573611 0.2645423687 0)
(-0.122970977 0.2148685047 0)
(-0.08761146094 0.09448096223 0)
(-0.08203236652 0.2582674622 0)
(-0.07618315119 0.6588862744 0)
(0.0189220594 0.1501387619 0)
(0.2379778962 -0.4173542917 0)
(0.314714531 -0.5188556318 0)
(0.1823614529 0.2641346992 0)
(0.05896113706 0.2094017543 0)
(0.118854957 -0.0291867973 0)
(0.1330947448 -0.06062933541 0)
(-0.08979241407 -0.8089924587 0)
(-0.3635825703 -0.6452045089 0)
(-0.3849954914 -1.042281067 0)
(-0.2657175126 -1.0521143 0)
(0.2978947898 -1.127327995 0)
(0.7569160475 -1.134045652 0)
(0.8651036465 -1.033210875 0)
(0.8696646429 -0.9262324849 0)
(-0.1851479427 -1.261252093 0)
(0.002009091884 -1.000571684 0)
(0.3928376642 -0.7420228421 0)
(0.616324722 -0.6956917277 0)
(0.7574941461 -0.6872806173 0)
(0.8410731691 -0.653497347 0)
(0.8505799831 -0.5438379855 0)
(-0.1556327894 0.01063207831 0)
(0.1465422596 0.2802887811 0)
(0.06059935 0.4559368774 0)
(-0.08211456967 0.5834661978 0)
(-0.1172602517 0.6218035433 0)
(-0.1477390066 0.6571799456 0)
(-0.2013927172 0.6731053178 0)
(-0.01023284776 0.1604642268 0)
(0.2100821722 -0.2377795456 0)
(0.009832034299 0.1662079377 0)
(-0.04091994127 0.1427913715 0)
(0.05043237434 -0.03912408197 0)
(0.1556627416 -0.08136800367 0)
(-0.1686947111 -0.02034123657 0)
(-0.07977993411 -0.7899169319 0)
(-0.4324440253 -0.7407851778 0)
(-0.4846628226 -1.011778717 0)
(-0.4316344668 -1.006308788 0)
(-0.2489794584 -0.9707911844 0)
(0.4777948191 -1.029644735 0)
(0.9407643486 -1.009844656 0)
(1.025822973 -0.9227910469 0)
(0.2945079195 -0.8630299119 0)
(0.3046571779 -0.7804326869 0)
(0.4063732139 -0.6823703426 0)
(0.6329320179 -0.6483525004 0)
(0.8074593858 -0.642387895 0)
(0.9334054229 -0.6211291777 0)
(1.000597143 -0.553750268 0)
(-0.1404085124 -0.2026961336 0)
(0.2127796849 0.1964525138 0)
(0.1913242911 0.2745841082 0)
(0.0208563844 0.3580863894 0)
(-0.07933511948 0.303641855 0)
(-0.04109076884 0.2957638741 0)
(0.01262385834 0.2345676427 0)
(0.07953731153 0.08023954121 0)
(0.1488589027 -0.2199505827 0)
(0.1084625597 -0.07077754893 0)
(0.1011898309 -0.1475819291 0)
(0.04976567292 -0.07363013952 0)
(0.04778502354 -0.08107423167 0)
(0.3857536407 -0.01514672126 0)
(-0.07430077335 -0.820386614 0)
(-0.5196014255 -0.8090831045 0)
(-0.5532318049 -1.005698183 0)
(-0.4827208663 -0.9650946264 0)
(-0.3265665339 -0.955627607 0)
(-0.04088396094 -0.9215675404 0)
(0.7385300368 -0.9413870289 0)
(0.8656488012 -0.8862655427 0)
(0.3777929849 -0.7463063329 0)
(0.3633420368 -0.6672952288 0)
(0.3674075496 -0.5790786373 0)
(0.5128169526 -0.5425822587 0)
(0.7067521968 -0.5457686503 0)
(0.8588020677 -0.5350067254 0)
(0.9173890139 -0.46854679 0)
(0.248927131 -0.08350358731 0)
(0.4353146682 0.006217865415 0)
(0.2824291956 0.05649890187 0)
(0.1160315406 0.3697840604 0)
(0.05553695206 0.1031586241 0)
(0.0735173346 -0.0279736106 0)
(-0.04179830615 0.2543893877 0)
(-0.1268644571 0.5056191846 0)
(0.1250098716 -0.1172797792 0)
(0.2737096365 -0.2157786539 0)
(0.1754165019 -0.2743894753 0)
(-0.02664040857 0.1323263038 0)
(0.05541847321 -0.08677356979 0)
(-0.08641263389 -0.07128874978 0)
(-0.05979913398 -0.8989758265 0)
(-0.5585173464 -0.7940024352 0)
(-0.553128533 -0.9953565956 0)
(-0.4445169869 -0.9184139758 0)
(-0.2670058393 -0.9005612082 0)
(-0.005440366806 -0.886396195 0)
(0.4893698635 -0.8498451124 0)
(0.5229405713 -0.7895426437 0)
(0.3833345717 -0.6746910992 0)
(0.2592407725 -0.5823322761 0)
(0.06161095527 -0.5223191497 0)
(-0.09035701181 -0.4978743152 0)
(-0.07569334851 -0.5043554922 0)
(0.08637685362 -0.4730622988 0)
(0.4100202592 -0.312845481 0)
(-0.1243137036 -0.1952413255 0)
(0.1338966174 0.298006542 0)
(0.03167819782 0.1138269671 0)
(-0.1979616586 0.03606539545 0)
(-0.1862670544 0.1783224712 0)
(-0.1904301986 0.3327538161 0)
(-0.2274655361 0.4857117226 0)
(-0.2819879725 0.589955127 0)
(-0.2701750473 0.6338534142 0)
(-0.2417362648 0.5973021493 0)
(-0.1613492324 0.5188790223 0)
(-0.1248157309 0.4040462696 0)
(-0.07372424633 0.2580330774 0)
(-0.001668652705 0.1276967884 0)
(-0.2269804094 0.04978229571 0)
(-0.2336755776 -0.0195250409 0)
(-9.648473444e-05 3.141868957e-06 0)
(-0.1176990089 -0.03757806777 0)
(0.01362056889 0.3888946494 0)
(-0.05631740667 -0.908715038 0)
(-0.533909097 -0.8546515983 0)
(-0.5149302831 -0.9841206558 0)
(-0.3889374571 -0.8606507301 0)
(-0.2263131672 -0.808545736 0)
(-0.04258666577 -0.7987723047 0)
(0.1235051228 -0.8325664552 0)
(0.2491325307 -0.8197260784 0)
(0.1683667791 -0.6550900605 0)
(-0.00621900746 -0.552938683 0)
(-0.1540492863 -0.4924135934 0)
(-0.3171169718 -0.5011154231 0)
(-0.4378632116 -0.5330413222 0)
(-0.5591679163 -0.543632719 0)
(-0.2543694468 -0.3014876397 0)
(-0.4406360182 -0.2701577374 0)
(-0.4968583237 -0.2554031535 0)
(-0.492879862 -0.2505179812 0)
(-0.4288544427 -0.255013308 0)
(-0.3104722421 -0.2961782125 0)
(0.1427324133 0.1842093297 0)
(0.04994044944 0.1702214637 0)
(0.06113675363 0.4852284651 0)
(0.09984137218 0.4882018098 0)
(0.2021094078 0.4473484148 0)
(0.1735535837 -0.01939253998 0)
(0.1296353071 0.1298721833 0)
(0.1231455523 -0.00291675369 0)
(0.2885102813 -0.07942168107 0)
(0.3333727422 -0.07967755188 0)
(-0.1869002631 -0.02981321509 0)
(0.2811922974 -0.05735281957 0)
(0.4621815189 -0.07803976581 0)
(-0.07929746354 0.3344879328 0)
(-0.02545198795 -0.9467054146 0)
(-0.3407784182 -0.9012703665 0)
(-0.3515341349 -1.065088313 0)
(-0.3332008528 -0.8308021918 0)
(-0.2794324228 -0.6058154431 0)
(-0.1754693954 -0.4401958722 0)
(-0.08213485682 -0.440481504 0)
(0.03927907621 -0.6034060443 0)
(0.09628811417 -0.6649843542 0)
(-0.07035514126 -0.5498199795 0)
(-0.2538968786 -0.4501065204 0)
(-0.3520395857 -0.3608875724 0)
(-0.3850114995 -0.3532753188 0)
(-0.6649402267 -0.5632070178 0)
(-0.05335888366 -0.4005940953 0)
(-0.3343717142 -0.3066423703 0)
(-0.5255311079 -0.2592920005 0)
(-0.5279273614 -0.2495985831 0)
(-0.4086361498 -0.2900457135 0)
(-0.2190091353 -0.603072465 0)
(-0.09917318147 -1.018945511 0)
(-0.0836969596 -0.5417227361 0)
(-0.07356144983 -0.2103638246 0)
(-0.007829858351 -0.1651794986 0)
(0.1028963118 0.5645271351 0)
(0.2807317109 -0.1271374582 0)
(0.1727943414 -0.06047013082 0)
(0.10419963 -0.21351097 0)
(-0.1876698695 -0.6068744719 0)
(-0.1041707356 -0.3794896522 0)
(-0.08924477256 -0.060014986 0)
(0.2784184802 -0.05292165612 0)
(0.3913060614 -0.0503690416 0)
(-0.1234129336 -0.03456308692 0)
(0.04423445253 -1.042784717 0)
(0.008193158627 -0.9000481093 0)
(0.01718894146 -1.204759191 0)
(0.02037107182 -1.088493853 0)
(0.02241323024 -1.009077772 0)
(0.02407635898 -0.9280963447 0)
(-0.02476468602 0.9167225111 0)
(-0.1017435318 1.008099617 0)
(-0.06746705227 0.1917220052 0)
(-0.1085563214 -0.4929317344 0)
(-0.2154283448 -0.3002387756 0)
(-0.2513515538 -0.1728903041 0)
(-0.2562795008 -0.1853679371 0)
(-0.575691939 -0.4587967803 0)
(0.08306977582 -0.4466032828 0)
(-0.2229609712 -0.3355330577 0)
(-0.520455926 -0.261605784 0)
(-0.535945376 -0.2297129512 0)
(-0.4180694395 -0.1787925651 0)
(-0.185152508 -0.1464457284 0)
(0.02705962044 -0.1499130337 0)
(-0.06033151313 0.0426632657 0)
(-0.06185077975 -0.06517423035 0)
(-0.153982988 -0.004522778429 0)
(0.04743555015 0.1949043803 0)
(0.2817114899 -0.06081259337 0)
(0.1328641749 -0.2293010108 0)
(-0.07643536422 -0.3939219021 0)
(0.0875707509 -0.1143898584 0)
(0.09368010534 -0.1740589225 0)
(0.1251596651 -0.1581046439 0)
(0.216447036 -0.07040063185 0)
(0.3175642659 0.1587756969 0)
(0.1177504827 -0.9755990085 0)
(0.2606743025 -0.9526362273 0)
(0.2766519642 -1.130510693 0)
(0.2553421637 -0.9750681771 0)
(0.2030779881 -0.8186433239 0)
(0.1234348915 -0.6422807154 0)
(0.06953295374 -0.5057477564 0)
(0.0567642848 -0.4265166122 0)
(0.01186296257 -0.3570493407 0)
(-0.07519769972 -0.281174314 0)
(-0.103199391 -0.1528036732 0)
(-0.1229866495 0.0533533509 0)
(-0.1660851225 -0.06004314943 0)
(-0.3742752558 -0.1707264956 0)
(0.2363320593 -0.4821018804 0)
(-0.07106000577 -0.3696839131 0)
(-0.5022520135 -0.2565130981 0)
(-0.5296378647 -0.1928853181 0)
(-0.4194150082 -0.1069083449 0)
(-0.1823413092 -0.07186026525 0)
(0.06811483744 -0.1872238408 0)
(-0.01475501459 0.1822721879 0)
(-0.1665039291 -0.03595091019 0)
(-0.1767186284 0.04541747809 0)
(-0.005001482685 0.06333345789 0)
(0.2358055044 0.01032095995 0)
(0.1967739241 -0.1870543081 0)
(0.01356300519 -0.176869111 0)
(-0.04647411012 -0.1520500362 0)
(-0.06992995581 -0.1296736554 0)
(-0.05919852552 -0.1137438723 0)
(0.09437421737 -0.1006555106 0)
(0.1577109692 -1.004078698 0)
(0.432195255 -0.9051451733 0)
(0.4484054355 -1.118909901 0)
(0.4165436019 -0.9832804086 0)
(0.3382022256 -0.8513078138 0)
(0.2159180554 -0.6990705947 0)
(0.1201006681 -0.5573849 0)
(0.09414747317 -0.4537274956 0)
(0.01617405559 -0.3814492383 0)
(-0.07732409711 -0.3446020905 0)
(-0.2027223454 -0.3576179077 0)
(0.03517372416 0.3339800222 0)
(-0.06865443541 0.07520296939 0)
(-0.1167630272 0.1011659792 0)
(0.3796975587 -0.5005645091 0)
(0.1078920286 -0.3968759593 0)
(-0.4505784826 -0.2081370069 0)
(-0.4845722073 -0.07904994426 0)
(-0.4522917259 0.0453900887 0)
(-0.3485014405 0.1180718131 0)
(0.02632123085 -0.04346691585 0)
(-0.352291333 0.2378718187 0)
(-0.1931938508 0.007495647703 0)
(-0.1315309253 -0.08268003533 0)
(0.1507152655 -0.05426475757 0)
(0.2006699558 0.05404755623 0)
(0.2650908271 0.02797366491 0)
(0.3285008702 -0.207528486 0)
(-0.04892305428 -0.09891316358 0)
(-0.08749420912 -0.1052395734 0)
(-0.09908649182 -0.1033780869 0)
(0.03950564606 -0.05009979572 0)
(0.1517797702 -1.031138174 0)
(0.6072093749 -0.8783625277 0)
(0.6170275863 -1.091932835 0)
(0.5587795634 -0.9528071069 0)
(0.4120501879 -0.7911481237 0)
(0.1722341361 -0.5844625916 0)
(-0.0217986219 -0.4167820464 0)
(-0.08566896111 -0.3422392836 0)
(-0.1306900014 -0.4717673252 0)
(-0.2623655711 -0.5498853574 0)
(-0.3927472679 -0.664149435 0)
(-0.2564908197 -0.6792621973 0)
(0.1112548775 -0.338132138 0)
(-0.08817035391 -0.6191154964 0)
(0.465283977 -0.5077375664 0)
(0.2745023082 -0.4089233475 0)
(-0.2773940564 0.1028112758 0)
(-0.2809036412 0.2829754331 0)
(-0.2703321617 0.3521186101 0)
(-0.2652993941 0.3843185073 0)
(-0.1895596889 0.2479496623 0)
(-0.1904925541 0.2183554665 0)
(-0.1402765179 0.03022866366 0)
(-0.2280252182 0.006711773996 0)
(0.06843265104 -0.05729892134 0)
(0.246985359 -0.004772609284 0)
(0.2332870742 0.1329544289 0)
(0.268839999 -0.0844299554 0)
(0.07825250401 -0.1233226709 0)
(0.09235443549 -0.3087095449 0)
(0.1163883059 -0.3301348372 0)
(0.1016587379 -0.4182645432 0)
(0.1653591265 -0.8884470332 0)
(0.7830739504 -0.8783438796 0)
(0.7415899328 -1.147535359 0)
(0.6174644061 -1.105424832 0)
(0.4423443841 -1.101188092 0)
(0.25903734 -1.112492126 0)
(0.1483469419 -1.119621973 0)
(0.1263307708 -1.097505191 0)
(0.1454771741 -1.148637778 0)
(0.2196179864 -1.263796314 0)
(0.2231323429 -1.171460569 0)
(0.2093321037 -1.026981222 0)
(0.1980394803 -0.8387341779 0)
(0.2160522968 -0.5848249856 0)
(0.3651030104 0.2705056198 0)
(0.3170742532 0.5635033342 0)
(0.3058491145 0.7831648482 0)
(0.296674276 0.9376487561 0)
(0.288187573 1.054384679 0)
(0.27743841 1.107973245 0)
(0.2637134997 1.158155343 0)
(0.1900855458 0.9444177151 0)
(-0.08229501241 0.09243277797 0)
(-0.1087351741 0.0700953491 0)
(-0.05887352714 0.04971391756 0)
(0.2992699703 -0.1212671391 0)
(0.1944097437 0.1238108775 0)
(0.1828572767 -0.1195415158 0)
(0.2097245803 -0.247603534 0)
(0.1163840366 -0.2506555976 0)
(0.07477526594 -0.2635096291 0)
(0.2192577228 -0.8697607805 0)
(0.6851927685 -0.9403731826 0)
(0.7158251137 -1.148423318 0)
(0.6486998919 -1.204741519 0)
(0.4996744688 -1.251581942 0)
(0.3449007722 -1.284389848 0)
(0.2712774034 -1.293197691 0)
(0.2708487933 -1.266717232 0)
(0.2996040968 -1.239553482 0)
(0.3485687069 -1.188498073 0)
(0.3901471893 -1.078850385 0)
(0.4288676425 -0.9427752629 0)
(0.4710387477 -0.7831284775 0)
(0.5141173838 -0.5657327933 0)
(0.2718194869 0.506208824 0)
(0.2379187315 0.6381627734 0)
(0.1721277415 0.7550694558 0)
(0.1027465819 0.7846586326 0)
(0.06594702817 0.549553408 0)
(-0.1928229225 0.2845988862 0)
(-0.06508697032 0.5460531588 0)
(-0.1647151632 -0.03190838529 0)
(-0.09176362213 0.04909982181 0)
(-0.08134991128 0.01406021118 0)
(-0.04686548956 0.04741757229 0)
(0.1975589039 -0.1028741863 0)
(0.1769774328 0.08042790255 0)
(0.1080201894 -0.1661200295 0)
(0.06000467883 -0.2392454328 0)
(-0.06581497956 -0.2595766076 0)
(-0.2027533946 -0.4817180297 0)
(0.2305647857 -0.9228734142 0)
(0.5749324599 -0.9511984464 0)
(0.6146714885 -1.081617345 0)
(0.5999874228 -1.155848461 0)
(0.5589300328 -1.247309338 0)
(0.4995792226 -1.267404903 0)
(0.5027071694 -1.232934851 0)
(0.5435728564 -1.165698022 0)
(0.5847994783 -1.084985045 0)
(0.61561569 -0.9962165929 0)
(0.6492704062 -0.8986167392 0)
(0.690935741 -0.7855818667 0)
(0.7169498396 -0.6296795516 0)
(0.6191167134 -0.3473174929 0)
(0.1638886619 0.2366250157 0)
(0.1149984094 0.3279671976 0)
(-0.3510556131 -0.3542467896 0)
(-0.4732062518 -0.3861830296 0)
(-0.6470576059 -0.3903963575 0)
(-1.303597589 -0.3724422024 0)
(0.1445886218 0.3195257121 0)
(0.2853040724 0.02165412208 0)
(-0.04613124488 -0.02457553174 0)
(0.03994382546 -0.03935436408 0)
(0.003521687928 0.03486577092 0)
(0.09789896623 0.04948223103 0)
(0.1636176889 0.1076320958 0)
(0.1202220676 -0.04138931633 0)
(0.06729711372 -0.01735110773 0)
(-0.003637719561 -0.006774246635 0)
(-0.06993858899 -0.4205937299 0)
(0.2027943851 -1.025664214 0)
(0.495500873 -0.91225047 0)
(0.5396735695 -0.9928404991 0)
(0.5518921049 -1.048142985 0)
(0.5269022515 -1.074197242 0)
(0.4888175078 -1.021266563 0)
(0.4314863358 -0.9175807474 0)
(0.3750999171 -0.8316523778 0)
(0.3311602751 -0.7740960594 0)
(0.3051932311 -0.7326766084 0)
(0.3332807396 -0.6976048049 0)
(0.4119778528 -0.6781299574 0)
(0.4850300005 -0.7169580437 0)
(0.5365014449 -0.6732599629 0)
(0.01273995948 0.1526492376 0)
(-0.0641267884 -0.2534234388 0)
(-0.3007187009 -0.3901154338 0)
(-0.4386000628 -0.4213305034 0)
(-1.097003263 -0.3955908557 0)
(-1.707284935 -0.3901974028 0)
(-0.02262757174 0.2548098446 0)
(0.1925268769 0.1431217703 0)
(0.08304403104 0.1848014383 0)
(-0.006806077689 0.07671903188 0)
(-0.1118100569 -0.04471156488 0)
(0.03414405416 -0.08383058161 0)
(0.1073183343 -0.04159829675 0)
(0.07511850698 -0.1077287956 0)
(-0.01669380123 -0.1925514792 0)
(-0.08351985698 -0.3641972221 0)
(-0.1282063688 -0.6466103848 0)
(0.1577343155 -1.131853751 0)
(0.4289459127 -0.8398749252 0)
(0.4880757728 -0.9011996994 0)
(0.5177461935 -0.9484510396 0)
(0.4950103255 -0.9677573575 0)
(0.413298863 -0.939966978 0)
(0.2809009583 -0.8797467551 0)
(0.1052251298 -0.8258587303 0)
(-0.1608053759 -0.8027248918 0)
(-0.6275239578 -0.7767024636 0)
(-0.7353120132 -0.7562039607 0)
(-0.732286657 -0.7393405186 0)
(-0.706348393 -0.7074148983 0)
(-0.6259226154 -0.6735667816 0)
(0.2434406326 -0.5898577183 0)
(0.3143208753 -0.7482381285 0)
(0.3584515438 -0.7673351547 0)
(-0.2732681875 -0.5651462901 0)
(-1.453634612 -0.3934806459 0)
(-1.930900179 -0.4072072572 0)
(0.2309846156 0.4387578683 0)
(-0.3483969557 0.7131360932 0)
(-0.008138429676 -0.08872476889 0)
(0.04855069889 0.1042979995 0)
(0.1171333191 0.1299210889 0)
(0.07770528571 -0.03108377004 0)
(0.07491617069 0.1076679135 0)
(0.006050191513 0.1937613495 0)
(-0.07484564103 -0.2724453263 0)
(-0.2215818319 -0.26541903 0)
(-0.1819981482 -0.4131509326 0)
(0.139154814 -1.136368584 0)
(0.3824173102 -0.7337982588 0)
(0.4327622698 -0.7990141047 0)
(0.4908463558 -0.8518766333 0)
(0.4903300075 -0.8748713535 0)
(0.4242991542 -0.8741443157 0)
(0.2925638967 -0.8641284073 0)
(0.1004893183 -0.844533205 0)
(-0.08510905717 -0.7718877451 0)
(-0.3557392338 -0.7509320175 0)
(-0.5092291587 -0.7605962835 0)
(-0.4920328578 -0.7372934803 0)
(-0.4357530468 -0.6957172197 0)
(-0.364761406 -0.6657122298 0)
(0.2209175128 -0.8398239014 0)
(0.4679327625 -0.7988917543 0)
(0.3412095151 -0.7047320494 0)
(-0.7454227427 -0.4640649033 0)
(-1.735163119 -0.3893426943 0)
(-1.964618103 -0.4246531116 0)
(0.5039682291 0.04208123682 0)
(0.5895163073 -0.03488239859 0)
(-0.2694849398 0.02566852328 0)
(-0.04651849192 0.09033857352 0)
(0.08917016779 0.1830547693 0)
(0.1498082131 0.248090814 0)
(0.09742119135 0.1363779804 0)
(-0.02742011694 -0.05411662479 0)
(-0.0868960769 -0.2434071432 0)
(-0.2243302346 -0.2393897541 0)
(-0.1820282305 -0.4220049009 0)
(0.1492036844 -1.077941169 0)
(0.331503789 -0.5776581306 0)
(0.3933820345 -0.7402737198 0)
(0.430974327 -0.7527748981 0)
(0.4374651829 -0.7828790107 0)
(0.3865170288 -0.8065084727 0)
(0.2714959157 -0.8364083903 0)
(0.161769404 -0.7792321724 0)
(-0.05216703249 -0.7322728486 0)
(-0.3640039506 -0.7700169174 0)
(-0.4188617217 -0.7763323548 0)
(-0.3345748209 -0.7247509684 0)
(-0.1911232479 -0.6653367002 0)
(-0.01253860889 -0.6259313075 0)
(0.2077629995 -0.6102685876 0)
(0.5585393245 -0.5931693364 0)
(0.4189417272 -0.6682128757 0)
(-0.8106040488 -0.4379071736 0)
(-1.822880211 -0.39596017 0)
(-1.682717929 -0.4486183419 0)
(0.5266753962 0.3743221694 0)
(0.6465047456 -0.0593109919 0)
(0.1544965304 0.08030129394 0)
(0.1405067444 0.2040096403 0)
(0.2665234939 0.3930640433 0)
(0.03461593921 0.1148858254 0)
(0.01789721298 -0.06914615582 0)
(-0.03224255065 -0.1461549805 0)
(-0.1164554323 -0.2004174448 0)
(-0.1767012875 -0.283106984 0)
(-0.1301087389 -0.3919286063 0)
(0.1797201107 -1.019736593 0)
(0.3293458608 -0.5943479847 0)
(0.3956384712 -0.8215186308 0)
(0.4301613007 -0.7747311837 0)
(0.422730612 -0.7732174922 0)
(0.4008616318 -0.7892067738 0)
(0.331805366 -0.8137702069 0)
(0.2550026864 -0.8340327114 0)
(0.2316507058 -0.922365871 0)
(0.3882021436 -1.09103692 0)
(0.4483253766 -0.9896147886 0)
(0.4090852283 -0.8256987798 0)
(0.3460989168 -0.6566553356 0)
(0.2929614155 -0.450138333 0)
(0.2934612232 0.04828868449 0)
(0.3448993933 0.4995428718 0)
(0.3725691036 0.6866794939 0)
(0.3691016491 0.7837429399 0)
(0.3760325031 0.8922970355 0)
(-1.104313299 -0.4642225879 0)
(-0.1405369002 0.4694693971 0)
(0.4462613258 0.112522829 0)
(0.2610171603 0.06972068064 0)
(-0.04965140182 0.4924271484 0)
(0.03244021814 0.1931458639 0)
(0.0138355468 0.09081560533 0)
(0.04361991802 -0.06779134443 0)
(-0.04022503028 -0.1277777016 0)
(-0.09001934799 -0.2235174143 0)
(0.02894424906 -0.5358789419 0)
(0.2129665291 -0.8370708622 0)
(0.2156717785 -0.980905696 0)
(0.3738198513 -0.7727983235 0)
(0.4153159697 -1.018967035 0)
(0.4375479216 -0.9190722232 0)
(0.4370594854 -0.8749613487 0)
(0.4190575668 -0.87133455 0)
(0.385841362 -0.9017558104 0)
(0.3730217776 -0.9658934673 0)
(0.4389553272 -1.050735392 0)
(0.5333774108 -1.050756958 0)
(0.5554837994 -0.9451301435 0)
(0.5444493686 -0.8277244954 0)
(0.5263890316 -0.7044482526 0)
(0.5098868159 -0.5408950917 0)
(0.4468945125 -0.7531047173 0)
(0.5087673275 -1.922846297 0)
(0.5243342707 -1.916584976 0)
(0.5197877007 -1.548109656 0)
(0.5172332201 -1.046601797 0)
(0.5147279053 -0.4845342619 0)
(0.5123099437 0.6641033186 0)
(0.5050086844 1.151978514 0)
(0.4603092715 1.329102104 0)
(0.07808905256 0.7368312703 0)
(-0.3043629341 0.1252314865 0)
(-0.1593491554 -0.1199361611 0)
(-0.133558017 -0.04416518121 0)
(0.02046196816 0.02949967855 0)
(-0.07512388538 -0.1016806087 0)
(-0.003527874611 -0.279640633 0)
(0.1037728727 -0.4956925317 0)
(0.2566602513 -0.9584237385 0)
(0.5307373184 -1.009639803 0)
(0.5663418048 -1.242514042 0)
(0.5760243593 -1.193440751 0)
(0.5856547846 -1.15765374 0)
(0.5921192714 -1.141917133 0)
(0.6035585584 -1.141541766 0)
(0.6275875718 -1.13807985 0)
(0.6571730582 -1.107713663 0)
(0.671594591 -1.037466797 0)
(0.6619596946 -0.9476463471 0)
(0.6323978555 -1.024947449 0)
(0.6047322094 -1.278194165 0)
(0.6031863503 -1.371865249 0)
(0.6173596599 -1.360027073 0)
(0.6532679867 -1.398482625 0)
(0.7379141455 -1.422131176 0)
(0.8969088774 -1.266414355 0)
(1.078201604 -0.9224973682 0)
(1.235003188 -0.4849444509 0)
(0.8174706118 0.5840955191 0)
(0.6849349765 0.9734901733 0)
(0.5847178157 1.012481104 0)
(0.4573825297 0.8660130457 0)
(-0.4890874391 0.03617480771 0)
(-0.7701795242 -0.1168458334 0)
(-0.708174925 -0.06880027649 0)
(0.03930748614 0.04585104186 0)
(0.04060643039 0.01552587658 0)
(0.01261390928 -0.1849663797 0)
(0.06273522991 -0.2654360644 0)
(0.2831049025 -0.9405339231 0)
(0.3713280812 -1.055669229 0)
(0.280527484 -1.195124152 0)
(0.1589767988 -1.154145125 0)
(0.04513801985 -1.116778625 0)
(-0.03765908326 -1.080539806 0)
(-0.08527871566 -1.053563554 0)
(-0.0839106747 -1.05221008 0)
(0.009223584755 -1.111497494 0)
(0.1996238585 -1.055190898 0)
(0.532002755 -0.9422645206 0)
(0.7218814593 -0.9292211238 0)
(0.6588031784 -1.133773985 0)
(0.6410404711 -1.232196673 0)
(0.6588077742 -1.215548007 0)
(0.7075593072 -1.207468474 0)
(0.7923525642 -1.12560225 0)
(1.021945561 -0.9925212933 0)
(1.406246863 -0.7855272059 0)
(1.770620398 -0.4879485986 0)
(0.9291247939 0.5332906462 0)
(0.7426602564 0.7887326204 0)
(0.6967146765 0.8612904344 0)
(0.1111538403 0.264786978 0)
(-0.6809776247 -0.135669193 0)
(-0.972306583 -0.1181032873 0)
(-1.090757135 -0.1032840266 0)
(-0.2414539296 0.1065656764 0)
(0.03229380786 0.06900093664 0)
(0.06021285265 0.002247761163 0)
(0.06724099779 -0.2217657438 0)
(0.2987387614 -0.9161304848 0)
(0.2976178261 -0.8984319834 0)