/*--------------------------------*- C++ -*----------------------------------*\
  =========                 |
  \\      /  F ield         | OpenFOAM: The Open Source CFD Toolbox
   \\    /   O peration     | Website:  https://openfoam.org
    \\  /    A nd           | Version:  8
     \\/     M anipulation  |
\*---------------------------------------------------------------------------*/
FoamFile
{
    version     2.0;
    format      ascii;
    class       volScalarField;
    location    "1.5";
    object      epsilon;
}
// * * * * * * * * * * * * * * * * * * * * * * * * * * * * * * * * * * * * * //

dimensions      [0 2 -3 0 0 0 0];

internalField   nonuniform List<scalar> 
67286
(
0.4322786182
0.602564161
0.8267520637
1.341812497
2.080891929
2.703891389
2.611367628
1.398552422
0.5367581948
0.2065328825
0.1883450731
0.2028606292
0.2227586071
0.2486391278
0.2841718888
0.3356992575
0.4093869944
0.5055579298
0.5873226044
0.6263464249
0.6301536384
0.6399668284
0.6960965758
0.7948771068
0.8841685722
0.9307544347
0.8941030835
0.8423334046
0.4265302529
0.6774367151
1.102241846
1.669617606
2.366983571
2.861278938
2.638156187
1.221729954
0.4556407216
0.2116951351
0.2024741668
0.2227818154
0.2478285717
0.2723496812
0.2908908764
0.3057010902
0.3243647219
0.3512511606
0.3887917113
0.4298570638
0.4683830166
0.5132713351
0.5864361851
0.6908612733
0.7591281155
0.8098658103
0.8092795219
0.9089403021
0.7144149572
0.5568530718
0.4505995073
0.3822998559
0.3658121096
0.4770380545
0.4894246359
0.6177087169
1.096527245
1.57030334
1.386001161
0.4429385155
0.2497266029
0.2043946418
0.2152725858
0.2468394646
0.2890358173
0.3297338389
0.3459689327
0.339689409
0.3244648892
0.3053974435
0.3007227779
0.3139569354
0.3346116903
0.3637512046
0.4136253927
0.4881121045
0.5696777419
0.628480794
0.6337709259
0.5855945328
0.5124013757
0.436738502
0.3876809975
0.3705273355
0.3439641002
0.3882802829
0.3756938691
0.3883583771
0.5403846403
0.7679841578
0.6133343738
0.279861531
0.2191319971
0.2068198
0.2285561904
0.2769808948
0.3505650472
0.4242254951
0.4505833538
0.4285777331
0.3857154863
0.3235652761
0.2794342683
0.2711802955
0.2757357565
0.2866056369
0.3044620535
0.3305167068
0.3637481031
0.4015628599
0.449389058
0.587795753
0.4715027803
0.4006181376
0.3774469365
0.4096187399
0.3944254996
0.3262757728
0.3432142555
0.3766571327
0.3920717612
0.3236244385
0.3211973379
0.2595174503
0.224111483
0.2112232031
0.2153835063
0.2440819779
0.3031906611
0.3944111356
0.4914809844
0.5411918605
0.5316758765
0.4830887508
0.3866913932
0.3032679875
0.2835936564
0.2811012123
0.2819340824
0.2848095838
0.2901802702
0.3068955819
0.3671367507
0.5789562001
1.112224519
0.7213339311
0.4697697142
0.4098502132
0.4444394061
0.4319167788
0.3149261262
0.3646042862
0.4724331968
0.4965438473
0.3988874436
0.3670374663
0.2637308161
0.2308196414
0.2259177496
0.2323273116
0.2592193454
0.3108601865
0.3840933091
0.472956887
0.550432185
0.5773671478
0.5380076797
0.4382675738
0.3412378033
0.3191092964
0.3168302462
0.3139257166
0.3116877309
0.3109963365
0.3378385029
0.4774988918
0.9517802948
1.612341833
0.9434749629
0.5430834961
0.4403251868
0.4198224738
0.428096592
0.3135096727
0.4391104268
0.5526709932
0.5970126001
0.7510962884
0.9380428571
0.5651280003
0.3184968741
0.2634980235
0.2621350573
0.2941675739
0.3532166892
0.4270161204
0.500952835
0.5548239826
0.5633174072
0.5184241883
0.4382650745
0.3762327584
0.3668202749
0.3652967122
0.3601013406
0.354570535
0.3447630686
0.334420868
0.3393657748
0.4092765104
0.6252886681
0.4563595769
0.4268786103
0.4773024593
0.4625890243
0.4909703341
0.3854107492
0.5444449622
0.6949811125
1.043971421
1.782177962
2.282359624
1.578753974
0.6326234765
0.3401064238
0.3029250456
0.3453840874
0.4271506461
0.5260039812
0.6095447429
0.6402299453
0.6068114584
0.519900414
0.4359693701
0.4069682114
0.4043184374
0.4007542481
0.3929335734
0.3849082351
0.3746952665
0.3626276257
0.3508568616
0.3614119449
0.3846708775
0.4167777236
0.461974733
0.6030456042
0.5522910699
0.6023374701
0.4468450488
0.6717002797
1.181280514
2.228624376
3.689436894
4.653773723
3.826054649
1.557314266
0.5067307888
0.3502153894
0.3988560982
0.510879798
0.6593302719
0.7795384356
0.8312886229
0.7939010692
0.6434283824
0.4924309018
0.4354222438
0.4248454956
0.4191770464
0.4109400433
0.402079809
0.3927924784
0.3845810018
0.3812862253
0.3925687491
0.4148925616
0.470844223
0.535416455
0.5967040363
0.6230240258
0.6998414823
0.8488820301
1.836492942
3.270536402
5.005004041
6.929631403
7.769082213
6.690735763
3.165539531
0.7812867221
0.3934489017
0.4222408463
0.5318501997
0.7041059554
0.8727099388
1.044992482
1.076325654
0.759847678
0.5449179924
0.4697786956
0.4253484564
0.4169274407
0.4123665295
0.4058752728
0.3993082769
0.3967320112
0.4052640233
0.4331648395
0.4788058966
0.5473256794
0.6282912444
0.705894195
0.7236859899
0.7118397623
0.5176223304
0.9950919166
2.046168568
3.549880162
5.256526915
6.134447303
4.753205957
1.11378709
0.4993736957
0.4328713883
0.4185594324
0.4532430612
0.580876345
0.9515304963
2.507881724
2.965474859
0.7084020664
0.584065776
0.8925553899
0.4475782854
0.4154880014
0.4062209724
0.4016569052
0.3992171718
0.4053521677
0.4296272215
0.4782726751
0.5502329321
0.6403389227
0.7391115995
0.837563207
0.8526015201
0.823230614
0.3708357121
0.5403388189
1.031243358
1.904044948
2.871133313
3.209695557
1.851646904
0.6556630005
0.5719773498
0.5363445156
0.4819410456
0.4273086817
0.4095312502
0.4658999563
0.6623262533
0.7466379635
0.4853653856
0.4357375795
0.4534359593
0.4025988564
0.3944083215
0.3930333082
0.3930013398
0.3973360309
0.4158945554
0.4603884704
0.5353548799
0.6403614825
0.7532006989
0.8661930857
0.9763774897
0.9969842466
0.9620494526
0.3132338315
0.3870440301
0.5763845733
0.9237364917
1.337436776
1.416023121
0.8680146081
0.7246952093
0.7248550048
0.6987789155
0.6276260208
0.5237989897
0.4253822992
0.37548724
0.3894108792
0.4168584993
0.3887604536
0.381698159
0.3848700597
0.3782809537
0.3787714278
0.380908312
0.3856915098
0.4000718548
0.4357023578
0.5060864681
0.6150302189
0.7524121634
0.8902890172
1.003909188
1.113193695
1.140226201
1.102490179
0.2999299654
0.3789391602
0.5035846543
0.6538927627
0.8116123463
0.8849425198
0.8583341427
0.915589425
0.9338548155
0.9120946865
0.8420674584
0.7205623487
0.5672790511
0.4313841329
0.3626867582
0.3515853255
0.350593728
0.3540159909
0.3585111695
0.3610539246
0.3648947512
0.3707496649
0.3839255626
0.4159906632
0.4812654285
0.5892240457
0.7487306069
0.9296616669
1.078581636
1.146973966
1.234202054
1.257688078
1.222531519
0.3199320816
0.4328940327
0.5779311573
0.7149231147
0.8394474988
0.9519488038
1.046378465
1.104286401
1.115776692
1.092641106
1.032711661
0.9273714402
0.7698115702
0.5788263096
0.4193298391
0.3452548588
0.3309444056
0.333591093
0.3390447877
0.3448779897
0.3527849198
0.3679391176
0.4028194339
0.4759817311
0.6034376038
0.792905711
1.043964851
1.302951771
1.445793998
1.355227341
1.378014726
1.369782555
1.327704122
0.3688146388
0.5073798821
0.6716083525
0.8214511504
0.9632655842
1.078923142
1.163973236
1.21112798
1.222459672
1.201687662
1.147571633
1.054584056
0.9134768439
0.7179875578
0.4961169084
0.3438296322
0.3071308638
0.3092223552
0.3168770547
0.3260529014
0.3409495373
0.3744702427
0.4537570411
0.6049481027
0.8543699309
1.214287101
1.649909086
2.036594102
2.190539075
1.80891599
1.584110273
1.467675023
1.372118293
0.4171203225
0.5660620906
0.7355979136
0.8897417347
1.031074188
1.138271246
1.210954907
1.248797223
1.255151441
1.233529102
1.183598471
1.100257056
0.9728300043
0.7842927984
0.5335055264
0.3381003564
0.286970797
0.2820631128
0.2892883323
0.3042284939
0.3344320558
0.4013451885
0.5481474912
0.8309630133
1.282317537
1.860507231
2.468365878
3.043963946
3.338262663
2.823059149
2.134663422
1.71152296
1.460971261
0.4410994268
0.5932506692
0.7600867158
0.9094277011
1.043463128
1.142849463
1.208357876
1.241752408
1.246590264
1.225721621
1.178349612
1.098934595
0.9756212575
0.7866384405
0.5212775485
0.3276343244
0.2744004313
0.2674451541
0.2747068781
0.2962372221
0.3522220643
0.4907776773
0.7831670066
1.263565306
1.879483967
2.588068062
3.402563403
4.196836678
4.573455402
4.106037441
3.155142911
2.329600895
1.764205339
0.4374042025
0.5887944392
0.7484880346
0.8866063458
1.011411673
1.103003221
1.162988348
1.193773784
1.198541283
1.179100459
1.133555918
1.055109582
0.9298673874
0.7340052662
0.4721049522
0.3225662667
0.2864266785
0.284154603
0.2849115142
0.3018957832
0.3834111126
0.6028180161
1.024443378
1.616974074
2.301371051
3.11623805
4.118591725
5.102259566
5.526176663
5.141157147
4.052457784
2.974229261
2.146192483
0.4108929051
0.5585247753
0.7084973133
0.8323296357
0.9443512277
1.027626512
1.082061416
1.110351355
1.115082972
1.096840467
1.052262443
0.9728668819
0.8437309117
0.6507749354
0.4564978648
0.4034699849
0.4494077666
0.4829700952
0.4394019657
0.3698537553
0.4083876905
0.6599801781
1.166527027
1.838986245
2.574848418
3.455591795
4.573104518
5.712881171
6.199244457
5.834935717
4.634233539
3.421611258
2.447414661
0.3687151728
0.5098539309
0.6488140853
0.7589018532
0.8527559223
0.9274859127
0.9761559271
1.001434142
1.005310369
0.9871870611
0.9423810841
0.8622194505
0.7396724504
0.6035099082
0.5759118139
0.7191503677
0.9371578535
1.053722462
0.9612696531
0.6911487993
0.4907353101
0.6080479675
1.095762619
1.822053677
2.597248364
3.465608974
4.551440508
5.73025056
6.315947881
5.909599361
4.683189529
3.48889291
2.50030087
0.3190389642
0.4506285101
0.5777192521
0.6749744081
0.752001257
0.8148501019
0.8581440872
0.88013429
0.8821111412
0.862838561
0.8184024485
0.7479107059
0.6748450419
0.6844874592
0.8544699597
1.165972332
1.466571439
1.63551925
1.610201783
1.345771946
0.868410312
0.6086573923
0.8467733099
1.520189705
2.331033787
3.142108806
4.07226947
5.117999513
5.768859618
5.308909289
4.209130399
3.172135152
2.260120382
0.2697922467
0.3886215064
0.5034901254
0.5902177443
0.6559732826
0.7051639055
0.7411567547
0.7602977035
0.760178327
0.740624371
0.7047068187
0.6738116434
0.7057542446
0.8671672997
1.177925974
1.55993247
1.900608428
2.116333707
2.159426264
1.989534813
1.492718317
0.9070481227
0.6683884577
1.051431204
1.791768072
2.578951624
3.338489093
4.141095354
4.757079522
4.287296479
3.431582593
2.593910583
1.797069966
0.2263490705
0.3303713188
0.4330419527
0.5115249564
0.5704368076
0.6126775816
0.6403694927
0.6537486434
0.6531236403
0.6393976011
0.6304401583
0.6627411372
0.7948991706
1.059295936
1.436298246
1.852495163
2.227285319
2.484155181
2.575648138
2.467344879
2.011349258
1.381031069
0.8134364649
0.6948998676
1.147328312
1.835098393
2.518595447
3.121528465
3.649136102
3.198689189
2.564571614
1.892428445
1.268284957
0.1905309299
0.2796739216
0.3707901163
0.4428543809
0.498069388
0.5378427362
0.5633958951
0.5755369661
0.5761871005
0.5727855047
0.5905387606
0.6763207758
0.8768637826
1.190966647
1.587845629
2.018889564
2.41818904
2.708735746
2.837859297
2.771051527
2.344003016
1.74337483
1.12189449
0.6712378943
0.6800515073
1.091839686
1.648197237
2.174776727
2.65357147
2.205926332
1.710938101
1.227271554
0.8464344315
0.1615187265
0.2371248667
0.3175179947
0.384187411
0.4372836276
0.4767393266
0.5027254637
0.5157368244
0.518627021
0.5224298969
0.5571749713
0.6726725359
0.9041228881
1.23071452
1.616153018
2.036876149
2.440656734
2.752318461
2.912259248
2.882016733
2.483342609
1.926207644
1.323003873
0.8301029013
0.545229723
0.6053025865
0.9102876431
1.292681785
1.728351253
1.329626859
1.025839563
0.7626161534
0.5873896264
0.1375375488
0.2011788001
0.2709278513
0.3317580679
0.3825044295
0.4217233992
0.4484845141
0.4625421187
0.4665650654
0.4720920011
0.5093336786
0.6270877276
0.8571818406
1.17254784
1.525490533
1.904868647
2.281324546
2.591616488
2.772517133
2.775677744
2.449043434
1.960895539
1.414535987
0.9567693793
0.5999290092
0.4362901853
0.4911186411
0.6644492684
0.9359876292
0.7040365253
0.5863018083
0.4880756218
0.4416128847
0.1170489533
0.1699974123
0.2280556097
0.280706882
0.3267628487
0.3638133021
0.3899222382
0.4039794252
0.4077149898
0.4109018502
0.4398367159
0.5388124426
0.7421335795
1.029450948
1.345636471
1.660990735
1.96985055
2.244778851
2.429950286
2.47419267
2.279829136
1.91106496
1.44443946
1.030224754
0.6751570516
0.4301755724
0.3409563131
0.3620611227
0.4544210109
0.3704703576
0.3548742874
0.3548624394
0.3966315363
0.0974350072
0.140470546
0.1851809043
0.22594678
0.2629564143
0.2937783029
0.3159263506
0.3276971818
0.3299139679
0.329962413
0.3482739964
0.4207732616
0.5815332237
0.8240733637
1.097588012
1.359315537
1.594625077
1.792956168
1.933914355
2.008181693
1.968857854
1.745950357
1.376432818
1.01752029
0.6868850527
0.4241526657
0.2854107896
0.2458331922
0.2496441067
0.2239683641
0.2482018748
0.310196531
0.4090438268
0.08175017596
0.1161555283
0.1482031481
0.1761229628
0.2015621154
0.2228907269
0.2378688468
0.2449113455
0.2448837592
0.2446540321
0.2621312846
0.3264174579
0.4628627938
0.6660064837
0.8945363692
1.10521505
1.278052386
1.408595488
1.495218814
1.538620018
1.53852052
1.431570858
1.214456313
0.9535614089
0.6615260574
0.3950942701
0.2418123895
0.1902205683
0.174189716
0.1632305958
0.2002471362
0.2966575103
0.4184940095
0.5376692705
0.4587987461
0.49878834
0.6594333784
1.158473933
1.546130373
1.476104193
1.001180253
0.4154458594
0.2049228092
0.1724718364
0.1715659967
0.1779738895
0.1895663724
0.2080505633
0.2326513659
0.2620299309
0.2957844026
0.3254080705
0.3480832124
0.3673525165
0.3828610091
0.3946256682
0.3978726841
0.3910291058
0.3852117564
0.3829147072
0.3808145334
0.4886755132
0.4500837049
0.5070782187
0.6836081553
1.121675107
1.452358057
1.371302009
0.9083410371
0.3938605767
0.2123596488
0.1820347867
0.1816901495
0.1890774248
0.2001674255
0.212998504
0.2278749778
0.2461187351
0.2678616577
0.2906458146
0.3108495668
0.3281343465
0.3444616607
0.3690990549
0.4096700302
0.3903939825
0.3882949706
0.3922178914
0.3910076588
0.3750822126
0.337575162
0.3031920364
0.2753506187
0.4691170661
0.4020934487
0.4290964673
0.4738381443
0.6398116881
0.8949078257
0.8596152282
0.5380260982
0.2844833383
0.204708783
0.1884830192
0.19134546
0.2022871865
0.2161786669
0.227327497
0.234695143
0.2392504688
0.2448821604
0.2545551768
0.2674505745
0.281943717
0.3004407462
0.3283814848
0.3437971137
0.3548184659
0.3655597812
0.3757684342
0.39465005
0.3721178599
0.3344338705
0.3035578721
0.2792683866
0.4610965374
0.3636695816
0.3792983936
0.3923887566
0.4094562293
0.4361973276
0.4175262918
0.3043132641
0.2321089142
0.2008189974
0.1944163196
0.2028796172
0.2214842533
0.2429909707
0.2560124042
0.2574238976
0.2498100841
0.2398602199
0.23355465
0.234140031
0.2410306319
0.2536510932
0.2713366523
0.2905154561
0.3111004502
0.3353108761
0.3612117716
0.3901776445
0.3832836836
0.3507058958
0.3176819099
0.2958961037
0.2823705285
0.4446054362
0.3467453614
0.3711400902
0.3730838823
0.3397216068
0.2934745804
0.2618585473
0.2374286683
0.2156208214
0.2023610696
0.2023931682
0.2160170052
0.2412046921
0.2691094123
0.2854612383
0.2859295731
0.2721610081
0.2501678698
0.2308404944
0.2208092769
0.2204660058
0.2275855062
0.240127705
0.2534890348
0.2784296719
0.3493350224
0.4061557051
0.4778785835
0.4886768349
0.4096319556
0.3527396032
0.325246507
0.31130892
0.4344693215
0.3674465973
0.4079030429
0.4012967332
0.3505667552
0.2803380614
0.2429554667
0.2315572519
0.2203248584
0.2119712955
0.2138724164
0.2283094994
0.2523817471
0.2793757745
0.2982066474
0.2997494795
0.2850824677
0.2588348038
0.2324680883
0.2167053689
0.2130749029
0.2177288159
0.2280301631
0.23911291
0.263655628
0.3277179848
0.453960891
0.5938691123
0.5369693077
0.4394688828
0.3695599691
0.3427878456
0.3394644579
0.4450203851
0.4283383412
0.4634646663
0.4686812687
0.4386789792
0.3995187949
0.3488148055
0.291416361
0.2505993097
0.231934392
0.2331615277
0.2472128619
0.268002186
0.289083101
0.3035613068
0.3028770418
0.2856402857
0.2587088631
0.2329583687
0.2174715266
0.2138543045
0.2170637886
0.2224566767
0.2274717064
0.2392746478
0.2750426617
0.3697225044
0.4567766362
0.4333683916
0.3750085861
0.3463085858
0.34552852
0.3482852768
0.5050461872
0.48374363
0.5315306915
0.5891262392
0.6883663493
0.8666256716
0.7817943232
0.5499818286
0.3372992156
0.2673149265
0.2620365969
0.2773639269
0.3014063839
0.3248394109
0.3350343967
0.3270156465
0.2986958082
0.2667033524
0.2398320818
0.2229468887
0.2182858228
0.2205935961
0.2243865277
0.2287274191
0.2369392588
0.2537279314
0.2921365894
0.3399840307
0.3390885392
0.3406314701
0.3540642249
0.3719262147
0.3777657312
0.5554406905
0.5153093336
0.6115125828
0.9120133432
1.819649661
2.542884798
2.297941064
1.412361063
0.5666111362
0.3262314556
0.2977929603
0.3133601538
0.3491875633
0.3869701112
0.4250582347
0.432558342
0.3451886364
0.2971255515
0.2685094945
0.2360770442
0.2252169482
0.2254898527
0.2282369624
0.2326856825
0.240515133
0.2526933101
0.2717292782
0.2936159219
0.3135518826
0.3408499784
0.3815946598
0.4003652687
0.4167613271
0.606677835
0.6319746005
1.030022673
2.085514841
3.347078657
3.79420644
3.405070548
2.350987626
0.8545495753
0.3900932059
0.3300575091
0.3397091375
0.3865461451
0.4998691937
0.9452628028
0.9688948527
0.4671216587
0.3605939502
0.3988340464
0.2768258297
0.2355834305
0.2304771941
0.2319839662
0.2382049765
0.2489674977
0.2640680009
0.2835590657
0.3063518064
0.3314889786
0.3611957025
0.396772655
0.4309018337
0.4635355496
0.5083821827
0.4959092593
0.7700122142
1.567477029
2.758092437
3.35391712
3.03519031
1.959304398
0.7054891081
0.4148284534
0.3597797016
0.3629809787
0.4767999889
1.306658117
2.740808749
4.337731447
0.8511526418
0.5719316192
1.151891705
0.3776966053
0.2458065529
0.230616777
0.2336525807
0.2434946623
0.2585432104
0.2779506543
0.3015947215
0.3296245987
0.3635164803
0.3985106439
0.4370553458
0.4740948705
0.501845577
0.4268623133
0.3775945607
0.5180680548
0.7964203678
1.3183541
1.769590062
1.647364255
0.969033633
0.5543657926
0.4444087981
0.3933390769
0.3620230454
0.3633574866
0.4647787384
1.080987282
1.131707942
0.4098431753
0.3337161048
0.4253587763
0.2679783533
0.228233507
0.226665344
0.2342550698
0.248700637
0.2693213488
0.2956769523
0.3274800161
0.3713873589
0.4115927858
0.451481024
0.4945790458
0.5339130218
0.5585724266
0.3846903028
0.3411161789
0.4261061488
0.5544512774
0.7223012752
0.8713654142
0.8691043614
0.6629345925
0.5478402982
0.4959825501
0.4470547107
0.3965074648
0.3538845836
0.3331643307
0.3635882496
0.388818033
0.2769859335
0.2510229885
0.2494398188
0.2237208203
0.2177227883
0.2236901146
0.2362176021
0.2558721405
0.2833053693
0.3191018979
0.3632628152
0.4209844177
0.4771513251
0.5224707657
0.5641277754
0.602422922
0.6242265559
0.3707523228
0.3451146584
0.4207311306
0.5020981173
0.5831567367
0.6439390395
0.6603840889
0.62200174
0.5866938276
0.5516230468
0.5066015315
0.4524329379
0.3952121997
0.34364851
0.3053912655
0.2780655494
0.2450459903
0.226802653
0.218207491
0.2137890051
0.216593346
0.2270306863
0.2448279594
0.2715636474
0.3089562535
0.3585062087
0.4220862781
0.5013788003
0.5801143476
0.6123555386
0.6319992059
0.6538560491
0.6657504418
0.3822926714
0.371320453
0.4492720455
0.5145865214
0.5706304527
0.6139978953
0.6396699215
0.6393265468
0.6219114664
0.591709686
0.5497576318
0.497443389
0.4373349275
0.3752463403
0.3190654651
0.2734292311
0.2394500551
0.2199805778
0.2119800014
0.2123498525
0.2201972938
0.2366011602
0.2638697122
0.3053265807
0.3634733191
0.4402682931
0.5424810229
0.6781487296
0.7987481681
0.7891309608
0.7425441754
0.7159069567
0.6990683961
0.4173627159
0.4082104363
0.4859907569
0.5434012121
0.5966455491
0.6356231918
0.6587796701
0.6614210689
0.6450312079
0.6149072597
0.5750070023
0.5266220678
0.4696199675
0.4059319124
0.3420468488
0.2853818102
0.2432726063
0.2203757664
0.2125807422
0.2153644638
0.2277137141
0.2525942612
0.2970845912
0.3662876131
0.4591639108
0.5786605047
0.7645264744
1.025785946
1.207947909
1.15727971
0.9702587639
0.8338240795
0.7553235962
0.4580167726
0.4433571954
0.5186844791
0.5712997803
0.6206027979
0.6558308034
0.6753261175
0.6759574521
0.6587421364
0.6285735306
0.5898215802
0.543819682
0.4894379703
0.4262111987
0.3587857271
0.2959975846
0.2490438223
0.2247974278
0.2174213708
0.2219130525
0.238761775
0.2734586535
0.3346222276
0.4253384754
0.5409964455
0.733201766
1.069581742
1.49537216
1.698982578
1.647212165
1.31070569
1.010723045
0.8325392625
0.4809193517
0.4665835011
0.5388342611
0.5848506447
0.6282977747
0.6595249452
0.676250243
0.6756889202
0.6587331953
0.629473654
0.5919713547
0.5476950452
0.4954572411
0.4339778961
0.3672214043
0.3052166356
0.2609518792
0.2408642162
0.2348161923
0.238484978
0.2572455023
0.3018555862
0.3783983235
0.4729042435
0.6216313201
0.9118925157
1.430295221
2.005677242
2.194944484
2.156969199
1.683611211
1.213366961
0.9232462585
0.4760693664
0.4719521574
0.5422584263
0.5801462626
0.6172877879
0.6439642955
0.6584850983
0.6577929026
0.6422228459
0.6149174276
0.5794933682
0.5377586585
0.4892997987
0.4338094842
0.3766930452
0.3277190051
0.3015873487
0.2941003975
0.2869881872
0.2789336428
0.2874056977
0.3331394242
0.417336123
0.5209283391
0.7105541221
1.103138925
1.793183514
2.494295508
2.643201239
2.649440077
2.048429875
1.403816896
1.002130116
0.4462551866
0.458435667
0.5288711981
0.5602797218
0.5900613724
0.611607476
0.6239172595
0.6235086666
0.61001787
0.5856849526
0.5538082563
0.517041353
0.4772506188
0.438264585
0.4103088002
0.4027414074
0.424488952
0.4444609628
0.4334811362
0.3913017035
0.3541310823
0.3722979892
0.4560366501
0.5663785683
0.7816857509
1.222673495
2.011490901
2.825189805
2.963251016
2.991523202
2.269273336
1.498352344
1.03080742
0.4009486088
0.4288029747
0.5006108297
0.5294279028
0.5506312687
0.5681006194
0.5780263944
0.5778549274
0.5667424954
0.5462930702
0.5198403108
0.491718251
0.4681061979
0.4600840827
0.4811163026
0.5355685639
0.6090947304
0.6592506227
0.6555884821
0.5980300108
0.4988502376
0.4307847802
0.4752049509
0.5824518351
0.7838109757
1.19796171
1.961401834
2.84233373
3.049775842
3.039326172
2.224984384
1.440168428
0.9914366226
0.3510556271
0.3887217879
0.4614559863
0.4913480498
0.5075914656
0.520498597
0.5281275184
0.5280509343
0.5193800526
0.503533802
0.484396823
0.46877916
0.4681050034
0.4998802873
0.5737861559
0.6932004105
0.8173577538
0.8946887441
0.9031471158
0.8427578453
0.7198979028
0.5562153989
0.4777468353
0.5655158268
0.7054195876
1.030320503
1.64596182
2.470313778
2.781062676
2.690553446
1.892667859
1.242639865
0.8964091976
0.3046227275
0.3450067982
0.4170956107
0.4506153928
0.4668997562
0.4755205764
0.48110485
0.481129955
0.4749110874
0.4642452556
0.4543122746
0.4552508658
0.4829204398
0.5532262361
0.6821424142
0.8572960417
1.018942199
1.118222349
1.139805129
1.084995036
0.9483148513
0.7427737152
0.528981966
0.501610188
0.6252825502
0.8000614513
1.207491785
1.848498706
2.209702469
2.048205508
1.418194589
0.9886023205
0.7836901442
0.2651782561
0.3034074356
0.373073039
0.4108682692
0.4303023618
0.4388861414
0.4422847181
0.4418182873
0.4383486133
0.4336335454
0.4352497812
0.4541384627
0.5069794371
0.6106040592
0.7861377995
1.000924681
1.190573537
1.309330959
1.343567454
1.295682467
1.155236735
0.9177617445
0.6489534543
0.4702618677
0.5074726787
0.6389633103
0.8176037671
1.215234485
1.546969878
1.363846038
0.9870030324
0.781601826
0.6512964369
0.2324807519
0.2669653513
0.332973952
0.3743555742
0.398342004
0.4096786677
0.4139701705
0.4142848879
0.4129065682
0.4133926017
0.4238483595
0.4576421924
0.531470799
0.6585852154
0.8615348199
1.100239541
1.311744786
1.450427719
1.499240766
1.458901329
1.31992942
1.070956621
0.7692270251
0.5161442147
0.4180723839
0.4835389937
0.5979374646
0.7503293114
0.9880826856
0.8505287018
0.7113407759
0.6040249229
0.6558503589
0.2045164007
0.2360219237
0.29734831
0.3408310167
0.3695591908
0.3853868321
0.3927196517
0.3950034831
0.3953789344
0.3985336511
0.4138906797
0.4572515372
0.5451285746
0.6846507319
0.8904897895
1.13665499
1.362583006
1.522106924
1.590837092
1.563584579
1.431726601
1.186606125
0.868410087
0.5917457232
0.4070615026
0.3727148035
0.4312275613
0.5161655101
0.6422904056
0.5697384465
0.5117482378
0.4570633401
0.4854052868
0.1792978892
0.209206347
0.2643252436
0.3074026527
0.3399153156
0.3610658041
0.3731293509
0.3786178131
0.3804551322
0.3835812693
0.3984180952
0.4430665247
0.5356451934
0.6788068784
0.8677447993
1.104599941
1.332484173
1.510480553
1.606321084
1.604331683
1.492716404
1.266973324
0.9551762729
0.6647499066
0.4419449548
0.3376096011
0.3311713133
0.3657272525
0.4345171132
0.3866626181
0.3706427159
0.3602465334
0.3864516829
0.1554803327
0.1852402601
0.2326168091
0.2719466339
0.3056445955
0.3313364591
0.3486756477
0.3581413511
0.361383332
0.3627127765
0.3727251677
0.4110701377
0.4993250825
0.6420980953
0.8248928377
1.032360066
1.246832101
1.436696046
1.563314479
1.600734878
1.526377878
1.332322175
1.040984039
0.7397284124
0.4920221798
0.3472224825
0.2968756864
0.2901476614
0.3055076764
0.2814840722
0.2906775533
0.3212876137
0.3870378389
0.1290454194
0.1590955668
0.1977317064
0.2297642993
0.2597229578
0.2855905245
0.305262193
0.3169391566
0.3204882899
0.3192731744
0.3234173927
0.3520979736
0.4279515687
0.5601271914
0.7356234794
0.9354676187
1.14402962
1.341804045
1.499671987
1.589040155
1.565164637
1.398220451
1.110557586
0.7767911292
0.5042075124
0.3428280581
0.2752449072
0.252122564
0.2404022324
0.2238577358
0.2473320544
0.3171501711
0.4324779049
0.09295264743
0.1431440651
0.1875551457
0.2246346039
0.2596859382
0.292207914
0.3184639899
0.3335279163
0.3347919808
0.3262211018
0.3222693614
0.3476447717
0.4290994413
0.5809391838
0.7973802798
1.06457596
1.368792078
1.683228091
1.961375458
2.144580222
2.179309912
1.968739367
1.455443699
0.9347476671
0.5673413545
0.3618621619
0.2813289603
0.2554535198
0.2350270963
0.2140533984
0.2343375134
0.3307610824
0.5184472921
0.5977498807
0.4398096819
0.4742757082
0.6424037659
1.044620889
1.433543569
1.50224078
1.246233711
0.6372950246
0.273950855
0.1890226252
0.1729715632
0.1723613969
0.1797968412
0.1953578058
0.2182767103
0.2444311511
0.27148741
0.2916221347
0.3062676247
0.3200117198
0.3310972665
0.341891132
0.3452179557
0.3172646677
0.3044738714
0.3049631111
0.3119383229
0.307043568
0.5434002188
0.4251681508
0.4708643971
0.633103035
0.9999629583
1.361117263
1.435730946
1.191438535
0.6295248445
0.2895880827
0.2031268481
0.1851587582
0.1846445409
0.1909893684
0.2009967778
0.2145426602
0.2340121252
0.2562750264
0.2769364852
0.2933953906
0.3064251854
0.3221472208
0.3662546761
0.4116308326
0.3433325753
0.3195362091
0.3243449668
0.3264882977
0.3331375382
0.3061944544
0.277471637
0.2536594723
0.5147354241
0.3993381977
0.4301955302
0.5172687703
0.7258921871
0.9998279646
1.084886215
0.8419460727
0.4482881169
0.2633462765
0.2081631965
0.1946593745
0.1974507422
0.2064847407
0.2149314685
0.2223515593
0.2304300115
0.2407719282
0.2534135971
0.2668320494
0.2810797115
0.3043377549
0.3369538231
0.3527562176
0.3273293798
0.323824785
0.3320823113
0.3550341123
0.3397150251
0.3131426941
0.283388925
0.2606556606
0.5208869882
0.3880025589
0.404233778
0.4300577779
0.4801794128
0.556047157
0.5725833387
0.4521416686
0.3148229473
0.2414218504
0.2102226576
0.2031853772
0.2117043356
0.2259632132
0.2364934686
0.2406542404
0.2398279671
0.2374122489
0.2365482654
0.2396241786
0.2476246308
0.2615217279
0.2812888917
0.2920630873
0.3023671689
0.3220115965
0.3364005662
0.360259853
0.365439964
0.3379832166
0.3035385562
0.276735665
0.2601128073
0.5271951033
0.3882706651
0.4010006953
0.4083640404
0.4065705768
0.3824260417
0.3490243347
0.3082864658
0.2648621433
0.2323655568
0.213091446
0.2107375393
0.224141402
0.242236529
0.2542757433
0.2575593606
0.2523818882
0.2412790795
0.22867903
0.2207730658
0.2213917771
0.2322840242
0.256478368
0.25891545
0.2876369197
0.3556144495
0.3820021428
0.4187504867
0.4540713489
0.4047240197
0.3433958925
0.3039846919
0.2891377505
0.5343846677
0.4137040148
0.4253763535
0.4267968693
0.4133839106
0.3567776503
0.3057409296
0.2775580361
0.2523512528
0.2308116051
0.2158359219
0.2152460636
0.2288561408
0.2478764002
0.2605537105
0.2623757888
0.2551682521
0.2401033836
0.2213694344
0.2073859571
0.2037708045
0.2131782138
0.2379686117
0.2372884417
0.2598550599
0.3366361808
0.4035712097
0.456648153
0.4971090673
0.4423568125
0.3668424504
0.3205980445
0.3218287836
0.5595664644
0.4631247754
0.4623249857
0.4669643048
0.465744855
0.4482381185
0.4147191215
0.3486250697
0.2839267982
0.2434892178
0.2260452376
0.2238348554
0.2338471816
0.2489784321
0.2602648354
0.2616185933
0.2516381155
0.2331079692
0.2119342561
0.1966589723
0.1915722421
0.1954298577
0.2052471714
0.2104838088
0.2260470814
0.2682167837
0.3569312273
0.4383178053
0.4276533507
0.3763988075
0.3279273729
0.3051185854
0.2973208078
0.6149624147
0.500662921
0.5071398914
0.5685677704
0.7503235537
1.059373151
1.107190977
0.7558634264
0.4454783309
0.2936075523
0.2519126515
0.2468317295
0.2572677707
0.2719360636
0.2819735281
0.2824269944
0.2616403565
0.2360526063
0.2121388807
0.1936101493
0.18636094
0.1877229871
0.1929149875
0.1987999557
0.2085760208
0.2276616944
0.2666762316
0.3156234949
0.3208616925
0.3144308157
0.3021784195
0.3057205398
0.3064696146
0.6542710672
0.5168269504
0.5858967018
0.8788005373
1.630456602
2.431424289
2.587026623
2.032888492
0.9531155788
0.4172538488
0.2967613768
0.2828975651
0.2985655219
0.3259045542
0.3725546931
0.422557686
0.3193977087
0.2691916219
0.2475895198
0.2053310548
0.1882331344
0.1857791126
0.1885807673
0.1935635642
0.2012164508
0.2129341375
0.2314678794
0.254651982
0.2699034824
0.2870667021
0.3099546825
0.3231954601
0.3345300627
0.6427850745
0.5456936376
0.7420718229
1.372240269
2.483001118
3.153095057
3.216542295
2.774775183
1.522787559
0.5617478963
0.3468178636
0.3233115641
0.3560052262
0.4926378712
1.021149331
1.426805221
0.60609503
0.401872967
0.5193991263
0.2760199624
0.2041464489
0.1892932083
0.1881117172
0.192413856
0.2001644197
0.2112721266
0.2270107605
0.2460829448
0.2650247195
0.2864562905
0.3133083351
0.3395183458
0.3669485416
0.5760442473
0.4776166614
0.7108910777
1.358079362
2.401365406
3.104618745
3.150463924
2.537378837
1.216035772
0.5326602033
0.3793531673
0.3710744201
0.5064914947
1.304833059
2.968627032
2.827188259