/*--------------------------------*- C++ -*----------------------------------*\
  =========                 |
  \\      /  F ield         | OpenFOAM: The Open Source CFD Toolbox
   \\    /   O peration     | Website:  https://openfoam.org
    \\  /    A nd           | Version:  8
     \\/     M anipulation  |
\*---------------------------------------------------------------------------*/
FoamFile
{
    version     2.0;
    format      ascii;
    class       volScalarField;
    location    "1.5";
    object      htcConv;
}
// * * * * * * * * * * * * * * * * * * * * * * * * * * * * * * * * * * * * * //

dimensions      [1 0 -1 1 0 0 0];

internalField   uniform 0;

boundaryField
{
    walls
    {
        type            calculated;
        value           uniform 0;
    }
    region0_to_wallFilmRegion_wallFilmFace
    {
        type            convectiveHeatTransfer;
        L               1;
        value           nonuniform List<scalar> 
983
(
1.567801325
0.9944685419
1.432493322
1.490520461
1.564957638
1.561647569
1.397828996
1.603681859
1.777644197
2.390814665
2.500948708
2.42501514
2.317600163
2.144532324
2.0215466
2.016060801
2.106125364
2.220008503
2.322154673
2.396570242
2.434092495
2.43224351
2.393571272
2.320888647
2.215181077
2.075510979
1.893179301
1.702126947
1.509249349
1.514411986
1.671683568
1.5861672
1.225710022
1.234084833
1.336138872
1.476663175
1.487528047
1.631600784
1.941660918
2.978415838
2.793273211
2.577109622
2.391542853
2.246978249
2.216276212
2.299745846
2.422852505
2.534096949
2.620143478
2.677224084
2.70325124
2.696399279
2.65588959
2.580697649
2.468869885
2.321882431
2.141465164
1.960637264
1.77804682
1.755380191
2.047687083
2.185846552
1.19832221
1.44909303
1.438440442
1.578914838
1.705817565
1.984006808
2.416786794
3.507039069
3.294541713
2.974717463
2.731260079
2.554710939
2.520082337
2.617821909
2.747018387
2.859519335
2.944565477
2.998619531
3.019990755
3.007803504
2.960902882
2.87927192
2.763260906
2.615318244
2.439703092
2.266072547
2.091711854
2.041177427
2.493033364
2.584002233
1.484372183
1.618575108
1.438991932
1.614557829
1.955365783
2.330081005
2.892494724
3.662540238
3.517496404
3.259598349
2.943424786
2.72019322
2.65638666
2.747749112
2.872322385
2.987262022
3.080924652
3.145783552
3.176669993
3.17245521
3.131578973
3.054478991
2.943511109
2.80333728
2.638366169
2.473153897
2.300395946
2.230053123
2.753419292
2.772352223
2.006314877
1.529209871
1.586565935
1.871939068
2.314196954
2.773999107
3.175826444
3.617934409
3.509256029
3.335852519
2.975190951
2.723142227
2.676811111
2.783301958
2.918336817
3.04266727
3.145351503
3.220132373
3.263211805
3.269616923
3.236326596
3.166052348
3.062740922
2.932549085
2.780362587
2.626902976
2.46008284
2.380684871
2.805325254
2.742190833
2.183802133
1.553922648
1.630435069
2.054677845
2.411542627
2.87603346
3.152971483
3.44105927
3.287987549
3.065111905
2.675682837
2.512343502
2.58953615
2.755727373
2.911735532
3.04842282
3.161794042
3.245989007
3.295819351
3.308841362
3.283745784
3.220508157
3.125488301
3.005804974
2.866277794
2.725434002
2.567411986
2.485232526
2.713989845
2.590040278
1.766002756
0.7833683219
1.595642784
1.914705418
2.107670155
2.375091605
2.691143595
3.01229438
2.462308285
2.043998737
2.073482086
2.305547881
2.511267825
2.707625913
2.874298021
3.020856321
3.144239284
3.23755284
3.294485566
3.311970299
3.291098235
3.23489513
3.147889171
3.038600776
2.911199555
2.783125203
2.636857069
2.558118472
2.388838747
2.083355311
1.848311682
1.950659464
2.055277722
2.210435973
2.316535849
2.343491263
2.223977403
1.98443762
1.045766105
1.910627617
2.117317171
2.313460492
2.47735555
2.656532108
2.818172571
2.969663229
3.101168596
3.202650034
3.266202323
3.28842238
3.271064658
3.221349048
3.142849122
3.044394461
2.928791121
2.813207741
2.681296056
2.615562784
2.368351556
2.162840732
2.266696225
2.319546627
2.39197055
2.467721013
2.536569872
2.571169109
2.484908869
2.084825195
2.037133173
2.182487868
2.276700583
2.35727349
2.451162922
2.599261057
2.745694214
2.898761169
3.036780821
3.145512296
3.215295686
3.242643656
3.230938116
3.189403008
3.123345845
3.039354729
2.937082948
2.834088051
2.718238055
2.680478654
2.612799553
2.508663741
2.542799924
2.593661319
2.644580662
2.678082828
2.718151015
2.724944793
2.673663734
2.487339087
2.458848033
2.447313996
2.440842047
2.403608667
2.428366358
2.532882844
2.657828701
2.810200449
2.953341673
3.068122467
3.143269848
3.176046177
3.173466567
3.147889048
3.104518382
3.045139155
2.96182064
2.872464589
2.77136802
2.780170755
2.776618311
2.730019414
2.747647157
2.785590312
2.824424726
2.843660182
2.879673013
2.878307625
2.84315618
2.734333433
2.777535069
2.623384938
2.561101307
2.427329726
2.393422638
2.450946036
2.555529772
2.706253412
2.852778708
2.971000827
3.048678604
3.086366417
3.099824128
3.105853823
3.106980662
3.089962516
3.034774975
2.960019799
2.866174226
2.933116692
2.892723448
2.865748264
2.876174419
2.909172537
2.935278505
2.951649622
2.994366791
2.998451334
2.989156702
2.9223007
3.082654681
2.749699895
2.669868333
2.442152988
2.345160168
2.354620212
2.442655388
2.590089747
2.735911747
2.851593186
2.925325834
2.968655179
3.016053519
3.085116334
3.156054617
3.193980544
3.171448738
3.109490412
3.010221943
3.123775765
2.976251558
2.948870154
2.946342286
2.955153156
2.956594714
2.984848819
3.037748881
3.053997597
3.0607667
3.035533317
3.435732946
2.894072442
2.768201119
2.483079118
2.305654795
2.255538561
2.324220669
2.46207277
2.598056059
2.700150823
2.761385351
2.825835568
2.948155519
3.110134161
3.252379691
3.336032005
3.34077244
3.289452808
3.174319892
3.298578444
3.022126436
2.978834379
2.951165862
2.920912145
2.891307367
2.931588394
2.991775345
3.032818782
3.053628631
3.149760533
4.085351017
3.117596197
2.838199035
2.555905786
2.314409274
2.183129271
2.211201827
2.321322891
2.430647663
2.508493944
2.565299485
2.701296224
2.932441894
3.169272889
3.350642099
3.458950846
3.483233799
3.442661639
3.30817487
3.403104832
3.019065295
2.963723784
2.912115182
2.847120006
2.789274701
2.820933023
2.8658372
2.942983785
2.877125686
3.581857376
3.568240511
3.508423532
2.749396094
2.588915182
2.356993395
2.169504717
2.12644181
2.188238441
2.280786953
2.353854656
2.428243427
2.654604292
2.946927354
3.195908723
3.382330904
3.505203112
3.553140028
3.5264109
3.37173095
3.410827905
2.983033154
2.923695757
2.857458676
2.776595793
2.700209064
2.690765093
2.690845325
2.744719676
2.547140611
2.886679838
2.651169153
2.71836544
2.425616328
2.495195234
2.37168009
2.249127247
2.213377191
2.246911143
2.318323447
2.32493899
2.377060503
2.639429341
2.918400169
3.152367205
3.337059119
3.468023127
3.527989219
3.524177567
3.349418016
3.319179359
2.914007018
2.852181315
2.786764858
2.70595875
2.621522463
2.561718793
2.527598966
2.541180154
2.312333734
2.392346409
0.9940402252
2.245854867
2.225558612
2.382082017
2.362618045
2.333433116
2.334138625
2.341286282
2.367651967
2.285380794
2.334055788
2.577361759
2.818441853
3.037363613
3.222762041
3.362569181
3.43137515
3.435680267
3.241756919
3.135973599
2.793374666
2.745971431
2.695127397
2.626833869
2.553881684
2.482271562
2.44524554
2.455584072
2.272691319
2.301730841
2.347342694
2.291520405
2.243033113
2.347646467
2.361470683
2.380015225
2.404271418
2.407296954
2.402964015
2.271826169
2.279736092
2.450491232
2.656636345
2.867039129
3.055166384
3.201213516
3.273662209
3.273113768
3.054170793
2.868437869
2.640394126
2.617557632
2.59486339
2.560425887
2.521439173
2.46563468
2.426478705
2.412300362
2.218814416
2.482381701
2.002039655
2.34736597
2.118297148
2.281058503
2.336840347
2.401422304
2.455546952
2.474936485
2.46204719
2.342753292
2.218697792
2.276719449
2.465341161
2.676480859
2.864458518
3.006880356
3.06964916
3.052872481
2.792938064
2.52106097
2.479833999
2.479941996
2.479692312
2.476767473
2.467945576
2.426630232
2.363842317
2.282233296
2.054747419
1.941986342
1.018921698
1.782168822
1.925962206
2.165121529
2.296616231
2.416535442
2.507552038
2.560022798
2.578288904
2.531695905
2.285317151
2.102768874
2.274009648
2.505645532
2.697569373
2.823852791
2.851356048
2.795767102
2.466753939
2.107200574
2.322405029
2.346765475
2.356237125
2.368663249
2.373275743
2.340341098
2.27433557
2.183158124
2.002939974
1.917140602
1.556855392
1.78699388
1.893694338
2.104681291
2.278170417
2.452813101
2.578416932
2.671354825
2.747722437
2.776531983
2.598429457
2.170605728
2.103166214
2.333346109
2.521217286
2.61839164
2.606804936
2.527896108
2.159908606
1.78556775
2.18389668
2.220835254
2.226731965
2.251662778
2.274365053
2.247520795
2.169374982
2.074003536
1.910761591
1.781759834
1.474147949
1.684113618
1.827885038
2.054824843
2.285736198
2.525459512
2.677386262
2.815308545
2.956704364
3.05229779
2.98925105
2.705109075
2.315687022
2.281967959
2.442405331
2.528834948
2.500612403
2.415721926
2.06425311
1.894809904
1.990608214
2.084770056
2.031296301
2.093381844
2.143692953
2.130341819
2.045350546
1.971448805
1.833556499
1.706856684
1.540406572
1.629035168
1.79186544
2.041268834
2.337502785
2.637052272
2.796764395
2.977413143
3.179997771
3.343094739
3.363178242
3.208448797
2.919373703
2.603985768
2.521972947
2.55097799
2.508533679
2.422352467
2.122025832
2.118806686
1.767732494
1.825840523
1.772537627
1.896058581
2.021457161
2.049634386
1.927667822
1.883060451
1.766300094
1.657798878
1.547766419
1.610571013
1.795102
2.07420187
2.429551077
2.763997893
2.905024758
3.126316571
3.36870517
3.584331883
3.686379432
3.617934001
3.41411237
3.125309137
2.82090173
2.659448478
2.549014544
2.438579876
2.162979107
2.249239649
1.635736511
1.538011427
1.479551176
1.706960761
1.997516125
2.055442819
1.820054906
1.827684383
1.729371077
1.663138707
1.600757234
1.66321428
1.845629445
2.142696219
2.524647552
2.852751549
2.975917278
3.224176895
3.482685882
3.72792918
3.889907675
3.925625882
3.792703613
3.538697672
3.2132528
2.877915869
2.616323546
2.420773353
2.126841867
2.230509381
1.670538273
1.297916332
1.039310619
1.42312521
1.887759643
2.120530053
1.66819469
1.781264134
1.713471907
1.717244042
1.692145509
1.755529946
1.925192493
2.199105805
2.569233106
2.856855631
2.986872688
3.255690569
3.507038801
3.778797012
3.98951165
4.089023614
4.057067902
3.860593737
3.544145519
3.156543675
2.745994914
2.405551774
2.045575906
2.051293413
1.775879398
1.3024219
0.8418799904
1.275988338
2.111859146
2.575767454
1.320249243
1.774432283
1.745978178
1.804379958
1.792141229
1.844122908
1.975762279
2.218211077
2.519349217
2.748883779
2.917928986
3.179298973
3.423216312
3.727406777
3.981856602
4.141713617
4.177243215
4.077790858
3.806409524
3.418619824
2.962171509
2.501841222
2.022179112
1.794362124
2.160404033
2.498021592
1.474319496
2.011207194
2.817046722
2.75494702
1.308782106
1.632970181
1.693613419
1.863815912
1.866706676
1.87161097
1.94438466
2.125300387
2.347405568
2.52598629
2.724286313
3.004734719
3.289096608
3.647000039
3.93585603
4.132215055
4.214124306
4.171704741
3.995895217
3.635453132
3.16444011
2.638315026
2.052244669
1.587253801
2.407506457
2.056840761
2.162029085
2.392075567
2.244570716
1.774172222
1.965207996
1.934561165
1.965521539
1.934475167
1.878865675
1.863931086
1.918102444
2.019805416
2.135699316
2.4645557
2.850375099
3.216793061
3.633322072
3.946637353
4.163508249
4.273443264
4.271465954
4.155409525
3.88018145
3.441072764
2.899223894
2.253725125
1.658379427
2.447203223
2.297227219
2.339819888
2.408326389
2.268163782
2.054072991
2.074503221
2.082485384
2.084979917
2.019365609
1.91399116
1.796293082
1.723560358
1.67639506
1.553150879
2.029766241
2.736590038
3.219044424
3.658526483
3.979700583
4.19003791
4.278213116
4.235647382
4.065147978
3.746928853
3.332247662
2.844675612
2.260398095
1.774775706
2.55333984
2.46745676
2.460461952
2.475186015
2.419271787
2.428970492
2.361199126
2.092077093
2.165322758
2.112568702
2.002186647
1.853688372
1.775237973
1.800112185
1.853572331
2.193610211
2.841768173
3.344504538
3.757448821
4.051799788
4.224799158
4.266145755
4.170372303
3.951394741
3.701358454
3.374137493
2.947805265
2.390419738
1.938962488
2.64368627
2.613676967
2.589606631
2.539386414
2.484699766
2.492792533
2.457620694
2.311260665
2.298309885
2.211331321
2.081376853
1.930364038
1.896531471
2.035362912
2.23563769
2.551108643
3.032595983
3.466487849
3.823650882
4.069242816
4.186680343
4.174676884
4.032267161
3.80215027
3.624566111
3.331824454
2.914651078
2.339285514
1.962036226
2.747908212
2.664924056
2.510484393
2.59730806
2.555916442
2.336854481
2.235076374
2.216896647
2.110852806
1.982930028
1.982307394
2.204944285
2.456621815
2.754324258
3.132715021
3.491523933
3.789029833
3.983594726
4.039733084
3.96892698
3.678549656
3.436040565
3.642111994
3.523676513
3.105469137
2.450815735
1.891393638
)
;
    }
    region0_to_wallFilmRegion_mirrorFace
    {
        type            convectiveHeatTransfer;
        L               1;
        value           nonuniform List<scalar> 
428
(
3.958105938
4.039825829
4.47547463
4.175597357
4.284131452
4.700263387
4.152166946
3.964606598
3.979109174
4.075401498
4.385640596
5.104399175
4.787954382
4.686208545
4.98960015
4.792199532
4.494767055
4.405447352
4.346158872
4.579947644
5.201627332
5.169673733
4.988256991
5.02203321
5.004686374
4.748130151
4.577227087
4.247970113
3.706429248
3.586345316
3.61690684
3.804702464
4.086836179
3.899656775
3.866232604
3.85936895
2.835607883
2.704005721
2.670992907
2.639881079
2.584823777
2.481673583
2.369644585
2.376653079
2.331519784
5.114692174
3.785710678
4.859641518
4.455444208
3.663441093
4.215221254
4.37660609
3.815685508
3.217763667
3.081149319
3.875595542
3.210723509
3.531455816
4.059123738
4.230560589
2.177953552
2.075470009
2.106408208
2.375541238
2.188344084
2.316675106
2.452521875
2.372874938
2.389959041
2.390414344
2.380794414
2.358730616
2.271037845
2.325441706
2.279087802
2.096317325
2.214649443
2.133680575
1.872151495
2.041810205
1.942144754
1.975890733
1.668955696
1.838057313
2.22770571
1.984263443
2.13847915
2.337804456
2.215430115
2.254889103
2.343558987
2.295118014
2.338594118
2.322545548
2.368284128
2.381953934
2.21119349
2.352235432
2.29613126
2.056837859
2.233797565
2.171977821
1.86975062
1.392632534
1.812320425
2.166298854
1.802769026
2.045069607
2.352762976
2.147526039
2.477936411
2.408130141
2.47154513
2.350419908
2.472002403
2.358759471
2.343999733
2.41185926
2.330625259
2.318986515
2.307340403
2.293091217
2.2454476
2.523189362
2.397224009
2.363344475
2.333186659
2.252875973
2.204847286
2.396893073
2.108600328
2.605316007
2.179232212
2.011838283
1.971004415
2.076603305
1.907140747
1.979929114
2.698440697
2.135893936
2.78788527
1.759981999
1.571785871
1.608909622
2.009100178
1.806185929
2.452726944
1.680653198
3.001020411
2.863830296
2.251612128
2.243018729
2.433659363
2.430033667
2.33722886
2.190695884
1.989834836
2.747278431
1.854326147
2.084603094
2.30591881
2.342941471
2.33932708
2.277980123
2.135571319
2.476387644
1.607481564
2.008059506
2.283407421
2.377780931
2.438608821
2.457710121
2.359036385
3.370002646
1.554711078
2.086849283
2.427494505
2.529342223
2.577497683
2.565146833
2.520015895
2.554020416
2.421490972
2.207920584
3.794906982
2.216690143
2.077313565
2.05789428
3.618596124
1.787251715
1.768119369
2.489963144
4.1420885
4.509674574
4.37986395
4.615712374
4.932684255
4.667348318
4.966361388
4.945903684
4.709233819
4.855138545
4.823536059
4.583151992
4.688870488
4.56370603
4.424984538
2.353201087
3.913443254
4.206619613
4.261825445
4.082586612
4.42170584
4.211417689
4.156529471
4.109681939
3.459753754
3.216150681
3.299910472
3.641889125
3.796768193
3.097006058
3.475932211
3.810567404
2.041069706
1.930497259
2.027836804
3.89118821
3.913321493
4.022324669
2.311118722
2.400348193
2.496165831
4.220966525
4.187525171
4.469163336
2.500560856
2.569614961
2.665544036
4.561194151
4.804239343
4.878413423
2.542056761
2.722064088
2.699269173
4.155808209
4.416616285
4.357274459
2.558988854
2.786722519
2.762063556
4.569665742
4.421562817
4.687800615
2.604197457
3.012461916
2.595194724
4.455454752
4.826126734
4.67614955
2.434696135
2.374637842
2.228173427
4.040932917
4.442487408
4.310247675
3.96575594
4.201441831
4.179077692
4.177587659
4.146297657
4.17289739
4.227065228
4.756165245
4.524344825
4.927279651
5.158542126
5.238008837
5.284528667
4.710638208
5.063127571
5.007748501
4.871008656
4.892952333
4.966109167
4.916801033
5.054855523
5.030580649
4.625536059
4.984601194
4.822232694
4.429940111
4.689217091
4.593382208
4.392507215
4.547997533
4.517906026
4.443789832
4.389759159
4.307635254
4.845534729
4.943796805
4.589666689
5.007617014
5.258101602
5.035493013
4.967259777
4.906844968
5.156676114
4.95943633
4.88327014
4.809172044
4.845679614
4.830555815
5.018213218
4.824446508
4.739509179
4.871458453
4.639971226
4.654531061
4.565446773
4.488349342
4.43565136
4.533848922
4.274774578
4.343565528
4.186180686
4.455617698
4.574956938
4.396441846
4.437789264
4.725576063
4.459024972
4.458753896
4.656464719
4.439780547
4.62859642
4.60394258
4.387139081
4.367959151
4.505418802
4.347367709
4.297473919
4.389261854
4.263300694
4.467788089
4.804114537
4.977403253
4.71508307
4.988176013
4.738592397
4.856536796
4.835202128
4.758703884
4.545824604
4.614076215
4.464544038
4.508815501
3.802438237
4.156945848
3.922891315
3.625251257
4.029540837
3.877726771
4.051425097
3.849182396
3.849100458
3.866068743
4.138359232
3.896875045
3.942132476
4.182181789
4.001363996
4.200114748
4.068379907
4.128163798
4.059265274
3.873059002
4.186486827
4.031897368
4.005781292
3.98640393
4.137309055
3.968240287
3.903639869
3.93949537
3.928898508
4.008353158
4.333550145
4.112035711
4.470527999
4.162597618
4.403205823
4.198878687
4.172552984
4.325423231
4.079848386
4.167846037
3.79178451
3.286392663
3.618697955
3.494755365
3.222272546
3.439324259
3.43979627
3.582237142
3.444229294
3.495931267
3.611866688
3.692743206
3.881504387
3.796510829
4.112759092
3.940833857
2.99036051
4.428145243
3.639247412
3.913298844
3.286066376
3.630155336
3.602529088
3.643896562
3.652045799
3.716753576
3.86882779
4.348124959
3.76788712
3.991621257
)
;
    }
    procBoundary0to1
    {
        type            processor;
        value           uniform 0;
    }
    procBoundary0to2
    {
        type            processor;
        value           uniform 0;
    }
    procBoundary0to3
    {
        type            processor;
        value           uniform 0;
    }
}


// ************************************************************************* //
