/*--------------------------------*- C++ -*----------------------------------*\
  =========                 |
  \\      /  F ield         | OpenFOAM: The Open Source CFD Toolbox
   \\    /   O peration     | Website:  https://openfoam.org
    \\  /    A nd           | Version:  8
     \\/     M anipulation  |
\*---------------------------------------------------------------------------*/
FoamFile
{
    version     2.0;
    format      ascii;
    class       volScalarField;
    location    "1.5";
    object      nut;
}
// * * * * * * * * * * * * * * * * * * * * * * * * * * * * * * * * * * * * * //

dimensions      [0 2 -1 0 0 0 0];

internalField   nonuniform List<scalar> 
67286
(
0.0001930107394
0.0002395228122
0.0002663481899
0.0003128956222
0.0003618855756
0.0003946134856
0.0003899743469
0.0003167968818
0.000230237236
0.000167664164
0.0001626616492
0.0001667649508
0.0001720704324
0.000178502774
0.0001866256756
0.0001972684148
0.0002107238563
0.0002260159336
0.0002375346515
0.0002426626702
0.0002431899622
0.0002445002814
0.0002514551239
0.000262795996
0.0002722131823
0.0002768893753
0.0002732373526
0.0002679417403
0.0001922093865
0.0002491325224
0.0002929118811
0.0003361458007
0.0003774090306
0.0004018517768
0.0003909893238
0.0003025448337
0.0002177939054
0.0001690307553
0.0001666359384
0.0001720657843
0.0001783085581
0.0001840003993
0.0001880563403
0.0001911692792
0.0001949631192
0.0002001935327
0.0002070665445
0.0002140964071
0.0002203279022
0.0002272084456
0.000237587427
0.0002510179198
0.0002587927762
0.0002643699203
0.0002643652273
0.0002748877174
0.0002537562506
0.0002334737237
0.0002175365714
0.000205944242
0.0001825703701
0.0002215203525
0.0002234871312
0.0002416662073
0.0002923828143
0.0003292372406
0.0003156897408
0.0002160154432
0.0001785247318
0.0001671123784
0.000170099556
0.0001780872475
0.0001877259633
0.0001961216823
0.0001992287794
0.0001979762368
0.0001949392889
0.0001910427168
0.0001900727408
0.0001928219238
0.0001969693872
0.0002025523009
0.0002114684133
0.0002234258465
0.0002351546495
0.0002429379663
0.000243614839
0.0002373850381
0.0002270852337
0.0002152766371
0.000206893538
0.0002037946518
0.0001788482853
0.000206822228
0.0002046087581
0.0002069743587
0.0002311132596
0.0002596149789
0.0002406853255
0.0001854143074
0.0001709613049
0.0001678028956
0.0001735677539
0.0001851001637
0.0002002154581
0.0002132657657
0.000217516327
0.0002138793209
0.0002064465679
0.0001947224337
0.0001854809693
0.0001836480595
0.000184673877
0.0001870726132
0.000190879645
0.0001961631233
0.0002025088414
0.0002092923958
0.0002173820786
0.0002379881313
0.0002210931554
0.000209303123
0.0002050963824
0.0002106418011
0.0002080713978
0.0001757308596
0.0001985134115
0.0002048046207
0.0002075318068
0.0001947532347
0.000194258109
0.0001808757463
0.0001722571248
0.0001689395509
0.0001701144216
0.0001774283451
0.0001907546064
0.0002081844416
0.0002239140814
0.0002311435266
0.0002297481574
0.0002224651435
0.000206569705
0.0001906043393
0.000186412353
0.0001858645357
0.000186047874
0.0001866826846
0.0001878564135
0.0001914585601
0.0002035094723
0.0002369577551
0.0002942514237
0.0002549513668
0.0002208674961
0.000210848059
0.0002163948014
0.0002144270841
0.0001736840395
0.0002025903931
0.0002208221236
0.0002244845067
0.0002090041761
0.0002035088376
0.0001821213457
0.0001740738202
0.0001728039949
0.0001744693793
0.0001810234292
0.0001923544227
0.0002063816975
0.0002211305383
0.0002324782052
0.0002361038447
0.0002305444311
0.0002153396797
0.0001982448857
0.0001938945331
0.0001934271418
0.0001928375089
0.00019240024
0.0001922477879
0.0001977193365
0.0002220390464
0.0002792521132
0.0003323613893
0.0002783834617
0.0002317045163
0.0002159612011
0.0002124755159
0.0002138689788
0.0001734419837
0.0002155308182
0.000232697804
0.0002390419141
0.000258473358
0.0002781415057
0.0002349573818
0.0001939595257
0.0001819353262
0.0001816442704
0.0001888275996
0.0002007195213
0.0002137892869
0.0002254059741
0.0002331141444
0.0002342072851
0.0002277612549
0.0002153975467
0.0002048228003
0.0002031058591
0.000202814396
0.0002018489073
0.0002008102859
0.00019892584
0.0001969192787
0.0001979449929
0.0002108113371
0.000242766198
0.0002185679169
0.0002136854744
0.0002218426156
0.0002194747354
0.0002238723032
0.0001858068583
0.0002315481923
0.0002514710434
0.0002883727348
0.00034431176
0.0003733657966
0.0003303975781
0.0002438797446
0.0001981405914
0.0001906225853
0.0001992060941
0.0002138304391
0.0002291334336
0.0002405878093
0.000244505379
0.0002401451347
0.0002280785175
0.0002151268546
0.0002102593573
0.0002097853286
0.0002091615059
0.0002077970573
0.0002063750824
0.0002045244453
0.0002022957662
0.0002000827174
0.0002020953502
0.0002063455119
0.0002119294842
0.0002193382754
0.0002397209287
0.0002328547659
0.0002396332155
0.0001953354421
0.0002487546128
0.0003004619536
0.0003708662395
0.0004380441551
0.0004727885797
0.000443008427
0.0003288286526
0.0002262226583
0.0002000495229
0.0002089739243
0.0002269371391
0.0002469679822
0.0002610366753
0.0002667347876
0.0002626568204
0.0002447658872
0.0002239907065
0.0002150642203
0.0002132681681
0.0002123110303
0.0002109183203
0.000209396129
0.0002077694287
0.000206307431
0.0002057131408
0.0002077198607
0.0002115806055
0.0002206960889
0.0002303643873
0.0002388299989
0.0002423219502
0.0002518361697
0.0002425576225
0.0003478674794
0.0004208205712
0.0004843640145
0.0005392884542
0.0005599816792
0.0005329622064
0.0004155909487
0.0002608059569
0.0002079093296
0.0002129314869
0.0002299590573
0.0002524079775
0.0002712818141
0.0002896122047
0.0002919339503
0.0002587216027
0.0002317370825
0.0002210990351
0.0002134307767
0.0002119530119
0.0002111681462
0.0002100539345
0.000208913843
0.0002084618543
0.0002099443586
0.0002146534465
0.0002219411729
0.0002320498177
0.0002429630517
0.000252548789
0.0002546899223
0.0002533169281
0.0002056422955
0.0002842745865
0.000360917473
0.00043282684
0.0004926203251
0.0005181440658
0.0004760725739
0.0002941818611
0.0002250578825
0.0002145565171
0.0002122508427
0.0002181906897
0.0002376916925
0.0002838128485
0.0003969142018
0.0004138399465
0.000253561056
0.0002379967779
0.0002774752331
0.0002173360775
0.0002117240474
0.0002101124537
0.000209323592
0.0002088984302
0.0002099631833
0.0002140744459
0.0002218657524
0.0002324733839
0.0002445039503
0.0002564544637
0.0002673313169
0.0002689559899
0.0002658682516
0.0001837447732
0.0002318376994
0.0002877235736
0.0003523955847
0.0004033689092
0.000418161005
0.0003484163425
0.0002464700413
0.0002353813388
0.0002303546674
0.000222285855
0.0002136172191
0.0002108137491
0.0002206871812
0.0002507348732
0.0002595036308
0.000223202075
0.0002153512614
0.0002186967627
0.0002096025058
0.0002080867974
0.0002078242951
0.0002078125117
0.0002085717504
0.0002117721202
0.0002190768489
0.0002303779716
0.000244555108
0.0002580771128
0.0002703431201
0.0002813141352
0.0002833045455
0.0002800022188
0.0001735279743
0.000207003558
0.0002367316513
0.0002771152267
0.0003131328111
0.0003187180429
0.0002707173286
0.0002546753685
0.0002546575144
0.0002515246438
0.0002426398926
0.0002284426623
0.0002132251879
0.0002047807485
0.0002076477329
0.0002123177594
0.000207136116
0.0002058749695
0.000206479569
0.0002052114565
0.0002052803518
0.0002056575046
0.000206511812
0.0002090488164
0.0002150858618
0.0002260986121
0.0002412688369
0.0002580093897
0.0002728329455
0.0002839303285
0.0002938438452
0.0002962174409
0.000292962108
0.00017097822
0.0002053038372
0.0002257947999
0.0002464352064
0.0002648258367
0.0002723780369
0.0002694387849
0.0002752723226
0.0002770738707
0.000274873979
0.0002676026526
0.0002540100661
0.0002345518092
0.0002141822296
0.0002023285162
0.0002003237015
0.0002001017893
0.0002007444744
0.0002015850858
0.0002020378157
0.0002027402636
0.0002038122799
0.0002061980113
0.0002117931154
0.0002223485525
0.0002378680131
0.0002576134043
0.0002768266981
0.0002908135968
0.0002968087611
0.000304106802
0.0003060220329
0.0003031821613
0.0001746839835
0.0002145543984
0.0002362171392
0.000253545811
0.0002674619706
0.0002788767373
0.0002877904471
0.0002930028211
0.0002940083542
0.0002919387098
0.0002864656773
0.0002763297889
0.000259646384
0.0002361102186
0.0002121805489
0.0001990138515
0.0001962648223
0.0001967903428
0.0001978516958
0.0001989696572
0.0002004722001
0.0002033025856
0.0002095444937
0.0002215488695
0.0002397907906
0.0002626223033
0.000287762537
0.0003097029208
0.0003205530911
0.0003137996702
0.0003155052224
0.0003148491998
0.0003115992634
0.000183160104
0.0002261969158
0.0002483197014
0.0002655251698
0.0002799746075
0.0002907533435
0.0002981976418
0.000302163452
0.000303088368
0.0003013396839
0.0002967169651
0.0002884387558
0.0002749094181
0.0002536728715
0.0002243219402
0.0001986891364
0.0001914333192
0.0001918755499
0.0001934408436
0.0001952849636
0.0001982181103
0.0002045387843
0.000218105888
0.0002400733399
0.0002693130859
0.0003026680977
0.0003350066577
0.0003591835609
0.0003679453762
0.0003455073369
0.0003305601355
0.0003222215667
0.0003150594037
0.0001908394377
0.0002346035253
0.0002559764109
0.0002727039959
0.0002864229748
0.000296013378
0.0003021765391
0.0003052825261
0.0003057862233
0.0003040015163
0.000299819082
0.0002925807974
0.0002807832683
0.0002612888535
0.000229818618
0.000197563399
0.000187134916
0.0001860810522
0.0001876610795
0.0001908458021
0.0001969906143
0.0002093995729
0.0002323891554
0.0002669175573
0.0003082591016
0.0003487021833
0.0003829378712
0.0004104682639
0.0004232219517
0.0004004733906
0.0003650552615
0.0003392008198
0.0003217693864
0.0001944480548
0.0002383171224
0.0002588055679
0.0002747275782
0.0002875954067
0.0002964388866
0.0003019886433
0.0003047359695
0.0003051189466
0.0003033897817
0.0002994085264
0.0002925004582
0.0002810931491
0.0002615919898
0.0002280837651
0.0001955055183
0.000184350414
0.000182799735
0.0001844565373
0.0001891920733
0.0002005031718
0.0002240132544
0.0002617021755
0.0003067011154
0.0003498258941
0.0003889683037
0.000425915401
0.0004565971412
0.0004698087132
0.0004533645671
0.0004154947232
0.000375728958
0.0003426014814
0.0001939319457
0.000237744632
0.000257508458
0.0002724401128
0.0002846524591
0.0002929871629
0.0002981968494
0.000300797324
0.0003011864097
0.0002995333734
0.0002956060414
0.0002886005929
0.0002766710375
0.000255669026
0.0002207376871
0.0001945057396
0.000186979776
0.0001864798762
0.0001866753137
0.0001904179414
0.0002063531304
0.0002399793889
0.0002861659562
0.0003328567822
0.0003741385323
0.0004137015786
0.0004537887539
0.0004871799505
0.0005002794129
0.0004884863146
0.0004514920482
0.0004074928139
0.0003657009772
0.0001899665702
0.0002336307582
0.0002528681231
0.0002667938905
0.0002782518991
0.0002861928939
0.0002911539465
0.0002936640778
0.0002940717157
0.0002924447131
0.0002884085988
0.0002809424337
0.0002678943721
0.0002456698133
0.0002183355095
0.0002095410864
0.0002171108877
0.0002222730384
0.0002153767605
0.0002035888896
0.000210797405
0.0002474714002
0.0002989000616
0.0003474357832
0.000388374276
0.0004281731956
0.0004698707269
0.0005058284298
0.0005197473069
0.0005094768119
0.0004721016317
0.0004269518711
0.0003820772798
0.0001832671712
0.0002266730321
0.0002455914497
0.0002587385513
0.0002689836001
0.0002766147758
0.0002813674973
0.0002837723781
0.0002841309819
0.0002823998108
0.0002780422288
0.0002699033368
0.0002564421695
0.0002396331207
0.0002359095078
0.0002539166751
0.0002771812159
0.0002880815046
0.0002792765783
0.0002502443053
0.000223772345
0.0002409308115
0.0002930112209
0.0003465948419
0.0003896286717
0.000428704144
0.0004692711759
0.0005064868495
0.000523088808
0.0005117877386
0.0004739080972
0.0004298617128
0.0003849562825
0.0001746683237
0.0002175677677
0.0002363045416
0.0002488557227
0.0002579704367
0.000264963151
0.0002695717943
0.0002718524172
0.0002720496404
0.00027004145
0.0002653067997
0.0002574434174
0.0002487592258
0.0002499084787
0.0002689962209
0.0002982420167
0.0003218253302
0.0003336352851
0.0003317958248
0.0003123945767
0.0002700076449
0.0002405563992
0.0002691832026
0.0003267155906
0.0003761555819
0.0004151677972
0.0004524493179
0.0004880715254
0.0005077907968
0.0004941469855
0.0004576245572
0.0004166964263
0.0003725012864
0.0001651937727
0.0002071213488
0.0002257451849
0.0002379957647
0.0002465076914
0.0002525140349
0.0002567378496
0.0002589242216
0.0002589034879
0.0002566535881
0.0002524243039
0.0002486700864
0.0002525167276
0.0002703948789
0.0002993639673
0.0003286457198
0.000350914902
0.0003636335121
0.0003660084561
0.0003560499207
0.0003234202572
0.0002740106912
0.0002484642186
0.0002893819726
0.0003450952605
0.0003890876183
0.000423761915
0.0004551491893
0.0004765075427
0.0004605469467
0.0004278378621
0.0003900256922
0.0003454468096
0.0001558073335
0.0001962253886
0.0002147035452
0.0002269280613
0.0002353034053
0.0002409597873
0.00024452743
0.0002462102342
0.0002461231284
0.0002443840541
0.0002432428114
0.0002473315975
0.0002627497407
0.0002890575472
0.0003198449984
0.0003480632408
0.0003700140667
0.0003836436176
0.0003882352456
0.0003826611981
0.0003574103674
0.0003152342844
0.0002643983209
0.0002519770357
0.0002979624769
0.000347932416
0.0003861759912
0.0004145628469
0.0004364984855
0.0004180714081
0.0003886591757
0.000351547382
0.0003078475314
0.000147103773
0.0001856297349
0.0002038882411
0.0002162902928
0.0002249041431
0.0002307183302
0.0002342999758
0.0002359584967
0.0002360413786
0.0002355866386
0.0002380291078
0.0002490610035
0.000271531966
0.0003006079424
0.0003307681735
0.0003582455457
0.0003803616938
0.0003949416575
0.0004010623766
0.0003978524157
0.0003762429356
0.0003408454911
0.0002942698025
0.0002482772206
0.0002503116465
0.0002931428497
0.0003358546599
0.0003679700384
0.0003928519231
0.0003698205048
0.0003400666051
0.0003045899944
0.0002692034382
0.0001392060352
0.0001756870104
0.0001936156937
0.0002062856072
0.000215354838
0.0002216227828
0.0002255581604
0.0002274723521
0.0002278945069
0.0002284788763
0.0002335040891
0.0002486869425
0.0002743925008
0.0003039796207
0.0003327878959
0.0003593847317
0.0003816229297
0.0003971376022
0.0004046267091
0.0004031851831
0.0003836711192
0.0003525065724
0.0003110234726
0.0002662955667
0.0002318830971
0.0002408116032
0.0002759636369
0.0003099411206
0.0003410767587
0.0003129039069
0.0002870547663
0.0002599571984
0.0002384891859
0.0001319251918
0.000166306433
0.0001836371378
0.0001964399678
0.0002059590357
0.0002127456128
0.0002171309228
0.0002193592758
0.000219993962
0.0002209023953
0.0002266666202
0.0002430264801
0.0002696653747
0.0002992065912
0.0003265168944
0.0003515318231
0.0003732306961
0.0003893576551
0.0003981513794
0.0003982645194
0.0003819854579
0.0003546871572
0.0003181035155
0.0002792486508
0.0002390949409
0.0002153810599
0.0002245275603
0.0002484984118
0.0002784919129
0.000253383416
0.000238237527
0.0002238973682
0.0002164216435
0.0001250024393
0.0001572132978
0.0001733839603
0.0001857995311
0.0001954299742
0.0002025301607
0.0002072403974
0.0002096833103
0.0002103277917
0.0002109226526
0.0002158852706
0.000231128755
0.0002571456999
0.0002866286207
0.0003132364958
0.0003359044821
0.0003554878559
0.0003712415485
0.0003811157818
0.0003833627599
0.0003730061814
0.0003516448161
0.000320327962
0.0002862420059
0.0002486784136
0.0002140975224
0.0001983807401
0.0002026905211
0.0002189119262
0.000204392831
0.0002013046767
0.0002010722945
0.0002084828672
0.0001175815697
0.0001475144466
0.0001617489182
0.0001728350973
0.0001817856755
0.0001886086184
0.000193212999
0.0001955656742
0.0001960048892
0.0001960614946
0.0001997530749
0.0002129148179
0.0002371983882
0.0002662814769
0.0002927834676
0.0003142706212
0.0003313515249
0.0003444792544
0.0003532110675
0.0003576097979
0.0003551788535
0.0003411675384
0.0003152270524
0.0002850891777
0.00025016402
0.0002131100789
0.0001868051069
0.0001778302186
0.0001789436391
0.0001725202981
0.0001784427697
0.0001920278575
0.0002104392322
0.0001072799204
0.0001325275857
0.0001437422112
0.0001522568111
0.0001592565263
0.0001646757355
0.0001682698601
0.000169901821
0.0001699007187
0.0001699049081
0.0001740011975
0.0001873657894
0.0002105283752
0.0002375351882
0.0002618781899
0.0002808323624
0.0002946430764
0.0003042600177
0.0003102995435
0.0003132078782
0.0003131339837
0.0003056808297
0.0002894300729
0.0002671001547
0.000236575367
0.0001993390266
0.0001692308979
0.0001561712735
0.0001516841908
0.0001484497001
0.0001589199775
0.0001810654401
0.0002029733423
0.0001883531517
0.0006655845494
0.0008215023643
0.0008401967711
0.0009184655166
0.001012613899
0.000972091158
0.00077658432
0.0005218489353
0.000456244799
0.0004995888078
0.0005560164887
0.0006033390614
0.000659753064
0.0007473834194
0.00086025959
0.0009971471688
0.001109967375
0.001199632044
0.001268746657
0.001325978025
0.001371556454
0.001405895486
0.001424137353
0.001411202977
0.001406275545
0.001407191082
0.001402225638
0.0001824566413
0.0006593024514
0.0008038607078
0.0008214626488
0.0008988569222
0.0009923031495
0.000958698625
0.0007795302661
0.0005585839877
0.0005102700216
0.0005669222327
0.0006459586772
0.0007142006639
0.0007680166335
0.0008141033145
0.0008653391272
0.0009339967394
0.001014599947
0.001102167057
0.001183424951
0.001244053458
0.001300108611
0.001370964237
0.001468693964
0.001400265496
0.001394510423
0.001420678474
0.001446842566
0.001378849901
0.001259768961
0.001118382275
0.0009785012517
0.0001800122709
0.0006343011227
0.0007652575456
0.000759865726
0.0008026329945
0.0008505690756
0.0008177495384
0.0006941928816
0.0005649599494
0.0005453355985
0.0006057189143
0.000710004788
0.0008223033246
0.0009011533506
0.0009385296992
0.0009436017298
0.0009440015681
0.000946513635
0.000966008124
0.001009082513
0.00106657328
0.001143944347
0.00125598721
0.001290622498
0.001303747628
0.001325523837
0.001363183408
0.001398973769
0.00135768143
0.001220384996
0.001103211668
0.001019621918
0.0001789778309
0.0005544996117
0.0006642680306
0.0006756715988
0.0006445381597
0.0006359685301
0.000602702988
0.0005705604178
0.0005306575487
0.0005401490984
0.0006081108734
0.0007357080011
0.0008831091716
0.0009906019079
0.001040553458
0.001044642879
0.001021594258
0.0009727180696
0.000930119435
0.0009243134431
0.0009484399545
0.0009896336502
0.001046256412
0.001096262049
0.001148911358
0.001221685411
0.001324610723
0.001385706732
0.001357465132
0.001236966527
0.001156051512
0.001118113231
0.001036869615
0.0001768276451
0.000515683582
0.0006875351993
0.0007355270922
0.0006233051522
0.0005170393291
0.0004959474445
0.0005045550759
0.0005093188588
0.0005355133954
0.0006022614611
0.0007315922451
0.0008950983005
0.001024788654
0.001089548053
0.001101915974
0.001084747391
0.001049478117
0.0009946990028
0.0009611755333
0.0009625712389
0.0009828394947
0.001020402949
0.001028984358
0.001084314141
0.001294540617
0.001431051685
0.001516568023
0.001510148965
0.001368412684
0.001242761481
0.00117241472
0.001102821768
0.0001754687149
0.0005221871968
0.0007498005309
0.000780904591
0.0006059749063
0.0004579016952
0.0004426682713
0.0004801600053
0.0005149531074
0.0005489289667
0.0006040189828
0.0007065723609
0.0008577571959
0.001000932624
0.001082007896
0.001112405483
0.001112870856
0.001099619186
0.001079618389
0.001056761394
0.00105168976
0.001064395293
0.001088607088
0.00107284745
0.001095446228
0.001252131991
0.001449406741
0.001501994528
0.001499994616
0.00137912602
0.001232307189
0.001133539491
0.001112430558
0.000176864437
0.0005867676948
0.0007816367846
0.0007630503385
0.0006098529478
0.0004886313956
0.000482637483
0.0005179607029
0.0005543052848
0.0005846782386
0.0006352407023
0.0007289839944
0.0008604943266
0.0009853897791
0.001066631879
0.00110894928
0.001123536513
0.001122527469
0.00111067366
0.001090261021
0.001081527954
0.001087099408
0.001099076459
0.001104531835
0.001128070454
0.001202739555
0.001358573558
0.001401413328
0.001396684086
0.001282008087
0.00120924552
0.001136691417
0.001115709551
0.0001844399507
0.0006024648648
0.0007447802057
0.0007353632115
0.0007137172745
0.0007307049028
0.0007025130322
0.0006348598601
0.000616498921
0.0006357665231
0.0006897767896
0.0007940751522
0.0009163617861
0.001006722993
0.001073791077
0.001116430252
0.001137196675
0.001142285739
0.001132066003
0.001111619208
0.001099471585
0.001100028227
0.00110475789
0.001106671601
0.001113108744
0.001134019977
0.00116722745
0.001150954463
0.001181829083
0.001180564925
0.001186235994
0.001165070482
0.001158807095
0.0001903926458
0.0006042072884
0.0007680608895
0.0008599465579
0.001048089889
0.001211816678
0.00117667805
0.000959653384
0.0007200303977
0.0006936601671
0.0007495760841
0.0008658195102
0.0009703520332
0.001052138552
0.001126077876
0.001164668918
0.001153797085
0.001162747195
0.001173165861
0.001138146363
0.001114673649
0.001108144295
0.001106411925
0.001103696882
0.001100370802
0.001098623502
0.001102371861
0.001100228452
0.001100853243
0.001106399572
0.001125396116
0.001144720327
0.00117724963
0.0001963375449
0.0005287323462
0.0007404842325
0.0009604472932
0.001259963609
0.001425793727
0.001392524651
0.001146211423
0.0007952082383
0.0007318489497
0.0007899421421
0.0009098171051
0.001028571987
0.001170099689
0.001533081938
0.001471584671
0.001282298002
0.001259498403
0.001365993661
0.001221957674
0.001136905238
0.001113510058
0.001103111231
0.001095874392
0.001087887882
0.001079043444
0.001072061448
0.001067336712
0.001067568639
0.00107360772
0.001088524086
0.001124625584
0.00117151959
0.0001850409145
0.0004816861227
0.000682281039
0.0009361297066
0.001255584793
0.001427058699
0.001405892504
0.001202046732
0.0008989786826
0.0008225169613
0.0008451723703
0.0009510988595
0.001132509647
0.001674568352
0.002323424344
0.002560064518
0.001593264503
0.001558981883
0.002011295386
0.001402642761
0.001162846258
0.001106633807
0.001089611691
0.001079400351
0.001068931968
0.001058178566
0.001050684132
0.001049258414
0.001052788286
0.00106073881
0.001076818166
0.001116604674
0.001163574948
0.0001745176308
0.0004245626324
0.0005557054177
0.0007358674372
0.0009741446538
0.001143920042
0.001155531552
0.00102228892
0.0009268404135
0.0008900948337
0.0008914962885
0.0009408614785
0.001055950038
0.001255349089
0.001716424425
0.001634623049
0.001337360626
0.001304204975
0.001428338764
0.001220279501
0.001113953036
0.001082452511
0.001067508569
0.001055889006
0.00104386569
0.001034041582
0.001031456351
0.001048675504
0.001042813476
0.001049096089
0.001068319947
0.001110710601
0.001159653302
0.0001685593146
0.0004178466474
0.0005509123528
0.0006664204729
0.000801532113
0.0009302455923
0.0009900064071
0.001026588314
0.001040949787
0.00103643875
0.001029451909
0.001029625835
0.001051477644
0.001113806064
0.001202303505
0.001230281374
0.001173104435
0.0011538141
0.001159871204
0.00110277316
0.001067461217
0.001052419668
0.001041750569
0.001030790126
0.001019403387
0.00101155329
0.001011000976
0.00102390169
0.001026585263
0.001033881725
0.001053161063
0.001093840523
0.001144258993
0.0001664909021
0.0004227462505
0.0005752005324
0.0007037324846
0.0008228637348
0.0009360808445
0.001036975772
0.001083894204
0.001095495022
0.001089526401
0.001077587805
0.001067749305
0.001068690298
0.001085448535
0.001110313455
0.001121272853
0.001102216722
0.001085715714
0.001072600512
0.001052016715
0.001036735667
0.001027442968
0.001018400361
0.001007907607
0.0009980432739
0.0009935851862
0.0009976166778
0.001011414466
0.001023387225
0.001038004515
0.001052585517
0.001081639824
0.001122863362
0.0001682018136
0.0004376713244
0.0006188233651
0.0007811244539
0.000915838034
0.00101284187
0.001079838046
0.001116991547
0.001128317447
0.001122256219
0.001105604607
0.001084986957
0.001068480257
0.001062900976
0.001067043637
0.001068944088
0.001058307034
0.001044470902
0.001031617006
0.0010203235
0.001011753217
0.001004324583
0.0009943945375
0.0009829853321
0.0009749337663
0.0009758789236
0.0009868086981
0.001009232538
0.001034788525
0.001066545962
0.001074206297
0.001083454472
0.00110602502
0.0001732108077
0.0004589467052
0.0006671339583
0.0008498273483
0.0009680769006
0.001053415074
0.001110998013
0.001142962942
0.001152321463
0.001144636217
0.001125144898
0.001099050125
0.001072667203
0.001052846475
0.001043130748
0.001036657357
0.001025197007
0.001013658703
0.00100319306
0.0009944373576
0.0009857892369
0.0009720448303
0.0009395259583
0.0009112335457
0.0009097281043
0.0009385734834
0.0009713809869
0.001023041692
0.001073071145
0.001118042333
0.001117532882
0.001103337877
0.00110364471
0.0001786884328
0.0004778193317
0.0007007298398
0.000881457873
0.0009935836094
0.001076659987
0.001131742252
0.001161739554
0.001170286461
0.001162131135
0.001141694849
0.001113103885
0.001080874933
0.00104982901
0.001022700572
0.0009902401508
0.0009681746447
0.0009663561297
0.0009639246147
0.000952952792
0.0009300200357
0.0008961956838
0.0008597063636
0.0008459630424
0.0008733047817
0.0009106050861
0.0009869401451
0.001086660066
0.00115488493
0.001183744243
0.001161510646
0.001119590704
0.001099618338
0.0001816525987
0.0004867732985
0.0007142157941
0.0008915272352
0.001001957569
0.001084420114
0.001139104566
0.001169253567
0.001178688957
0.001171596427
0.001151722624
0.001122271805
0.001085975279
0.001044338914
0.0009945492022
0.0009191857811
0.0008803158195
0.0008722282429
0.0008685295322
0.0008571287477
0.0008321740091
0.0007993871014
0.0007836677966
0.0008140323448
0.0008417949766
0.0009043853417
0.001038072842
0.00117848657
0.001255131412
0.001257885272
0.00119645146
0.001116461545
0.001077774674
0.0001810767106
0.0004824078005
0.0007073730762
0.0008863834964
0.0009941995704
0.001076255273
0.001131507119
0.001163189338
0.001174826008
0.0011699065
0.001151445097
0.001121705203
0.001081528785
0.001028091157
0.0009487107452
0.0008376609738
0.0007937565668
0.0007818420072
0.0007757145614
0.0007636889662
0.0007407180713
0.0007140156448
0.0007208468726
0.0007811711383
0.0008241313752
0.0009116869548
0.001091247259
0.001258706672
0.001341839057
0.001325573956
0.001227113811
0.001102553166
0.0010416641
0.0001772493259
0.0004651767404
0.000680525632
0.000861345279
0.000971309945
0.001053392166
0.001109669625
0.0011434592
0.001157806264
0.001155390796
0.001138337389
0.001107684849
0.001061788645
0.0009926565648
0.0008821099137
0.0007965618936
0.0007915771979
0.0008078842939
0.0007953669096
0.0007476501159
0.0006933940121
0.0006467985561
0.0006455336533
0.0007283244656
0.0008030511997
0.0009070079795
0.001107625144
0.001292601946
0.001382198419
0.001356045708
0.001229304903
0.001071741589
0.0009938611653
0.0001710612875
0.0004390410551
0.0006380264261
0.0008153307953
0.0009394327575
0.001019420556
0.001076782147
0.001112589794
0.001129299119
0.001128784529
0.001112163797
0.001079201339
0.001026853326
0.0009486227006
0.0008633373931
0.0008605233662
0.0009048796602
0.0009349445368
0.0009292284285
0.0008634012204
0.0007265204546
0.0006201521625
0.0005720561977
0.0006325018665
0.0007479950037
0.0008659596364
0.001060240396
0.001257332517
0.001354439085
0.001322517823
0.001175174731
0.001010467934
0.000927554666
0.0001636609572
0.0004093905636
0.0005874340391
0.0007563859036
0.0008926388444
0.0009790372256
0.001037543118
0.001074815573
0.001092658092
0.001092084199
0.001072958814
0.001034111068
0.0009755449241
0.0009069633134
0.0009010329098
0.000951177524
0.001023004296
0.001071049397
0.001075959926
0.001022128733
0.0008729578065
0.0006588584492
0.0005412896936
0.0005267934389
0.0006416826598
0.0007773987114
0.0009446340206
0.001135042237
0.001237209116
0.001202025706
0.00105331568
0.0009155629255
0.0008296886731
0.0001560980909
0.0003813161142
0.0005369084244
0.0006923134071
0.0008305039469
0.000933283618
0.0009960413704
0.001033728533
0.001050167691
0.00104494023
0.001015407063
0.0009594425738
0.000892316673
0.0008765141393
0.0009340165788
0.001032504647
0.001133204049
0.001199701205
0.001217612198
0.001176561393
0.001055310566
0.0007942966602
0.0005764803433
0.0004870399465
0.0005168062896
0.0006513532707
0.0007912208091
0.0009479421416
0.001042237352
0.001009266638
0.0008913602252
0.0007971003708
0.0007026920999
0.0001490321981
0.0003576846155
0.0004929639159
0.0006324872761
0.0007656164544
0.0008744251053
0.0009498072658
0.0009916822268
0.001000467467
0.0009809208256
0.0009263076815
0.0008558005016
0.0008114774356
0.0008484304674
0.0009537580186
0.001092291399
0.001218989849
0.001303993604
0.001336498177
0.001309694584
0.001211296898
0.001003570977
0.0006806953453
0.0005092693711
0.0004647086817
0.000519215973
0.0006390015794
0.000753983086
0.0008235578614
0.000799285503
0.0007307428828
0.0006557468102
0.0006153607557
0.0001426166004
0.0003392846415
0.0004573383124
0.0005810830503
0.0007048062359
0.0008121577639
0.0008902990395
0.000932052598
0.0009343065802
0.000898075593
0.0008291364919
0.0007567606684
0.0007328593015
0.0008056819969
0.0009449243773
0.001114564319
0.001265250641
0.001369855589
0.001418890281
0.001407418993
0.001328240339
0.001153830215
0.0008320907429
0.000571913045
0.0004683054599
0.0004606888397
0.0005099159084
0.000599774121
0.000639551411
0.0006237502598
0.000577361642
0.0005513770892
0.0005894439617
0.0001366327195
0.0003249051313
0.0004279417938
0.0005352992034
0.000646439628
0.0007467663313
0.0008221076059
0.000861212463
0.0008577089576
0.0008119233524
0.0007358657397
0.0006633337533
0.0006467629759
0.0007312717027
0.0008939974421
0.001083970015
0.001257005565
0.001383264069
0.001451940683
0.001458302712
0.001397678436
0.001248152677
0.0009739827649
0.0006536460859
0.0004914864394
0.0004519024207
0.0004561610871
0.0004848737456
0.000501102765
0.0004876124803
0.0004786966837
0.0004858183214
0.0005293490405
0.0001307523233
0.0003115525174
0.0003998563567
0.0004883125102
0.0005821323762
0.000669861655
0.0007374797462
0.0007723912884
0.0007664800827
0.0007194760532
0.0006442749673
0.0005728478369
0.000552015087
0.0006235905247
0.0007933915077
0.0009901019145
0.001180464261
0.001329391437
0.001421246066
0.001449034194
0.001407447054
0.001279502225
0.0010499533
0.0007166372468
0.0005082046661
0.0004481492304
0.0004404639951
0.0004355118415
0.0004188025185
0.0004119820285
0.0004152418814
0.0004388337781
0.0004932178612
0.000124676262
0.000294059723
0.0003662280966
0.0004322607119
0.0005027631086