/*--------------------------------*- C++ -*----------------------------------*\
  =========                 |
  \\      /  F ield         | OpenFOAM: The Open Source CFD Toolbox
   \\    /   O peration     | Website:  https://openfoam.org
    \\  /    A nd           | Version:  8
     \\/     M anipulation  |
\*---------------------------------------------------------------------------*/
FoamFile
{
    version     2.0;
    format      ascii;
    class       volScalarField;
    location    "1.5";
    object      O2;
}
// * * * * * * * * * * * * * * * * * * * * * * * * * * * * * * * * * * * * * //

dimensions      [0 0 0 0 0 0 0];

internalField   nonuniform List<scalar> 
67286
(
0.2100022474
0.2100022614
0.2100021532
0.2100018338
0.2100016105
0.210001557
0.2100016299
0.2100015822
0.2100012495
0.2100005947
0.210000625
0.2100009293
0.2100012877
0.2100016733
0.2100020707
0.2100024452
0.210002787
0.2100030615
0.2100032335
0.2100033474
0.2100034297
0.2100034388
0.2100033719
0.2100031905
0.2100029684
0.2100028099
0.2100028833
0.2100030041
0.2100020599
0.2100020046
0.2100016584
0.2100013148
0.2100012315
0.2100013001
0.2100014597
0.2100013665
0.2100009322
0.2100004346
0.2100004697
0.2100007126
0.210000983
0.2100012573
0.2100015331
0.2100018096
0.210002088
0.2100023701
0.2100026368
0.2100028678
0.2100030453
0.2100031728
0.2100032391
0.2100032612
0.2100030021
0.2100028781
0.2100028271
0.2100026271
0.2100028989
0.2100028352
0.2100026601
0.2100023504
0.2100019209
0.2100019383
0.2100019173
0.2100018639
0.2100015692
0.2100013396
0.2100013062
0.2100011546
0.2100006049
0.2100002941
0.2100003483
0.2100005504
0.2100007756
0.2100009884
0.2100011643
0.2100013077
0.2100014276
0.2100015556
0.2100017249
0.2100019401
0.210002171
0.2100023956
0.2100026249
0.2100027661
0.2100027944
0.2100027609
0.2100026323
0.2100024528
0.2100023627
0.2100020618
0.2100017304
0.2100013726
0.2100016423
0.2100017275
0.2100018288
0.2100019347
0.210001823
0.2100015099
0.2100013103
0.2100008284
0.2100003356
0.2100001521
0.2100002227
0.210000412
0.2100006326
0.2100008357
0.2100009719
0.210001036
0.2100010291
0.210000992
0.2100009939
0.2100010805
0.2100012134
0.2100013657
0.2100015423
0.2100017089
0.2100018311
0.2100019207
0.2100017879
0.2100013633
0.2100012834
0.2100010002
0.2100007441
0.2100005447
0.2100002941
0.2100013665
0.2100016118
0.2100018723
0.2100019429
0.2100018033
0.2100013666
0.210000878
0.21000041
0.2100001258
0.210000033
0.2100000903
0.2100002521
0.2100004521
0.210000648
0.2100007986
0.2100008752
0.2100008342
0.2100007079
0.2100005893
0.2100005869
0.2100006307
0.2100006766
0.210000735
0.2100007617
0.2100008164
0.2100010746
0.2100008274
0.210000953
0.2100005849
0.2100002688
0.2100000873
0.2099999846
0.2099998431
0.2100011522
0.2100016033
0.210001813
0.2100018015
0.210001545
0.2100008374
0.2100003647
0.2100001474
0.2099999929
0.2099999081
0.2099999396
0.210000079
0.2100002628
0.2100004472
0.2100005975
0.2100006632
0.2100006257
0.2100004954
0.2100003545
0.2100003198
0.2100003273
0.2100003219
0.2100003268
0.2100002851
0.2100002612
0.2100002639
0.2100001755
0.2100000158
0.2099999886
0.2099997741
0.2099996523
0.2099995808
0.2099995216
0.2100011158
0.2100017021
0.2100017646
0.2100015813
0.2100010937
0.2100005312
0.2100002747
0.2100001197
0.209999951
0.2099998206
0.2099998192
0.2099999337
0.2100000915
0.2100002441
0.2100003579
0.2100003704
0.2100003268
0.2100002455
0.210000173
0.2100001345
0.2100001029
0.2100000521
0.2100000084
0.2099999475
0.2099998846
0.2099998184
0.209999764
0.209999771
0.2099995299
0.209999414
0.209999401
0.2099993395
0.209999346
0.2100013509
0.2100016212
0.2100015177
0.2100011733
0.2100006625
0.2100003423
0.2100002795
0.2100001226
0.2099999311
0.2099997517
0.2099997339
0.2099998554
0.2100000249
0.2100001732
0.2100002727
0.2100002006
0.2100001218
0.2100000488
0.2100000235
0.209999957
0.2099998861
0.2099998012
0.2099997301
0.2099996583
0.209999579
0.2099994754
0.2099993855
0.2099992754
0.2099992402
0.2099992177
0.2099991791
0.2099992264
0.2099992648
0.2100015036
0.210001465
0.2100011873
0.2100007337
0.2100003023
0.2100002118
0.2100003065
0.2100000794
0.2099999151
0.2099996991
0.2099996904
0.2099998813
0.2100001852
0.2100004986
0.2100008378
0.2100003903
0.2100002389
0.2100000567
0.2100000525
0.209999806
0.2099996983
0.2099995729
0.2099994791
0.2099993998
0.2099993183
0.209999228
0.2099991488
0.2099991069
0.2099991074
0.2099991269
0.2099990784
0.2099991274
0.2099991037
0.2100014006
0.2100007393
0.2099999901
0.2099995859
0.2099994828
0.2099997086
0.2100001153
0.2099998031
0.2099997595
0.2099995963
0.2099995903
0.2099997258
0.2099999598
0.2100002154
0.2100006962
0.2100002776
0.2100000724
0.2099998125
0.2099998213
0.2099995275
0.209999464
0.2099993486
0.2099992628
0.2099991835
0.2099991065
0.2099990376
0.2099990038
0.2099990118
0.2099990435
0.2099990693
0.2099990417
0.2099990616
0.2099990511
0.2100014858
0.2100011523
0.2100006258
0.2100000352
0.209999665
0.2099996651
0.210000023
0.2099999544
0.2099997293
0.2099996224
0.2099997289
0.2100001472
0.2100010423
0.2100025639
0.210006241
0.2100005092
0.210001338
0.21000034
0.2100022548
0.209999516
0.2099997004
0.2099992527
0.2099991276
0.209999024
0.2099989522
0.2099989158
0.209998927
0.2099989664
0.2099990052
0.2099990361
0.2099990256
0.2099990208
0.2099989969
0.2100013448
0.2100010901
0.2100008749
0.2100005057
0.2100001016
0.2099999373
0.2100000404
0.2099997805
0.2099996422
0.2099995638
0.2099995201
0.2099995389
0.2099996903
0.2100001316
0.2100012006
0.2100001961
0.2099998083
0.209999597
0.2099997172
0.209999247
0.2099991443
0.2099990202
0.2099989438
0.2099988857
0.2099988517
0.2099988669
0.2099989247
0.2099989838
0.2099989966
0.2099990297
0.2099990298
0.2099990043
0.2099989657
0.2100012264
0.2100009192
0.2100007349
0.2100005587
0.2100002952
0.2100000392
0.2099999346
0.2099997936
0.2099997098
0.2099996371
0.209999592
0.209999607
0.2099996877
0.2099998995
0.2100002862
0.2099998157
0.2099996404
0.2099995058
0.2099995095
0.2099991655
0.20999904
0.2099989164
0.209998837
0.2099987944
0.2099987974
0.2099988412
0.2099989024
0.2099989529
0.2099989874
0.2099990395
0.2099990558
0.209999014
0.2099989551
0.2100010131
0.2100006604
0.2100004281
0.2100003045
0.2100001998
0.2100000596
0.2099999678
0.2099998987
0.2099998128
0.2099997267
0.2099996418
0.209999549
0.2099994592
0.2099994122
0.2099994439
0.2099993396
0.2099992499
0.2099991763
0.2099991102
0.20999897
0.2099988749
0.209998798
0.209998754
0.2099987506
0.2099987893
0.2099988481
0.2099989019
0.2099989455
0.2099989878
0.2099990837
0.2099991167
0.2099990617
0.2099989848
0.210000721
0.2100004239
0.2100002604
0.2100002068
0.2100001821
0.2100001378
0.21000008
0.2099999964
0.2099998982
0.2099998088
0.2099997328
0.2099996537
0.2099995457
0.2099993906
0.2099992318
0.2099991024
0.2099990388
0.2099989857
0.2099989197
0.2099988292
0.2099987575
0.2099987105
0.2099987009
0.2099987326
0.2099987905
0.2099988473
0.2099988889
0.209998924
0.2099989834
0.2099991582
0.209999219
0.209999149
0.2099990483
0.2100004152
0.2100002349
0.2100001724
0.2100001741
0.2100001773
0.2100001327
0.2100000524
0.209999952
0.2099998527
0.2099997702
0.2099997035
0.2099996371
0.2099995444
0.2099993854
0.2099991288
0.2099989027
0.2099988433
0.2099988144
0.2099987662
0.2099987055
0.2099986611
0.2099986534
0.2099986972
0.2099987722
0.2099988342
0.2099988606
0.2099988815
0.2099989189
0.2099989819
0.2099991881
0.2099992359
0.2099991746
0.2099990683
0.2100001851
0.2100000891
0.2100000941
0.2100001268
0.2100001351
0.2100000897
0.2100000064
0.2099999045
0.2099998037
0.2099997172
0.2099996456
0.209999577
0.2099994896
0.209999345
0.2099990675
0.2099987849
0.2099987063
0.2099986755
0.2099986352
0.2099985938
0.2099985804
0.2099986177
0.2099987045
0.2099987996
0.2099988626
0.2099989066
0.2099989494
0.2099990029
0.2099990915
0.2099993025
0.2099993062
0.2099992362
0.209999116
0.2100000411
0.2099999744
0.2100000127
0.2100000612
0.210000077
0.2100000412
0.2099999681
0.2099998747
0.2099997781
0.20999969
0.2099996115
0.2099995332
0.2099994368
0.209999289
0.2099990041
0.2099987118
0.2099986177
0.2099985805
0.2099985416
0.2099985123
0.2099985284
0.2099986092
0.2099987147
0.2099987746
0.2099987898
0.2099988009
0.2099988353
0.2099989082
0.2099990377
0.2099991548
0.2099991868
0.2099991595
0.209999088
0.2099999548
0.2099998779
0.2099999274
0.2099999833
0.2100000093
0.2099999882
0.2099999309
0.2099998507
0.2099997618
0.2099996741
0.2099995892
0.2099994986
0.2099993854
0.2099992179
0.2099989255
0.2099986538
0.2099985451
0.2099984904
0.2099984513
0.2099984439
0.2099984967
0.2099986111
0.2099986992
0.2099986843
0.2099986293
0.2099986041
0.2099986453
0.2099987601
0.2099989816
0.2099990817
0.2099991687
0.2099991779
0.209999126
0.2099999042
0.2099997908
0.2099998373
0.2099998951
0.2099999292
0.2099999238
0.2099998842
0.2099998197
0.209999741
0.2099996558
0.2099995651
0.2099994608
0.2099993251
0.2099991266
0.2099988378
0.2099985785
0.2099984489
0.2099983844
0.2099983683
0.2099983926
0.2099984748
0.2099986324
0.2099987338
0.2099986729
0.2099985632
0.2099985019
0.2099985178
0.20999861
0.2099988475
0.2099989852
0.2099991405
0.2099992093
0.2099991935
0.2099998775
0.2099997068
0.2099997397
0.2099997951
0.2099998325
0.2099998403
0.2099998174
0.2099997691
0.209999702
0.209999621
0.2099995253
0.2099994049
0.2099992374
0.2099989947
0.209998703
0.2099984923
0.2099984522
0.2099984637
0.2099984277
0.2099983569
0.2099983941
0.2099986014
0.2099988118
0.2099988051
0.2099986784
0.2099985909
0.209998566
0.2099986022
0.2099987609
0.2099989893
0.2099992027
0.2099993118
0.2099993117
0.2099998751
0.209999625
0.2099996325
0.2099996803
0.2099997172
0.2099997325
0.2099997232
0.2099996896
0.2099996342
0.2099995579
0.2099994551
0.2099993086
0.2099990919
0.2099988148
0.2099985762
0.2099985105
0.2099985528
0.2099985859
0.2099985665
0.2099984687
0.2099983418
0.2099984564
0.2099987871
0.2099989725
0.2099989199
0.2099988256
0.2099987764
0.2099987663
0.2099988063
0.2099991497
0.2099993864
0.2099994825
0.2099994455
0.2099999151
0.2099995545
0.2099995193
0.2099995526
0.2099995854
0.2099996025
0.2099996016
0.2099995803
0.2099995363
0.2099994655
0.2099993548
0.2099991797
0.2099989281
0.2099986653
0.2099985354
0.20999856
0.2099986299
0.2099986771
0.2099986843
0.2099986192
0.2099984561
0.209998387
0.2099986198
0.2099989828
0.209999134
0.2099991017
0.2099990531
0.209999012
0.2099989415
0.2099993786
0.2099995978
0.2099996348
0.2099995155
0.2100000319
0.2099995238
0.2099994159
0.2099994221
0.2099994456
0.2099994615
0.2099994647
0.2099994526
0.2099994219
0.209999363
0.209999256
0.2099990688
0.2099988107
0.2099985953
0.2099985482
0.2099986085
0.2099986804
0.2099987285
0.209998747
0.209998712
0.2099985455
0.2099984193
0.209998469
0.2099987786
0.2099991232
0.2099992681
0.2099992808
0.2099992448
0.2099991111
0.2099995485
0.2099996978
0.2099996338
0.2099993698
0.2100002602
0.2099995813
0.2099993588
0.2099993137
0.2099993176
0.2099993279
0.2099993336
0.2099993313
0.2099993176
0.2099992813
0.2099991933
0.2099990141
0.2099987693
0.2099985899
0.2099985765
0.2099986416
0.2099987009
0.209998736
0.2099987482
0.2099987269
0.2099985629
0.2099984154
0.2099983674
0.2099985152
0.2099988584
0.2099991637
0.2099993097
0.2099993508
0.2099992325
0.2099995362
0.2099995694
0.2099994078
0.2099988805
0.2100006033
0.2099997764
0.2099994023
0.2099992692
0.2099992327
0.2099992277
0.2099992314
0.2099992371
0.2099992421
0.2099992354
0.2099991813
0.2099990285
0.2099987992
0.2099986255
0.2099986008
0.2099986541
0.2099986939
0.2099987064
0.2099986987
0.2099986717
0.2099985244
0.2099983671
0.2099982723
0.2099983264
0.2099985362
0.2099988494
0.2099990766
0.2099991956
0.2099992009
0.209999268
0.2099993038
0.2099991608
0.2099994827
0.2100010149
0.2100001185
0.2099995949
0.2099993394
0.209999231
0.2099991914
0.2099991825
0.2099991896
0.2099992087
0.2099992304
0.2099992169
0.2099991048
0.2099988925
0.2099986967
0.2099986189
0.2099986382
0.2099986565
0.209998644
0.2099986103
0.2099985658
0.2099984482
0.2099983019
0.209998188
0.2099981864
0.2099983112
0.2099985455
0.2099987464
0.2099988376
0.2099989138
0.2099988203
0.2099988882
0.209998752
0.2099992965
0.2100014306
0.2100005542
0.2099999457
0.2099995689
0.2099993617
0.2099992611
0.2099992213
0.2099992182
0.2099992422
0.2099992833
0.2099993063
0.2099992416
0.2099990554
0.2099988291
0.2099986731
0.2099986035
0.2099985697
0.2099985305
0.2099984731
0.2099984125
0.2099983359
0.2099982216
0.2099980901
0.2099980532
0.2099981542
0.2099983607
0.2099985167
0.2099985182
0.2099985643
0.2099984437
0.2099985527
0.2099984843
0.2099989221
0.2100018339
0.2100010152
0.2100004225
0.2099999889
0.2099996937
0.2099995159
0.2099994261
0.2099993989
0.2099994181
0.2099994671
0.2099995094
0.2099994774
0.2099993168
0.2099990638
0.2099988168
0.2099986302
0.2099984926
0.2099983768
0.2099982711
0.2099981977
0.2099981667
0.2099980941
0.2099979633
0.2099979523
0.2099981054
0.209998342
0.2099984695
0.2099984334
0.2099984415
0.2099983559
0.209998451
0.20999836
0.2099986145
0.2100021975
0.2100014605
0.2100009695
0.2100005921
0.2100002903
0.2100000699
0.2099999352
0.2099998815
0.2099998977
0.2099999609
0.2100000205
0.2099999978
0.209999828
0.2099995193
0.2099991481
0.2099987882
0.209998472
0.2099982026
0.209997977
0.2099978044
0.2099977154
0.2099976842
0.2099977172
0.2099979001
0.2099982213
0.2099985237
0.2099986241
0.2099985953
0.2099986233
0.2099985927
0.2099986009
0.2099983707
0.2099983737
0.2100025058
0.2100025233
0.210002521
0.2100025129
0.2100024572
0.2100023863
0.2100022149
0.210001795
0.2100013088
0.2100009341
0.2100009923
0.210001293
0.2100016658
0.2100020763
0.2100025156
0.2100027045
0.2100029171
0.2100030487
0.2100031005
0.2100030944
0.2100030492
0.2100029789
0.2100028995
0.2100028057
0.2100026487
0.2100025981
0.2100026351
0.2100027175
0.2100024052
0.2100023981
0.2100023864
0.2100024008
0.2100023442
0.2100022863
0.210002119
0.2100016865
0.2100011836
0.2100008441
0.2100008836
0.210001136
0.2100014539
0.2100017831
0.2100020852
0.210002324
0.2100025207
0.2100026654
0.210002765
0.2100028255
0.2100028519
0.2100028601
0.2100028774
0.2100030774
0.2100026041
0.2100025187
0.2100024428
0.2100024458
0.2100025116
0.210002554
0.2100025108
0.2100023731
0.2100023166
0.2100022874
0.210002273
0.2100022468
0.2100021849
0.210002021
0.2100017686
0.2100013962
0.2100009801
0.2100007254
0.2100007584
0.2100009809
0.2100012813
0.2100015862
0.2100018364
0.2100020044
0.2100021221
0.2100021963
0.2100022629
0.2100023441
0.2100024223
0.2100024926
0.210002597
0.210002484
0.2100023717
0.2100023179
0.2100022607
0.2100022235
0.2100023377
0.2100021382
0.2100019732
0.2100017864
0.210002166
0.2100021288
0.2100021411
0.2100021472
0.2100020546
0.2100018205
0.2100014809
0.2100011139
0.2100007509
0.2100005715
0.2100006002
0.2100008075
0.2100011083
0.2100014169
0.2100016393
0.210001755
0.2100018004
0.2100017764
0.2100017458
0.2100017706
0.2100018268
0.2100018867
0.2100019525
0.2100019547
0.2100018873
0.2100018398
0.2100017554
0.210001673
0.2100016083
0.2100014836
0.2100013692
0.2100012633
0.2100010387
0.2100018821
0.2100019695
0.2100020698
0.2100020746
0.2100018926
0.2100015221
0.2100011088
0.2100007774
0.2100005393
0.2100004547
0.2100004479
0.2100006266
0.2100009151
0.2100012193
0.2100014325
0.2100015291
0.2100015414
0.210001469
0.2100013698
0.2100013357
0.2100013482
0.210001373
0.2100014322
0.2100013574
0.2100012928
0.2100012298
0.2100011339
0.2100008966
0.2100010139
0.2100009392
0.2100008732
0.2100008302
0.2100006973
0.2100015647
0.2100018682
0.2100019975
0.2100019455
0.2100016479
0.2100011187
0.2100006908
0.2100004976
0.2100003663
0.2100002909
0.2100002947
0.2100004279
0.2100006609
0.2100009241
0.2100011367
0.2100012524
0.2100012604
0.2100011759
0.2100010676
0.2100010122
0.2100009935
0.2100009893
0.2100010324
0.2100008865
0.2100007915
0.2100007478
0.2100006931
0.210000814
0.2100006071
0.2100005172
0.2100004315
0.2100003751
0.2100003593
0.2100014988
0.2100018996
0.2100019199
0.2100017381
0.2100013328
0.2100008346
0.2100005292
0.2100004199
0.2100003085
0.2100002086
0.2100001836
0.2100002825
0.2100004742
0.2100006873
0.2100008509
0.2100009297
0.2100009208
0.2100008409
0.2100007431
0.210000674
0.2100006187
0.2100005661
0.2100005292
0.2100004546
0.2100004008
0.2100003642
0.2100002846
0.2100002295
0.2100001862
0.2100001468
0.2100001001
0.2100000461
0.2100000252
0.2100016478
0.2100018742
0.2100017757
0.210001544
0.2100012058
0.2100009254
0.2100006271
0.210000473
0.2100003039
0.2100001603
0.2100001085
0.210000189
0.210000345
0.2100004989
0.2100005899
0.2100006316
0.2100005959
0.2100005094
0.2100004174
0.2100003394
0.2100002623
0.2100001827
0.210000121
0.2100000526
0.2100000042
0.2099999688
0.2099999244
0.2099998787
0.2099998595
0.2099998498
0.2099998555
0.2099997961
0.2099998148
0.2100017537
0.2100017691
0.2100015944
0.2100014427
0.2100012961
0.2100011674
0.2100009245
0.2100006159
0.2100003255
0.2100001304
0.2100000685
0.2100001668
0.2100003433
0.2100004915
0.2100004743
0.210000429
0.210000429
0.2100003017
0.2100001647
0.2100000512
0.2099999545
0.209999847
0.2099997675
0.2099997061
0.2099996657
0.2099996385
0.2099996172
0.2099996059
0.2099996054
0.2099996138
0.209999602
0.2099996163
0.2099996566
0.2100016777
0.2100015663
0.2100015463
0.2100015192
0.2100014644
0.2100014457
0.2100012063
0.2100007163
0.2100002931
0.2100000686
0.2099999884
0.2100000417
0.2100001552
0.2100002651
0.2100001992
0.2100003218
0.2100002409
0.2100000454
0.2099998252
0.2099997419
0.2099996538
0.2099995527
0.2099994827
0.2099994322
0.2099994014
0.2099993864
0.2099993851
0.2099994045
0.2099994195
0.2099994445
0.2099994568
0.2099994685
0.2099994739
0.2100016181
0.2100013934
0.2100012504
0.2100012382
0.2100011737
0.2100010785
0.21000086
0.2100005582
0.2100002581
0.2100000697
0.2100000258
0.2100001318
0.2100003669
0.2100007226
0.2099998499
0.2099980408
0.2100001372
0.2099999392
0.2099991647
0.2099996922
0.2099995566
0.209999373
0.2099993019
0.2099992446
0.2099992173
0.2099992121
0.2099992249
0.2099992552
0.209999298
0.2099993408
0.2099993642
0.2099993734
0.2099993767
0.2100015353
0.2100012946
0.2100011169
0.2100010966
0.2100011203
0.2100010197
0.2100007407
0.2100004519
0.2100001961
0.2100000323
0.2099999467
0.2099999635
0.2100001176
0.2100004836
0.2100009327
0.2100002235
0.2100000949
0.2099999309
0.2099999248
0.209999524
0.2099993582
0.2099992245
0.2099991534
0.2099991141
0.2099991076
0.2099991426
0.2099992147
0.2099992617
0.2099992621
0.2099993154
0.2099993311
0.2099993246
0.2099993091
0.2100014486
0.2100012249
0.2100010346
0.2100008892
0.2100008133
0.2100007408
0.210000579
0.2100004122
0.210000241
0.2100001142
0.2100000385
0.2100000136
0.2100000295
0.210000075
0.210000096
0.2099999359
0.2099998231
0.2099997071
0.2099996048
0.2099993764
0.2099992502
0.2099991359
0.2099990679
0.2099990351
0.2099990368
0.209999073
0.2099991348
0.209999208
0.2099992665
0.2099993358
0.2099993609
0.209999334
0.2099992899
0.2100012788
0.2100010801
0.2100009234
0.2100008129
0.2100007382
0.2100006717
0.2100005779
0.21000044
0.2100002965
0.2100001787
0.2100000854
0.2100000068
0.209999937
0.2099998824
0.2099998363
0.209999728
0.2099995991
0.2099994933
0.2099993879
0.2099992392
0.209999134
0.2099990506
0.2099990003
0.2099989831
0.2099990023
0.2099990593
0.209999147
0.209999255
0.2099993416
0.2099994326
0.2099994636
0.2099994141
0.2099993352
0.2100010281
0.2100008938
0.2100008195
0.2100007782
0.2100007355
0.2100006762
0.2100005824
0.210000462
0.2100003391
0.2100002328
0.2100001404
0.2100000465
0.2099999381
0.2099998115
0.2099996781
0.2099995459
0.2099994287
0.2099993326
0.2099992358
0.2099991287
0.209999043
0.2099989792
0.2099989445
0.209998945
0.2099989881
0.209999077
0.2099992027
0.2099993456
0.2099994671
0.2099995758
0.2099996124
0.20999954
0.209999425
0.2100007394
0.2100006937
0.2100007055
0.2100007202
0.210000697
0.2100006455
0.210000557
0.2100004476
0.2100003381
0.2100002413
0.2100001522
0.2100000526
0.209999924
0.2099997586
0.2099995702
0.209999399
0.2099992787
0.2099991919
0.20999911
0.2099990279
0.2099989589
0.2099989098
0.2099988872
0.2099989063
0.2099989824
0.2099991207
0.2099993001
0.2099994817
0.20999963
0.2099997158
0.2099997544
0.209999664
0.2099995175
0.210000485
0.2100004913
0.2100005617
0.2100006127
0.210000616
0.2100005787
0.2100005008
0.2100004017
0.2100003013
0.2100002101
0.2100001226
0.2100000204
0.2099998822
0.2099996972
0.2099994766
0.2099992713
0.2099991417
0.2099990635
0.2099989951
0.2099989268
0.2099988664
0.209998825
0.2099988189
0.2099988716
0.2099990037
0.2099992116
0.2099994566
0.2099996736
0.20999985
0.2099998758
0.2099998887
0.2099997746
0.2099995976
0.210000298
0.2100002969
0.2100003954
0.2100004736
0.2100005023
0.2100004849
0.2100004242
0.2100003392
0.2100002487
0.2100001625
0.2100000754
0.2099999698
0.2099998241
0.2099996259
0.2099993845
0.2099991525
0.2099990145
0.209998939
0.2099988769
0.2099988145
0.2099987587
0.209998727
0.2099987479
0.2099988574
0.2099990614
0.2099993471
0.2099996361
0.2099998583
0.2100000627
0.2100000261
0.210000008
0.2099998588
0.2099996451
0.2100001715
0.2100001183
0.2100002188
0.2100003158
0.2100003657
0.2100003706
0.2100003314
0.2100002642
0.2100001857
0.2100001048
0.2100000175
0.2099999075
0.2099997544
0.2099995462
0.2099992925
0.2099990497
0.2099989173
0.2099988459
0.2099987847
0.2099987199
0.2099986629
0.2099986385
0.209998684
0.2099988417
0.2099990927
0.209999427
0.2099997345
0.2099999662
0.2100002316
0.2100001339
0.2100000928
0.2099999084
0.2099996537
0.2100000916
0.2099999594
0.2100000403
0.2100001445
0.2100002115
0.2100002377
0.2100002213
0.2100001739
0.2100001092
0.2100000348
0.2099999475
0.2099998335
0.209999675
0.2099994632
0.2099992112
0.2099990034
0.2099989188
0.2099988852
0.2099988214
0.2099987129
0.2099986124
0.2099985696
0.2099986143
0.2099987963
0.2099990755
0.2099994409
0.2099997721
0.2100000155
0.2100003401
0.2100002019
0.2100001401
0.2099999122
0.209999612
0.2100000506
0.2099998244
0.2099998677
0.2099999653
0.2100000441
0.2100000865
0.2100000914
0.2100000641
0.2100000142
0.2099999476
0.2099998619
0.2099997462
0.2099995884
0.2099993888
0.2099991838
0.2099990783
0.2099990761
0.2099990801
0.2099990197
0.2099988653
0.2099986519
0.2099985369
0.2099985509
0.2099987117
0.2099990083
0.2099993727
0.2099997211
0.2099999741
0.2100003085
0.2100001717
0.2100000888
0.2099998124
0.2099994815
0.2100000528
0.2099997207
0.2099997103
0.2099997873
0.2099998675
0.2099999205
0.2099999425
0.2099999337
0.2099998988
0.2099998413
0.2099997591
0.2099996449
0.2099994947
0.2099993255
0.2099992111
0.209999194
0.2099992455
0.2099992788
0.2099992326
0.2099990771
0.2099988231
0.2099985815
0.2099985232
0.2099986146
0.2099988605
0.2099992087
0.2099995441
0.2099998119
0.2100001074
0.2100000108
0.209999894
0.209999582
0.2099992511
0.2100001171
0.2099996654
0.2099995836
0.2099996248
0.2099996932
0.2099997503
0.2099997825
0.2099997884
0.2099997676
0.2099997201
0.2099996428
0.2099995305
0.2099993897
0.2099992708
0.2099992325
0.2099992796
0.2099993681
0.2099994249
0.2099993986
0.209999259
0.2099990138
0.2099987338
0.2099985664
0.2099985668
0.2099987019
0.2099989581
0.2099992475
0.2099994952
0.2099997277
0.2099996931
0.2099995413
0.2099992433
0.2099989812
0.2100002725
0.2099996879
0.209999512
0.2099994996
0.2099995419
0.2099995915
0.2099996282
0.2099996435
0.2099996335
0.2099995959
0.2099995244
0.2099994173
0.2099992959
0.2099992228
0.2099992323
0.2099993151
0.2099994218
0.2099994924
0.209999484
0.209999368
0.2099991468
0.2099989017
0.2099986693
0.2099985807
0.2099986108
0.2099987322
0.209998903
0.2099990769
0.2099992285
0.2099992377
0.2099990779
0.2099989111
0.209998693
0.2100005373
0.2099998238
0.2099995294
0.2099994406
0.2099994395
0.209999468
0.2099994986
0.2099995172
0.2099995159
0.2099994886
0.209999427
0.209999329
0.2099992237
0.2099991791
0.2099992103
0.209999301
0.2099994054
0.2099994748
0.2099994738
0.2099993777
0.2099991823
0.2099989567
0.209998731
0.2099986041
0.2099985739
0.2099986146
0.2099986541
0.2099987009
0.2099987536
0.2099987542
0.2099986721
0.2099986511
0.2099983568
0.2100008953
0.2100000913
0.2099996682
0.2099994784
0.2099994128
0.2099994041
0.2099994163
0.2099994296
0.2099994323
0.2099994149
0.2099993659
0.2099992783
0.2099991799
0.2099991424
0.2099991806
0.2099992554
0.2099993375
0.2099993893
0.2099993835
0.2099993015
0.2099991371
0.2099989408
0.209998743
0.2099985947
0.2099985464
0.2099985629
0.2099985482
0.2099984973
0.2099984616
0.2099984518
0.2099984301
0.2099984356
0.2099979751
0.2100012925
0.2100004643
0.2099999358
0.2099996342
0.2099994842
0.209999421
0.2099994014
0.2099993996
0.2099994001
0.2099993905
0.2099993555
0.2099992795
0.2099991789
0.2099991245
0.209999157
0.2099992102
0.2099992558
0.2099992762
0.2099992549
0.2099991827
0.2099990558
0.2099989003
0.2099987272
0.2099985628
0.209998504
0.2099985253
0.2099985082
0.2099984204
0.2099983448
0.2099983084
0.209998342
0.2099983724
0.2099982104
0.2100016751
0.2100008745
0.2100003005
0.209999911
0.2099996727
0.2099995423
0.2099994794
0.2099994544
0.2099994478
0.2099994442
0.2099994243
0.2099993638
0.2099992595
0.2099991653
0.2099991481
0.2099991832
0.2099992044
0.2099991893
0.2099991453
0.2099990775
0.2099989869
0.2099988705
0.2099987075
0.2099985268
0.2099984601
0.2099984917
0.2099984926
0.2099984015
0.2099983277
0.2099982683
0.2099983328
0.2099983558
0.2099983864
0.210002036
0.2100012647
0.2100007149
0.2100003012
0.2100000043
0.2099998113
0.2099997011
0.2099996496
0.2099996354
0.2099996385
0.2099996338
0.2099995888
0.2099994836
0.2099993453
0.209999241
0.2099991997
0.2099991851
0.2099991586
0.2099991119
0.2099990436
0.2099989696
0.2099988721
0.2099986969
0.2099985131
0.2099984744
0.2099985298
0.2099985432
0.2099984765
0.2099984353
0.2099983632
0.2099984127
0.2099983728
0.2099984493
0.2100023436
0.2100016239
0.2100011564
0.2100008075
0.2100005273
0.210000315
0.2100001763
0.2100001085
0.2100000995
0.2100001264
0.2100001515
0.2100001242
0.2100000054
0.2099998004
0.2099995603
0.2099993428
0.2099991703
0.209999039
0.2099989433
0.2099988859
0.2099988705
0.2099987649
0.2099985573
0.2099985029
0.2099986156
0.2099987229
0.2099987361
0.2099987089
0.2099986945
0.2099986477
0.2099986444
0.2099984734
0.2099984292
0.2100025313
0.210002576
0.2100025972
0.2100025938
0.2100025693
0.210002532
0.2100023948
0.2100020629
0.2100016037
0.2100012995
0.2100013293
0.2100015941
0.2100019484
0.2100023059
0.210002578
0.2100028519
0.2100029999
0.2100030385
0.2100029649
0.2100028381
0.2100026805
0.2100025291
0.2100023888
0.2100022359
0.2100021547
0.2100021463
0.2100022316
0.2100023891
0.2100025784
0.2100024432
0.2100024629
0.2100024746
0.2100024731
0.2100024558
0.210002432
0.2100023178
0.2100020122
0.2100015637
0.2100012618
0.2100012578
0.2100014749
0.2100017866
0.2100021148
0.2100024029
0.210002617
0.2100027583
0.2100028188
0.210002806
0.2100027415
0.2100026399
0.2100025107
0.2100023861
0.2100019707
0.2100021555
0.2100020586
0.2100020708
0.2100021202
0.2100022659
0.2100024074
0.2100024626
0.2100024003
0.2100023689
0.2100023781
0.2100023854
0.2100023707
0.2100023088
0.2100022009
0.2100020457
0.210001786
0.2100014267
0.2100011792
0.2100011618
0.2100013499
0.2100016405
0.2100019478
0.2100022034
0.2100023815
0.2100024889
0.2100025311
0.2100025285
0.2100025004
0.2100024437
0.2100023537
0.2100022473
0.2100021918
0.2100020545
0.2100019558
0.2100019582
0.210001956
0.2100020109
0.2100020569
0.2100020436
0.2100019592
0.2100022491
0.2100022738
0.2100022835
0.2100022674
0.2100021837
0.2100020164
0.2100017956
0.2100015321
0.2100012375
0.210001066
0.2100010303
0.2100011972
0.2100014765
0.2100017752
0.2100020117
0.2100021513
0.2100022159
0.2100022144
0.2100021784
0.2100021448
0.2100021123
0.2100020749
0.2100020596
0.2100019065
0.2100017926
0.2100016629
0.2100016511
0.2100016321
0.2100016444
0.2100016378
0.2100016186
0.2100015619
0.2100014224
0.2100020726
0.2100021622
0.2100021937
0.210002163
0.210002027
0.2100017775
0.2100014916
0.210001246
0.2100010625
0.2100011646
0.2100008968
0.2100010233
0.210001279
0.2100015654
0.2100017855
0.2100018995
0.2100019306
0.2100018923
0.2100018249
0.2100017689
0.2100017319
0.2100017104
0.2100018477
0.2100015314
0.2100013849
0.2100009606
0.2100011706
0.2100011593
0.2100011439
0.2100011854
0.2100012139
0.2100012186
0.2100012157
0.2100018811
0.2100020717
0.210002102
0.2100020253
0.2100018137
0.210001469
0.2100011438
0.210000945
0.210000811
0.2100007454
0.2100007152
0.2100008256
0.2100010367
0.2100012786
0.210001477
0.2100015874
0.2100016033
0.2100015414
0.2100014508
0.210001381
0.2100013365
0.2100013088
0.2100014644
0.2100011247
0.2100010239
0.2100008775
0.2100008409
0.2100008289
0.2100007815
0.2100007957
0.210000815
0.2100008124
0.2100008112
0.2100018626
0.2100020609
0.2100020236
0.2100018745
0.2100015973
0.2100012296
0.2100009557
0.2100008117
0.2100007122
0.2100006334
0.2100005989
0.210000671
0.2100008286
0.2100010119
0.2100011568
0.2100012339
0.2100012276
0.2100011468
0.2100010365
0.2100009443
0.2100008564
0.2100007751
0.2100007364
0.2100006102
0.2100005477
0.2100004806
0.2100004282
0.2100004142
0.2100004207
0.2100004494
0.2100004692
0.2100004546
0.2100004367
0.2100019662
0.2100020381
0.2100019249
0.2100017311
0.2100014568
0.2100011904
0.2100009916
0.2100008372
0.2100007054
0.2100005832
0.2100005199
0.2100005542
0.2100006601
0.2100007794
0.2100008553
0.2100009079
0.2100008686
0.2100007599
0.2100006164
0.210000521
0.2100004134
0.2100003165
0.2100002583
0.2100001582
0.2100001179
0.2100001033
0.2100001076
0.2100001133
0.2100001292
0.2100001446
0.2100001812
0.2100001488
0.2100001492
0.2100020346
0.2100019855
0.2100018233
0.2100016339
0.2100014378
0.2100012873
0.2100011369
0.2100009384
0.2100007341
0.2100005579
0.210000463
0.210000467
0.210000512
0.2100005185
0.2100003189
0.2100005106
0.2100005406
0.210000382
0.2100001072
0.2100001091
0.2100000011
0.2099998975
0.2099998185
0.2099997574
0.2099997363
0.2099997426
0.2099997692
0.2099997983
0.2099998336
0.2099998637
0.2099998789
0.2099998966
0.2099999192
0.2100019701
0.2100018425
0.2100016774
0.2100015616
0.2100015105
0.2100014891
0.2100013586
0.2100010774
0.2100007676
0.2100005208
0.2100003918
0.2100003673
0.2100004265
0.2100005811
0.2100005618