/*--------------------------------*- C++ -*----------------------------------*\
  =========                 |
  \\      /  F ield         | OpenFOAM: The Open Source CFD Toolbox
   \\    /   O peration     | Website:  https://openfoam.org
    \\  /    A nd           | Version:  8
     \\/     M anipulation  |
\*---------------------------------------------------------------------------*/
FoamFile
{
    version     2.0;
    format      ascii;
    class       volScalarField;
    location    "1.5";
    object      p;
}
// * * * * * * * * * * * * * * * * * * * * * * * * * * * * * * * * * * * * * //

dimensions      [1 -1 -2 0 0 0 0];

internalField   nonuniform List<scalar> 
67286
(
100003.8896
100003.8946
100003.8976
100003.8929
100003.9075
100003.9303
100003.8884
100003.8331
100003.8498
100003.8516
100003.8379
100003.8257
100003.8179
100003.8182
100003.8267
100003.825
100003.8361
100003.8586
100003.8784
100003.9045
100003.9399
100003.9572
100003.9863
100003.994
100003.9952
100003.9936
100003.9825
100003.9637
100003.8893
100003.8755
100003.8602
100003.8496
100003.8682
100003.8991
100003.8697
100003.8471
100003.8606
100003.8605
100003.8471
100003.8341
100003.8254
100003.8233
100003.8276
100003.833
100003.8438
100003.8591
100003.8753
100003.8961
100003.9241
100003.9587
100004.0019
100004.0837
100003.9994
100004.0139
100003.971
100003.974
100003.9286
100003.8971
100003.8635
100003.8337
100003.859
100003.8502
100003.85
100003.8483
100003.8405
100003.8395
100003.8408
100003.8534
100003.8705
100003.8681
100003.8569
100003.8438
100003.8347
100003.8318
100003.8349
100003.8412
100003.852
100003.8669
100003.8852
100003.9064
100003.9318
100003.9608
100003.9996
100004.0011
100003.9951
100004.0098
100003.9843
100003.9985
100003.9657
100003.9191
100003.8799
100003.8489
100003.8697
100003.8651
100003.8678
100003.8687
100003.8708
100003.8625
100003.8705
100003.8832
100003.8893
100003.886
100003.8714
100003.8561
100003.8469
100003.8455
100003.8483
100003.8529
100003.8606
100003.8728
100003.8896
100003.9091
100003.9324
100003.9601
100003.9919
100004.0068
100003.999
100004.0235
100003.9794
100003.9547
100003.9485
100003.9244
100003.8904
100003.8641
100003.8398
100003.8721
100003.8675
100003.8674
100003.8686
100003.8799
100003.8868
100003.8893
100003.8958
100003.902
100003.9035
100003.8866
100003.8716
100003.8653
100003.8678
100003.8726
100003.8751
100003.8782
100003.8861
100003.8993
100003.9158
100003.9366
100003.963
100003.997
100004.0041
100004.0205
100004.1932
100003.9976
100004.1766
100003.9818
100003.9444
100003.9063
100003.8863
100003.8627
100003.8897
100003.879
100003.8739
100003.8752
100003.882
100003.8827
100003.8845
100003.894
100003.9001
100003.9015
100003.8936
100003.8861
100003.8862
100003.8947
100003.906
100003.9088
100003.9087
100003.9112
100003.9187
100003.9286
100003.9442
100003.9655
100003.9948
100003.9904
100003.9955
100004.0091
100004.008
100004.0349
100003.9897
100003.9495
100003.9216
100003.917
100003.8891
100003.8962
100003.8807
100003.8781
100003.8796
100003.8742
100003.8611
100003.8688
100003.8838
100003.8969
100003.9036
100003.9039
100003.9056
100003.9163
100003.9387
100003.9652
100003.961
100003.9539
100003.9509
100003.9525
100003.9497
100003.9547
100003.9634
100003.9738
100003.9717
100003.9728
100003.9796
100003.972
100003.9825
100003.9663
100003.9378
100003.9028
100003.8915
100003.8708
100003.9321
100003.8937
100003.8857
100003.8725
100003.8535
100003.8366
100003.8431
100003.8698
100003.8988
100003.9135
100003.9219
100003.9337
100003.9518
100003.9766
100004.0187
100004.0004
100003.9979
100003.995
100004.0036
100003.9839
100003.9801
100003.9766
100003.9758
100003.9698
100003.966
100003.967
100003.9692
100003.9692
100003.9547
100003.9285
100003.9157
100003.899
100003.8771
100003.9418
100003.8916
100003.8686
100003.8548
100003.8852
100003.9165
100003.8781
100003.8789
100003.9196
100003.9397
100003.9605
100004.011
100004.107
100004.2521
100004.517
100004.2655
100004.2058
100004.1591
100004.2114
100004.0639
100004.0367
100004.0035
100003.9867
100003.9747
100003.9662
100003.9603
100003.9541
100003.9475
100003.9364
100003.9218
100003.9144
100003.8985
100003.8882
100004.0663
100003.8973
100003.8375
100003.8867
100004.0228
100004.0869
100003.9942
100003.9217
100003.951
100003.97
100003.9809
100003.9978
100004.034
100004.0747
100004.1517
100004.1378
100004.1513
100004.0931
100004.1472
100004.0398
100004.043
100004.0132
100003.9984
100003.9855
100003.9764
100003.9699
100003.9623
100003.9556
100003.9423
100003.9289
100003.9237
100003.9098
100003.9018
100004.0263
100003.9188
100003.8683
100003.8767
100003.98
100004.0272
100003.9839
100003.9561
100003.9863
100004.0117
100004.1023
100004.3081
100004.7065
100005.1655
100008.9108
100004.7974
100005.2189
100004.5341
100005.9819
100004.1653
100004.3479
100004.0848
100004.0381
100004.0043
100003.9893
100003.9813
100003.9738
100003.9645
100003.9562
100003.9481
100003.9435
100003.9324
100003.922
100004.0038
100003.9234
100003.8818
100003.8496
100003.8783
100003.9144
100003.9467
100003.9443
100003.9526
100003.9722
100004.008
100004.0603
100004.1489
100004.3447
100004.8568
100004.438
100004.3203
100004.2222
100004.3273
100004.1096
100004.0811
100004.0333
100004.0118
100004.0002
100003.996
100003.9977
100004.0023
100004.0034
100003.9843
100003.9811
100003.9781
100003.9684
100003.9538
100003.9757
100003.9182
100003.8918
100003.8702
100003.8726
100003.8942
100003.9172
100003.9231
100003.9297
100003.9544
100004.0059
100004.0979
100004.2209
100004.3939
100004.6853
100004.4187
100004.3365
100004.2738
100004.3221
100004.136
100004.0892
100004.0387
100004.0115
100003.9972
100003.9916
100003.9921
100003.9953
100004.0007
100004.0061
100004.0158
100004.0218
100004.0143
100003.9947
100003.9637
100003.9104
100003.8845
100003.8648
100003.8649
100003.8778
100003.8856
100003.8908
100003.9032
100003.9257
100003.9567
100003.9966
100004.0539
100004.1292
100004.2094
100004.1711
100004.1373
100004.1135
100004.1057
100004.0564
100004.0295
100004.0075
100003.9938
100003.9854
100003.981
100003.9824
100003.9913
100004.0095
100004.0326
100004.0551
100004.0659
100004.0568
100004.0294
100003.961
100003.9036
100003.8746
100003.852
100003.848
100003.8545
100003.8636
100003.8778
100003.896
100003.9185
100003.9454
100003.9778
100004.0177
100004.0603
100004.0972
100004.0867
100004.0652
100004.049
100004.0351
100004.01
100003.9929
100003.9805
100003.9722
100003.9665
100003.963
100003.9657
100003.9826
100004.0186
100004.0661
100004.0977
100004.1092
100004.096
100004.0598
100003.968
100003.9002
100003.868
100003.8419
100003.8352
100003.8423
100003.8574
100003.8772
100003.8983
100003.9194
100003.939
100003.9562
100003.9722
100003.9884
100004.0042
100004.0078
100004.0008
100003.9918
100003.9821
100003.97
100003.9604
100003.9522
100003.9446
100003.9373
100003.9316
100003.9363
100003.9722
100004.0432
100004.1166
100004.1462
100004.1517
100004.1231
100004.0756
100003.9838
100003.9032
100003.868
100003.8396
100003.8323
100003.8403
100003.8572
100003.8784
100003.9002
100003.9193
100003.933
100003.9399
100003.9416
100003.9422
100003.9482
100003.9541
100003.9532
100003.9489
100003.9434
100003.9367
100003.9298
100003.9215
100003.9102
100003.8966
100003.8882
100003.9126
100003.9906
100004.1145
100004.2057
100004.2158
100004.1904
100004.1271
100004.0647
100004.0032
100003.9126
100003.8738
100003.8425
100003.833
100003.8389
100003.854
100003.8732
100003.8926
100003.9085
100003.9176
100003.9186
100003.9131
100003.907
100003.9102
100003.9166
100003.9179
100003.9167
100003.9147
100003.9115
100003.9059
100003.8951
100003.8775
100003.8586
100003.864
100003.9289
100004.0591
100004.2296
100004.3364
100004.3039
100004.2215
100004.1145
100004.0351
100004.0222
100003.9266
100003.8843
100003.8488
100003.835
100003.8367
100003.8476
100003.863
100003.8786
100003.8908
100003.8963
100003.8941
100003.8864
100003.8806
100003.8846
100003.8909
100003.8926
100003.8938
100003.8951
100003.895
100003.8904
100003.8759
100003.8516
100003.8331
100003.8587
100003.9537
100004.1217
100004.3232
100004.4477
100004.3791
100004.2294
100004.0796
100003.9865
100004.0389
100003.9436
100003.8983
100003.8584
100003.8389
100003.8346
100003.84
100003.8502
100003.8612
100003.8695
100003.8725
100003.8698
100003.8646
100003.8637
100003.8682
100003.8712
100003.8705
100003.8727
100003.879
100003.8862
100003.8871
100003.8724
100003.8415
100003.8142
100003.8366
100003.935
100004.1159
100004.3317
100004.4723
100004.3815
100004.193
100004.02
100003.9264
100004.0533
100003.9626
100003.9153
100003.8716
100003.8465
100003.8355
100003.8346
100003.8391
100003.8452
100003.8499
100003.8516
100003.8509
100003.8513
100003.8552
100003.8576
100003.8561
100003.8548
100003.859
100003.8686
100003.8822
100003.8957
100003.8904
100003.8569
100003.8122
100003.8053
100003.8802
100004.0435
100004.2484
100004.3918
100004.2937
100004.103
100003.9402
100003.8715
100004.0662
100003.9829
100003.9351
100003.8891
100003.8594
100003.8422
100003.8351
100003.8339
100003.8353
100003.837
100003.8384
100003.8408
100003.8458
100003.8501
100003.8502
100003.8509
100003.8592
100003.8708
100003.8765
100003.882
100003.9021
100003.9206
100003.8965
100003.8434
100003.7984
100003.8164
100003.9262
100004.0875
100004.2131
100004.1238
100003.972
100003.8579
100003.8424
100004.0779
100004.0039
100003.9573
100003.9106
100003.8778
100003.8561
100003.8435
100003.8372
100003.8345
100003.8337
100003.835
100003.8387
100003.843
100003.8449
100003.8469
100003.8601
100003.8842
100003.9045
100003.9079
100003.8958
100003.9
100003.9347
100003.9358
100003.8929
100003.8328
100003.793
100003.8238
100003.9148
100004.0021
100003.9369
100003.8574
100003.8174
100003.8904
100004.0887
100004.0247
100003.9811
100003.9352
100003.9008
100003.8761
100003.8598
100003.8497
100003.8437
100003.8409
100003.8408
100003.8423
100003.8426
100003.8416
100003.849
100003.8738
100003.9093
100003.9381
100003.9446
100003.9267
100003.9048
100003.9311
100003.9515
100003.936
100003.885
100003.8291
100003.7924
100003.8023
100003.84
100003.81
100003.8141
100003.828
100003.9182
100004.0986
100004.0447
100004.0054
100003.962
100003.9274
100003.901
100003.8823
100003.8697
100003.8616
100003.8571
100003.855
100003.853
100003.8491
100003.8455
100003.855
100003.885
100003.9257
100003.96
100003.9717
100003.9542
100003.9202
100003.9187
100003.9333
100003.9525
100003.93
100003.8871
100003.8398
100003.7978
100003.7865
100003.7925
100003.8686
100003.8851
100004.0074
100004.108
100004.0638
100004.0294
100003.9897
100003.9564
100003.9297
100003.9098
100003.896
100003.887
100003.8817
100003.8785
100003.8741
100003.8673
100003.8612
100003.8671
100003.894
100003.9332
100003.9687
100003.9854
100003.9709
100003.9406
100003.9251
100003.9249
100003.9475
100003.9563
100003.9403
100003.9111
100003.8738
100003.8572
100003.8604
100003.9665
100003.9662
100004.3225
100004.1167
100004.0811
100004.052
100004.0168
100003.9861
100003.9605
100003.9411
100003.9274
100003.9188
100003.9141
100003.9113
100003.9067
100003.8991
100003.8915
100003.8919
100003.9092
100003.9404
100003.9726
100003.9919
100003.9852
100003.9616
100003.9448
100003.9372
100003.9506
100003.97
100003.9783
100003.9745
100003.9529
100003.954
100003.9349
100004.021
100003.9603
100004.2477
100004.1273
100004.0981
100004.0743
100004.0443
100004.0174
100003.9944
100003.9768
100003.9648
100003.9579
100003.9554
100003.9552
100003.9541
100003.9499
100003.9452
100003.9455
100003.9561
100003.9759
100003.9996
100004.0164
100004.015
100003.9971
100003.9821
100003.9731
100003.979
100003.9954
100004.0101
100004.0252
100004.0138
100004.0352
100004.002
100004.0685
100003.997
100004.1818
100004.1342
100004.1088
100004.0893
100004.0641
100004.0413
100004.0215
100004.0064
100003.9966
100003.9919
100003.9914
100003.9933
100003.9953
100003.9957
100003.9959
100003.9999
100004.01
100004.0251
100004.041
100004.0512
100004.0483
100004.0283
100004.0129
100004.0043
100004.0057
100004.0196
100004.0356
100004.0558
100004.0545
100004.0865
100004.0521
100004.1098
100004.0417
100004.1815
100004.1474
100004.1246
100004.1101
100004.0908
100004.0738
100004.0592
100004.0483
100004.0416
100004.0396
100004.0424
100004.0501
100004.063
100004.082
100004.1066
100004.1357
100004.1645
100004.1879
100004.2006
100004.1982
100004.1791
100004.1425
100004.1153
100004.0952
100004.0814
100004.0806
100004.0857
100004.099
100004.0977
100004.1336
100004.1114
100004.1637
100004.1138
100004.2329
100003.7204
100003.7167
100003.7081
100003.6875
100003.6779
100003.6683
100003.6503
100003.6614
100003.6918
100003.7096
100003.7035
100003.6956
100003.6909
100003.7024
100003.7937
100003.6982
100003.6874
100003.6939
100003.7093
100003.7337
100003.7665
100003.79
100003.8112
100003.8191
100003.7895
100003.7817
100003.7701
100003.7564
100003.725
100003.7116
100003.6812
100003.66
100003.6568
100003.6554
100003.6488
100003.6826
100003.7108
100003.7222
100003.7136
100003.7029
100003.6944
100003.6932
100003.7018
100003.6982
100003.703
100003.7138
100003.7286
100003.7493
100003.7787
100003.8205
100003.8796
100004.1732
100003.8421
100003.8359
100003.7872
100003.6949
100003.7373
100003.7256
100003.7091
100003.687
100003.7208
100003.7111
100003.7118
100003.7012
100003.6782
100003.6733
100003.6804
100003.7212
100003.7367
100003.7399
100003.7274
100003.7124
100003.7007
100003.6965
100003.7004
100003.7032
100003.712
100003.7268
100003.7447
100003.7657
100003.7931
100003.8315
100003.9462
100003.8712
100003.8379
100003.838
100003.8143
100003.8224
100003.9132
100003.7812
100003.7384
100003.7042
100003.7292
100003.7217
100003.7316
100003.729
100003.7149
100003.6988
100003.7216
100003.7497
100003.7625
100003.7665
100003.7455
100003.7242
100003.7081
100003.7009
100003.7025
100003.7081
100003.717
100003.7328
100003.7522
100003.7723
100003.7963
100003.8259
100003.8684
100003.8755
100003.835
100003.8099
100003.7857
100003.7391
100003.7755
100003.7606
100003.7416
100003.7138
100003.6976
100003.7322
100003.7301
100003.7346
100003.7323
100003.744
100003.7447
100003.7576
100003.7733
100003.7889
100003.8128
100003.7663
100003.7384
100003.7199
100003.7122
100003.7129
100003.7179
100003.7258
100003.7398
100003.7577
100003.776
100003.799
100003.8287
100003.8899
100003.8669
100003.8347
100003.8641
100003.7653
100003.583
100003.7549
100003.7588
100003.7539
100003.7418
100003.7442
100003.744
100003.7385
100003.7286
100003.7231
100003.7338
100003.7386
100003.7552
100003.7692
100003.7783
100003.7826
100003.7653
100003.7474
100003.7346
100003.7296
100003.7296
100003.7336
100003.7414
100003.7544
100003.7691
100003.7833
100003.8045
100003.8343
100003.9025
100003.849
100003.8202
100003.7846
100003.7068
100003.6871
100003.7451
100003.7643
100003.7595
100003.7712
100003.8053
100003.7496
100003.7343
100003.7229
100003.7131
100003.6946
100003.684
100003.7232
100003.7523
100003.7682
100003.7728
100003.764
100003.7522
100003.7444
100003.7436
100003.748
100003.7559
100003.7652
100003.7762
100003.7853
100003.7908
100003.8026
100003.8176
100003.8389
100003.828
100003.8242
100003.8322
100003.8179
100003.7854
100003.797
100003.7812
100003.7444
100003.7505
100003.743
100003.7543
100003.7173
100003.6971
100003.6623
100003.6406
100003.6405
100003.6639
100003.7155
100003.7554
100003.7687
100003.7656
100003.7559
100003.7416
100003.7268
100003.7139
100003.7415
100003.7705
100003.787
100003.7939
100003.7999
100003.811
100003.8195
100003.8293
100003.8216
100003.8168
100003.8133
100003.8029
100003.8051
100003.7873
100003.7758
100003.7242
100003.7452
100003.7204
100003.7442
100003.6945
100003.6562
100003.6348
100003.6402
100003.6452
100003.6581
100003.7153
100003.7642
100003.7823
100003.7849
100003.7909
100003.8026
100003.8145
100003.7932
100003.7966
100003.8423
100003.8655
100003.8772
100003.8421
100003.8449
100003.8334
100003.8296
100003.8231
100003.8187
100003.8149
100003.8068
100003.7982
100003.7853
100003.7736
100003.7628
100003.7495
100003.7239
100003.7118
100003.5935
100003.6034
100003.6169
100003.6308
100003.6436
100003.6427
100003.7134
100003.7781
100003.7973
100003.7921
100003.7722
100003.7323
100003.6517
100003.339
100003.6448
100003.7796
100003.7881
100003.719
100003.8095
100003.8335
100003.832
100003.8322
100003.829
100003.8262
100003.8232
100003.8157
100003.8082
100003.7887
100003.7747
100003.7615
100003.7531
100003.7451
100003.7576
100003.667
100003.6263
100003.6272
100003.6436
100003.6667
100003.7066
100003.7966
100003.8116
100003.8332
100003.863
100003.8944
100003.8892
100003.8976
100003.503
100003.47
100003.954
100003.9301
100003.973
100003.9064
100003.9635
100003.8673
100003.8602
100003.8443
100003.837
100003.831
100003.8206
100003.8045
100003.7937
100003.7832
100003.7719
100003.7644
100003.7575
100003.7925
100003.719
100003.6596
100003.6276
100003.6446
100003.677
100003.7425
100003.7895
100003.793
100003.8085
100003.8335
100003.8743
100003.9429
100004.0723
100004.3208
100004.0934
100004.0365
100003.9969
100004.0726
100003.9189
100003.8928
100003.8611
100003.8511
100003.8466
100003.8484
100003.8602
100003.8729
100003.8522
100003.8107
100003.8058
100003.7892
100003.7821
100003.7751
100003.8092
100003.7594
100003.7262
100003.6858
100003.6763
100003.6973
100003.7444
100003.761
100003.7702
100003.7915
100003.8282
100003.8831
100003.9519
100004.02
100004.0525
100004.0321
100004.0228
100004.0071
100004.0079
100003.9221
100003.8997
100003.8671
100003.8515
100003.8439
100003.8415
100003.8424
100003.84
100003.8304
100003.8184
100003.8171
100003.8095
100003.8044
100003.797
100003.8113
100003.7648
100003.7365
100003.7078
100003.6965
100003.7017
100003.7162
100003.7283
100003.7426
100003.7628
100003.7896
100003.8246
100003.8685
100003.9187
100003.9645
100003.9639
100003.9442
100003.9284
100003.9172
100003.8826
100003.865
100003.849
100003.839
100003.8325
100003.8286
100003.8275
100003.8281
100003.833
100003.8315
100003.837
100003.8343
100003.8288
100003.8181
100003.8081
100003.7571
100003.7273
100003.6995
100003.6875
100003.6872
100003.6956
100003.7074
100003.7223
100003.741
100003.764
100003.7924
100003.8283
100003.8675
100003.8995
100003.9073
100003.896
100003.885
100003.8728
100003.8532
100003.84
100003.8293
100003.8209
100003.8132
100003.8069
100003.8047
100003.8084
100003.8229
100003.8409
100003.8586
100003.8589
100003.8505
100003.8339
100003.8065
100003.7474
100003.7164
100003.6888
100003.6776
100003.6771
100003.6851
100003.6972
100003.7115
100003.7276
100003.7452
100003.7649
100003.7878
100003.8143
100003.8404
100003.8533
100003.8502
100003.8438
100003.8353
100003.8247
100003.8159
100003.8076
100003.7977
100003.7846
100003.7714
100003.767
100003.7764
100003.8072
100003.8464
100003.8838
100003.8865
100003.8703
100003.8456
100003.812
100003.7443
100003.7131
100003.6853
100003.6742
100003.6735
100003.6812
100003.6933
100003.707
100003.7206
100003.7334
100003.7454
100003.7583
100003.7751
100003.7969
100003.8124
100003.8137
100003.8105
100003.8057
100003.7997
100003.7925
100003.781
100003.7611
100003.7354
100003.7161
100003.7134
100003.7356
100003.7884
100003.8408
100003.8867
100003.8917
100003.868
100003.8381
100003.8255
100003.7501
100003.7172
100003.6876
100003.6748
100003.6726
100003.6788
100003.6894
100003.7013
100003.7122
100003.7211
100003.728
100003.735
100003.7463
100003.7655
100003.7816
100003.7854
100003.7848
100003.783
100003.7793
100003.7702
100003.7483
100003.7104
100003.6769
100003.664
100003.6728
100003.7127
100003.7853
100003.8436
100003.8763
100003.8641
100003.8334
100003.8052
100003.8444
100003.7643
100003.7276
100003.6946
100003.6787
100003.6735
100003.6771
100003.6851
100003.6943
100003.7025
100003.7083
100003.7123
100003.7166
100003.726
100003.7446
100003.7595
100003.7639
100003.7651
100003.7658
100003.764
100003.7518
100003.7176
100003.6658
100003.6365
100003.634
100003.6517
100003.7016
100003.7849
100003.8432
100003.8572
100003.8191
100003.7776
100003.7517
100003.8662
100003.7847
100003.7437
100003.7065
100003.6864
100003.6771
100003.6768
100003.6814
100003.6875
100003.6929
100003.6967
100003.6994
100003.7037
100003.7134
100003.7301
100003.7392
100003.7396
100003.7414
100003.747
100003.7522
100003.7433
100003.7024
100003.6356
100003.6045
100003.6063
100003.6225
100003.6702
100003.7521
100003.8077
100003.8093
100003.7548
100003.7081
100003.6866
100003.8888
100003.8094
100003.7648
100003.7234
100003.6987
100003.685
100003.6801
100003.6807
100003.6834
100003.6863
100003.6887
100003.6915
100003.697
100003.7059
100003.7134
100003.7108
100003.7056
100003.7073
100003.7173
100003.7338
100003.7427
100003.7111
100003.6298
100003.575
100003.5778
100003.5884
100003.6234
100003.6909
100003.7395
100003.7344
100003.6792
100003.6371
100003.6219
100003.9108
100003.8364
100003.7898
100003.7451
100003.716
100003.6979
100003.6887
100003.6852
100003.6846
100003.6852
100003.6865
100003.6893
100003.6939
100003.6975
100003.695
100003.6902
100003.6889
100003.6919
100003.6977
100003.7079
100003.7278
100003.733
100003.6674
100003.5727
100003.5428
100003.5577
100003.5766
100003.6194
100003.6538
100003.6473
100003.6059
100003.5729
100003.5646
100003.9313
100003.864
100003.8175
100003.7712
100003.7386
100003.7168
100003.7034
100003.6962
100003.6924
100003.6907
100003.6906
100003.6917
100003.6919
100003.6884
100003.684
100003.6833
100003.6878
100003.6938
100003.6963
100003.6965
100003.7057
100003.7331
100003.7181
100003.6277
100003.5429
100003.5307
100003.5466
100003.5665
100003.5813
100003.5758
100003.5501
100003.5176
100003.5313
100003.9497
100003.891
100003.8462
100003.8003
100003.7656
100003.7408
100003.7243
100003.7137
100003.7072
100003.7034
100003.7015
100003.6988
100003.6923
100003.684
100003.6811
100003.6849
100003.6946
100003.7045
100003.7079
100003.7046
100003.7078
100003.7277
100003.741
100003.7083
100003.6102
100003.5435
100003.5308
100003.548
100003.5428
100003.5375
100003.5077
100003.5022
100003.4847
100003.9655
100003.9161
100003.875
100003.8309
100003.7957
100003.7689
100003.75
100003.7373
100003.7291
100003.724
100003.7198
100003.7122
100003.6994
100003.6881
100003.686
100003.6919
100003.7047
100003.7179
100003.7236
100003.7198
100003.7192
100003.7264
100003.7366
100003.7533
100003.7042
100003.6278
100003.5636
100003.5547
100003.5383
100003.528
100003.5104
100003.5315
100003.3556
100003.9793
100003.9389
100003.9028
100003.8618
100003.8274
100003.7999
100003.7797
100003.7659
100003.757
100003.7515
100003.7461
100003.7355
100003.7183
100003.7036
100003.7004
100003.7053
100003.7183
100003.7332
100003.7418
100003.7401
100003.7394
100003.7412
100003.7452
100003.768
100003.7697
100003.731
100003.6699
100003.6222
100003.5921
100003.5931
100003.5842
100003.5707
100003.1298
100003.9914
100003.9587
100003.9281
100003.8914
100003.8592
100003.8324
100003.8123
100003.7986
100003.7903
100003.7858
100003.7813
100003.7709
100003.7516
100003.7322
100003.7253
100003.7289
100003.7393
100003.754
100003.7652
100003.7676
100003.7682
100003.7683
100003.7693
100003.7863
100003.8072
100003.8054
100003.7792
100003.7409
100003.7116
100003.7139
100003.7221
100003.6897
100003.4795
100004.0049
100003.9776
100003.9524
100003.9209
100003.8922
100003.8676
100003.8491
100003.8369
100003.8307
100003.8291
100003.8283
100003.8219
100003.8062
100003.7856
100003.7728
100003.7722
100003.7809
100003.7942
100003.8059
100003.8107
100003.8105
100003.8078
100003.8076
100003.8205
100003.8449
100003.8585
100003.8598
100003.8413
100003.8353
100003.8241
100003.8429
100003.7938
100003.7085
100004.0139
100003.9897
100003.9691
100003.9426
100003.9181
100003.8967
100003.8808
100003.871
100003.8673
100003.8685
100003.8712
100003.8689
100003.857
100003.8386
100003.8221
100003.8166
100003.8222
100003.8336
100003.8445
100003.8503
100003.8483
100003.8413
100003.8403
100003.8512
100003.8757
100003.8952
100003.9088
100003.9012
100003.9165
100003.8944
100003.9259
100003.8689
100003.852
100004.0274
100004.0051
100003.9893
100003.9681
100003.9491
100003.9328
100003.9209
100003.9144
100003.9135
100003.9182
100003.9266
100003.9348
100003.9388
100003.939
100003.9399
100003.9464
100003.9583
100003.9706
100003.9772
100003.9748
100003.9599
100003.9409
100003.9255
100003.9231
100003.9349
100003.9483
100003.9574
100003.9502
100003.969
100003.9584
100003.9921
100003.9439
100003.9652
100003.6108
100003.6051
100003.6058
100003.6032
100003.5918
100003.5804
100003.5686
100003.567
100003.5747
100003.5749
100003.5691
100003.5606
100003.5505
100003.5432
100003.5424
100003.5415
100003.5505
100003.566
100003.5674
100003.5786
100003.5946
100003.6165
100003.636
100003.6319
100003.6418
100003.6405
100003.63
100003.621
100003.5965
100003.6178
100003.6103
100003.6089
100003.6054
100003.5975
100003.5898
100003.5835
100003.5868
100003.5932
100003.5926
100003.585
100003.5748
100003.5641
100003.5575
100003.559
100003.555
100003.5602
100003.5703
100003.5802
100003.594
100003.6117
100003.628
100003.6569
100003.6574
100003.6877
100003.6639
100003.6397
100003.6141
100003.5927
100003.5932
100003.5825
100003.5507
100003.6155
100003.6094
100003.6129
100003.6153
100003.6122
100003.6059
100003.6048
100003.6115
100003.6148
100003.6159
100003.6047
100003.591
100003.5781
100003.5698
100003.5671
100003.5669
100003.5722
100003.5819
100003.5941
100003.609
100003.6252
100003.6354
100003.6901
100003.704
100003.6783
100003.6672
100003.6647
100003.6567
100003.6306
100003.6089
100003.5877
100003.5643
100003.6251
100003.6176
100003.622
100003.6252
100003.6275
100003.6277
100003.6284
100003.6333
100003.6392
100003.6554
100003.6301
100003.6087
100003.5909
100003.579
100003.5741
100003.575
100003.5809
100003.591
100003.6044
100003.621
100003.6414
100003.6668
100003.7316
100003.6965
100003.6722
100003.6391
100003.6469
100003.6402
100003.6405
100003.6181
100003.6011
100003.5856
100003.5779
100003.626
100003.6178
100003.6214
100003.6251
100003.6328
100003.6376
100003.6422
100003.6558
100003.6891
100003.8618
100003.6649
100003.6253
100003.6025
100003.588
100003.5819
100003.5827
100003.5883
100003.5981
100003.6114
100003.6289
100003.654
100003.6842
100003.8686
100003.7022
100003.6624
100003.5122
100003.6234
100003.5886
100003.6254
100003.6218
100003.6217
100003.6269
100003.6794
100003.6347
100003.6246
100003.6233
100003.6247
100003.6317
100003.6368
100003.6382
100003.6426
100003.6513
100003.6679
100003.6386
100003.619
100003.6036
100003.592
100003.586
100003.5886
100003.5957
100003.6055
100003.6182
100003.6383
100003.6699
100003.7004
100003.8751
100003.7128
100003.6984
100003.6562
100003.6433
100003.6374
100003.6389
100003.6335
100003.6277
100003.6352
100003.6726
100003.6335
100003.6244
100003.622
100003.6226
100003.6262
100003.628
100003.6286
100003.6328
100003.6395
100003.6449
100003.6306
100003.6161
100003.6023
100003.5906
100003.5835
100003.5917
100003.6021
100003.6107
100003.6177
100003.6324
100003.6496
100003.6661
100003.7035
100003.678
100003.6741
100003.6629
100003.6588
100003.6504
100003.6464
100003.6353
100003.6181
100003.6114
100003.6088
100003.6464
100003.6325
100003.6298
100003.6275
100003.6314
100003.6336
100003.6275
100003.6242
100003.6301
100003.6317
100003.6235
100003.6083
100003.5877
100003.565
100003.5418
100003.569
100003.5938
100003.6057
100003.6038
100003.6293
100003.6491
100003.6679
100003.6985
100003.6773
100003.6728
100003.6674
100003.6636
100003.6631
100003.6501
100003.6352
100003.6145
100003.6033
100003.5866
100003.6466
100003.6302
100003.6268
100003.6144
100003.6028
100003.5987
100003.5991
100003.6133
100003.6335
100003.6354
100003.6272
100003.6086
100003.5704
100003.5073
100003.306
100003.4955
100003.5786
100003.5998
100003.5385
100003.6245
100003.6505
100003.6636
100003.6744
100003.6717
100003.6706
100003.6678
100003.6634
100003.6554
100003.6464
100003.636
100003.6235
100003.6086
100003.5906
100003.6643
100003.6392
100003.6351
100003.6085
100003.6049
100003.6092
100003.6109
100003.6264
100003.6476
100003.6423
100003.6268
100003.6013
100003.5752
100003.586
100003.4239
100003.5919
100003.6285
100003.6271
100003.5503
100003.6436
100003.6472
100003.662
100003.6723
100003.6746
100003.6766
100003.6806
100003.6835
100003.6817
100003.6527
100003.6406
100003.6272
100003.6138
100003.6001
100003.6581
100003.6338
100003.6286
100003.6103
100003.6078
100003.6159
100003.6266
100003.6451
100003.6582
100003.6498
100003.6182
100003.5044
100003.1615
100002.9249
99999.83985
100002.9772
100003.3953
100003.4385
100002.266
100003.552
100003.5767
100003.6577
100003.6792
100003.6833
100003.6854
100003.6862
100003.6809
100003.6572
100003.653
100003.6458
100003.635
100003.6238
100003.6118
100003.656
100003.6313
100003.6258
100003.6239
100003.6199
100003.6276
100003.6428
100003.6568
100003.6582
100003.6582
100003.6642
100003.673
100003.7003
100003.7783
100003.7988
100003.876
100003.8332
100003.7863
100003.7193
100003.7157
100003.6887
100003.6865
100003.6887
100003.6934
100003.7081
100003.7631
100003.9564
100003.763
100003.6734
100003.676
100003.6512
100003.6395
100003.6279
100003.6487
100003.625
100003.6158
100003.609
100003.6123
100003.6206
100003.6313
100003.6382
100003.6415
100003.6483
100003.6589
100003.6655
100003.6505
100003.6076
100003.416
100003.692
100003.7494
100003.7375
100003.6605
100003.7031
100003.7025
100003.6949
100003.6912
100003.6912
100003.696
100003.7089
100003.7252
100003.6947
100003.6765
100003.6758
100003.6648
100003.656
100003.6453
100003.6422
100003.617
100003.6036
100003.5913
100003.5905
100003.5966
100003.6036
100003.6101
100003.6167
100003.6267
100003.6408
100003.6585
100003.679
100003.7049
100003.7266
100003.7631
100003.7557
100003.7399
100003.7125
100003.7055
100003.6967
100003.6892
100003.685
100003.6836
100003.6848
100003.6902
100003.695
100003.6996
100003.6863
100003.6875
100003.6822
100003.6744
100003.663
100003.6365
100003.6091
100003.593
100003.5769
100003.5727
100003.5748
100003.5802
100003.5873
100003.596
100003.6076
100003.6226
100003.6414
100003.6639
100003.6885
100003.7082
100003.7296
100003.7268
100003.7173
100003.7034
100003.6925
100003.6839
100003.6776
100003.6735
100003.6712
100003.6705
100003.6727
100003.6767
100003.6872
100003.6925
100003.6997
100003.6987
100003.6907
100003.6777
100003.6342
100003.603
100003.5852
100003.567
100003.5602
100003.5595
100003.5641
100003.5719
100003.5815
100003.5931