/*--------------------------------*- C++ -*----------------------------------*\
  =========                 |
  \\      /  F ield         | OpenFOAM: The Open Source CFD Toolbox
   \\    /   O peration     | Website:  https://openfoam.org
    \\  /    A nd           | Version:  8
     \\/     M anipulation  |
\*---------------------------------------------------------------------------*/
FoamFile
{
    version     2.0;
    format      ascii;
    class       surfaceScalarField;
    location    "1.5";
    object      phi;
}
// * * * * * * * * * * * * * * * * * * * * * * * * * * * * * * * * * * * * * //

dimensions      [1 0 -1 0 0 0 0];

internalField   nonuniform List<scalar> 
197358
(
-3.281361931e-06
-5.777401166e-06
-9.932513306e-06
-1.259529505e-05
-1.041389342e-05
-4.173802711e-06
-2.461726791e-05
-1.604864816e-05
-2.061173182e-06
-3.084358403e-05
-2.059011479e-05
-9.596630551e-06
-2.658337152e-05
-2.250779792e-05
-2.298279791e-05
-1.395051665e-05
-2.267440602e-05
-3.287834568e-05
7.565433441e-07
-2.48807723e-05
-3.141883351e-05
3.943488018e-06
-3.208545049e-05
-1.175878858e-05
-1.141546375e-05
-3.606838753e-05
8.934632214e-06
-2.947620543e-05
-4.015990022e-05
1.362907084e-05
-4.188110093e-05
-4.12789673e-05
1.007913123e-05
-5.045723379e-05
-4.056716696e-05
7.869837095e-06
-5.691399868e-05
-3.892058388e-05
6.993437187e-06
-6.154614613e-05
-3.592558398e-05
5.867539405e-06
-6.349576343e-05
-3.113619717e-05
3.472273096e-06
-6.426610324e-05
-2.5140361e-05
2.954690487e-06
-6.209125265e-05
-1.809659818e-05
5.269260907e-08
-5.696390791e-05
-1.099139167e-05
-3.094141589e-06
-5.055663327e-05
-5.419541807e-06
-5.273448448e-06
-4.495719511e-05
-2.121222569e-06
-5.757654697e-06
-3.924946975e-05
2.50509811e-08
-4.988803807e-06
-3.421939491e-05
1.229541901e-06
-4.73447315e-06
-2.565917617e-05
2.328286046e-06
-6.358605873e-06
-1.646803373e-05
1.06142235e-06
-1.131135699e-05
-4.405492844e-06
2.439097162e-06
-1.52231227e-05
8.998972976e-06
5.747675417e-07
-1.806516621e-05
2.110396112e-05
-1.180856504e-06
-1.675300372e-05
-9.366673845e-06
-1.58659997e-05
-1.283687982e-05
9.102432146e-06
-2.042999977e-06
-2.58323917e-05
4.524930692e-06
-1.943344175e-06
-3.418005071e-05
-2.896316535e-07
-7.41135362e-06
-3.627593821e-05
-2.102399472e-06
-1.63918113e-05
-3.122929599e-05
3.036699678e-08
-2.7584807e-05
-1.887778738e-05
-1.124615798e-07
-3.491339916e-05
-5.307361081e-06
-6.427372945e-06
-3.20237791e-05
-2.447897059e-06
-2.48760363e-05
-1.006881576e-05
-1.589414812e-05
-3.075749987e-05
8.13551196e-06
-3.158992847e-05
-3.584623921e-05
1.138235731e-05
-4.263970242e-05
-3.822869358e-05
7.99980703e-06
-4.990998793e-05
-3.875520779e-05
5.458689243e-06
-5.462320256e-05
-3.836893271e-05
4.161973613e-06
-5.749658163e-05
-3.675638984e-05
3.704630929e-06
-5.889413256e-05
-3.360277155e-05
3.864593652e-06
-5.935988679e-05
-2.911430582e-05
4.44017983e-06
-5.806378146e-05
-2.357112529e-05
4.178904495e-06
-5.484187072e-05
-1.752823215e-05
3.315408893e-06
-5.024434153e-05
-1.193159982e-05
1.915003993e-06
-4.539382639e-05
-7.346220414e-06
3.749521913e-07
-4.069548711e-05
-3.815703008e-06
-8.571128413e-07
-3.58907915e-05
-1.06801255e-06
-2.506671537e-06
-2.904315377e-05
1.660808777e-06
-6.179698622e-06
-1.73847595e-05
4.467375264e-06
-1.506399258e-05
-8.73147289e-06
4.80913685e-06
-1.102294882e-05
-1.202494053e-06
4.753243043e-06
-1.170712792e-05
1.02371994e-05
1.140748714e-06
-1.376098959e-05
3.224184767e-05
-1.525134802e-06
-2.984583604e-05
4.286420401e-05
-8.564526331e-06
-1.239724964e-05
4.620541496e-05
-1.436622944e-05
-2.467039023e-06
4.761324011e-05
-2.004605925e-05
1.862712758e-06
-2.612917252e-05
4.380517399e-06
-1.5330873e-06
1.422199233e-05
-3.586615843e-06
-3.886829057e-06
8.712850689e-06
-1.834316555e-06
-9.30678859e-06
2.826429866e-06
2.303773825e-06
-1.700697402e-05
2.525600343e-06
3.072099206e-06
-1.930290527e-05
1.017664816e-05
-7.850365132e-06
-1.436541455e-05
1.202552636e-05
-1.70755051e-05
-1.02757776e-05
2.286191222e-06
-1.280326418e-05
-1.549370574e-05
-2.29416488e-05
3.283418849e-06
-2.659578035e-05
-2.961700787e-05
9.961616955e-06
-3.732379508e-05
-3.446743379e-05
9.349368603e-06
-4.597067535e-05
-3.625117627e-05
6.669619946e-06
-5.159607021e-05
-3.661693376e-05
3.487456559e-06
-5.416530126e-05
-3.633346623e-05
5.34166201e-07
-5.454637243e-05
-3.540272232e-05
-9.72143913e-07
-5.408060386e-05
-3.383124224e-05
-2.368107946e-07
-5.349092717e-05
-3.143875413e-05
1.735278544e-06
-5.221030274e-05
-2.806441263e-05
3.213174499e-06
-5.019026208e-05
-2.419759974e-05
4.649831133e-06
-4.739083541e-05
-2.004524167e-05
5.314704674e-06
-4.4010916e-05
-1.557014917e-05
4.844479926e-06
-4.022064526e-05
-1.149325592e-05
3.887735716e-06
-3.558734705e-05
-8.008252675e-06
2.307385862e-06
-2.793326745e-05
-4.493350616e-06
-1.49950732e-06
-2.006971079e-05
-1.378998732e-06
-2.016811692e-06
-1.154902047e-05
-5.692531307e-07
-3.14198571e-06
-1.151130529e-06
-1.11662905e-06
-4.527817163e-06
9.827937056e-06
-4.588419309e-06
-5.249680021e-06
2.46303706e-05
-1.254224214e-05
-3.785164663e-06
3.401082927e-05
-1.52988401e-05
-2.646034901e-06
3.861772811e-05
-2.120676926e-05
2.233767955e-06
4.11955628e-05
-2.672160361e-05
4.097840322e-06
-3.197492084e-05
3.469388624e-06
-3.968484064e-06
1.662712758e-05
1.563139874e-06
-7.276233471e-06
6.655841514e-06
5.364555783e-06
-8.948970687e-06
-4.92609616e-06
9.425078477e-06
-1.189357616e-05
-6.617298624e-06
1.208734519e-05
-1.306502643e-05
1.796473042e-06
9.551504096e-06
-8.033152659e-06
4.059134807e-06
2.934422946e-06
-7.815339013e-06
-4.233401974e-06
6.301695199e-06
-1.888953399e-05
-2.211981715e-05
1.025229197e-05
-3.063614723e-05
-2.887980938e-05
1.100944875e-05
-4.126148471e-05
-3.331033096e-05
9.468375218e-06
-4.981609114e-05
-3.438328806e-05
6.686972237e-06
-5.469309717e-05
-3.392025916e-05
2.180683637e-06
-5.529041738e-05
-3.279231902e-05
-2.943390414e-06
-5.293685805e-05
-3.167301888e-05
-6.082758778e-06
-5.008614619e-05
-3.121012614e-05
-5.471276078e-06
-4.789606352e-05
-3.087931925e-05
-2.748939542e-06
-4.588247383e-05
-2.953311847e-05
-5.44302003e-07
-4.429523691e-05
-2.827729518e-05
2.493024029e-06
-4.28730052e-05
-2.643921517e-05
4.972276183e-06
-4.096649946e-05
-2.297852516e-05
5.502359866e-06
-3.831464736e-05
-1.939052081e-05
5.245848138e-06
-3.475680546e-05
-1.630383481e-05
4.738114835e-06
-2.948241844e-05
-1.350741559e-05
3.739984251e-06
-2.354384505e-05
-1.109960905e-05
3.782312616e-06
-1.737280786e-05
-1.071392842e-05
3.973918721e-06
-9.144327197e-06
-1.311646799e-05
3.771635898e-06
2.282168645e-06
-1.723824262e-05
1.223546742e-06
1.905168389e-05
-2.554505226e-05
-3.766574901e-06
2.882603954e-05
-2.53591353e-05
2.860178892e-07
3.212667152e-05
-2.873833903e-05
4.231002043e-06
3.428134342e-05
-3.289524193e-05
4.01906203e-06
3.77805412e-05
-3.549497431e-05
2.106728428e-08
-4.061024886e-05
1.401657512e-07
-4.666755648e-06
1.626160804e-05
5.032007659e-06
-8.326837543e-06
1.26842311e-06
9.04724203e-06
-9.707575948e-06
-1.04093127e-05
6.863716141e-06
-1.024578243e-05
-1.202743667e-05
5.94812447e-06
-1.041487624e-05
-1.100406588e-05
1.296944608e-05
-9.54545133e-06
-1.257335276e-05
1.576291449e-05
-1.41585297e-05
-1.362306696e-05
1.40026347e-05
-2.480755902e-05
-2.349100623e-05
1.202016892e-05
-3.526101303e-05
-2.950818079e-05
1.108186617e-05
-4.518082823e-05
-3.267690662e-05
9.286520696e-06
-5.360103323e-05
-3.312136564e-05
7.158568569e-06
-5.817906506e-05
-3.185482335e-05
2.513007241e-06
-5.772091595e-05
-2.985175359e-05
-3.398196964e-06
-5.344879994e-05
-2.817007447e-05
-7.774457217e-06
-4.834184151e-05
-2.778619855e-05
-8.53022237e-06
-4.431795371e-05
-2.813831268e-05
-6.764196635e-06
-4.090462868e-05
-2.81061296e-05
-4.839613235e-06
-3.87553474e-05
-2.911010119e-05
-1.315803047e-06
-3.786795566e-05
-2.95510275e-05
2.225042064e-06
-3.672943808e-05
-2.719191284e-05
3.075418991e-06
-3.467661681e-05
-2.439465841e-05
2.951777399e-06
-3.183197833e-05
-2.187786307e-05
2.729755485e-06
-2.750199994e-05
-1.965498395e-05
1.817844548e-06
-2.461081748e-05
-1.782041554e-05
3.829837338e-06
-2.294699959e-05
-1.690132326e-05
4.523814304e-06
-1.765713045e-05
-1.507454489e-05
-3.33217901e-06
-6.693512703e-06
-1.854328486e-05
-9.658355829e-06
2.013239124e-05
-1.166220156e-05
-4.07090191e-05
2.927646159e-05
-2.291197471e-05
-1.159126951e-05
2.892039435e-05
-2.87565921e-05
3.742871491e-07
2.895263845e-05
-3.531557353e-05
2.388083583e-06
3.147735921e-05
-3.714959348e-05
-8.700285627e-07
-4.219307758e-05
-1.575936155e-06
-6.494950829e-06
1.180480077e-05
1.095145991e-05
-1.115513368e-05
-5.837719422e-06
1.176603753e-05
-1.246484128e-05
-1.318583236e-05
4.085951047e-06
-1.038547949e-05
-1.753961481e-05
3.43255627e-06
-8.764074391e-06
-2.615514364e-05
1.352945194e-05
-1.028530526e-05
-3.01547512e-05
1.910247049e-05
-1.736599353e-05
-2.290259434e-05
1.636010734e-05
-2.745124649e-05
-2.684026578e-05
1.343448444e-05
-3.695530745e-05
-3.158449176e-05
1.158045363e-05
-4.636927523e-05
-3.349155359e-05
1.022882804e-05
-5.460945706e-05
-3.351319064e-05
8.632374482e-06
-5.992444007e-05
-3.227244083e-05
5.733112066e-06
-6.075315454e-05
-3.055769015e-05
1.53528537e-06
-5.709193119e-05
-2.892985911e-05
-2.900708984e-06
-5.074706555e-05
-2.785842153e-05
-6.271842762e-06
-4.407140789e-05
-2.701889815e-05
-7.794213813e-06
-3.850875615e-05
-2.659198671e-05
-7.075927225e-06
-3.523227558e-05
-2.830068621e-05
-4.085064248e-06
-3.412658259e-05
-2.976214507e-05
-8.938188277e-07
-3.306829546e-05
-2.780460316e-05
-4.449413977e-07
-3.111276571e-05
-2.560060212e-05
-7.490518409e-07
-2.875767734e-05
-2.335025048e-05
-8.822917289e-07
-2.572214719e-05
-2.104162344e-05
-1.648617707e-06
-2.591571297e-05
-1.93496886e-05
1.723054412e-06
-2.867745133e-05
-1.737483583e-05
3.235419623e-06
-2.624920992e-05
-1.436947758e-05
-3.133180539e-06
-6.927033626e-06
-7.347271194e-06
-3.051798003e-05
1.733216241e-05
3.330997988e-06
-3.925236791e-05
2.805152457e-05
-1.71361384e-05
-1.649524465e-05
2.710448491e-05
-2.609567037e-05
-1.713983124e-06
2.546794505e-05
-3.583850425e-05
2.159364581e-06
2.239457758e-05
-3.748915136e-05
3.412863408e-06
-4.249041165e-05
9.59249752e-08
-6.028659458e-06
3.842547161e-06
1.399058753e-05
-1.288513444e-05
-7.737682111e-06
8.756122319e-06
-1.677600958e-05
-1.387601482e-05
4.580749783e-06
-1.810436034e-05
-2.350892183e-05
7.297376689e-06
-1.71639222e-05
-3.778834935e-05
1.069254858e-05
-1.529837139e-05
-4.17669873e-05
9.746533142e-06
-1.935610902e-05
-3.134374545e-05
1.249878814e-05
-2.87862014e-05
-3.050830567e-05
1.309812679e-05
-3.815332765e-05
-3.401358837e-05
1.179635277e-05
-4.7695233e-05
-3.433995953e-05
1.039060737e-05
-5.613853775e-05
-3.356826616e-05
8.498858161e-06
-6.152079879e-05
-3.250658968e-05
5.617057929e-06
-6.247894164e-05
-3.163463697e-05
2.0358719e-06
-5.888579708e-05
-3.10500826e-05
-1.472053993e-06
-5.172744339e-05
-3.088952208e-05
-4.126331995e-06
-4.387891364e-05
-2.909837013e-05
-5.768013214e-06
-3.78202986e-05
-2.691346765e-05
-5.736060038e-06
-3.409790337e-05
-2.780031075e-05
-4.221728787e-06
-3.217435632e-05
-2.870080939e-05
-2.983946828e-06
-3.029107188e-05
-2.623373102e-05
-3.453346039e-06
-2.753852536e-05
-2.451716148e-05
-3.835335647e-06
-2.434948321e-05
-2.284399579e-05
-3.694801129e-06
-2.059400499e-05
-2.128706732e-05
-3.509685968e-06
-1.778578805e-05
-2.020721349e-05
-1.950459252e-06
-1.569284315e-05
-1.910067931e-05
-3.66973694e-07
-1.326260978e-05
-1.736028078e-05
5.606025448e-07
-5.539017431e-06
-1.254101137e-05
-2.529862635e-06
8.498517522e-06
-3.349774377e-06
-7.356846978e-06
1.466152363e-05
-2.197701456e-05
-1.322282466e-06
1.657376219e-05
-2.893161038e-05
9.234921542e-07
1.972489221e-05
-3.53844003e-05
-3.60547839e-06
2.182877948e-05
-3.97654809e-05
1.722054431e-07
-4.349632108e-05
-9.609568382e-07
-1.031478309e-05
-5.208984603e-06
1.936599815e-05
-2.039807578e-05
-8.422662304e-06
1.076795339e-05
-2.782775176e-05
-1.531880301e-05
8.872161589e-06
-3.149936575e-05
-2.614890944e-05
6.311351208e-06
-2.900720502e-05
-3.76389158e-05
-2.641776321e-06
-2.198976028e-05
-3.979631649e-05
-8.988252349e-06
-1.912510087e-05
-3.349330365e-05
-7.15172536e-07
-2.622506297e-05
-3.345550173e-05
1.004719532e-05
-3.686696772e-05
-3.578348892e-05
1.241200043e-05
-4.762988697e-05
-3.428388704e-05
1.070724264e-05
-5.664408651e-05
-3.222838865e-05
7.674935122e-06
-6.193246803e-05
-3.091116027e-05
3.693774271e-06
-6.247467526e-05
-3.071676197e-05
-3.746792754e-07
-5.862421053e-05
-3.185931285e-05
-3.040166267e-06
-5.033719125e-05
-3.500109165e-05
-4.174415777e-06
-4.225556418e-05
-3.221032054e-05
-4.968413647e-06
-3.69480332e-05
-2.783641308e-05
-4.383246673e-06
-3.372406422e-05
-2.742824302e-05
-3.594706914e-06
-3.050875357e-05
-2.759449033e-05
-4.320456643e-06
-2.786104839e-05
-2.317568491e-05
-5.704738541e-06
-2.469072765e-05
-2.141769589e-05
-6.269003742e-06
-2.151132952e-05
-1.995477273e-05
-6.068037171e-06
-1.816413335e-05
-1.901305925e-05
-5.620805069e-06
-1.541636554e-05
-1.869716017e-05
-4.257573174e-06
-1.320527424e-05
-1.889511134e-05
-2.416540599e-06
-1.141975513e-05
-1.919694916e-05
5.116311834e-08
-6.115205555e-06
-1.981921269e-05
1.973587807e-06
3.999705118e-06
-1.822128478e-05
4.75645342e-06
5.773149962e-06
-2.591809957e-05
2.167423349e-06
8.311110164e-06
-3.059852587e-05
-8.713349556e-07
1.801103733e-05
-3.030010269e-05
-1.478451519e-05
2.054559158e-05
-3.749965793e-05
-4.800724415e-06
-3.840301132e-05
-6.405334616e-06
-1.872055173e-05
-3.995203499e-06
1.750645739e-05
-3.351222604e-05
-3.373827784e-06
9.742545258e-06
-4.498029812e-05
-5.198246468e-06
1.347262999e-06
-4.836943102e-05
-9.753108375e-06
-1.300685849e-05
-4.18188074e-05
-1.402338369e-05
-3.016629763e-05
-2.757890877e-05
-1.55890411e-05
-3.844725512e-05
-1.387360547e-05
-1.848043678e-05
-2.871817712e-05
-1.619125804e-05
-2.710516937e-05
-4.032581319e-06
-3.178338245e-05
-3.176262924e-05
1.157153886e-05
-4.645029626e-05
-3.080839525e-05
1.119192154e-05
-5.760378772e-05
-2.801348635e-05
6.939321026e-06
-6.440157306e-05
-2.56793657e-05
1.566896481e-06
-6.625273263e-05
-2.569910337e-05
-3.165486583e-06
-6.242491326e-05
-3.000595886e-05
-5.680194266e-06
-4.50983718e-05
-4.709333323e-05
-5.233886217e-06
-3.475938524e-05
-3.470513976e-05
-7.842625943e-06
-3.140124355e-05
-2.475897627e-05
-6.43414655e-06
-3.029135648e-05
-2.404788813e-05
-4.488699989e-06
-2.518895345e-05
-2.780890898e-05
-4.886874658e-06
-2.41057567e-05
-1.75900103e-05
-6.667668002e-06
-2.154685307e-05
-1.638129781e-05
-7.594442539e-06
-1.904765314e-05
-1.490387449e-05
-7.549434064e-06
-1.624850493e-05
-1.47787691e-05
-7.032994647e-06
-1.350708871e-05
-1.550564696e-05
-5.932676168e-06
-1.103276028e-05
-1.69275076e-05
-4.441838077e-06
-8.714264498e-06
-1.878838379e-05
-2.727096578e-06
-5.855154009e-06
-2.116947898e-05
-1.508984939e-06
-1.072176411e-06
-2.231749813e-05
-6.869946503e-07
1.998905878e-06
-2.729138384e-05
-1.698105578e-06
5.504858355e-06
-3.091193232e-05
-3.192927515e-06
1.004205092e-05
-3.152187896e-05
-3.315844596e-06
1.358203393e-05
-3.659699333e-05
-4.443112218e-06
-3.328269618e-05
-1.041561205e-05
-5.10847457e-05
1.816137435e-05
2.892791947e-05
-7.432269401e-05
1.517173986e-05
4.692211949e-06
-7.932168966e-05
1.674635439e-05
-1.694569975e-05
-7.148487672e-05
1.935878407e-05
-3.694874482e-05
-5.297722865e-05
2.065385682e-05
-5.318484892e-05
-2.712648774e-05
1.843043783e-05
-5.98701338e-05
-2.974411117e-06
8.061582724e-06
-5.069398861e-05
-1.190433523e-06
-1.114537767e-05
-1.774356833e-05
-2.285246811e-05
-2.093872048e-05
1.083850998e-05
-4.288492197e-05
-2.33970582e-05
1.262175592e-05
-5.573443825e-05
-2.288155269e-05
7.718526878e-06
-6.261565059e-05
-2.068862718e-05
1.891705381e-06
-6.435428298e-05
-2.021384629e-05
-3.745246157e-06
-6.079804043e-05
-2.491397337e-05
-8.646868141e-06
-4.550229441e-05
-4.686147632e-05
-1.552676051e-05
-3.354822025e-05
-2.75989536e-05
-1.905848342e-05
-2.849434002e-05
-1.952087576e-05
-1.029011187e-05
-2.822616661e-05
-1.775223583e-05
-6.561937569e-06
-2.331537772e-05
-2.495654033e-05
-7.761478741e-06
-2.286626303e-05
-1.151298937e-05
-6.524683169e-06
-2.070631117e-05
-1.114766081e-05
-7.392514224e-06
-1.847960318e-05
-9.345051469e-06
-7.78473417e-06
-1.613628954e-05
-9.689717333e-06
-7.431881982e-06
-1.410661905e-05
-1.110508348e-05
-6.42999333e-06
-1.244708001e-05
-1.351737379e-05
-5.069624996e-06
-1.085693581e-05
-1.656817002e-05
-3.810464885e-06
-8.785820866e-06
-1.996433061e-05
-3.276497128e-06
-4.593479344e-06
-2.290263246e-05
-3.607533437e-06
-6.91298534e-07
-2.645761773e-05
-4.7363616e-06
3.979588652e-06
-2.930944103e-05
-6.273872137e-06
9.73793986e-06
-3.116510938e-05
-6.115664393e-06
1.335174213e-05
-3.405598464e-05
-6.155397357e-06
-3.21576409e-05
-5.037015656e-06
-3.890233896e-05
3.045485002e-05
2.660861529e-05
-6.47440233e-05
2.702304782e-05
1.399021781e-05
-7.598315535e-05
3.069431903e-05
-2.708799958e-06
-7.209621879e-05
3.746039982e-05
-2.1988253e-05
-5.444674063e-05
4.250784182e-05
-3.950327098e-05
-2.775340338e-05
3.885465081e-05
-4.711739447e-05
-8.411571961e-06
2.206560233e-05
-3.334566809e-05
-1.493251959e-05
-2.449587799e-06
-2.174609918e-06
-3.268859931e-05
-1.322593855e-05
1.004371718e-05
-4.841425674e-05
-1.750621611e-05
9.835478291e-06
-6.397080676e-05
-1.571745709e-05
8.393362701e-06
-8.212054333e-05
-9.152346421e-06
6.614574458e-06
-0.0001046282132
-3.712965463e-07
2.66642866e-06
-0.0001165095455
1.262095937e-05
-2.565192836e-05
-2.154942211e-05
4.4001512e-05
-0.0001858268001
4.388330275e-06
2.00549685e-05
-7.358826269e-05
-2.038465917e-05
1.161672446e-05
-6.363614803e-06
-3.434915307e-05
8.809577606e-06
-1.259424668e-05
-4.095607525e-06
1.636124396e-05
-7.157013559e-05
-8.762757122e-06
3.068790345e-06
-9.912425111e-06
-1.493302377e-05
2.560948267e-06
-7.537814546e-06
-1.637299935e-05
-3.629649119e-07
-7.54118366e-06
-1.635399166e-05
-2.429949171e-06
-7.278347147e-06
-1.59106989e-05
-5.300113542e-06
-6.248080399e-06
-1.549925834e-05
-8.871929969e-06
-5.056913078e-06
-1.478274273e-05
-1.291382082e-05
-4.371067261e-06
-1.31148159e-05
-1.703989413e-05
-4.592711437e-06
-9.187904222e-06
-2.087234693e-05
-5.957646453e-06
-4.112933387e-06
-2.383879574e-05
-7.694346708e-06
2.276251057e-06
-2.568860092e-05
-1.001066297e-05
9.385710913e-06
-2.746252498e-05
-1.081274369e-05
1.429315118e-05
-2.922612589e-05
-9.738043062e-06
-2.865641438e-05
-7.305832822e-06
-2.716278632e-05
3.084268954e-05
2.677476478e-05
-4.824476511e-05
2.711143919e-05
2.099350889e-05
-6.198622785e-05
3.081017791e-05
1.362589553e-05
-6.338217434e-05
3.90048372e-05
-1.469078083e-07
-5.167120659e-05
4.465473507e-05
-1.385743576e-05
-3.179031743e-05
3.89116488e-05
-1.993772384e-05
-2.166317924e-05
1.757735533e-05
-5.638728572e-06
-2.887534557e-05
-2.723583122e-06
7.486444285e-06
-3.783342147e-05
-1.189929416e-05
7.631932054e-06
-4.658777062e-05
-1.548006261e-05
6.728988568e-06
-5.440855234e-05
-1.437914789e-05
6.483639303e-06
-6.098360078e-05
-8.595925476e-06
6.020210919e-06
-6.722648964e-05
2.074351965e-06
3.799332387e-06
-6.84481382e-05
1.582914018e-05
-1.984155264e-06
-4.474769377e-05
4.089811623e-05
-2.059539309e-05
-3.266406818e-05
2.977369357e-05
-2.179935849e-05
-3.249581689e-05
1.83313638e-05
-6.880344997e-06
-3.241487747e-05
1.679959279e-05
-8.068703577e-06
-2.302623269e-05
2.146964583e-05
-1.449537447e-05
-2.268612045e-05
1.099575636e-05
-8.265481832e-06
-2.156226923e-05
9.3409008e-06
-7.902700278e-06
-2.075293375e-05
6.379631618e-06
-7.551180993e-06
-2.011682174e-05
3.718246999e-06
-6.783908608e-06
-2.019364114e-05
3.85036404e-07
-5.608225083e-06
-2.075562644e-05
-3.682291227e-06
-4.627791389e-06
-2.083208293e-05
-8.099925731e-06
-4.737787074e-06
-1.935650025e-05
-1.245183972e-05
-6.06419034e-06
-1.390549791e-05
-1.599714895e-05
-1.032679176e-05
-7.792855748e-06
-1.918834912e-05
-1.076381448e-05
4.727235002e-07
-1.97584069e-05
-1.419658976e-05
9.448031517e-06
-2.077007516e-05
-1.566864541e-05
1.604464307e-05
-2.173178133e-05
-1.409189219e-05
-2.152001677e-05
-1.115120962e-05
-2.092409632e-05
2.684587134e-05
2.49207432e-05
-3.794753518e-05
2.41766678e-05
1.995809426e-05
-5.022540977e-05
2.585432914e-05
1.723375486e-05
-5.373414116e-05
3.035521809e-05
1.215864237e-05
-4.712633744e-05
3.335796112e-05
4.689121351e-06
-3.583081402e-05
2.714146633e-05
4.747632205e-07
-3.203517957e-05
9.415660709e-06
4.366206562e-06
-3.62593496e-05
-1.709910897e-06
3.210789899e-06
-4.127556568e-05
-8.092320013e-06
1.209745948e-06
-4.638048525e-05
-1.069995744e-05
3.255919944e-07
-5.18815697e-05
-9.682954439e-06
8.059806705e-07
-5.741412362e-05
-5.456272473e-06
2.394356338e-06
-6.066929822e-05
1.240281665e-06
4.091087533e-06
-6.012577636e-05
1.092474755e-05
4.363128007e-06
-4.461448448e-05
2.232433505e-05
3.064665297e-06
-3.58917713e-05
2.38522491e-05
-2.798371456e-06
-3.477652823e-05
2.005097122e-05
-2.832505536e-06
-3.296097006e-05
1.981886352e-05
-4.832619298e-06
-2.564668941e-05
2.070963318e-05
-6.552693176e-06
-2.498662853e-05
1.684370212e-05
-6.506529652e-06
-2.389588576e-05
1.495928126e-05
-6.708191935e-06
-2.374985613e-05
1.256217219e-05
-6.327971362e-06
-2.432296486e-05
9.736320162e-06
-5.44469611e-06
-2.570883398e-05
6.106631101e-06
-4.335744973e-06
-2.739457376e-05
1.622316812e-06
-3.619133646e-06
-2.810190059e-05
-3.426320727e-06
-3.966754913e-06
-2.64398562e-05
-8.421699529e-06
-5.692845952e-06
-2.066053683e-05
-1.239091054e-05
-9.386342456e-06
-1.225507293e-05
-1.452404021e-05
-1.307068876e-05
-1.441622466e-06
-1.254347248e-05
-1.802940201e-05
9.863616885e-06
-1.167761331e-05
-2.039879645e-05
1.843799954e-05
-1.16124108e-05
-1.869490052e-05
-1.107122197e-05
-1.506613557e-05
-1.889111076e-05
2.155281385e-05
2.418400207e-05
-3.451245557e-05
2.162748624e-05
1.81703863e-05
-4.547518892e-05
2.196117892e-05
1.485580142e-05
-4.981100865e-05
2.283872139e-05
1.185230572e-05
-4.722268535e-05
2.262981203e-05
8.139830065e-06
-4.21724531e-05
1.790356228e-05
4.187719219e-06
-4.114696663e-05
8.388865026e-06
1.437842881e-09
-4.205788878e-05
2.361981885e-06
-3.16069141e-06
-4.323889355e-05
-1.792021516e-06
-5.118809379e-06
-4.442290798e-05
-3.461022603e-06
-6.054175895e-06
-4.558633107e-05
-2.714206385e-06
-5.804272113e-06
-4.709123846e-05
3.435663387e-07
-4.293556691e-06
-4.896959734e-05
5.060013688e-06
-1.939730595e-06
-4.908339047e-05
1.103331859e-05
6.903021491e-09
-4.433208022e-05
1.728661183e-05
2.884043366e-07
-3.919783759e-05
2.043766583e-05
-1.717374219e-06
-3.688194092e-05
2.069903784e-05
-2.961765756e-06
-3.438038364e-05
2.174715983e-05
-4.42785807e-06
-3.0594724e-05
2.236707871e-05
-5.441478743e-06
-2.91040922e-05
2.097510623e-05
-5.62076783e-06
-2.839034199e-05
1.968111713e-05
-5.434746727e-06
-2.893879536e-05
1.776845496e-05
-4.657364528e-06
-3.081918159e-05
1.508070534e-05
-3.463869761e-06
-3.36847168e-05
1.131795865e-05
-2.34595518e-06
-3.649048057e-05
6.422672024e-06
-1.995006626e-06
-3.75867054e-05
5.921838573e-07
-2.922914167e-06
-3.513864193e-05
-5.49761037e-06
-5.372977441e-06
-2.755189672e-05
-1.017417453e-05
-9.804456884e-06
-1.602005512e-05
-1.117204588e-05
-1.488494456e-05
-2.144818265e-06
-5.421319915e-06
-2.09986077e-05
1.149858994e-05
-1.309126787e-06
-2.401319372e-05
2.166522621e-05
7.565232349e-07
-2.253692004e-05
2.398776056e-06
-1.873497936e-05
-2.02518612e-05
1.76915056e-05
2.411300952e-05
-3.609422998e-05
2.12322212e-05
1.623748659e-05
-4.646235443e-05
2.178209295e-05
1.054709177e-05
-5.10855497e-05
2.160579011e-05
5.856043074e-06
-5.076710608e-05
2.057195418e-05
1.739368373e-06
-4.832068919e-05
1.769550408e-05
-2.238342945e-06
-4.709054531e-05
1.339616809e-05
-6.237338174e-06
-4.588807833e-05
1.016717941e-05
-9.007420532e-06
-4.479249834e-05
7.915575416e-06
-1.080275499e-05
-4.348255176e-05
7.065651351e-06
-1.18359793e-05
-4.194747067e-05
7.635514143e-06
-1.18839112e-05
-4.05036433e-05
9.459319814e-06
-1.05584279e-05
-3.987425242e-05
1.218743964e-05
-7.755396858e-06
-3.999388107e-05
1.528621997e-05
-4.131665594e-06
-3.915997888e-05
1.787966213e-05
-1.425186037e-06
-3.748900064e-05
1.99612572e-05
-1.192692223e-06
-3.64507999e-05
2.182599167e-05
-2.163361051e-06
-3.49745075e-05
2.358623277e-05
-3.313766467e-06
-3.31746972e-05
2.460415603e-05
-4.035589753e-06
-3.266427526e-05
2.457443482e-05
-4.108776306e-06
-3.347752351e-05
2.406925602e-05
-3.574274188e-06
-3.612559056e-05
2.285826862e-05
-2.441472077e-06
-4.060604929e-05
2.060937634e-05
-1.048252215e-06
-4.588052662e-05
1.667517846e-05
-8.306535958e-08
-4.984470765e-05
1.059403962e-05
-2.077593407e-07
-5.011860277e-05
2.811298865e-06
-1.94601393e-06
-4.498459633e-05
-4.919347935e-06
-5.713254983e-06
-3.379619235e-05
-9.755737589e-06
-1.160798618e-05
-1.824849418e-05
-9.069783252e-06
-1.765123746e-05
-1.059668097e-06
3.166287371e-07
-2.292816162e-05
1.489396717e-05
8.254544598e-06
-2.551876795e-05
2.65021578e-05
1.321720414e-05
-2.407037296e-05
1.647497408e-05
-2.05371216e-05
-2.407458158e-05
1.734879359e-05
2.441714451e-05
-4.030412997e-05
2.307973852e-05
1.438188578e-05
-5.014446453e-05
2.457397572e-05
7.048323463e-06
-5.451428703e-05
2.485432174e-05
1.121188423e-06
-5.507140288e-05
2.445774916e-05
-3.328742491e-06
-5.374898361e-05
2.327117141e-05
-6.898089952e-06
-5.191681227e-05
2.157647441e-05
-1.001239631e-05
-4.952156104e-05
2.017760973e-05
-1.240548483e-05
-4.660408688e-05
1.923335404e-05
-1.42349083e-05
-4.300051282e-05
1.891807653e-05
-1.5455476e-05
-3.880801796e-05
1.920924261e-05
-1.57654977e-05
-3.458166959e-05
1.999577126e-05
-1.476186196e-05
-3.132941972e-05
2.107429721e-05
-1.213796601e-05
-3.012554052e-05
2.201626846e-05
-7.932624941e-06
-3.119859226e-05
2.201564822e-05
-3.061519352e-06
-3.328106961e-05
2.23516923e-05
-3.06501145e-07
-3.474346226e-05
2.392072488e-05
-6.309605204e-07
-3.509221974e-05
2.559611185e-05
-1.659913021e-06
-3.516921685e-05
2.69079357e-05
-2.225819466e-06
-3.626116977e-05
2.776274246e-05
-2.095675772e-06
-3.910608747e-05
2.815651459e-05
-1.241966882e-06
-4.417070172e-05
2.77238493e-05
1.991065231e-07
-5.113908544e-05
2.57141924e-05
1.863354395e-06
-5.82120394e-05
2.101248763e-05
2.735167063e-06
-6.226701191e-05
1.318118484e-05
1.467111199e-06
-6.046958113e-05
4.022348643e-06
-3.009409554e-06
-5.180095309e-05
-3.047904583e-06
-1.054118804e-05
-3.602095829e-05
-6.121391828e-06
-1.941560851e-05
-1.529138467e-05
-4.039344694e-06
-2.576139132e-05
4.528778315e-06
5.574199287e-06
-2.507920185e-05
2.116218061e-05
1.541363925e-05
-2.379401904e-05
3.249174506e-05
2.360285704e-05
-2.171675443e-05
2.870371086e-05
-1.840362359e-05
-2.776588222e-05
2.005738017e-05
2.505715692e-05
-4.432224866e-05
2.635192237e-05
1.328404141e-05
-5.378783722e-05
2.887239584e-05
5.167037647e-06
-5.797678276e-05
3.011879081e-05
-1.075634107e-06
-5.876784215e-05
3.073395142e-05
-5.485219304e-06
-5.759823821e-05
3.087678914e-05
-8.775247419e-06
-5.526750378e-05
3.067249537e-05
-1.142671066e-05
-5.195391347e-05
3.039962653e-05
-1.353546872e-05
-4.768535069e-05
3.018650992e-05
-1.522146268e-05
-4.245698943e-05
3.012447232e-05
-1.643436182e-05
-3.653419164e-05
3.017857813e-05
-1.689158385e-05
-3.060841975e-05
3.021359923e-05
-1.614289274e-05
-2.579279335e-05
2.998971125e-05
-1.373018838e-05
-2.349971973e-05
2.908275459e-05
-9.358596485e-06
-2.527202254e-05
2.700186158e-05
-3.212875541e-06
-2.976532619e-05
2.562467937e-05
1.221367349e-06
-3.320810125e-05
2.594416573e-05
1.420314608e-06
-3.505691341e-05
2.691830736e-05
5.27454376e-07
-3.650282742e-05
2.828909071e-05
6.539777426e-08
-3.8761888e-05
2.969175068e-05
3.304547568e-07
-4.268446041e-05
3.070026618e-05
1.378966496e-06
-4.878735483e-05
3.085024902e-05
2.976379239e-06
-5.658562396e-05
2.940020694e-05
4.111885085e-06
-6.382290742e-05
2.552081546e-05
2.728347145e-06
-6.714952046e-05
1.935981482e-05
-2.852849488e-06
-6.414767059e-05
1.288594232e-05
-1.186648374e-05
-5.345365544e-05
8.826265804e-06
-2.256938817e-05
-3.36162732e-05
7.805146927e-06
-3.376522868e-05
-5.999671264e-06
9.608745408e-06
-4.126607194e-05
1.746043204e-05
1.666521464e-05
-3.455253436e-05
3.236199632e-05
2.53121151e-05
-2.480146586e-05
4.132554193e-05
3.402067251e-05
-1.938275872e-05
4.003106757e-05
-1.53251864e-05
-2.993585566e-05
2.410218881e-05
2.589091349e-05
-4.690983953e-05
3.019699593e-05
1.312877059e-05
-5.633700444e-05
3.36018778e-05
4.697548515e-06
-6.047650014e-05
3.581061187e-05
-1.552445465e-06
-6.12633453e-05
3.73875898e-05
-5.866887007e-06
-5.995724181e-05
3.856914548e-05
-8.99851402e-06
-5.719418734e-05
3.93677901e-05
-1.145834863e-05
-5.322773786e-05
3.987662127e-05
-1.344337198e-05
-4.813950381e-05
4.015670312e-05
-1.505826651e-05
-4.200806113e-05
4.022983217e-05
-1.62365388e-05
-3.516128625e-05
4.002010333e-05
-1.668792461e-05
-2.835898083e-05
3.934667532e-05
-1.593489495e-05
-2.282159331e-05
3.789537109e-05
-1.344246271e-05
-2.01049238e-05
3.512430567e-05
-8.75756555e-06
-2.236987934e-05
3.102469044e-05
-1.757176319e-06
-2.795441087e-05
2.783173457e-05
3.378173228e-06
-3.228162441e-05
2.647107242e-05
3.800941291e-06
-3.496934753e-05
2.648128691e-05
3.125261959e-06
-3.741974655e-05
2.787631339e-05
2.863535064e-06
-4.103853322e-05
2.99935807e-05
3.317123401e-06
-4.682373719e-05
3.201911607e-05
4.466308324e-06
-5.511271669e-05
3.375056458e-05
5.388397729e-06
-6.427054887e-05
3.478824817e-05
3.769306637e-06
-7.090083879e-05
3.446151365e-05
-2.311106593e-06
-7.276890395e-05
3.263938403e-05
-1.141241157e-05
-6.83270973e-05
3.022119437e-05
-2.177813295e-05
-5.447396622e-05
2.838441006e-05
-3.341244723e-05
-2.901668306e-05
2.825180241e-05
-4.590514495e-05
5.628610195e-06
2.925286219e-05
-5.429061983e-05
3.384145078e-05
3.434503679e-05
-4.589384225e-05
4.906572871e-05
4.094302625e-05
-3.085630807e-05
5.533191125e-05
4.779029534e-05
-2.003681661e-05
5.257702712e-05
-1.301112556e-05
-3.061538486e-05
2.80367218e-05
2.66807166e-05
-4.797445631e-05
3.385227286e-05
1.370365159e-05
-5.761981687e-05
3.797224292e-05
5.274853366e-06
-6.186927317e-05
4.097072535e-05
-9.10790835e-07
-6.266357333e-05
4.32936861e-05
-5.111911633e-06
-6.122231978e-05
4.524451025e-05
-8.116705239e-06
-5.816407971e-05
4.675512401e-05
-1.044562099e-05
-5.378460028e-05
4.781990603e-05
-1.232275919e-05