/*--------------------------------*- C++ -*----------------------------------*\
  =========                 |
  \\      /  F ield         | OpenFOAM: The Open Source CFD Toolbox
   \\    /   O peration     | Website:  https://openfoam.org
    \\  /    A nd           | Version:  8
     \\/     M anipulation  |
\*---------------------------------------------------------------------------*/
FoamFile
{
    version     2.0;
    format      ascii;
    class       volVectorField;
    location    "1.5";
    object      U;
}
// * * * * * * * * * * * * * * * * * * * * * * * * * * * * * * * * * * * * * //

dimensions      [0 1 -1 0 0 0 0];

internalField   nonuniform List<vector> 
67286
(
(-0.004908353066 -0.1341743764 -0.0789601067)
(-0.04746512652 -0.1699994657 -0.0151977474)
(-0.1556842505 -0.2135812898 -0.02888260583)
(-0.2494448673 -0.2528452388 -0.1703824842)
(-0.2518980525 -0.2809137227 -0.2972247004)
(-0.1715094539 -0.2922542141 -0.3656178485)
(-0.06057836945 -0.2959149423 -0.3556578188)
(0.07112202015 -0.3234861631 -0.1453250779)
(-0.003044389175 -0.351466098 0.05437000152)
(-0.1818216786 -0.378910785 0.1039593743)
(-0.3012979898 -0.3798684007 0.06314042306)
(-0.3808399832 -0.3669998077 0.04365196226)
(-0.4403323484 -0.3465041778 0.04031793442)
(-0.4848976378 -0.3146345931 0.03655760198)
(-0.5120607837 -0.2672305749 0.02026193504)
(-0.5248647966 -0.2064084676 0.01544896901)
(-0.5199852949 -0.1393095381 -0.009095288614)
(-0.4873069208 -0.07714258487 -0.03674138798)
(-0.4374258909 -0.03468267828 -0.05361339889)
(-0.3865887023 -0.01470433755 -0.04934190151)
(-0.3406775521 -0.000908238628 -0.03081343038)
(-0.3016173783 0.003902792767 -0.02201456764)
(-0.2478653217 0.01053905448 -0.03958721969)
(-0.1738848057 -0.01915601585 -0.09287080121)
(-0.09262228222 -0.009675532966 -0.141577797)
(0.02188486941 -0.03435169075 -0.1720116578)
(0.1234201386 -0.04509352813 -0.150587361)
(0.2238335313 -0.1352097128 -0.1383583946)
(-0.05205693036 0.03499954667 -0.0005264649999)
(-0.1587037758 -0.01511800386 -0.005708048288)
(-0.2625424606 -0.0776863157 -0.1292785357)
(-0.2990854502 -0.1212018381 -0.273355271)
(-0.2889926905 -0.1269661574 -0.3704915162)
(-0.2085566774 -0.1161008152 -0.411984075)
(-0.1058504915 -0.1526770806 -0.3819207076)
(0.01699749827 -0.2462695133 -0.1214015347)
(-0.05466001614 -0.2860115733 0.05749058367)
(-0.2046825491 -0.331631404 0.08669281786)
(-0.3124510146 -0.3515104798 0.04782482841)
(-0.3822221079 -0.3529363086 0.0252218688)
(-0.4295556538 -0.3454038237 0.01703445689)
(-0.4584316 -0.3257996041 0.01740191361)
(-0.4748776263 -0.2899260522 0.02501573866)
(-0.4836997734 -0.2420442587 0.03471551021)
(-0.480919035 -0.1827963857 0.03675132981)
(-0.4618992355 -0.1188395909 0.03335092258)
(-0.4291364023 -0.06360269036 0.02362881698)
(-0.3890599415 -0.02469854511 0.01241376903)
(-0.3493030224 0.00112467342 0.004450925782)
(-0.3123337682 0.01769203772 -0.006206654313)
(-0.2719386636 0.03319613372 -0.03199709335)
(-0.1855009058 0.04163175015 -0.09269437116)
(-0.1110033714 0.05279270794 -0.08542741186)
(-0.02326291527 0.0455902046 -0.09359488743)
(0.001275860067 0.02244636863 -0.1051540911)
(0.1717491154 -0.02880177364 -0.3543746355)
(0.3419103557 -0.06737473768 -0.116288038)
(0.3630413385 -0.1106550427 -0.01532226167)
(0.3830722441 -0.1544362273 0.01954924261)
(0.3921724165 -0.2038640308 0.03363626245)
(-0.006194081349 0.1210266055 -0.04714081149)
(-0.01979995958 0.09226926405 -0.01245117404)
(-0.04216746926 0.07243679162 0.03545822705)
(-0.1078197802 0.08525586012 0.02466652059)
(-0.1705100127 0.1271701487 -0.1405787356)
(-0.1447566009 0.1134534469 -0.2394536986)
(-0.09060929927 0.03429165125 -0.1720534904)
(-0.07494382553 -0.2002311553 0.03623704414)
(-0.1732454461 -0.2629627846 0.08448090793)
(-0.2623395345 -0.3078703461 0.0683051103)
(-0.3462071378 -0.328532699 0.03902569703)
(-0.4033454596 -0.3353677422 0.01013177683)
(-0.4362606325 -0.3354346171 -0.01427288474)
(-0.4444862347 -0.3268534276 -0.02396220693)
(-0.4413656197 -0.3069481295 -0.01085107942)
(-0.4379509835 -0.2758645048 0.01154845792)
(-0.4313036441 -0.2361507867 0.02635417219)
(-0.4169941263 -0.1907927943 0.04320410032)
(-0.3980546976 -0.1454761644 0.05210919652)
(-0.3729420495 -0.102934414 0.04893937125)
(-0.343070346 -0.06670030864 0.04308039433)
(-0.3105284427 -0.03612958676 0.03444329726)
(-0.2614480774 -0.004507499651 0.009300317721)
(-0.1967919035 0.03058098037 -5.465584504e-05)
(-0.1340748343 0.03097340628 -0.01770364364)
(-0.04874066257 0.03555096577 -0.03216925458)
(0.02805086286 -0.000780724675 -0.03503089101)
(0.1376945532 0.003870648189 -0.003176176078)
(0.2560498742 -0.08017903186 0.000504897719)
(0.2994558448 -0.1454570191 0.03522664114)
(0.3253714388 -0.2028766219 0.04580598392)
(0.3448824663 -0.2610193821 0.02498352301)
(-0.01677164771 0.1368606251 -0.02840404463)
(-0.04917964716 0.06682234422 0.04933510291)
(-0.06742626381 -0.01985128364 0.1131075868)
(-0.07914796144 -0.03828668105 0.1408738963)
(-0.1117561411 0.05920574695 0.07722096581)
(-0.1046164877 0.1067519735 -0.03231265594)
(-0.02388942974 0.009111402676 0.02946448254)
(-0.1014912009 -0.2006891104 0.08806423639)
(-0.2043270274 -0.2585897107 0.08915764402)
(-0.2950113069 -0.3001731323 0.07074195371)
(-0.3775983019 -0.3130171616 0.04088555955)
(-0.4346244969 -0.3148964214 -0.00296238597)
(-0.4557050585 -0.3106641696 -0.04931745675)
(-0.4423287458 -0.3027258161 -0.07287969044)
(-0.4169673118 -0.2947968918 -0.05831365984)
(-0.3971012317 -0.2838257541 -0.02690773361)
(-0.3818988842 -0.2639434796 -0.007821509297)
(-0.3646788134 -0.2407427996 0.02299847804)
(-0.354041748 -0.2123552278 0.04909687221)
(-0.3431581346 -0.1755418973 0.05274474695)
(-0.3234120998 -0.1393184134 0.05122914482)
(-0.2987923036 -0.107678721 0.05042603268)
(-0.2627475281 -0.07693677119 0.04782120261)
(-0.2163014013 -0.05260884974 0.04897948591)
(-0.1729029179 -0.04117218062 0.0505763713)
(-0.1019493904 -0.05750742778 0.05349049158)
(-0.05200518224 -0.08236397184 0.03448611999)
(0.08948825604 -0.2393082419 -0.02558319072)
(0.2193680679 -0.1979642463 0.02415980422)
(0.2521405503 -0.2316726357 0.05791672961)
(0.2659203409 -0.2724270915 0.05024815638)
(0.2927911767 -0.3083252144 -0.009407372964)
(0.3198968104 -0.3560934659 -0.01149416575)
(-0.02154885097 0.153662769 -0.001938802616)
(-0.05563609695 0.04860369363 0.08573458999)
(-0.0786657698 -0.06986018019 0.07844154756)
(-0.08105513088 -0.08187587181 0.06314008982)
(-0.08301475532 -0.02842722577 0.133408352)
(-0.08558791887 -0.03241591669 0.1416144042)
(-0.07144517152 -0.08286884233 0.1189578)
(-0.1574546591 -0.1936991307 0.09777309808)
(-0.2442374173 -0.2538819616 0.08766929513)
(-0.3285345715 -0.2894064943 0.07159320842)
(-0.4082144891 -0.29532658 0.04602981403)
(-0.4658561111 -0.2854548504 -0.001387354902)
(-0.4811973045 -0.2693058126 -0.05587523035)
(-0.4548154234 -0.256850843 -0.09009558318)
(-0.4120940014 -0.2567621306 -0.08740599624)
(-0.374934033 -0.2627335108 -0.064574675)
(-0.3464288368 -0.2598883363 -0.04870800657)
(-0.3198162225 -0.2620968711 -0.01142000295)
(-0.3087792258 -0.2579404413 0.02648558931)
(-0.3065962401 -0.2329812473 0.03040962653)
(-0.2911705847 -0.2050060718 0.02837548023)
(-0.2719926456 -0.1809906688 0.03014148729)
(-0.2411151143 -0.1606267738 0.03162720404)
(-0.2095733303 -0.1451771963 0.04642208371)
(-0.198721985 -0.1467735049 0.05643380204)
(-0.1566340331 -0.1616849721 0.01938094951)
(-0.1519730007 -0.22711749 -0.07165199225)
(0.05775956405 -0.1882837948 -0.4655476859)
(0.2488533783 -0.2472585365 -0.09320622739)
(0.2400170671 -0.2772603989 0.0289127529)
(0.2259765308 -0.313351861 0.04171053853)
(0.2490655508 -0.3242713194 -0.01008548643)
(0.26118517 -0.3667239139 -0.009451764808)
(-0.03039956891 0.139347227 0.05947515715)
(-0.0773079586 -0.0250173196 0.1118494257)
(-0.1041096434 -0.1125768464 0.0385820478)
(-0.09935890376 -0.1293678818 0.02752724398)
(-0.06722179338 -0.1656006834 0.1322943332)
(-0.075847522 -0.1924369866 0.1699304349)
(-0.0932590397 -0.1611533632 0.1393747905)
(-0.1863423913 -0.2228554869 0.1082092228)
(-0.2608628224 -0.2707791477 0.08879575593)
(-0.3395234452 -0.2928939451 0.07692600688)
(-0.4156148042 -0.2940380765 0.06224879425)
(-0.474505851 -0.2807168808 0.03681440941)
(-0.5007679644 -0.2616337574 0.00234225086)
(-0.4854500203 -0.2453133878 -0.03425764259)
(-0.4398723061 -0.2388345882 -0.06410375573)
(-0.3845371117 -0.2380552538 -0.07897883698)
(-0.3333298577 -0.2388432748 -0.07100880506)
(-0.2944037498 -0.2545448963 -0.03575310678)
(-0.2777341794 -0.2674754371 0.002340224352)
(-0.2768545899 -0.2506062408 0.002623333858)
(-0.2613524102 -0.2288024351 -0.001188809515)
(-0.244065924 -0.2074867105 0.001373597771)
(-0.2191603261 -0.1863673203 0.004536017299)
(-0.2038230109 -0.1693023062 0.02650118185)
(-0.2167859042 -0.1523451024 0.03890894968)
(-0.2554123138 -0.1202466803 -0.03624059377)
(-0.1650176673 -0.09359802975 -0.3743058374)
(0.05573363822 -0.03338084712 -0.4756999159)
(0.220760793 -0.1541284106 -0.1713492063)
(0.232459596 -0.2287253205 0.001890120537)
(0.2074168106 -0.305431454 0.03731455707)
(0.2136403934 -0.324343978 0.04941587321)
(0.1395430955 -0.373289232 0.02994366654)
(-0.02039769096 0.06521016905 0.1033089422)
(-0.08029106632 -0.08090372359 0.08190988859)
(-0.1273872704 -0.12343521 0.05122669267)
(-0.1427136877 -0.180074438 0.07795450785)
(-0.1501635282 -0.2963278091 0.07074881546)
(-0.13320424 -0.3433575714 0.0173005351)
(-0.1137150895 -0.2434599966 0.08477934136)
(-0.1984406432 -0.2544060829 0.1085157772)
(-0.2700233505 -0.2913745699 0.09380895456)
(-0.3494755436 -0.3023077447 0.07841709184)
(-0.4276999752 -0.3006107523 0.05827475523)
(-0.4872779841 -0.291684786 0.03014107506)
(-0.5138702195 -0.2801179109 -0.0008305009008)
(-0.5003272828 -0.2666502623 -0.0282550865)
(-0.4524313255 -0.2534732663 -0.04819257381)
(-0.3878088009 -0.238651843 -0.05859925172)
(-0.3287396946 -0.2309280759 -0.05263108231)
(-0.2869963864 -0.2460108637 -0.03113043353)
(-0.2673191624 -0.2603592563 -0.01501181694)
(-0.2567258845 -0.2431691338 -0.02277336103)
(-0.2355710914 -0.2267319577 -0.02615791337)
(-0.2113996057 -0.2094373687 -0.02202448824)
(-0.1825468922 -0.1915122106 -0.01795585891)
(-0.1545312533 -0.1776478769 -0.006299576289)
(-0.1362162631 -0.1595386411 0.009277759252)
(-0.1162808793 -0.1301764103 0.02518691204)
(-0.1013064825 -0.04220759008 0.01242327346)
(0.01446210392 0.09353062013 -0.05300009812)
(0.1220444898 -0.1558033184 0.02502830276)
(0.1141665823 -0.2390840395 0.03690040303)
(0.1508755327 -0.3406230588 -0.03155824602)
(0.1748360903 -0.3524160511 0.0212658195)
(0.174708172 -0.3902380568 0.00833124783)
(-0.04670644048 0.006141137147 0.1561876463)
(-0.1265191222 -0.05333267154 0.09836601227)
(-0.1998811879 -0.1186359492 0.09131168938)
(-0.2506645576 -0.2347347811 0.02602030934)
(-0.2606243972 -0.382814954 -0.1533018908)
(-0.2163774466 -0.4107563268 -0.243006549)
(-0.138650472 -0.3218021786 -0.07194743965)
(-0.1689098166 -0.2914869419 0.08846243658)
(-0.2547489956 -0.3150809107 0.1081464697)
(-0.3460561951 -0.3086181126 0.08307596782)
(-0.4311201851 -0.2967717332 0.04792608788)
(-0.4919583748 -0.288541858 0.006977784983)
(-0.5154476155 -0.2891919484 -0.02855045559)
(-0.4989799919 -0.2988689622 -0.04856803865)
(-0.4467270799 -0.3162097667 -0.05176345283)
(-0.3739484667 -0.2936222425 -0.04762133459)
(-0.3167572411 -0.2581794549 -0.0295118293)
(-0.2831533533 -0.2568966308 -0.01518056054)
(-0.2622918029 -0.2586621405 -0.02564720161)
(-0.2378339564 -0.2254893557 -0.04100003302)
(-0.214118841 -0.2087476731 -0.04387935359)
(-0.1874746841 -0.1943561529 -0.03819419624)
(-0.1612351123 -0.1834748673 -0.03231017752)
(-0.135299317 -0.1781856969 -0.02158050457)
(-0.1168453621 -0.1765128997 -0.004930052788)
(-0.09649541359 -0.1752678036 0.02047320549)
(-0.08768970327 -0.1746001158 0.04058116714)
(-0.01067348555 -0.1502795129 0.07654749698)
(0.07643027548 -0.2290603621 0.04007959815)
(0.01473415803 -0.2720522064 0.01389616451)
(0.1233222061 -0.2773409063 -0.180419618)
(0.1663769907 -0.3440600943 -0.02229555178)
(0.1662037731 -0.3761558949 -0.04818851608)
(-0.1059224338 -0.1041473543 0.1348451408)
(-0.2059926361 -0.09887202985 0.07062158698)
(-0.3347338062 -0.1535790117 -0.04052217287)
(-0.4037967672 -0.2364936514 -0.2494459138)
(-0.3753323657 -0.2943534146 -0.4248109977)
(-0.2943144794 -0.2984595168 -0.4694322572)
(-0.1646568829 -0.2782007119 -0.3255029883)
(-0.06288910082 -0.3058563815 -0.028240325)
(-0.1939562786 -0.3204962113 0.1141120224)
(-0.3273919921 -0.3001072265 0.09173312053)
(-0.4327146545 -0.2725286027 0.03980881763)
(-0.5082397666 -0.2508870081 -0.0172957319)
(-0.5414145684 -0.237277249 -0.06451363561)
(-0.5349903228 -0.2375797843 -0.08875244555)
(-0.4465784703 -0.2629039847 -0.0848364712)
(-0.313910314 -0.2489916524 -0.09102149518)
(-0.2556228936 -0.2148298461 -0.05873273169)
(-0.249610939 -0.2110104875 -0.02339750863)
(-0.2280020358 -0.211523397 -0.02779605812)
(-0.1969409673 -0.1750371081 -0.04549688745)
(-0.1873788359 -0.1640318183 -0.05144094069)
(-0.164503634 -0.1557253364 -0.04728204714)
(-0.1436196589 -0.1520032062 -0.04098805394)
(-0.1204074592 -0.1537333453 -0.03129059714)
(-0.09950413897 -0.160407762 -0.01772880771)
(-0.07883734011 -0.1686064063 -0.002155235346)
(-0.06291359637 -0.1825646523 0.007731969034)
(-0.03211228958 -0.1784478272 0.01434900398)
(0.01492110838 -0.2367892543 0.0003391542733)
(0.01656893454 -0.27399443 -0.01553485564)
(0.07494974123 -0.267093055 -0.00970649047)
(0.08558790727 -0.3272071855 -0.01757973964)
(0.1378922902 -0.3025663982 -0.09639931965)
(-0.3043029698 0.04019972562 0.1926849681)
(-0.5497682847 0.03889591498 -0.1113994071)
(-0.6644896911 0.0571860209 -0.4025355072)
(-0.6288485976 0.06909137255 -0.5664498506)
(-0.5129378579 0.05862149508 -0.6477913579)
(-0.3355335207 0.03655534724 -0.6688148368)
(-0.1193077654 -0.03675214833 -0.5605127729)
(0.06778253774 -0.1688997002 -0.1703945632)
(-0.08500623547 -0.2378450766 0.110853404)
(-0.2896396839 -0.242275404 0.1076461423)
(-0.4121482752 -0.2298587495 0.0500663221)
(-0.4938835771 -0.223343807 -0.01119140394)
(-0.525028632 -0.2497612807 -0.06769683419)
(-0.5222321282 -0.3402355659 -0.1000575462)
(-0.448532037 -0.6791598378 -0.1058916209)
(-0.3045620609 -0.4081859278 -0.1404569662)
(-0.2382547256 -0.2612022 -0.0874159782)
(-0.2308120195 -0.2431186536 -0.03092012895)
(-0.2121641091 -0.3311907812 -0.02102252365)
(-0.1822357299 -0.1508755552 -0.03321930913)
(-0.1809638515 -0.1404395644 -0.04445064119)
(-0.1586650425 -0.1147522362 -0.04642066788)
(-0.1405562451 -0.1123333031 -0.04167850555)
(-0.1219892385 -0.1203187083 -0.03157574536)
(-0.1070565304 -0.1376890113 -0.01827273703)
(-0.0941149057 -0.1614136804 -0.006831414344)
(-0.08341920586 -0.1887723802 -0.003955273856)
(-0.0576973797 -0.2123836864 -0.008307934605)
(-0.01739813283 -0.243164183 -0.0235770246)
(0.005588076082 -0.2723042225 -0.0420690198)
(0.06088072739 -0.2879099129 -0.0420457239)
(0.09470705343 -0.3191152181 -0.03659608043)
(0.125337723 -0.2906935049 -0.01312393687)
(-0.2141374228 0.2698635316 0.1966157747)
(-0.4335400347 0.2332675044 0.04973406473)
(-0.6172935202 0.2471749048 -0.1771126443)
(-0.6284837719 0.2730480322 -0.3805855602)
(-0.5248712412 0.2975878742 -0.4939823275)
(-0.3523043398 0.2785482905 -0.5162731094)
(-0.1092759172 0.1737206615 -0.3245479409)
(-0.03144719349 -0.02436871856 0.05692090966)
(-0.2049210019 -0.1272137188 0.1061099926)
(-0.3350664476 -0.1683409023 0.08249659203)
(-0.4587340052 -0.1606362306 0.06473693418)
(-0.5920115912 -0.1169430444 0.04076365092)
(-0.7494832262 -0.0683279058 0.00284334771)
(-1.061857941 -0.04447356397 -0.09390435827)
(-0.6047847101 0.01285793592 -0.5477806689)
(0.1446148197 -0.03512291255 -0.4231381031)
(-0.04183725762 -0.03479841463 -0.02857779495)
(-0.3421758183 -0.03960313203 -0.06808257389)
(-0.1272922576 -0.03575238444 -0.2162063205)
(0.02855793438 -0.0389479199 -0.0472877959)
(-0.1391603761 -0.03769941429 -0.05199152158)
(-0.1220688154 -0.0425869607 -0.04533587038)
(-0.1346266193 -0.0538732854 -0.03930798872)
(-0.1299916804 -0.07345338175 -0.02726939608)
(-0.1268229793 -0.100433649 -0.01463594798)
(-0.1238837641 -0.1324486743 -0.008375127402)
(-0.1170445928 -0.1661887218 -0.01249233339)
(-0.09476708658 -0.1978489777 -0.02635163796)
(-0.05491376201 -0.2262902217 -0.0453869059)
(-0.01296997925 -0.2482750172 -0.07086200859)
(0.05097797908 -0.2658390778 -0.08235348299)
(0.09969131018 -0.2861006302 -0.06572242891)
(0.1347866923 -0.27899694 -0.03336479749)
(-0.1486986179 0.2765532909 0.2014831969)
(-0.3039699021 0.2468504982 0.1555358869)
(-0.4743869308 0.2938803222 0.06025377121)
(-0.5405034565 0.3852962742 -0.1153809742)
(-0.4845357709 0.4415772287 -0.2596624065)
(-0.3537558571 0.3961145593 -0.268409169)
(-0.1568045038 0.2118465482 -0.02690828598)
(-0.2014927302 -0.02100256954 0.1121522096)
(-0.270183939 -0.1134316501 0.07402401476)
(-0.3451174114 -0.1489514281 0.05585700829)
(-0.4127418884 -0.131313654 0.05556869525)
(-0.4720374952 -0.06352824987 0.0588275395)
(-0.5272881347 0.05588251024 0.04681498673)
(-0.5750215617 0.230093847 0.008436108855)
(-0.4857440992 0.6159761951 -0.06740908954)
(-0.2841757204 0.3562955792 -0.1043395173)
(-0.2461307784 0.2031039906 -0.03013152177)
(-0.281713646 0.1745140479 -0.03588475079)
(-0.2208548461 0.2661194805 -0.06557547485)
(-0.1749718203 0.08685999066 -0.04627309905)
(-0.1824963277 0.07358182194 -0.04766115337)
(-0.1709538725 0.03441346499 -0.04317129677)
(-0.1645822821 0.007748000445 -0.03363120822)
(-0.1616036775 -0.02258474738 -0.02018236441)
(-0.1658920675 -0.05620256955 -0.009051595606)
(-0.171121034 -0.09397566248 -0.008606270408)
(-0.1694252721 -0.1318352792 -0.02010195788)
(-0.1403045069 -0.1651394002 -0.04826817713)
(-0.09045457125 -0.1932986166 -0.06715371379)
(-0.0352485549 -0.2055388647 -0.1021474958)
(0.0432659315 -0.2194297271 -0.1206464112)
(0.1091180453 -0.2316752012 -0.09927290515)
(0.1521733735 -0.2293356659 -0.06385911417)
(-0.1135755011 0.265121773 0.1814192647)
(-0.235072279 0.2309362045 0.1519709616)
(-0.3763822637 0.2526166831 0.1359790456)
(-0.4443869358 0.3140226555 0.07650430818)
(-0.4281457059 0.3627822521 -0.01071721835)
(-0.3341227042 0.3057338637 -0.0302559938)
(-0.2440964128 0.1032391048 0.06441856435)
(-0.2800280861 -0.02770866309 0.04111735711)
(-0.3140607643 -0.09667234721 0.01248148142)
(-0.3566665237 -0.1252314072 0.002512323821)
(-0.3995193604 -0.116857062 0.008392304476)
(-0.4452953498 -0.07645055693 0.02753535094)
(-0.4843795183 -0.01072098837 0.04757988411)
(-0.5038060046 0.0782131213 0.04847812467)
(-0.4390550801 0.1922489709 0.03182201853)
(-0.3147431195 0.199374916 -0.008371364603)
(-0.2752446715 0.1507097742 -0.01051135307)
(-0.2834880786 0.1440861401 -0.02604318814)
(-0.2352555507 0.155000502 -0.03957062771)
(-0.1990989854 0.1179259853 -0.03911638303)
(-0.198732438 0.1028515991 -0.03915751898)
(-0.1917315191 0.08344666509 -0.03280430605)
(-0.1930694958 0.06054482864 -0.02149727011)
(-0.2019110759 0.02977524417 -0.008476589171)
(-0.2157471626 -0.009672577875 -0.0004344649467)
(-0.2293726786 -0.0509242093 -0.003194502991)
(-0.229034662 -0.09155500412 -0.01967381136)
(-0.1988308233 -0.1238847966 -0.05015817369)
(-0.1376221239 -0.1489120626 -0.08577595931)
(-0.06013894009 -0.144299327 -0.1318391052)
(0.03752489363 -0.1463403874 -0.1568876024)
(0.1217362684 -0.1506885393 -0.1352199494)
(0.1757394566 -0.1489486941 -0.0954028544)
(-0.1000188894 0.2139841309 0.1712199563)
(-0.2148963702 0.1987308016 0.1300388251)
(-0.3414447161 0.2031224519 0.1164349561)
(-0.4018581697 0.2204821041 0.1007748143)
(-0.4055170818 0.2272499892 0.07105073832)
(-0.3572448306 0.1755867431 0.04174608405)
(-0.3311883101 0.06175864116 0.01187579811)
(-0.3385660775 -0.004130944833 -0.02400046665)
(-0.3462045038 -0.04930039121 -0.04394348126)
(-0.3562921815 -0.06731359829 -0.05312743988)
(-0.3655888625 -0.05988142509 -0.04972050306)
(-0.3761715038 -0.02765098843 -0.0312631219)
(-0.3904116937 0.02859711982 -0.002183809928)
(-0.4020385302 0.1003596706 0.02213575953)
(-0.3854412794 0.1793005465 0.02372863138)
(-0.3384407567 0.2036000823 0.004090682998)
(-0.3060918771 0.1892181682 -0.009569226563)
(-0.2909872801 0.1925233873 -0.02288335795)
(-0.263024739 0.1970754408 -0.03117703466)
(-0.2403437349 0.1719811467 -0.0311989302)
(-0.2319333707 0.15604606 -0.0270033005)
(-0.2301505562 0.1356654605 -0.0166196268)
(-0.2397452756 0.1109248579 -0.00211915301)
(-0.2608792534 0.07897144031 0.01082925741)
(-0.28814586 0.03873921253 0.01465430488)
(-0.3064373607 -0.009288049406 0.005073249898)
(-0.3061888464 -0.05676497898 -0.01793744087)
(-0.2645782401 -0.09460440752 -0.05482778893)
(-0.1808844403 -0.1095625433 -0.09819361246)
(-0.07726670153 -0.07758419709 -0.153162992)
(0.04329159262 -0.05992796754 -0.1855656799)
(0.142465172 -0.05500539167 -0.1693282756)
(0.2061483605 -0.04832465411 -0.1313664983)
(-0.1079625031 0.1671744562 0.1660594672)
(-0.2296559089 0.183633698 0.1028317047)
(-0.3521567002 0.1848673191 0.06328474114)
(-0.4070707699 0.1825985716 0.03414054504)
(-0.4207166346 0.1713019756 0.008244347471)
(-0.4013800247 0.1385863479 -0.02162238137)
(-0.3863200402 0.08625501876 -0.05687347494)
(-0.3778998605 0.04678059371 -0.0804927545)
(-0.3684861155 0.01834971062 -0.09526423852)
(-0.3590748878 0.007040553832 -0.1044259219)
(-0.3474640675 0.01349165821 -0.1054974997)
(-0.3345262482 0.03467924352 -0.09304736984)
(-0.3247130222 0.06652084428 -0.0631560307)
(-0.3228351881 0.1047953012 -0.02147474611)
(-0.3225310137 0.1423317297 0.009589330534)
(-0.3134556468 0.1702588781 0.0105807108)
(-0.3011075963 0.1862803721 -0.002471693162)
(-0.2910608801 0.2004949894 -0.01412892455)
(-0.2762599664 0.2079640801 -0.01963709813)
(-0.2655038795 0.2025809807 -0.01798451294)
(-0.2656347148 0.1940244409 -0.009720399688)
(-0.2785269314 0.1792927603 0.004919919172)
(-0.3083161043 0.1565289586 0.02191194979)
(-0.3520873573 0.1225617317 0.03329172311)
(-0.3956221732 0.07629973426 0.03144466368)
(-0.4177909821 0.02012852564 0.01318647506)
(-0.3995856448 -0.04127855618 -0.02227736635)
(-0.3305083147 -0.08814506502 -0.07044051222)
(-0.2132657455 -0.0907698805 -0.1145758021)
(-0.08205978995 -0.01927176706 -0.1569415231)
(0.06527875118 0.03656233522 -0.1912859932)
(0.1756340851 0.06892006321 -0.1826582017)
(0.250521164 0.09181994407 -0.1543167442)
(-0.137020467 0.1475236555 0.1608945817)
(-0.2644024189 0.1922596487 0.07472426233)
(-0.3847072845 0.2009710314 0.01989195045)
(-0.4345873905 0.1999429185 -0.01711594551)
(-0.4496612784 0.1927711918 -0.04324919737)
(-0.4431226453 0.1762115385 -0.06638836111)
(-0.4297031736 0.1533904871 -0.08886905214)
(-0.4128896748 0.1354327859 -0.1068480392)
(-0.391600723 0.123730395 -0.1219656877)
(-0.3651570655 0.1198752733 -0.1334241565)
(-0.3330133492 0.1233825411 -0.137907792)
(-0.2978584015 0.1335750149 -0.1308277968)
(-0.2656238242 0.148852315 -0.107202507)
(-0.2453496884 0.1651833759 -0.06366097725)
(-0.2426079571 0.1743694386 -0.007800120373)
(-0.2623481058 0.1837489661 0.02236993554)
(-0.2805623575 0.2011626986 0.01269005399)
(-0.2854645012 0.2182329512 -0.0001764609269)
(-0.2849399594 0.2292994897 -0.004572382487)
(-0.2875623154 0.2333745075 -0.0004174920987)
(-0.3017058078 0.233228447 0.01208786976)
(-0.3334587376 0.226732801 0.03144297247)
(-0.3845242996 0.209695484 0.05134152218)
(-0.4478344715 0.1742000018 0.06126433332)
(-0.5013847399 0.1124066897 0.04658165612)
(-0.5165479139 0.02841210976 -0.003125396854)
(-0.4698268114 -0.04844457699 -0.07926705019)
(-0.3655835104 -0.08843934829 -0.1484270198)
(-0.2120368652 -0.07294569683 -0.1823922889)
(-0.04016890274 0.02447141545 -0.14564388)
(0.1151599645 0.1106155973 -0.1481699027)
(0.225493239 0.1676967185 -0.146358288)
(0.2977769681 0.2028651258 -0.1286701011)
(-0.1665064183 0.1618673657 0.1586372782)
(-0.2967539902 0.2173944159 0.0564581613)
(-0.4164918126 0.2353695214 -0.002465081552)
(-0.4621323863 0.2419792374 -0.03812060631)
(-0.4782616179 0.2429148854 -0.06159267626)
(-0.4748460877 0.2388468699 -0.07994258393)
(-0.4599729281 0.2313900971 -0.09613429897)
(-0.4370703141 0.2244698106 -0.1102027745)
(-0.40634541 0.219556523 -0.1231142545)
(-0.3675770967 0.2179600322 -0.1341744214)
(-0.3217202397 0.2196044877 -0.1405917408)
(-0.2725636705 0.2233711087 -0.1378174438)
(-0.2266607237 0.2272491243 -0.1199770609)
(-0.1952031627 0.227594428 -0.07963112369)
(-0.1858420884 0.218434884 -0.01174746851)
(-0.2224227914 0.2142377733 0.03615509835)
(-0.2616398406 0.2239254247 0.02978757127)
(-0.2795673186 0.2366254381 0.01772274907)
(-0.2902336229 0.248652082 0.01456487217)
(-0.303093306 0.2583772169 0.02040016246)
(-0.3264278729 0.264526174 0.0353695645)
(-0.3666303535 0.2627805135 0.05661280288)
(-0.4261141211 0.2439423198 0.07045679158)
(-0.4955320674 0.1955358236 0.05060807354)
(-0.5486167276 0.1174933434 -0.02140879374)
(-0.5499681994 0.04054834334 -0.1252985451)
(-0.492811582 -0.007463178754 -0.219708154)
(-0.3640530706 -0.02101959795 -0.2969860973)
(-0.1746543799 5.85118869e-05 -0.3429534867)
(0.073707692 0.07395630963 -0.2394835886)
(0.2114687397 0.163004541 -0.1476695697)
(0.3080919672 0.2486801809 -0.1161110827)
(0.3602359561 0.3035738667 -0.09696375403)
(-0.1830016483 0.1953858135 0.1611187363)
(-0.3167242824 0.2508109541 0.0502469734)
(-0.4378708913 0.2773160372 -0.009268797573)
(-0.4822017428 0.2927723905 -0.04265136411)
(-0.4987272773 0.3027840515 -0.06377692553)
(-0.4951333506 0.3091688501 -0.07972015891)
(-0.4779466564 0.3123540646 -0.09339849682)
(-0.4504659177 0.313832498 -0.1058204873)
(-0.4136175546 0.314430178 -0.1177500621)
(-0.367710802 0.3146171152 -0.1284448048)
(-0.3143364297 0.3139217424 -0.1351681416)
(-0.2577657815 0.3110106067 -0.1333121895)
(-0.2050522532 0.3035518701 -0.1165325642)
(-0.1687650444 0.2874440285 -0.07555250757)
(-0.1564890831 0.2604313998 0.0003520523088)
(-0.2046832295 0.2405327383 0.05352806715)
(-0.2505989087 0.2359643251 0.04959727943)
(-0.275295327 0.2403430678 0.03990929306)
(-0.2927652569 0.2525670954 0.03828609732)
(-0.3148642989 0.2675330071 0.04567806398)
(-0.3510491046 0.2790877621 0.06108523971)
(-0.4089294379 0.2835200346 0.07124696188)
(-0.4874766776 0.2765021214 0.04403160196)
(-0.5630915535 0.2550505226 -0.04327569089)
(-0.5981960172 0.2248261724 -0.1606609575)
(-0.5886632788 0.1916794303 -0.2607305174)
(-0.5157205703 0.168275597 -0.340520706)
(-0.3560040134 0.1638018409 -0.4167175263)
(-0.1065591531 0.1750623618 -0.4722094855)
(0.1933637637 0.2259482609 -0.3697944895)
(0.3513153116 0.2892047193 -0.2342363301)
(0.4379474943 0.3568694962 -0.143705657)
(0.4621567499 0.407011517 -0.08844814418)
(-0.1869429395 0.2327398914 0.1665975514)
(-0.3242033508 0.285497631 0.05306015002)
(-0.4475394472 0.3190916063 -0.006293026062)
(-0.4933819223 0.3423699466 -0.03849398443)
(-0.5103890969 0.3599391912 -0.05773387361)
(-0.5063464546 0.3743133332 -0.07201489936)
(-0.4873653058 0.3850060663 -0.08417999655)
(-0.4568738172 0.3923220822 -0.09541665959)
(-0.4162950068 0.3964998596 -0.1063671439)
(-0.3664887749 0.3974462025 -0.1162053791)
(-0.3096338697 0.3942668603 -0.1220726482)
(-0.2505040672 0.3851148213 -0.1189804714)
(-0.1968097279 0.3667497962 -0.09966065345)
(-0.161120045 0.3340561488 -0.05308827461)
(-0.1542673125 0.2902408758 0.02913848826)
(-0.2118759544 0.2549373217 0.07970612143)
(-0.2540683799 0.2357311816 0.07952309274)
(-0.273830291 0.2317639075 0.07394161256)
(-0.2881360107 0.2439263865 0.07311242133)
(-0.3179399008 0.2654869278 0.07908726568)
(-0.3724442715 0.2880078986 0.08763314928)
(-0.4521036642 0.3125797958 0.07286086268)
(-0.5452078266 0.3375447701 1.654542217e-05)
(-0.6137568946 0.3554039358 -0.1205906945)
(-0.6395019741 0.3595904308 -0.2295699858)
(-0.6242821638 0.3513374166 -0.3070802424)
(-0.5367963555 0.3428153189 -0.3816554059)
(-0.3560789199 0.3451371882 -0.4731612036)
(-0.05433344983 0.352154238 -0.5502721173)
(0.2767156025 0.391457584 -0.4485911843)
(0.4631947757 0.4411291985 -0.3053703864)
(0.552073443 0.4897162606 -0.1882167527)
(0.5603704304 0.5226009514 -0.1005380044)
(-0.181637075 0.2641864038 0.1726588977)
(-0.3212558595 0.3153849641 0.06185310088)
(-0.4463017766 0.3546523396 0.003108620514)
(-0.4951851676 0.3841527175 -0.02879704463)
(-0.5139567994 0.407213925 -0.04680470289)
(-0.5101047559 0.4271449977 -0.05965677941)
(-0.4903065321 0.4429921439 -0.07040795485)
(-0.4582438735 0.4543364184 -0.08032109205)
(-0.4159418125 0.4608552479 -0.08990208027)
(-0.3649560004 0.4618811754 -0.09813632421)
(-0.3081394489 0.4559023101 -0.1018048512)
(-0.2508291956 0.4402429688 -0.09514167455)
(-0.2011838422 0.4103326559 -0.06951915148)
(-0.1706346658 0.3604133347 -0.01395306047)
(-0.1789132879 0.2957504558 0.06325450407)
(-0.2329407898 0.2337280413 0.09299202601)
(-0.2650117669 0.1837911388 0.07589139944)
(-0.2756886473 0.1652702063 0.06255607569)
(-0.2818943825 0.1901749076 0.07530586437)
(-0.3098748576 0.2409759043 0.1063035849)
(-0.3743385325 0.289202211 0.1241523088)
(-0.4727863249 0.34088587 0.09730276421)
(-0.5826452543 0.4034669274 -0.002766615351)
(-0.6550558711 0.4608159418 -0.1477044997)
(-0.6720099489 0.5050840652 -0.2627178234)
(-0.6499423761 0.5311874567 -0.337666974)
(-0.5527494527 0.5451705227 -0.4147729488)
(-0.3598938315 0.5580208473 -0.5186363733)
(-0.02740389052 0.5686411704 -0.6123838423)
(0.3244072486 0.5945575698 -0.5100880812)
(0.5281726417 0.6226004612 -0.365500846)
(0.6224992149 0.643854569 -0.2376259803)
(0.6272186182 0.6474699135 -0.1251835445)
(-0.1702448737 0.2840838642 0.1772886855)
(-0.3104249229 0.3358096112 0.07438592598)
(-0.4360794681 0.3793473346 0.01705439331)
(-0.4883764144 0.4130242998 -0.01484747444)
(-0.5107300867 0.4402940026 -0.03278216141)
(-0.5077726038 0.4631061145 -0.04444758767)
(-0.4882448906 0.4819159815 -0.05371446267)
(-0.4559875509 0.495669063 -0.0620136034)
(-0.4138207285 0.5034847895 -0.06964297536)
(-0.3642456376 0.5040218743 -0.07522691045)
(-0.3109962399 0.4948736866 -0.07491167511)
(-0.2601241556 0.472066 -0.06202465272)
(-0.2204184822 0.4293598563 -0.0282083846)
(-0.2071765849 0.3612402497 0.02643092287)