/*--------------------------------*- C++ -*----------------------------------*\
  =========                 |
  \\      /  F ield         | OpenFOAM: The Open Source CFD Toolbox
   \\    /   O peration     | Website:  https://openfoam.org
    \\  /    A nd           | Version:  8
     \\/     M anipulation  |
\*---------------------------------------------------------------------------*/
FoamFile
{
    version     2.0;
    format      ascii;
    class       volScalarField;
    location    "0.4";
    object      epsilon;
}
// * * * * * * * * * * * * * * * * * * * * * * * * * * * * * * * * * * * * * //

dimensions      [0 2 -3 0 0 0 0];

internalField   nonuniform List<scalar> 
67451
(
7.624853243e-06
1.091938811e-05
4.62070172e-05
0.0002708417684
0.000994480603
0.002168329909
0.003413393779
0.003620548239
0.002004823013
0.0005552379765
0.000424389303
7.381167506e-06
7.374823341e-06
7.394476264e-06
7.759801491e-06
1.379606785e-05
7.525076232e-05
0.0004349045068
0.001543845683
0.003275270281
0.02295953203
0.03267213784
0.03155768065
0.02137200577
0.002679927758
0.000827406501
0.0005399228985
3.862842057e-05
9.847340464e-06
9.557622996e-06
2.551797956e-05
0.0002607196777
0.001553548118
0.0201509577
0.05143636182
0.08090522124
0.1220526645
0.0003140843583
4.487520579e-05
9.586851728e-06
7.456456832e-06
7.861917506e-06
1.509438674e-05
8.969637695e-05
0.0005449266109
0.001961196963
0.004153312987
0.03138121299
0.04219837351
0.04360656234
0.04266244468
0.03768368134
0.02635977347
0.003402541525
0.001231544349
0.0003147870634
4.993127181e-05
4.574463785e-05
0.0001680480134
0.0009560394804
0.003678322732
0.04820552862
0.08726149448
0.1082442408
0.1551318651
0.001610058
0.0004568273889
5.721122541e-05
1.037340232e-05
1.629709784e-05
9.700658961e-05
0.0005977653241
0.002214555315
0.02108537399
0.03927306235
0.0511532047
0.05373507826
0.04712748693
0.04979101656
0.04622538374
0.03891420655
0.02928360248
0.003968378789
0.001940698005
0.0005613711998
0.0003045105427
0.001020938208
0.003324153881
0.04087790381
0.08174665363
0.1027555504
0.1086424378
0.1669461901
0.001852955646
0.0004656825452
5.001687779e-05
8.819192793e-05
0.0005308444088
0.002102089779
0.02174880508
0.04393715568
0.05876107802
0.06360215479
0.0671706631
0.05445923902
0.05510816965
0.05052778405
0.04499318939
0.04057043301
0.03354640031
0.01987035802
0.002293257488
0.001162781775
0.003045046865
0.03940940219
0.08144127345
0.100767932
0.108672536
0.1190418257
0.1886987519
0.003585913227
0.001691647559
0.0003288767644
0.0004891915341
0.001878978329
0.01897658904
0.04176756395
0.06182224786
0.07259916323
0.08672663121
0.1210590548
0.1106194333
0.08891239589
0.06669217708
0.05962038507
0.06234424343
0.0557459646
0.04158820484
0.02116774237
0.002733706036
0.01999534447
0.06118065452
0.1141040998
0.1452800515
0.1775592511
0.201611902
0.247316275
0.02173151653
0.003265639353
0.001247699581
0.001291201166
0.002734638204
0.00445357249
0.02949067027
0.03877220492
0.04466864598
0.05421699743
0.06907523428
0.07145001441
0.05668973156
0.05261550534
0.05084817564
0.04596128224
0.03496927277
0.02218029451
0.003791538144
0.003373081518
0.00353665484
0.003789400307
0.03086087283
0.08819915634
0.1209734297
0.1387606735
0.1823986305
0.02679591599
0.004472631497
0.002625083857
0.002750414276
0.01899824888
0.03002573431
0.04003211663
0.04811244861
0.06158009531
0.06879422397
0.06737743025
0.06783289067
0.0576340565
0.053018807
0.04943249413
0.04405043457
0.03448411008
0.02880463733
0.0247517462
0.02021065447
0.004357571635
0.004232791967
0.004267979766
0.05143514349
0.1069877811
0.1117378117
0.1625562737
0.02875453183
0.02335018544
0.003796960332
0.003399625301
0.02079855432
0.02821464595
0.03144734057
0.03786152062
0.05110546986
0.05599938351
0.05653378707
0.05880939211
0.04994665116
0.046352716
0.04505290367
0.03883301237
0.0332359177
0.03446069867
0.03113635298
0.02461635693
0.02093204901
0.01966284659
0.004438982984
0.01960005609
0.07346958183
0.1060267648
0.1514078343
0.02987307086
0.02564751124
0.01984978167
0.003434981796
0.003828210655
0.02400086357
0.03017309668
0.03225823191
0.03394063284
0.03517260235
0.04195802057
0.04839555004
0.0458772973
0.04314643125
0.03899030608
0.03399177936
0.03807778043
0.04151043608
0.03435979705
0.02569524945
0.02135932199
0.0198921519
0.01936457004
0.004441998283
0.0309360237
0.08239150648
0.1359950762
0.03312137096
0.0256256543
0.02241376001
0.004292597096
0.003301093469
0.003873308426
0.02398879761
0.02798993779
0.02738768696
0.02668039942
0.03459834614
0.04084774753
0.04518593796
0.04134227256
0.03754817369
0.04390856884
0.05113619895
0.04747309862
0.04236669897
0.02721223203
0.0225371503
0.01942994951
0.004413785708
0.004396347307
0.004376361942
0.04007768637
0.09851211423
0.03177954168
0.02964924857
0.02507437633
0.02093361473
0.004160972274
0.003168132186
0.004036624446
0.0233873068
0.02646946204
0.02919539114
0.0383435253
0.06430838497
0.1389662713
0.108377335
0.07535990704
0.07262261912
0.06779951855
0.05409064232
0.03929069004
0.03068155944
0.02584698799
0.02204440222
0.004479472975
0.004207421129
0.004263041706
0.01967132456
0.04750822467
0.07986022068
0.08053941902
0.05468594012
0.03325785139
0.02009881764
0.002733195006
0.002986401974
0.02037339044
0.0295284168
0.04589334428
0.08495643523
0.1512091839
0.1964245427
0.1647760193
0.1125728663
0.08776683191
0.07685381648
0.07002008445
0.05135477954
0.03552035134
0.02993004491
0.02657506777
0.023967563
0.02185281363
0.02216970577
0.0212805271
0.01517817464
0.1903999803
0.1769263998
0.1237865278
0.06458010035
0.02456310414
0.001974655263
0.004067532275
0.04614720297
0.08323256485
0.1192199459
0.1521693185
0.2118898476
0.2387659841
0.2165879299
0.1709108463
0.129904698
0.1128353156
0.3563599838
0.1942625556
0.0601045551
0.03447884162
0.02789886055
0.02553566145
0.02519632788
0.02605884056
0.02543882509
0.01485145427
0.3257070447
0.2470489642
0.1871867305
0.1115990958
0.03715694484
0.001836784608
0.004128339232
0.04157535767
0.06442292567
0.08293569424
0.1092302421
0.1656086307
0.1963905357
0.1987447344
0.1746574998
0.1447848879
0.1143473712
0.115103652
0.08883728232
0.0513635197
0.03674458459
0.03140061812
0.02994322952
0.03001752787
0.03047156696
0.0292981007
0.01583552916
0.4013320691
0.3733452305
0.2331842224
0.1683368911
0.07931164317
0.003947321337
0.002772088524
0.004105080922
0.02567612926
0.04328667123
0.09800095958
0.2648113736
0.1835128977
0.1462486377
0.1465720853
0.1373464831
0.1170465395
0.09595078011
0.07387460166
0.04997300188
0.03844990133
0.03631561332
0.03704615619
0.03821568384
0.03799788225
0.03446028677
0.01633414557
0.3799913439
0.3296331764
0.2133561401
0.1673801355
0.1295921618
0.05189335073
0.003699644801
0.004024924009
0.02708788094
0.0762769206
0.2667145816
0.7509933402
0.427588407
0.1823190027
0.1211807688
0.1130965729
0.1037319981
0.08799393349
0.06910957377
0.04920277151
0.04703301312
0.05172282009
0.05462716314
0.05528891171
0.05565351312
0.05026928042
0.03896275783
0.3040503712
0.2368870802
0.191265017
0.1665379415
0.1101671126
0.02899487685
0.00381770145
0.004310544124
0.03570389932
0.1074857371
0.2859747401
0.6523723646
0.6666414399
0.3183823556
0.1651384757
0.1099674519
0.08847445406
0.07490004175
0.06142472958
0.05040022767
0.05611655991
0.06395443641
0.06675606877
0.06593876969
0.06591253595
0.06113353316
0.04872316475
0.2230168145
0.1991022776
0.1815052843
0.1463048655
0.07542220674
0.003933204651
0.003624469137
0.003963165863
0.02017695403
0.04508336601
0.1286744532
0.3401629833
0.3135095305
0.1678713437
0.1019062871
0.07611606917
0.06598446737
0.05802084045
0.05250219673
0.0510451114
0.05909259025
0.06640885831
0.06837580723
0.06810772617
0.0686310245
0.06310567465
0.0486270886
0.1457457712
0.1673490668
0.1557975089
0.1125821316
0.04656121473
0.00245954379
0.003011185719
0.003689589302
0.003901890162
0.02019582081
0.04554507902
0.1410888111
0.1319996633
0.08244517338
0.05919906069
0.05170490718
0.04688923408
0.04215166092
0.04300076457
0.04960277822
0.0560506213
0.0613382259
0.0638961763
0.06484516256
0.06535657143
0.05705704821
0.0395335594
0.09871217957
0.1121823725
0.1088148527
0.0811722883
0.04035486154
0.003099291961
0.001738617968
0.002991103126
0.003491250875
0.003645919858
0.004400353085
0.04711344796
0.05228799261
0.04085278753
0.03730701438
0.03540980724
0.03174193935
0.02786961212
0.03095147607
0.04264817196
0.05042075076
0.05449911829
0.05727862911
0.0585478573
0.05588005648
0.0432922488
0.01469292321
0.119155245
0.1015417762
0.09232916523
0.07536302051
0.05233931748
0.02803600239
0.002627757705
0.001587568363
0.002639240484
0.003108708112
0.003333829547
0.004384194072
0.02356492858
0.02451844486
0.02488421337
0.02316181753
0.01905753311
0.003842002703
0.004165946615
0.0286424443
0.04305236429
0.04743372149
0.04956138229
0.04769710025
0.03939152962
0.02448222604
0.003237055686
0.1250417998
0.1038418369
0.09374759641
0.08081334548
0.06265876133
0.03877279561
0.003747254889
0.001080090767
0.001389485033
0.002195424455
0.002617804729
0.003115737591
0.02464799661
0.004185079232
0.003906794555
0.003500866238
0.002786559412
0.001978947728
0.002063618856
0.003529341266
0.02960974005
0.03561367943
0.03523562382
0.0294281721
0.01934147266
0.002645023808
0.001156557917
0.1172630346
0.1074721404
0.09625736578
0.0839535514
0.06717787243
0.04440640517
0.01961272219
0.001806133725
0.003434701391
0.004047060501
0.002733582281
0.02393635116
0.2472369502
0.06036617701
0.003737438141
0.002059871387
0.001265638829
0.0006767008739
0.0006276936417
0.001443385438
0.00365554944
0.004425606533
0.004138309717
0.00318493413
0.001941911812
0.0008120874273
0.0002491662577
0.1102408476
0.107690758
0.09212050363
0.07653159322
0.06241096874
0.04398883598
0.02301741019
0.003128009029
0.02930205608
0.04676848961
0.02503079884
0.02614862642
0.1331531949
0.05344810479
0.003235228614
0.001218091836
0.0004493692806
0.0001601585438
0.0001181021029
0.0003332290612
0.001424429794
0.001966678263
0.001668893493
0.001040465468
0.000475449821
0.000147793218
3.891847e-05
0.1028709467
0.0986191001
0.07864177459
0.06280117002
0.05112020668
0.03710001821
0.02306315194
0.01905356038
0.04896599741
0.08487125754
0.05894180633
0.03118781735
0.04479251036
0.00388247068
0.001579004858
0.000473344287
0.0001131830672
3.057387879e-05
2.027231886e-05
5.074248895e-05
0.0002972476503
0.0004837112582
0.0003700016781
0.0001880166207
7.070939842e-05
2.214762575e-05
1.043664067e-05
0.09169060283
0.08160561949
0.06199146466
0.05109276357
0.04365212775
0.03330798378
0.02426667509
0.05125428289
0.1035672222
0.13289479
0.09628334871
0.06032511008
0.03418541025
0.01962478335
0.00284173495
0.001197140115
0.0002694361504
3.944305571e-05
1.050569378e-05
1.109595821e-05
3.897362593e-05
6.669419392e-05
4.898443975e-05
2.490807557e-05
1.246435359e-05
8.287972901e-06
7.988137255e-06
0.07664405426
0.06122569703
0.04646431855
0.0416169033
0.03770752754
0.02893254822
0.02808628448
0.07742262878
0.1139389645
0.1352531724
0.09978215367
0.06768425053
0.0460677551
0.03301464865
0.01937083977
0.002486610607
0.0008676835661
0.0001686746429
2.396598677e-05
8.566277376e-06
9.363898051e-06
1.137387172e-05
1.0023313e-05
8.358929257e-06
7.601953551e-06
7.32565986e-06
7.845369158e-06
0.06046310591
0.04692520198
0.03814837895
0.03633175422
0.03141202101
0.02226837463
0.02692890025
0.0753282599
0.09963782195
0.1107429459
0.0867230192
0.06565345659
0.05051823984
0.03532824557
0.01911735423
0.002274264676
0.0007020922411
0.0001238275236
1.840643325e-05
8.005242094e-06
7.446461844e-06
7.503265814e-06
7.445171468e-06
7.379125034e-06
7.346153238e-06
7.279363096e-06
7.837980021e-06
0.04312630828
0.0407838761
0.03421095852
0.02925498306
0.02190876374
0.003467331215
0.003940069336
0.05228751283
0.07789203022
0.08016317817
0.06978996533
0.05733379517
0.04254825774
0.02605379995
0.003194009748
0.001245612899
0.000284968647
4.351035536e-05
1.025329427e-05
7.465359509e-06
7.312611595e-06
7.307703626e-06
7.305522725e-06
7.30340246e-06
7.299930937e-06
7.256754048e-06
7.830938501e-06
0.0245604388
0.03167012844
0.02523271649
0.004617442034
0.003234715709
0.001664695119
0.00182327048
0.02657727395
0.04849950647
0.05648342136
0.04927113066
0.03913281943
0.02659518463
0.003776034766
0.001767026744
0.0005117071376
9.254435506e-05
1.631117953e-05
8.068369684e-06
7.49634063e-06
7.470232808e-06
7.470145785e-06
7.470532648e-06
7.470628273e-06
7.469949626e-06
7.448693039e-06
8.028579329e-06
2.838211209e-06
3.215244046e-06
6.408927711e-06
2.949300276e-05
0.000138292308
0.0004266496649
0.0007279893437
0.0008116403213
0.0007414007775
0.005694840595
0.04421520748
2.977507447e-06
3.0129522e-06
2.97116651e-06
3.106551688e-06
3.737155949e-06
9.347081471e-06
5.115291735e-05
0.0002551205945
0.0008624698434
0.00258773137
0.003297707949
0.002621845747
0.002067725274
0.0009519374754
0.003784340084
0.05515114237
0.003855683383
0.0001864057631
1.046252456e-05
8.637593951e-06
4.912999072e-05
0.0005282952
0.003743996587
0.01654268796
0.02590206515
0.03615800251
3.317699445e-05
6.516456916e-06
3.445401262e-06
3.178673493e-06
3.099210938e-06
3.683410622e-06
9.659068621e-06
5.86132711e-05
0.0003195704313
0.001147287824
0.004642065468
0.00476115897
0.006073908541
0.008315089012
0.004203987452
0.003040245271
0.001106713235
0.002930335482
0.0001337279132
1.503051157e-05
1.316552519e-05
2.699881346e-05
0.000139380871
0.0008909079654
0.00860307021
0.01597082975
0.0164013167
0.03872422166
0.0003121935081
5.760585378e-05
8.769912079e-06
3.910389745e-06
4.321060627e-06
1.172906427e-05
7.088255095e-05
0.0003877693939
0.001862472293
0.006049129477
0.006987815355
0.006971513145
0.01105567919
0.01462768983
0.01214034024
0.005146020885
0.003254335756
0.001323723179
0.0004646191112
0.0001062750327
9.316183525e-05
0.0002541194186
0.000935210295
0.006409749014
0.01081809704
0.0114984223
0.02657112652
0.07239406539
0.000391697758
6.989932923e-05
9.58091331e-06
1.199611978e-05
6.19321691e-05
0.000329042478
0.001810872928
0.006218618189
0.008496895173
0.01487840869
0.02811504142
0.03181159629
0.03434829857
0.01740290736
0.01004049573
0.006794194772
0.004352033674
0.002551778862
0.0007527958507
0.000492204902
0.001302387981
0.008304085084
0.008489570406
0.01626517488
0.0337749862
0.06087181645
0.1145156203
0.001259979051
0.0003908837272
6.620277385e-05
8.187167252e-05
0.000393723486
0.001524664365
0.007895793417
0.01190431965
0.01840301854
0.05997658513
0.1517984185
0.1298009033
0.1081704169
0.06443732891
0.03463661869
0.03987854225
0.02298930431
0.01087755624
0.003541207993
0.001410336471
0.005010626283
0.01866961899
0.01859515193
0.1158988362
0.1542566498
0.1761786297
0.2268293613
0.004383083687
0.001135127953
0.0003636550597
0.0003369461827
0.0007810861596
0.001600742656
0.003971231671
0.004446759986
0.02134763288
0.06125722225
0.120218245
0.09830071643
0.0583702039
0.0316419943
0.02192932555
0.01825923564
0.01475095014
0.0109322212
0.004912873123
0.002730579773
0.002269233935
0.002615256449
0.008368610089
0.03109986019
0.1254838371
0.1354383305
0.1285626084
0.005081459199
0.002037713788
0.001125238463
0.001109909633
0.002160681951
0.004325223006
0.003729710578
0.01685562876
0.05058232142
0.06933240585
0.07935722961
0.06271975222
0.04346990243
0.02865750419
0.02221689512
0.02172494039
0.02193889866
0.02025473503
0.01416535272
0.007673037886
0.004784747248
0.004301386507
0.004064340056
0.01696752879
0.02465557674
0.04819573641
0.07359420005
0.004397675206
0.00500634136
0.00201465587
0.002036999811
0.004916996701
0.004356734017
0.00560358094
0.01543075718
0.04555634206
0.04960256191
0.0526345649
0.04411239579
0.02837523052
0.01808420941
0.02017158846
0.02605386582
0.02766858881
0.02649438426
0.01935734833
0.01054732936
0.007028846644
0.007329553211
0.00579412232
0.006713092988
0.02249519386
0.02164059803
0.03567401421
0.003947273596
0.0033372915
0.004814617971
0.001954704222
0.002546315789
0.006681439639
0.006273035789
0.006687899335
0.01368835159
0.01636142553
0.02672514263
0.02566361596
0.01832303391
0.0205991084
0.03031026469
0.03607833143
0.03987750951
0.03921752672
0.0431479886
0.01708379238
0.01091049013
0.008811355386
0.008962016983
0.005637458569
0.01137514185
0.02466062225
0.006642929589
0.009635667557
0.002430234004
0.002483577368
0.002170205722
0.001977964087
0.002532040153
0.006930251518
0.005507738586
0.0047171688
0.007055393589
0.01492740532
0.02103809463
0.03390813334
0.0372901528
0.05034876777
0.06066486651
0.0569168622
0.06445907207
0.4151740853
0.08279912784
0.02713304826
0.01501826647
0.01053022314
0.007893169447
0.003980498646
0.01367827098
0.006697386736
0.01010824202
0.004275770136
0.005263816523
0.005131667292
0.002593347462
0.001791538363
0.002535566237
0.007806538582
0.008816330686
0.01228530336
0.02415907792
0.04805211304
0.1003665468
0.08452345931
0.1214040346
0.1021458175
0.07568665104
0.06283584594
0.07232872361
0.03781644471
0.02692341344
0.0208230218
0.01542126892
0.01066472121
0.006279247401
0.005205655853
0.005264084796
0.01837396529
0.01377071168
0.01125559863
0.008887629715
0.003925302546
0.00141173272
0.002137614738
0.007249832995
0.01562533656
0.02711674863
0.0577565941
0.1715378672
0.1803218112
0.1375217485
0.1123655236
0.08598663816
0.1250549432
0.143385079
0.09237607845
0.04016642179
0.02942952056
0.02385087895
0.01931452003
0.01401859392
0.009930762978
0.009158901197
0.005022549782
0.05755474677
0.02467996152
0.0245030409
0.01595343135
0.0052773425
0.001218539815
0.004849738413
0.0210191832
0.03898224692
0.05892254461
0.1091452605
0.2163751109
0.2111839475
0.1780897453
0.1158316331
0.112388443
0.3034612318
1.685644596
0.9614237652
0.2645863317
0.05320803457
0.02259947316
0.01663812098
0.0139179104
0.01230776016
0.0125230458
0.005234168285
0.2908140364
0.1976227089
0.04443216495
0.02841134208
0.009085347001
0.0007690753354
0.002717725148
0.01232753713
0.0182587152
0.02833763715
0.08174639348
0.1919392117
0.1926148382
0.1756282142
0.1226729162
0.08826759929
0.1079844253
0.5459166007
0.2679056805
0.09748029771
0.02777518562
0.02008388001
0.01813300925
0.01785519722
0.01845332367
0.01824285152
0.005502069197
0.310521641
0.3369983582
0.1028694711
0.0196021229
0.01680990727
0.001688327175
0.001332250757
0.002848781975
0.007327950761
0.03027377764
0.2948968247
0.4363598434
0.1988819235
0.1288493017
0.1080113441
0.08185827203
0.06690399723
0.1061761831
0.1035069557
0.04401086187
0.03819813676
0.03632833097
0.03029359154
0.02513451974
0.0236008812
0.02191703808
0.005374486809
0.292218815
0.2975379896
0.0877300967
0.0211538779
0.02661145719
0.01627414427
0.002473494859
0.003642451456
0.01789571946
0.1105939706
0.7255390031
1.065967228
0.8458545983
0.2908140368
0.09842029364
0.06642666186
0.05600968483
0.058287099
0.05405439348
0.05164265742
0.04848341444
0.04799345683
0.0436094267
0.03585985929
0.02963260304
0.02672593744
0.006483029018
0.2459843722
0.1676363271
0.05812864074
0.02360033195
0.02916100223
0.008284825882
0.002976217612
0.004204518952
0.009966289491
0.05609936175
0.4833483337
0.9500322024
1.078817867
0.3851886077
0.06365899561
0.05756088531
0.04967600336
0.04965481433
0.04919728869
0.05195518098
0.05080569537
0.05376439889
0.05095054746
0.04137571921
0.03214409142
0.0272385651
0.007069908526
0.1251579169
0.08369753709
0.04441917394
0.03639229798
0.0204745254
0.002145913803
0.002496981336
0.004485588144
0.006919980292
0.01763177962
0.09194425395
0.4955556981
0.4664980578
0.1125447101
0.03583636271
0.0387174873
0.03680240521
0.03893244136
0.04150021801
0.04368444011
0.04536760746
0.04937998214
0.04533374591
0.03744009645
0.02639691753
0.02380724522
0.006569774209
0.07100416418
0.05452469707
0.04904151788
0.03448180833
0.01126739174
0.0008985162907
0.001606481973
0.003077404561
0.005070883927
0.006772108262
0.01440282411
0.1625301544
0.05760663681
0.02416479132
0.02558424063
0.02624593381
0.02533292983
0.02765925802
0.0319707588
0.03062664097
0.03268851119
0.03462957087
0.03165751613
0.0247059305
0.01770486649
0.01906736135
0.005126520113
0.06096187512
0.0369426509
0.02927778147
0.02311353065
0.01024267731
0.001230631495
0.0006527068165
0.001560055389
0.002525053775
0.003284207269
0.00439573217
0.03428043249
0.01340993319
0.01620615366
0.01682335053
0.01655992666
0.01548973071
0.01643253029
0.02079704094
0.01886668559
0.01795335649
0.01719667276
0.0152977942
0.01275915218
0.01321194598
0.01274739211
0.003119950743
0.08806467102
0.05913538978
0.03008635053
0.02070093544
0.01473772925
0.006757876512
0.00107098674
0.0006001892507
0.001225588655
0.001845126255
0.001734455626
0.008424522877
0.01242861606
0.01083459185
0.009142258812
0.008140527243
0.005754166406
0.00593919004
0.007948982029
0.009510178114
0.00772665057
0.00691876863
0.007189627625
0.008708554862
0.008762852044
0.004987340223
0.001305822001
0.08576832163
0.06553520198
0.0501546285
0.03856106722
0.02698533729
0.0139614475
0.002555436317
0.0003845966386
0.0005521949821
0.0009790811591
0.002031106052
0.03040500236
0.1515448899
0.02836926496
0.003945810954
0.002838508458
0.001952272115
0.001697081177
0.002154507626
0.0024388582
0.004583287497
0.004597855143
0.005345851334
0.004916154646
0.002324200868
0.001004339107
0.0003396669242
0.08744365876
0.1194354085
0.09216000947
0.05628348097
0.03534715754
0.01924505187
0.004456073421
0.0008232332357
0.002634519444
0.002919189469
0.005888985572
0.0695695835
0.3978794689
0.1750016981
0.02634360366
0.00268679103
0.0005998046316
0.000341205055
0.0003758742521
0.0004956575214
0.001218423874
0.001419629416
0.001414496542
0.001030147349
0.0005136146689
0.0001864526769
6.041516845e-05
0.09126174867
0.1379120864
0.08503594639
0.03921680026
0.01910813354
0.01157753996
0.004181222434
0.002115691046
0.01759641564
0.01976194682
0.01475244098
0.09392466771
0.2597488829
0.2009366469
0.004972727447
0.0007963373791
0.0001436165011
5.842197924e-05
5.090194369e-05
7.883698876e-05
0.0002814758486
0.0003812042833
0.0003314949491
0.0001965124019
8.6297555e-05
2.828577655e-05
1.416858542e-05
0.08485029864
0.1129709777
0.06161028452
0.02562311769
0.008488689133
0.004978297306
0.005473914886
0.01474516795
0.05819139913
0.07313231474
0.04710141003
0.01386860369
0.08755383359
0.020171348
0.001013665346
0.0001332326237
2.856794952e-05
1.137820619e-05
9.048646107e-06
1.240153479e-05
4.522126704e-05
6.761468674e-05
5.323506309e-05
2.824748481e-05
1.285445714e-05
6.461331116e-06
9.285441025e-06
0.05875731564
0.0751130396
0.04178939257
0.02028364916
0.008554251344
0.00654625974
0.01525809314
0.03477263323
0.07631821321
0.09428404606
0.06783287581
0.02037847099
0.01527174671
0.006432534301
0.001245216119
0.0002683274418
4.190579418e-05
8.598880076e-06
4.85735262e-06
4.592457711e-06
7.571200489e-06
1.005794808e-05
8.217861075e-06
5.586968695e-06
4.195034002e-06
3.982335352e-06
8.915561169e-06
0.03228480811
0.04038578745
0.02323980079
0.01344996244
0.008656352013
0.008499576203
0.02120154345
0.03646467603
0.08117126482
0.09558822097
0.06510607564
0.02409090317
0.007813878012
0.004268966612
0.002149563842
0.0005605501598
0.0001366033057
2.2944789e-05
5.60526141e-06
3.748670393e-06
3.651515367e-06
3.706021922e-06
3.515208444e-06
3.286322969e-06
3.160653946e-06
3.498559442e-06
8.880178726e-06
0.02107252398
0.02000918923
0.01232847911
0.008092937021
0.007605557531
0.005625094433
0.01526133775
0.02900737022
0.06669946155
0.07450727703
0.0499387122
0.02325782349
0.007941636719
0.004995638673
0.001569817216
0.000499493422
0.0001093022818
1.762081143e-05
4.858817472e-06
3.457947031e-06
3.188832286e-06
3.06094119e-06
2.971611649e-06
2.900915032e-06
2.864435142e-06
3.282033676e-06
8.866326337e-06
0.0142617427
0.01006014724
0.007185991972
0.007063481987
0.004184437081
0.001710714886
0.003518878854
0.01686038697
0.03176378554
0.039120754
0.02796640764
0.01273259541
0.007639398665
0.004049471017
0.0009447943134
0.0002389891534
4.29104693e-05
8.324027211e-06
4.104805749e-06
3.509781694e-06
3.30131227e-06
3.177445507e-06
3.096390858e-06
3.041171635e-06
3.024740504e-06
3.447194502e-06
8.818281953e-06
0.002970988148
0.003767261565
0.003204805775
0.002446698559
0.001461348659
0.0006090340367
0.0007654319089
0.002764468954
0.004468594477
0.005323814133
0.004799944154
0.003790758002
0.002702425617
0.001460020524
0.0005025553054
0.0001080639818
2.068842239e-05
9.246127741e-06
8.305944905e-06
8.27380584e-06
8.28693292e-06
8.296371413e-06
8.302564455e-06
8.305852631e-06
8.301330391e-06
8.190688121e-06
8.450425526e-06
2.064929071e-06
3.054002459e-06
4.302891893e-06
2.268586017e-05
9.911640335e-06
1.948008669e-05
4.377853637e-05
7.353543487e-05
0.0001104849026
0.0007353364786
0.007189452827
0.09072522967
0.9719968547
0.1523184294
0.01279433185
2.285752975e-06
2.366213153e-06
2.342154635e-06
2.628532615e-06
3.134309307e-06
5.439551499e-06
1.199182122e-05
4.827072398e-05
0.0004518460576
0.0002546174105
0.0003742095548
0.0002986816439
0.0002684043093
0.0007470042251
0.008326930783
0.09784595727
0.01204981056
0.0005749331999
3.487199768e-05
1.240507209e-05
1.872989209e-05
0.0001090155983
0.0008185814535
0.004096465016
0.007618444685
0.003530125482
5.708140148e-06
3.144980916e-06
2.648953097e-06
2.658226345e-06
2.564885356e-06
2.925169144e-06
3.66684517e-06
9.093414329e-06
3.84875745e-05
0.0001554975512
0.0004283269058
0.000530667865
0.0006796361625
0.0005533829576
0.0005948444616
0.0004252523639
0.0004332947688
0.00424118004
0.0003144175586
2.226986259e-05
1.082147941e-05
1.229255392e-05
3.344723946e-05
0.0001732076322
0.001257777924
0.003303212953
0.004364236982
0.003697235481
4.363433989e-05
9.150911105e-06
3.679404037e-06
3.339783368e-06
3.389836277e-06
4.811908994e-06
1.256494677e-05
6.06922592e-05
0.0002697529533
0.0009248020227
0.001575442199
0.001939677675
0.002781960564
0.001590710607
0.001584219245
0.0007771401259
0.0005601506828
0.0003333027992
8.390090244e-05
2.475870298e-05
2.75634767e-05
6.953275177e-05
0.000283177647
0.001613051685
0.003140098969
0.005582382641
0.00698615647
0.03559596141
5.960418861e-05
1.158051387e-05
4.507924345e-06
4.573402869e-06
1.272306189e-05
5.033699186e-05
0.0002455341349
0.0009908604003
0.002756694397
0.01208661842
0.02211818959
0.02315675732
0.01035648384
0.00698642881
0.0015652403
0.001194151887
0.0009114380707
0.0004563715693
0.0001314694667
0.0001288700018
0.0003875893636
0.001813434845
0.01187673449
0.02970001043
0.04979406685
0.05265010357
0.07583581252
0.0002511290069
6.564570708e-05
1.402896875e-05
1.737423282e-05
8.373309319e-05
0.0003453451029
0.001684336854
0.005242787757
0.02128601714
0.1104049211
0.1451163055
0.119400646
0.09674854284
0.04896801225
0.007259617614
0.004242651661
0.004045949365
0.002383405251
0.0006703260296
0.0004632811636
0.0014321035
0.007675882398
0.06289839228
0.1388832219
0.145575026
0.1539780906
0.195069545
0.0007545622547
0.0002368638886
7.320937189e-05
8.37779741e-05
0.0001324708221
0.0004018794517
0.001227034497
0.00605523457
0.03092917175
0.09387260596
0.1583776758
0.1216967428
0.05994590189
0.01227517791
0.002586082466
0.003915269927
0.004791154841
0.003661915027
0.001487826813
0.0008632147185
0.0008817908893
0.002584274865
0.0142431942
0.1499956179
0.1866554819
0.1603200277
0.1079572492
0.001064751923
0.0005341200424
0.0002923153065
0.0002897191376
0.0006181856378
0.001254626025
0.00470519429
0.02740316871
0.05407254921
0.06618202293
0.08079796371
0.06575255996
0.03113587845
0.004985576352
0.003957004857
0.007799647685
0.009464001428
0.009375492458
0.00507300476
0.002518817315
0.001801032334
0.001704149164
0.002228422679
0.008909927692
0.01792660196
0.02928161661
0.03951212666
0.001058054336
0.001076935183
0.0006736539289
0.0006381932932
0.001117488276
0.001202762133
0.001843072548
0.01150266473
0.05525295337
0.05246250467
0.0508067164
0.03936403961
0.01867248143
0.005595619879
0.008437525355
0.01212368963
0.0140177477
0.02267906126
0.01297744181
0.004445298158
0.00213877461
0.002168585295
0.002154160594
0.002471171749
0.007819846583
0.006276474984
0.003741094113
0.001899814392
0.0007160509997
0.001091348997
0.0007070006937
0.0008778215286
0.001761544528
0.001723241883
0.001820369027
0.00595673735
0.01099477634
0.01994490095
0.01729238274
0.01036245409
0.01639682767
0.01971023383
0.02108255337
0.02754268019
0.2145342667
0.1040028346
0.0278614775
0.006794048418
0.003352480117
0.003206674443
0.002647497551
0.003689357856
0.007271836237
0.002510249777
0.006783150997
0.0007984831417
0.0007232327668
0.0008546385204
0.000804066968
0.001003932653
0.00196265098
0.001626542913
0.001740636671
0.004570574796
0.009689509613
0.01509643021
0.02398625565
0.03883147838
0.04399823509
0.03989741953
0.04014823388
0.1479309068
1.3140518
0.478335944
0.07090555551
0.01657682875
0.003264289458
0.002553603024
0.001965673616
0.003908508233
0.002605192905
0.006272447395
0.001720277052
0.001328880057
0.001341774127
0.0009751267987
0.0007575683876
0.001092909999
0.002570696496
0.004138297658
0.009866759089
0.02636958433
0.05229743577
0.08362456917
0.1170855337
0.1130666972
0.0794821048
0.06945490837
0.07933556628
0.2348771056
0.06622764065
0.02944730291
0.01908009562
0.01166840709
0.004979669819
0.002067142066
0.002251866515
0.002596223314
0.01949890833
0.00908385877
0.002689256515
0.002091949096
0.0009883807123
0.0005140943077
0.0009981529738
0.004045445833
0.01439753477
0.04762440205
0.1529086559
0.313677524
0.2366921095
0.1542026136
0.09771322736
0.09252618384
0.3073005587
0.3669724286
0.1140590357
0.03554939715
0.02725161311
0.02227396164
0.01710343236
0.009358614566
0.0031843031
0.003974142224
0.003372301676
0.08814037146
0.05143101353
0.007334187386
0.003610486575
0.001078874497
0.0004321362241
0.002003783295
0.008956377027
0.02354823847
0.05962090832
0.1642099459
0.2239942959
0.2090145097
0.1638375118
0.1004602274
0.09719663488
0.8031211446
1.192218174
0.7735175508
0.2267949045
0.03798221838
0.01766228572
0.01063033748
0.00507685014
0.004517232026
0.005672355155
0.003454293045
0.3056452144
0.3641679972
0.03130486425
0.007042508387
0.001729547757
0.0002311661984
0.0009440828139
0.004608405249
0.01263442021
0.03709824978
0.1205202937
0.1884791871
0.1740178672
0.1551599279
0.08671978301
0.0565044495
0.1148043837
0.5515548381
0.3267178062
0.03833310695