/*--------------------------------*- C++ -*----------------------------------*\
  =========                 |
  \\      /  F ield         | OpenFOAM: The Open Source CFD Toolbox
   \\    /   O peration     | Website:  https://openfoam.org
    \\  /    A nd           | Version:  8
     \\/     M anipulation  |
\*---------------------------------------------------------------------------*/
FoamFile
{
    version     2.0;
    format      ascii;
    class       volScalarField;
    location    "0.4";
    object      htcConv;
}
// * * * * * * * * * * * * * * * * * * * * * * * * * * * * * * * * * * * * * //

dimensions      [1 0 -1 1 0 0 0];

internalField   uniform 0;

boundaryField
{
    walls
    {
        type            calculated;
        value           uniform 0;
    }
    region0_to_wallFilmRegion_wallFilmFace
    {
        type            convectiveHeatTransfer;
        L               1;
        value           nonuniform List<scalar> 
822
(
0.9201158333
1.325428072
0.7559152775
1.033300754
1.359718423
1.583729737
1.723263677
1.784178414
1.821761862
1.869894917
1.853363157
1.724212473
1.551257422
1.972512999
2.215829516
2.417246501
2.515764692
2.483573051
2.24143213
1.994193597
2.318147353
2.71053927
2.989374319
3.025597363
2.989198794
2.928859621
2.885984802
2.840790164
2.709658346
2.337453027
1.996057107
0.7248199241
0.7133591702
0.8615987916
1.105081383
1.355086973
1.502374593
1.559348602
1.585664201
1.691338526
1.750902536
1.79791258
1.837865192
2.111642946
2.303190145
2.441395593
2.576293436
2.605222807
2.617152109
2.496328111
2.522833662
2.747113328
2.916103954
2.795068365
2.608402544
2.510392597
2.481915924
2.462232196
2.434751816
2.200319832
1.862705392
0.8361692639
0.8270169906
0.8965497305
1.031888292
1.263134811
1.421751429
1.492832061
1.402177713
1.387083271
1.587151433
1.777098876
1.898338702
1.948787751
2.165455836
2.39652295
2.608235315
2.643711071
2.633474462
2.565524488
2.624310292
2.795086586
2.914745776
2.794169793
2.594382565
2.479934306
2.433894969
2.398880514
2.362870199
2.134781437
1.930585903
0.912673191
0.9298651631
1.027785797
1.179282728
1.383822267
1.574422608
1.592414236
1.541331745
1.330184628
1.305753227
1.642612224
1.838851009
1.808009694
1.768126227
2.085393523
2.458122389
2.449290333
2.383157801
2.404064536
2.53925107
2.717051102
2.848765697
2.837315557
2.658588213
2.508582578
2.455172965
2.410740843
2.357586937
2.087822917
1.99379925
1.022844295
1.08136124
1.235272784
1.421935042
1.710468413
1.530056773
1.689436996
1.707126735
1.596558796
1.346192065
1.420195054
1.637309189
1.686443717
1.719592327
1.613171508
2.034150865
1.988966649
2.063653017
2.13815301
2.252541979
2.511084687
2.685293297
2.734049882
2.578703526
2.423679991
2.384197909
2.343580161
2.255108297
2.018362013
1.99388093
1.088975882
1.135020276
1.252788259
1.491595709
1.746656828
1.999353087
1.54630833
1.866903761
1.900303764
1.760105666
1.591233623
1.452674019
1.54332658
1.708035074
1.842442472
1.68013217
1.429271603
1.678961819
1.870012789
1.862172284
1.860029355
2.163202507
2.400849318
2.488622989
2.32480676
2.206473636
2.160844583
2.108522097
2.064363808
1.931818592
1.898727227
1.218709536
1.299844211
1.488943573
1.790432035
2.050833524
2.342072658
1.884458126
2.023517306
2.025382621
1.958290696
1.753383929
1.63660865
1.798729943
2.077801252
2.145871046
1.793768848
1.77580152
2.017209916
2.003601318
1.897080371
1.72843077
1.790835694
2.006560534
2.120386005
1.957718094
1.893199866
1.777683142
1.737088928
1.830720583
1.79885885
1.708707361
1.200714355
1.452067146
1.719655644
2.010697924
2.308146112
2.618128997
2.11866336
2.093451074
2.108900253
2.083305423
1.974254852
1.810663075
1.941778975
2.371726622
2.497033879
2.126705946
2.090357394
2.422197414
2.335116699
2.139122551
1.885052208
1.69860879
1.674418718
1.715111918
1.596766126
1.451910245
1.069583734
1.644640402
1.814955001
1.6235594
1.63472286
1.375639065
1.720294011
1.912395267
2.190421365
2.512309492
2.777194365
2.225449731
2.01655349
2.065150505
2.091031241
2.040708906
1.951735803
2.039658934
2.536074091
2.7088889
2.40532371
2.482478208
2.964962101
2.739823908
2.466792428
2.168569369
1.870884137
1.703429664
1.532907326
1.329032481
0.9621831894
1.526583906
1.791493523
1.935680406
1.813566066
1.558641915
1.629465233
1.809049028
2.023825891
2.370052691
2.637125426
2.846944191
2.203433325
1.776885303
1.892981888
1.960624754
1.963879694
2.008769222
2.028610074
2.589130213
2.759299052
2.554479548
2.754161298
3.558050992
3.160077846
2.763848378
2.414141517
2.078249722
1.749536587
1.628317994
1.512522377
0.8650533708
1.577007679
1.835289133
2.010895501
1.919666507
1.621666325
1.802690196
2.009834807
2.292709631
2.568708179
2.767529654
2.875323282
2.350090834
1.778114223
1.806054602
1.91160184
1.895784279
1.964386623
2.030010651
2.505876443
2.67040723
2.429471594
3.288607819
4.195412134
3.744903574
3.144819924
2.635762404
2.235272799
1.853802615
1.748411027
1.863698746
1.176108464
1.676561179
1.936312197
2.106555346
2.011972102
1.768423643
1.962795686
2.322117588
2.582879182
2.784157735
2.907244408
2.982103334
2.758409815
2.55225856
2.367180423
2.240870358
1.993555179
1.707351424
2.184230128
2.268731539
2.352457231
3.037990236
4.143334267
4.905932695
4.481252162
3.992256545
3.312505138
2.568936498
2.200236657
2.660587789
3.261016043
2.130380122
1.366931543
1.828562163
2.087200938
2.045158425
1.925406161
1.982741283
2.407806152
2.634488834
2.821053991
2.927882155
3.087749506
2.881196441
2.712680407
2.551718737
2.352389771
1.676377586
1.922993799
2.254239426
2.177690213
2.005092852
2.561804506
3.942703709
5.69851458
5.235869596
4.670717823
3.589798872
2.762939037
1.772381749
3.661806465
4.556996177
3.808835004
3.087248916
2.395886763
2.256470215
2.091985444
2.029574622
1.712718686
2.081998911
2.428091683
2.686015665
2.816628214
3.050426279
2.901740352
2.789521508
2.625759405
2.340490564
1.863200472
1.917443791
1.980510026
1.946673326
2.185670248
2.50235977
3.422986726
5.324331531
4.854967089
4.175662841
3.412142278
2.822242972
2.182821205
2.928662168
4.924350834
4.124484085
3.024652145
2.432864726
2.248205074
2.052752148
2.035570254
1.728199004
1.816170116
1.967891033
2.468096342
2.679029448
3.019269913
2.793628666
2.733822384
2.581240771
2.166796393
1.941626501
1.806504315
1.426823825
1.408030233
2.251475736
2.756143508
2.814029488
4.634333305
4.288533703
3.734486901
3.226273439
2.760533906
2.46179243
2.361378611
4.063401586
3.159920593
2.562893992
2.242690274
2.09782768
1.926036413
1.900915921
2.394602355
1.942849203
1.655589326
2.132648912
2.536625453
2.953317694
2.618632005
2.538247654
2.302698791
1.979171926
1.851538933
1.471676079
1.33611755
0.706682877
2.279536265
2.769555299
2.74149426
3.824219611
3.737697821
3.406362585
3.043937348
2.684995789
2.421979806
2.028572639
2.878952538
2.560869328
2.145182035
1.982153761
1.893592532
1.715076115
1.651197573
2.265215743
1.855878946
1.878011251
2.366169735
2.831671327
2.275997504
2.242304378
2.094479095
2.039777633
1.899071773
1.462810895
1.127300062
2.379493431
2.361513301
2.766320503
2.793890455
3.318573032
3.346025685
3.137334947
2.869327798
2.573451759
2.305362848
1.922994356
2.296564437
2.028607782
1.715645435
1.672436936
1.610880818
1.45385993
1.382761223
1.795771455
1.615735862
1.881532424
2.143073314
2.572753949
1.951210092
2.207812542
2.211512162
2.168932521
2.315454959
1.683843083
2.375224044
3.302379204
3.427808889
2.788563001
2.867101163
3.056754304
3.066125146
2.925240461
2.718400293
2.454697483
2.155317131
1.806277127
1.846766891
1.650626535
1.446059798
1.395186795
1.33592891
1.226587439
1.17053545
1.551887675
1.353442837
1.639180908
1.937181125
2.197786874
1.926946035
2.308803432
2.416188264
2.850677727
2.672364183
1.612213163
2.867717274
3.761560627
3.739936928
3.950919899
3.16580116
2.938622124
2.842657088
2.735559907
2.584806996
2.360661937
2.067983533
1.743577855
1.589656108
1.430770014
1.274687297
1.197407683
1.13241203
1.055823438
1.010602078
1.340647686
1.168022577
1.486104568
1.799367255
1.943617018
1.884298928
2.257856087
2.421390413
2.659376327
2.802407486
2.33302007
2.13741417
3.719164829
3.900535221
3.039102252
2.691600337
2.580412792
2.572311621
2.55023248
2.447764344
2.251379591
1.984447601
1.691568137
1.463835427
1.301385906
1.165745677
1.071345637
0.996079557
0.9291963099
0.8854185518
1.219766025
1.227885085
1.526458602
1.811225553
1.790890202
1.886794752
2.192938014
2.367242258
2.555091075
2.63641962
2.428352689
2.199365647
3.082093649
2.972082394
2.570291874
2.389457156
2.401747632
2.460851847
2.48634635
2.44834274
2.342413032
2.135163701
1.867280113
1.585198541
1.326067087
1.137493726
1.005284935
0.9074010807
0.8323076828
0.7830007155
1.484820594
1.467479057
1.618160413
1.802988181
1.720383269
1.857960446
2.082694139
2.245261398
2.434722788
2.544795096
2.472055004
2.358898019
2.824682397
2.734475475
2.437599431
2.382883147
2.436703078
2.498946161
2.522456158
2.489350712
2.40579721
2.25083328
2.006408549
1.723659474
1.410069349
1.159410846
0.982749217
0.8541483499
0.7586290619
0.6971847113
1.933429699
1.705601322
1.679208115
1.91983996
2.096563967
1.482806764
1.928960222
1.987512334
2.198742857
2.374868927
2.402521832
2.406260422
2.673431875
2.62086186
2.464733246
2.459373676
2.508810486
2.560152073
2.571024835
2.523583052
2.43446947
2.263695949
2.016981777
1.725471951
1.408212333
1.151545586
0.9623659544
0.816171552
0.7005112038
0.6229824226
2.213488567
1.938470385
2.069113743
2.233033218
2.368385373
1.964333801
1.605546005
1.802577258
1.814706995
2.005587784
2.217055692
2.341135877
2.540257641
2.551363988
2.481428631
2.493078591
2.542065912
2.581900771
2.572302386
2.511496714
2.397509365
2.20249772
1.95300344
1.648792786
1.350230681
1.117329093
0.9361347615
0.7843673357
0.6528713819
0.5566509691
2.2820337
2.328809009
2.533847875
2.531131372
2.523179652
2.444568552
2.406056353
2.037800672
1.905972998
1.681466221
1.917623451
2.213764038
2.392261746
2.463200687
2.435526011
2.467345704
2.520144181
2.552060545
2.533054214
2.453292666
2.310545545
2.104353807
1.844630291
1.543874028
1.284519191
1.080533854
0.9110823123
0.758774466
0.6150942143
0.4975590756
2.40934844
2.756433532
2.838042076
2.724889631
2.617112762
2.6867075
2.857674732
2.849459637
2.57657517
2.151075929
1.724907028
1.848475774
2.07716351
2.221375105
2.220856875
2.236742544
2.301611168
2.350161288
2.352948638
2.296145843
2.167363363
1.963663443
1.697117059
1.439194708
1.226190987
1.048680882
0.8906427936
0.7402070118
0.5879534553
0.4488515725
2.775625134
3.074738637
3.041927072
2.792728742
2.414478126
2.731042681
3.071961483
3.264589406
3.273420553
3.055269278
2.557653748
2.075620376
1.971785015
2.071625997
2.10073725
2.07384515
2.125907585
2.224376818
2.28580682
2.264940745
2.131636313
1.89161834
1.616665702
1.377990292
1.183188998
1.016730374
0.8650323558
0.7176768826
0.5642810606
0.4136214717
)
;
    }
    region0_to_wallFilmRegion_mirrorFace
    {
        type            convectiveHeatTransfer;
        L               1;
        value           nonuniform List<scalar> 
558
(
4.057179876
2.585551072
2.369034379
2.721208013
3.608712927
3.570750323
3.41740474
3.787590663
4.308122725
4.785845374
4.384265572
3.685012383
3.518913513
3.701343609
3.979628077
4.015053822
4.106847791
4.358832109
4.646612753
4.800345459
4.2856048
4.259699879
4.283333237
4.487988509
4.47845399
4.620376499
4.732431729
4.478532383
4.703258619
4.557575143
4.65782479
4.832911864
4.544796727
4.168081666
4.139026961
4.405939409
4.117880641
4.066737298
4.054591889
4.213577992
3.70091848
2.369186781
3.112975532
2.930856537
2.399208511
2.936149704
3.075964025
1.430202071
1.449175285
1.44987202
1.418420574
1.453611697
1.458760527
1.352297453
1.284022311
1.289117607
1.381319601
1.307072002
1.339599495
1.45573123
1.381491325
1.437422032
1.594026445
1.499025561
1.593127534
1.946474558
1.708264787
1.990082803
1.112531608
1.19830472
1.117345327
1.125670648
1.221304857
1.141746919
1.170679017
1.300844818
1.215967002
1.277776525
1.439462108
1.35625409
1.448937798
1.660002938
1.569246963
1.70228869
2.109134487
1.909373932
2.087056624
1.02736551
0.938996739
0.9523192021
1.057163926
0.9733345001
1.003699473
1.130125235
1.046852507
1.106585717
1.270254943
1.183079355
1.27745999
1.477437284
1.390822811
1.52180819
1.771649193
1.676571657
1.834453734
2.182786692
2.047436114
2.20552932
2.751098341
2.374992965
2.601349921
0.8322390081
0.7626158723
0.7743287323
0.8713015257
0.7997427486
0.831068532
0.9532265163
0.8759336667
0.9317496429
1.091698334
0.9995523854
1.087991427
1.290350671
1.189069713
1.325969728
1.528604955
1.447326702
1.662912442
1.85301568
1.88702169
1.975721478
2.200678372
2.087215624
2.113330766
2.36948095
1.578150656
2.172917827
0.6438221728
0.6161976399
0.6579753634
0.752448554
0.7164182712
0.7690772044
0.8947707255
0.8301030242
0.8993326865
1.079387959
0.9664504204
1.071031296
1.311470428
1.11425326
1.428556037
1.577697758
1.145937525
2.099851378
2.119829528
2.116752691
1.533326867
2.260978483
1.386647198
1.618145486
0.6931646585
0.6760299773
0.7560022868
0.8196358575
0.8134824955
0.8778588974
0.9502218234
0.92441985
0.9749796916
1.105119829
1.029963682
1.086615322
1.358404878
1.196760909
1.551929154
1.692454756
1.602548316
1.551305865
2.972412989
2.422085621
2.660932412
2.546673167
2.860441604
2.345140022
1.015574646
1.008338819
1.060460981
1.11133026
1.102383431
1.134663651
1.22258525
1.190268043
1.225032645
1.179360864
1.209342979
0.8875179475
1.302971885
0.8094886798
1.497358702
3.075939141
2.907067129
3.343009125
4.324707485
4.417906978
4.490552317
1.441911403
1.435434202
1.385613978
1.713111193
1.355526742
1.359888866
1.409733017
1.517096307
1.776816481
3.361155384
2.103813584
1.196855196
1.204524001
1.253131725
1.363818081
1.538091475
1.825077502
2.395233708
1.020026206
1.038951252
1.08611816
1.191382976
1.367295187
1.616406975
2.003175436
2.503304289
0.8257660685
0.8481249455
0.9063875202
1.013688077
1.183471703
1.405997285
1.69511392
2.050107411
2.294149151
0.6101908848
0.6977053034
0.8181159814
0.9765831414
1.183182506
1.430463081
1.753699382
2.337067306
2.054765726
0.627426072
0.7619055931
0.8768393008
1.002087239
1.226333147
1.509930636
1.833096765
2.950996227
1.550486047
0.9676146964
1.071295846
1.160797785
1.238157334
1.131619196
2.026934019
3.438728749
4.4198563
1.430332285
1.55856432
1.715577061
2.145187975
2.344097604
3.490258044
3.03092426
4.937964173
4.084291047
3.995311311
4.20150746
4.302202957
4.389603601
4.328483669
4.773266286
4.565038544
4.547522985
4.774373986
4.669861856
4.7259348
4.678389125
4.757762637
4.514718471
5.084507101
5.088423888
4.883798662
4.628047931
4.480922181
4.560944188
4.449519914
3.469514546
3.238183202
3.419939896
3.809391543
2.995168507
2.950967145
3.240178722
3.716518745
3.431125728
3.416752718
3.550964673
3.909724643
1.333135446
1.492819934
1.55734871
1.658866179
1.817988659
2.149300654
3.804312526
4.098161286
2.709086422
2.47765719
3.089040735
2.891044723
4.231658724
3.548186737
2.693492516
2.252970235
3.187743075
3.362892657
2.684283885
3.236553405
3.490935204
3.5045086
3.705856084
2.854461555
3.786919023
3.560594121
4.977224123
3.298267714
5.765207387
3.642506502
3.033432967
5.366789711
3.698920319
3.708256228
3.688525072
1.492150369
1.215115792
1.369166999
1.602384451
1.502061838
1.663412515
3.262822872
3.635155123
1.932396058
1.841386743
2.235328863
3.498084985
3.764173191
3.900662794
1.877549868
2.098277769
1.898068045
4.137862796
4.046520917
4.281369804
2.658225305
2.794425606
3.382383957
4.608214576
4.4744811
4.704988125
3.412032673
4.126643033
4.175114723
4.034762948
4.816295345
3.527044152
3.746057949
3.982582094
4.448103381
4.396136187
4.264560409
3.527598466
4.078478479
3.976944956
3.618599119
3.966939902
4.018116223
3.825212327
3.825840484
4.066045226
4.0872441
4.034030145
3.958899515
4.111315756
3.990929343
4.125276088
4.155305789
4.148393302
4.227182642
4.355040383
4.449951572
4.508252716
4.548052451
4.647320957
4.782141417
4.735249218
4.785613563
4.409327755
4.562755453
4.597641388
4.317691444
4.450265397
4.403255596
4.451018366
4.381339756
4.534708561
4.455707393
4.312146731
4.265395248
4.402828933
4.532365426
4.249121507
4.324508904
4.403968893
4.560179256
4.283191774
4.564847508
4.553877617
4.523447683
4.495135378
4.596580083
4.518578075
4.457226009
4.46065991
4.531507354
4.517543315
4.605711553
4.550662852
4.559287235
4.647461566
4.683920225
4.685476952
4.608897124
4.719890252
4.81320099
4.679457103
4.750506573
4.679874194
4.650760631
4.45938897
4.504037435
4.54362226
4.508901223
4.542288351
4.582753278
4.609522692
4.564041265
4.718415037
4.743000627
4.644657226
4.766057786
5.014838967
4.984240813
4.583978366
4.807764206
4.645761699
4.655007967
4.669060933
4.62143093
4.615061701
4.677739801
4.603911728
4.610173685
4.628566094
4.611868553
4.681950056
4.62447758
4.577644419
4.659055149
4.701039944
4.744643316
4.682785548
4.74114715
4.660077394
4.47717585
4.413274087
4.293958837
4.301586061
4.426882308
4.458242616
4.34195325
4.437126496
4.623552053
4.24642289
4.734797094
4.811173766
4.463939172
4.409455827
4.093111113
4.513109026
4.337547502
4.497789034
4.313830487
4.292772384
4.280172646
4.45337781
4.273337884
4.288874231
4.373069711
4.442666375
4.553532715
4.301648709
4.595796382
4.470931949
4.626512723
4.466662961
4.585179033
4.448056197
3.295674223
3.644175794
3.284773113
3.282795855
3.124422001
3.144688787
3.602467566
3.292208517
3.502560479
3.97234178
3.73463655
3.947800163
4.127504236
2.918505873
3.07812798
3.070846915
3.058081951
3.101970418
3.184982999
3.466006637
3.334284786
3.530734426
3.955449371
3.77713552
3.999417369
4.22247329
4.101709773
3.418290266
3.763021412
3.747843212
3.454952764
3.738467952
3.756495507
4.050464188
3.711582824
3.811935608
3.905126788
4.030734643
4.122340963
)
;
    }
    procBoundary1to0
    {
        type            processor;
        value           uniform 0;
    }
    procBoundary1to2
    {
        type            processor;
        value           uniform 0;
    }
    procBoundary1to3
    {
        type            processor;
        value           uniform 0;
    }
}


// ************************************************************************* //
