/*--------------------------------*- C++ -*----------------------------------*\
  =========                 |
  \\      /  F ield         | OpenFOAM: The Open Source CFD Toolbox
   \\    /   O peration     | Website:  https://openfoam.org
    \\  /    A nd           | Version:  8
     \\/     M anipulation  |
\*---------------------------------------------------------------------------*/
FoamFile
{
    version     2.0;
    format      ascii;
    class       volScalarField;
    location    "0.4";
    object      O2;
}
// * * * * * * * * * * * * * * * * * * * * * * * * * * * * * * * * * * * * * //

dimensions      [0 0 0 0 0 0 0];

internalField   nonuniform List<scalar> 
67451
(
0.210007055
0.2100070879
0.2100072036
0.2100071169
0.2100070477
0.2100068522
0.2100067141
0.2100067914
0.2100071594
0.2100075392
0.2100075656
0.2100069356
0.2100069484
0.2100069657
0.21000699
0.2100070225
0.2100070559
0.2100070568
0.2100068492
0.2100067437
0.2100063396
0.2100061532
0.2100062097
0.2100065273
0.2100071129
0.2100073689
0.210007955
0.2100078312
0.2100077326
0.2100075567
0.2100074825
0.2100074256
0.2100073278
0.2100069855
0.2100064677
0.2100059338
0.2100052655
0.2100068601
0.2100069229
0.2100069348
0.2100069475
0.2100069674
0.2100069976
0.2100070211
0.2100069701
0.2100067419
0.2100063868
0.2100061167
0.2100059019
0.2100058541
0.210005835
0.2100059572
0.2100063807
0.2100068248
0.2100075195
0.2100074937
0.2100075222
0.2100074046
0.2100073745
0.2100072952
0.2100070524
0.2100065272
0.2100059674
0.2100056015
0.2100048712
0.2100065721
0.2100068353
0.2100069321
0.2100069491
0.2100069649
0.2100069783
0.2100069089
0.2100066355
0.2100062354
0.210005883
0.21000574
0.2100057193
0.2100057597
0.2100056112
0.2100056885
0.2100059005
0.2100062357
0.2100068218
0.2100072004
0.2100074073
0.210007366
0.2100072923
0.2100071156
0.2100066899
0.2100061478
0.2100058584
0.210005681
0.2100048849
0.2100065094
0.2100068475
0.2100069596
0.210006969
0.210006928
0.210006632
0.2100061712
0.2100057256
0.2100055153
0.2100055136
0.2100054992
0.2100055374
0.2100053534
0.210005465
0.2100056541
0.210005813
0.2100061125
0.2100065964
0.2100070857
0.2100072087
0.2100070347
0.2100067155
0.2100062533
0.2100060007
0.2100058694
0.2100056362
0.210004812
0.2100061088
0.210006549
0.2100069091
0.2100068817
0.2100066131
0.2100061552
0.2100056574
0.2100053349
0.2100052566
0.2100051859
0.2100049414
0.210004695
0.2100045883
0.2100049846
0.2100053082
0.2100054247
0.2100054934
0.2100058187
0.2100064904
0.2100068733
0.2100066778
0.2100062924
0.2100059734
0.2100057915
0.2100055148
0.2100051493
0.2100045927
0.2100057778
0.2100061721
0.2100067159
0.2100067004
0.2100066458
0.2100060958
0.2100058226
0.2100056237
0.2100055335
0.2100054508
0.2100053762
0.2100051668
0.2100052597
0.2100053325
0.2100054707
0.2100056434
0.210006003
0.2100064292
0.2100066654
0.2100066233
0.2100064824
0.2100064572
0.2100065991
0.2100061779
0.2100058524
0.2100055397
0.210004903
0.2100055911
0.2100058866
0.2100063416
0.2100063556
0.2100060188
0.2100056999
0.2100054634
0.2100052674
0.2100050084
0.2100049077
0.2100050447
0.2100051047
0.2100051526
0.2100052253
0.2100054405
0.2100057539
0.2100061534
0.2100063414
0.2100064457
0.2100064251
0.2100063438
0.2100062613
0.2100063808
0.2100065449
0.2100059378
0.210005809
0.2100049678
0.2100055023
0.210005678
0.2100060492
0.2100062015
0.2100059526
0.2100057318
0.2100056317
0.2100054013
0.2100050617
0.2100048655
0.2100048871
0.2100050791
0.2100052034
0.210005368
0.2100056414
0.2100059808
0.2100062473
0.2100062557
0.2100065252
0.2100065316
0.2100064258
0.2100062537
0.210006198
0.2100064519
0.2100062717
0.2100058301
0.2100049894
0.2100054121
0.2100055797
0.2100057901
0.2100061243
0.2100060422
0.2100057172
0.2100055492
0.2100054463
0.2100052839
0.2100051058
0.2100050036
0.210005194
0.2100053432
0.2100055674
0.2100058499
0.2100060386
0.210006191
0.2100062933
0.2100065562
0.210006765
0.2100066076
0.2100063445
0.2100061623
0.2100061718
0.2100065631
0.210006102
0.210005181
0.2100052309
0.2100055203
0.2100056758
0.2100058982
0.2100061398
0.2100059965
0.2100056504
0.2100055063
0.2100054422
0.2100053305
0.2100051882
0.2100053176
0.2100055188
0.2100056832
0.2100059418
0.2100058217
0.2100064317
0.2100062745
0.2100083911
0.2100087082
0.2100074915
0.2100066821
0.210006277
0.2100061093
0.2100062868
0.2100065437
0.2100057991
0.2100051906
0.2100054362
0.2100056029
0.2100057155
0.2100058882
0.2100061343
0.2100059194
0.210005602
0.2100054757
0.2100053932
0.2100053339
0.210005424
0.2100054927
0.2100057022
0.2100058917
0.2100058046
0.2100059708
0.2100058854
0.2100065226
0.2100064651
0.2100062322
0.2100059955
0.2100058836
0.2100058911
0.210005979
0.2100063896
0.2100065085
0.2100052207
0.2100053764
0.2100054806
0.2100055445
0.2100057548
0.2100062289
0.2100062301
0.2100058288
0.2100056244
0.2100055464
0.2100055119
0.2100054479
0.2100054847
0.2100054378
0.2100056812
0.2100052818
0.2100059299
0.2100054627
0.2100068575
0.2100060807
0.2100059233
0.2100057534
0.2100057191
0.2100058026
0.2100058926
0.2100060929
0.2100064645
0.210005324
0.2100054405
0.2100055267
0.2100056742
0.2100060129
0.2100066034
0.2100063848
0.2100059605
0.2100056979
0.2100055497
0.2100054642
0.2100052613
0.2100051665
0.2100053508
0.2100055113
0.210005755
0.2100065433
0.2100061641
0.2100078764
0.2100076619
0.2100067451
0.2100062534
0.2100060165
0.2100059077
0.2100058672
0.2100059035
0.2100061025
0.2100053816
0.2100055828
0.2100056148
0.2100058047
0.210006336
0.2100067315
0.2100063226
0.2100059382
0.2100056918
0.2100054841
0.2100053379
0.2100050877
0.2100051099
0.2100052171
0.2100054304
0.2100056842
0.210007012
0.2100068318
0.210015847
0.2100084292
0.2100070382
0.2100062045
0.2100058606
0.2100057402
0.2100057018
0.2100057184
0.2100059216
0.2100053208
0.210005359
0.2100056904
0.2100058119
0.2100062175
0.2100065333
0.2100061417
0.210005711
0.2100053975
0.2100051475
0.2100050709
0.2100047443
0.2100052753
0.2100054529
0.2100055812
0.2100058208
0.2100063785
0.2100062629
0.2100087601
0.210006701
0.2100064006
0.2100060509
0.2100058599
0.2100057604
0.2100057104
0.2100057278
0.2100060148
0.2100052311
0.2100053541
0.2100057042
0.2100057455
0.2100057727
0.2100061096
0.21000588
0.2100055493
0.2100052497
0.2100049687
0.2100048492
0.210003067
0.2100048622
0.2100056398
0.21000561
0.2100056779
0.2100059773
0.2100061783
0.2100070965
0.2100062798
0.2100060164
0.2100058479
0.2100058278
0.2100058583
0.2100058233
0.21000581
0.2100060863
0.2100053321
0.2100055129
0.2100056227
0.210005548
0.2100058108
0.2100061685
0.2100058678
0.2100056892
0.210005583
0.210005219
0.2100043216
0.2100020924
0.2100003403
0.2100032578
0.2100061933
0.2100067529
0.2100064138
0.2100062873
0.210006414
0.2100060895
0.2100058343
0.2100057228
0.2100057557
0.2100058378
0.2100058416
0.2100058259
0.2100060942
0.2100053126
0.2100054474
0.2100054296
0.2100055265
0.2100060617
0.2100063087
0.2100058828
0.2100057019
0.2100056511
0.2100056137
0.2100053428
0.2100039384
0.2100034174
0.2100062193
0.2100072973
0.2100067706
0.2100063218
0.2100061906
0.2100061452
0.2100060175
0.2100058193
0.2100057506
0.2100057993
0.2100058662
0.2100058448
0.2100058403
0.2100061523
0.2100049353
0.2100050878
0.2100052559
0.2100056299
0.2100063048
0.2100065927
0.2100060352
0.2100057747
0.2100056751
0.2100056183
0.2100057172
0.210005585
0.2100063667
0.2100071603
0.210006764
0.2100063025
0.2100061229
0.2100060792
0.2100060972
0.2100060405
0.2100059182
0.2100058711
0.2100058921
0.2100059019
0.2100058495
0.2100059068
0.2100063113
0.2100048165
0.2100049803
0.2100052356
0.2100056336
0.2100061496
0.2100066084
0.2100064875
0.210005994
0.2100057917
0.210005697
0.2100057452
0.2100059738
0.2100066812
0.210006506
0.2100061908
0.2100060308
0.2100059813
0.210006059
0.2100062197
0.2100061625
0.210006052
0.2100059935
0.210005966
0.2100059281
0.2100059194
0.2100061017
0.2100065745
0.2100047157
0.2100049506
0.2100051701
0.2100054471
0.2100057759
0.2100061981
0.2100066387
0.2100065275
0.2100060762
0.2100058732
0.2100058243
0.2100059055
0.2100061685
0.2100060625
0.2100059337
0.21000591
0.2100059847
0.2100062221
0.2100064853
0.2100064119
0.2100061867
0.2100060878
0.2100060314
0.2100060258
0.2100061437
0.210006439
0.210006861
0.2100047972
0.2100049671
0.2100050946
0.2100052673
0.2100055421
0.2100060005
0.2100065598
0.2100068863
0.2100066155
0.2100063005
0.2100060712
0.2100061191
0.2100060471
0.2100059812
0.2100059735
0.2100060447
0.2100062331
0.2100065703
0.2100068074
0.210006706
0.2100063907
0.2100062495
0.2100062208
0.2100063036
0.2100065076
0.2100067828
0.2100070337
0.2100048873
0.2100049818
0.2100050781
0.2100052244
0.2100055126
0.2100059713
0.2100064841
0.2100068324
0.2100067265
0.2100065744
0.2100063832
0.2100063468
0.2100047658
0.2100064867
0.2100063176
0.2100063811
0.210006608
0.2100068717
0.2100069906
0.2100069109
0.2100066404
0.2100065215
0.2100065377
0.2100066582
0.2100068293
0.2100069757
0.2100070492
0.2100049586
0.2100049848
0.2100051113
0.2100053445
0.2100056254
0.2100059394
0.2100062801
0.2100065754
0.2100065221
0.210006425
0.2100065946
0.2100065981
0.210004442
0.2100047841
0.2100067013
0.2100072044
0.2100070773
0.2100070555
0.2100070357
0.2100069905
0.2100068596
0.2100067872
0.2100068214
0.2100069011
0.2100069677
0.2100069964
0.2100070057
0.2100050067
0.2100050396
0.2100052106
0.2100054541
0.2100056588
0.2100058433
0.210006045
0.2100062419
0.2100061905
0.2100059765
0.2100061816
0.2100065903
0.2100062936
0.2100069692
0.2100074311
0.2100072292
0.2100070798
0.2100070217
0.2100069918
0.2100069732
0.2100069465
0.2100069273
0.2100069413
0.2100069584
0.2100069638
0.2100069649
0.2100069686
0.2100051375
0.2100051676
0.2100053244
0.2100054972
0.2100055922
0.2100056786
0.2100058655
0.21000597
0.2100057412
0.2100055843
0.2100057954
0.21000607
0.2100068528
0.2100070887
0.2100069531
0.2100069604
0.2100069961
0.2100069823
0.2100069611
0.2100069477
0.2100069418
0.2100069397
0.2100069401
0.2100069389
0.2100069366
0.210006939
0.2100069445
0.2100053803
0.2100053247
0.2100054366
0.2100055093
0.2100055069
0.2100055928
0.2100058972
0.2100058072
0.2100055943
0.2100054824
0.2100056689
0.2100058563
0.2100063279
0.2100064039
0.2100064862
0.2100066634
0.2100068574
0.2100069425
0.2100069433
0.2100069316
0.2100069255
0.2100069231
0.2100069211
0.2100069191
0.2100069181
0.2100069223
0.2100069288
0.2100056023
0.2100054428
0.2100054899
0.2100054612
0.2100054845
0.2100057026
0.2100060828
0.2100058114
0.2100056178
0.2100055427
0.2100056727
0.2100057801
0.2100059744
0.2100060981
0.2100063345
0.2100066245
0.210006862
0.2100069372
0.2100069328
0.2100069213
0.2100069148
0.2100069114
0.2100069092
0.2100069076
0.2100069072
0.2100069118
0.2100069184
0.2100057364
0.2100053821
0.2100054183
0.2100054811
0.2100056658
0.2100060474
0.2100064187
0.2100060322
0.2100057349
0.2100056875
0.2100057102
0.2100057471
0.2100059064
0.2100061415
0.2100064675
0.2100067765
0.2100069282
0.2100069435
0.2100069292
0.2100069186
0.2100069125
0.210006909
0.2100069067
0.2100069052
0.2100069046
0.2100069071
0.2100069123
0.2100060511
0.2100054873
0.210005636
0.2100058504
0.2100061679
0.2100065989
0.2100068146
0.2100064076
0.2100060428
0.2100058028
0.2100058254
0.2100059249
0.2100061452
0.2100064381
0.2100067477
0.2100069376
0.2100069703
0.2100069506
0.2100069333
0.2100069234
0.2100069176
0.210006914
0.2100069118
0.2100069103
0.2100069094
0.2100069093
0.2100069098
0.2100066481
0.2100066766
0.2100071465
0.2100068028
0.2100069383
0.2100068961
0.2100069364
0.2100069827
0.2100071905
0.2100069502
0.2100065653
0.2100065115
0.2100065265
0.2100065411
0.2100065734
0.2100066181
0.2100066778
0.2100068435
0.2100068016
0.2100075989
0.210006766
0.2100069122
0.2100069445
0.2100069586
0.2100069894
0.2100068588
0.2100068692
0.2100070572
0.2100070664
0.2100070452
0.2100070553
0.2100070949
0.2100071691
0.2100071421
0.2100069597
0.2100067572
0.2100066782
0.210006558
0.2100065545
0.2100065335
0.2100065428
0.2100065564
0.2100065973
0.2100066509
0.2100067253
0.2100068063
0.2100066991
0.2100067317
0.210006687
0.2100068317
0.2100069938
0.2100070177
0.210006965
0.2100069267
0.2100070776
0.2100070552
0.2100070743
0.2100070304
0.2100070383
0.210007046
0.2100070519
0.2100069655
0.2100069079
0.2100070635
0.2100068837
0.2100065941
0.2100066156
0.2100065838
0.2100065809
0.2100065928
0.2100066373
0.2100066917
0.2100067124
0.2100066516
0.2100065481
0.2100066727
0.2100066496
0.210006687
0.2100070109
0.2100070905
0.2100070573
0.2100069501
0.2100070306
0.2100071092
0.2100071483
0.2100071249
0.2100071282
0.2100071047
0.2100070007
0.2100069355
0.2100070028
0.2100069034
0.2100064607
0.2100066249
0.2100066474
0.2100066432
0.2100066432
0.2100066984
0.2100066987
0.210006627
0.2100065276
0.210006543
0.2100064041
0.2100062557
0.2100062789
0.210006417
0.210006816
0.210007028
0.2100070703
0.210007063
0.2100070485
0.2100071849
0.2100071514
0.2100071104
0.2100070315
0.2100070019
0.2100068487
0.2100066295
0.2100064198
0.2100059973
0.2100065145
0.2100066569
0.2100067187
0.2100067149
0.2100066943
0.2100065808
0.2100064276
0.2100064075
0.2100062679
0.2100056836
0.2100051565
0.2100049861
0.2100050007
0.2100057449
0.2100066839
0.2100070348
0.2100070246
0.2100069412
0.210007016
0.2100070475
0.210006956
0.2100068691
0.2100070094
0.2100061925
0.2100057494
0.2100055415
0.2100054237
0.2100063967
0.2100065507
0.2100067514
0.2100067139
0.210006655
0.2100065506
0.2100065033
0.2100064341
0.2100058956
0.2100053346
0.2100050954
0.2100052164
0.210005826
0.2100063769
0.2100066528
0.2100066517
0.2100066009
0.2100066863
0.2100069054
0.2100068888
0.2100068332
0.210006801
0.2100068974
0.2100068756
0.2100060942
0.210005889
0.2100059349
0.2100063919
0.2100064317
0.2100066281
0.2100066337
0.2100064823
0.2100064399
0.2100064156
0.2100058772
0.2100050807
0.2100047757
0.2100049035
0.2100051826
0.2100055821
0.2100061514
0.2100065227
0.2100063875
0.2100063586
0.2100064227
0.2100065859
0.2100067265
0.2100067526
0.210006683
0.2100066909
0.2100068752
0.2100070506
0.2100068136
0.2100065299
0.210006425
0.2100063929
0.2100064649
0.2100065177
0.2100064504
0.2100064846
0.2100063855
0.2100058908
0.2100050828
0.2100047632
0.2100048551
0.2100051179
0.2100055695
0.2100060558
0.2100062938
0.2100061533
0.2100063028
0.2100062087
0.2100066429
0.2100070331
0.210007116
0.2100069667
0.2100067287
0.210006757
0.210006883
0.2100071272
0.2100070183
0.2100063515
0.2100064602
0.2100064125
0.2100064767
0.2100064457
0.210006363
0.210006403
0.2100062784
0.2100058167
0.210005448
0.2100053397
0.2100055141
0.2100057933
0.2100060001
0.2100060005
0.2100060423
0.2100060795
0.2100062517
0.2100063012
0.2100071018
0.210006937
0.2100068534
0.2100067895
0.2100066196
0.2100068029
0.2100069242
0.2100070883
0.2100059051
0.2100063699
0.2100065617
0.2100064017
0.2100064702
0.2100064265
0.2100063456
0.2100064207
0.2100063379
0.2100059149
0.2100057706
0.2100057916
0.2100059024
0.2100058536
0.2100060002
0.2100057826
0.2100061398
0.2100059073
0.2100082244
0.2100142424
0.2100087041
0.2100072304
0.2100068912
0.2100068334
0.2100066946
0.2100069018
0.2100069563
0.210005908
0.2100063935
0.210006473
0.2100063917
0.2100063304
0.2100064736
0.2100063991
0.2100062614
0.2100062523
0.2100060881
0.2100057917
0.2100057296
0.2100058894
0.2100058514
0.2100056369
0.2100052477
0.2100051234
0.2100051472
0.2100058762
0.2100064014
0.2100058256
0.210005791
0.2100059142
0.2100061705
0.2100065931
0.2100067319
0.2100069121
0.2100060692
0.2100063172
0.2100062911
0.2100062305
0.210006317
0.2100065906
0.2100065756
0.2100062751
0.2100060912
0.2100059619
0.2100058573
0.2100056753
0.2100057749
0.210005601
0.210005402
0.2100049555
0.2100053217
0.2100049021
0.2100051814
0.2100054631
0.2100054619
0.2100055747
0.2100057643
0.2100060789
0.2100065397
0.210006633
0.2100066175
0.2100061089
0.2100062997
0.2100061261
0.2100061863
0.2100064433
0.2100067837
0.2100066616
0.2100063232
0.2100061075
0.210005983
0.2100057523
0.2100051343
0.210005096
0.2100053608
0.2100054101
0.2100051722
0.2100052939
0.2100022056
0.2100030973
0.2100058479
0.2100059881
0.2100060923
0.2100061932
0.2100063221
0.2100065464
0.210006487
0.2100063939
0.2100052743
0.2100057695
0.2100062264
0.210006362
0.2100066598
0.2100068567
0.2100066465
0.2100063725
0.2100061815
0.2100057635
0.2100052468
0.2100047093
0.2100049439
0.2100052972
0.2100055591
0.2100053712
0.2100057554
0.2100047438
0.2100086405
0.2100076355
0.210006456
0.2100063735
0.2100062477
0.2100062573
0.210006322
0.2100062612
0.2100062987
0.210005178
0.2100052412
0.2100061284
0.2100065613
0.210006644
0.2100067212
0.2100065195
0.2100062816
0.2100059921
0.2100049068
0.2100044406
0.2100048972
0.2100051487
0.2100054938
0.2100057879
0.2100057864
0.2100060215
0.2100056389
0.2100063637
0.2100064489
0.2100061905
0.2100061007
0.2100061307
0.2100062184
0.2100062672
0.2100062498
0.2100064252
0.2100052737
0.2100053609
0.2100063059
0.2100067187
0.2100065658
0.2100064359
0.2100062876
0.2100061568
0.2100057032
0.2100045429
0.2100043022
0.2100036691
0.2100042781
0.2100053705
0.2100058163
0.2100059523
0.2100060489
0.2100058791
0.210006137
0.2100060857
0.2100058019
0.2100057432
0.2100058835
0.2100061339
0.2100063565
0.2100063798
0.210006524
0.2100055828
0.2100058642
0.2100065518
0.2100066823
0.2100064775
0.2100064221
0.2100062209
0.2100061549
0.2100057986
0.2100045996
0.2100051637
0.2100041005
0.21000578
0.2100059145
0.2100058478
0.2100057416
0.2100059441
0.210005983
0.2100061096
0.2100060136
0.2100057555
0.2100056945
0.2100058396
0.2100061271
0.2100064392
0.2100065035
0.2100065835
0.210006024
0.2100063671
0.2100066508
0.2100065365
0.2100066076
0.210006552
0.2100062482
0.2100061829
0.2100059779
0.2100051884
0.2100049803
0.2100045194
0.2100054197
0.2100053655
0.2100055959
0.2100058113
0.2100059677
0.2100060472
0.2100061711
0.2100061327
0.2100059103
0.2100058472
0.2100060035
0.2100062975
0.2100066108
0.2100065996
0.2100066562
0.2100057975
0.2100062207
0.2100063408
0.2100064538
0.2100067244
0.2100067918
0.2100064007
0.2100062288
0.2100061346
0.2100057549
0.2100052498
0.2100050624
0.2100054385
0.2100054984
0.2100057502
0.2100059512
0.2100060282
0.2100061373
0.2100063066
0.2100063794
0.2100062071
0.2100061601
0.2100063212
0.2100065642
0.2100067389
0.2100066445
0.2100067739
0.2100057081
0.2100061198
0.2100062245
0.2100063872
0.2100065958
0.2100068078
0.2100067218
0.2100064143
0.2100062521
0.2100061916
0.2100058155
0.2100055291
0.2100056885
0.2100059226
0.2100060655
0.2100061143
0.2100061524
0.2100063191
0.2100065199
0.210006617
0.210006558
0.2100065347
0.2100066194
0.2100067225
0.2100067187
0.2100067073
0.2100069161
0.2100053403
0.2100058016
0.2100062503
0.2100064271
0.2100065046
0.2100066477
0.2100068084
0.2100067278
0.2100064527
0.2100062982
0.2100061963
0.2100060451
0.2100059411
0.2100061607
0.2100061289
0.2100062257
0.2100063348
0.2100065758
0.2100067614
0.2100067755
0.2100067341
0.2100066917
0.2100066995
0.2100066979
0.2100067097
0.2100068068
0.2100069883
0.210005293
0.2100057382
0.2100061106
0.2100062855
0.2100063948
0.2100065852
0.2100067946
0.2100068801
0.2100067581
0.2100066105
0.2100064403
0.2100061569
0.2100066363
0.2100063813
0.2100062622
0.2100063901
0.2100065694
0.2100067884
0.2100068965
0.2100068358
0.2100067224
0.2100066732
0.2100066692
0.2100066994
0.2100067705
0.2100068559
0.2100069263
0.2100055154
0.2100054055
0.2100054949
0.2100058836
0.210006191
0.2100064898
0.2100067441
0.2100068556
0.2100067272
0.210006681
0.2100064204
0.2100066748
0.2100055312
0.2100059798
0.2100063313
0.2100066109
0.2100067027
0.2100068194
0.2100068451
0.2100067985
0.2100067137
0.2100066814
0.2100067014
0.2100067438
0.210006782
0.2100067965
0.2100067951
0.2100058206
0.2100051473
0.2100052216
0.2100057647
0.2100062707
0.2100065008
0.2100066305
0.2100067154
0.2100064899
0.2100064267
0.2100064809
0.2100066881
0.210005757
0.2100072396
0.2100065045
0.2100066342
0.2100066771
0.2100067071
0.2100067196
0.2100067038
0.2100066899
0.2100066867
0.2100067011
0.2100067085
0.2100067024
0.2100066903
0.2100066774
0.2100059191
0.2100050659
0.2100052661
0.210005864
0.2100064184
0.2100065698
0.2100065591
0.2100065115
0.2100060012
0.2100058129
0.2100060679
0.2100064578
0.210005945
0.2100065356
0.2100063688
0.2100066623
0.2100066417
0.2100066439
0.2100066316
0.2100066202
0.2100066238
0.21000663
0.2100066299
0.2100066198
0.2100066071
0.2100066017
0.2100065937
0.2100059947
0.2100051909
0.2100054644
0.210006019
0.2100064727
0.2100065044
0.2100063695
0.210006303
0.2100057439
0.2100055454
0.2100057915
0.2100062053
0.2100063922
0.2100064644
0.2100065069
0.2100066143
0.2100066252
0.2100065891
0.2100065755
0.2100065615
0.2100065584
0.2100065588
0.2100065538
0.2100065451
0.2100065389
0.2100065416
0.2100065379
0.2100062308
0.2100055189
0.2100057637
0.2100062157
0.2100065166
0.210006388
0.2100063422
0.2100062569
0.2100056587
0.2100054988
0.2100057467
0.2100061197
0.2100063974
0.2100064745
0.2100065267
0.210006615
0.2100066387
0.2100065995
0.2100065585
0.2100065315
0.2100065181
0.2100065112
0.2100065048
0.2100064987
0.2100064965
0.2100065029
0.2100065015
0.2100063515
0.2100059999
0.2100061606
0.2100064491
0.2100064435
0.2100063873
0.2100064962
0.2100063544
0.2100057911
0.2100056527
0.2100058643
0.2100061615
0.2100064505
0.2100064759
0.2100065574
0.2100066251
0.2100066444
0.2100065912
0.2100065439
0.2100065135
0.2100064962
0.210006486
0.2100064789
0.2100064738
0.2100064724
0.2100064789
0.2100064783
0.2100063742
0.2100063454
0.2100063862
0.2100063578
0.210006401
0.210006577
0.2100067109
0.2100065306
0.2100062359
0.2100060517
0.2100061611
0.2100063911
0.2100064963
0.2100065628
0.2100066645
0.2100067018
0.210006657
0.2100065901
0.2100065414
0.2100065109
0.2100064926
0.2100064812
0.2100064737
0.2100064686
0.2100064656
0.2100064663
0.2100064646
0.2100065009
0.2100061746
0.2100062547
0.2100064059
0.2100066365
0.2100068609
0.2100069248
0.2100067112
0.2100064668
0.2100063008
0.2100062975
0.2100063915
0.2100065392
0.210006698
0.2100067943
0.210006754
0.2100066626
0.2100065867
0.2100065378
0.2100065078
0.2100064893
0.2100064777
0.2100064701
0.210006465
0.2100064617
0.2100064598
0.2100064561
0.2100062263
0.2100062621
0.2100062477
0.2100063006
0.2100064332
0.2100065065
0.2100065589
0.2100067315
0.2100067654
0.2100077025
0.2100066457
0.2100067192
0.2100059127
0.2100056682
0.2100062063
0.2100061844
0.2100061969
0.210006207
0.2100062301
0.2100062603
0.2100062825
0.2100064052
0.2100063082
0.2100065467
0.2100065423
0.2100066276
0.2100065119
0.2100066717
0.2100064626
0.2100063315
0.2100062321
0.2100064351
0.210006414
0.2100065005
0.2100065528
0.2100066207
0.210006718
0.2100068518
0.2100069213
0.210006902
0.2100068663
0.2100062028
0.2100062073
0.2100061961
0.2100062051
0.2100062134
0.2100062377
0.2100062688
0.210006309
0.210006393
0.2100063934
0.210006479
0.2100064389
0.2100065323
0.2100065705
0.2100067892
0.2100067204
0.2100066704
0.2100065735
0.2100065494
0.210006582
0.210006594
0.2100066075
0.2100066181
0.210006654
0.2100066956
0.2100067239
0.2100067613
0.2100066938
0.2100062614
0.2100062549
0.2100062316
0.2100062361
0.2100062452
0.2100062745
0.2100063158
0.2100063678
0.210006426
0.2100063608
0.2100064204
0.2100063312
0.2100064068
0.2100064211
0.2100065207
0.2100065253
0.2100065668
0.210006606
0.2100066545
0.2100066789
0.2100066879
0.2100067116
0.2100067211
0.2100067015
0.2100066619
0.2100065942
0.2100064706
0.2100062603
0.2100063124
0.2100062787
0.2100062721
0.2100062677
0.2100062861
0.2100063328
0.2100063625
0.2100063437
0.2100062372
0.210006104
0.2100060294
0.2100061357
0.2100062539
0.2100063788
0.2100065007
0.2100066559
0.2100067608
0.2100068229
0.2100068946
0.2100068206
0.21000681
0.2100067353
0.2100064654
0.2100062654
0.2100061819
0.2100062248
0.2100059976
0.2100063457
0.2100063469
0.2100063476
0.2100063537
0.2100063749
0.2100063854
0.2100063454
0.2100062561
0.2100060136
0.2100053119
0.2100050145
0.2100049683
0.2100051269
0.2100057533
0.2100062578
0.2100065784
0.2100067519
0.210006869
0.2100069527
0.2100068886
0.2100068677
0.2100068281
0.2100062748
0.2100055903
0.2100054091
0.2100053783
0.2100054225
0.2100063172
0.2100063622
0.210006396
0.2100063811
0.2100060612
0.2100063197
0.2100062004
0.2100060337
0.2100055583
0.2100050518
0.2100045116
0.2100048286
0.2100056242
0.2100061477
0.210006386
0.2100065933
0.2100066935
0.2100067795
0.2100068826
0.2100068205
0.2100067896
0.2100067811
0.2100067571
0.2100060454
0.2100055179
0.2100055555
0.2100058517
0.2100062826
0.2100063636
0.2100064743
0.2100064728
0.2100063831
0.2100062822
0.2100060972
0.2100054569
0.2100048183
0.2100045746
0.210004754
0.2100050883
0.2100054819
0.2100061041
0.2100063725
0.2100064531
0.2100064818
0.2100065778
0.2100065396
0.2100066266
0.2100066301
0.2100066668
0.2100067546
0.2100069153
0.2100067939
0.2100065171
0.2100063635
0.2100061916
0.2100062982
0.2100064433
0.2100064754
0.2100063997
0.2100063427
0.2100062187
0.210005842
0.2100048501
0.2100045655
0.2100047551
0.2100050969
0.2100056307
0.2100062077
0.2100064678
0.2100062912
0.2100063534
0.2100061326
0.2100061838
0.2100070079
0.2100068778
0.2100068778
0.2100068301
0.210006866
0.2100069461
0.2100068589
0.2100067608
0.2100060203
0.2100061749
0.2100063694
0.210006479
0.2100065084
0.21000644
0.2100063721
0.2100062745
0.2100059597
0.2100055417
0.2100055173
0.2100058008
0.2100061411
0.2100061894
0.210006173
0.21000618
0.2100057111
0.21000601
0.2100048355
0.2100045991
0.2100059428
0.2100065071
0.2100066683
0.2100066684
0.2100068587
0.210007003
0.2100070338
0.2100058128
0.2100060564
0.2100063022
0.2100063969
0.2100065137
0.2100065305
0.2100064416
0.2100063529
0.2100062162
0.2100061288
0.2100062114
0.2100062177
0.2100062314
0.2100059795
0.2100064637
0.2100057299
0.2100052435
0.2100046341
0.2099987461
0.2100082322
0.2100081633
0.2100073479
0.2100070413
0.2100068913
0.210006832
0.2100069777
0.2100071098
0.2100060159
0.2100061359
0.2100062876
0.2100063513
0.2100064221
0.2100065462
0.2100065326
0.210006407
0.2100063563
0.2100062944
0.2100061108
0.2100059832
0.2100059638
0.2100056817
0.2100051315
0.2100047726
0.2100044348
0.210004069
0.210004541
0.2100056347
0.210005119
0.2100054632
0.2100058961
0.2100063056
0.2100066759
0.210006812
0.2100069788
0.2100061296
0.2100062015
0.210006294
0.2100063401
0.2100064433
0.2100065979
0.2100066141
0.2100064608
0.2100063235
0.2100060952
0.2100055971
0.2100050497
0.2100052244
0.2100052252
0.2100051696
0.2100047932
0.2100048972
0.2100048914
0.2100044306
0.2100050669
0.210004998
0.2100053677
0.2100057173
0.2100061327
0.2100066087
0.2100067197
0.2100067075
0.2100058361
0.210006089
0.2100062838
0.2100063725
0.2100065223
0.2100066711
0.2100066692
0.210006535
0.2100063517
0.2100060935
0.2100053756
0.2100048246
0.2100048136
0.2100051258
0.2100052485
0.2100048855
0.2100055387
0.2100030816
0.2100034794
0.2100043849
0.2100048781
0.2100055878
0.2100060708
0.2100064229
0.2100066105
0.2100066216
0.2100066103
0.2100047968
0.2100051911
0.210006252
0.2100064458
0.210006606
0.2100066639
0.2100066086
0.2100063967
0.2100059706
0.2100052111
0.2100048936
0.2100045843
0.2100047671
0.2100052627
0.2100055314
0.2100053328
0.2100049519
0.2100047239
0.2099990541
0.2100047969
0.2100044379
0.2100060094
0.2100062198
0.2100063924
0.2100064945
0.2100065133
0.2100066018
0.2100048182
0.2100049355
0.2100059712
0.2100064303
0.2100065756
0.2100065859
0.2100064727
0.2100063344
0.2100059468
0.2100048224
0.210003848
0.2100046535
0.2100051384
0.2100057216
0.2100059732
0.2100057985
0.2100057685
0.2100055906
0.2100045968
0.2100051625
0.2100052228
0.2100055862
0.2100058685
0.2100062114
0.2100064357
0.2100065413
0.2100067482
0.210005094
0.2100051474
0.210006207
0.2100064747
0.2100065597
0.2100064966
0.2100063437
0.2100062104
0.2100057182
0.2100046784
0.2100036732
0.2100040425
0.2100043074
0.210005577
0.2100059866
0.2100060493
0.2100059991
0.2100059164
0.2100044006
0.2100051849
0.2100051122
0.2100053554
0.2100056724
0.2100060854
0.2100064698
0.2100066306
0.2100068139
0.2100055059
0.2100058487
0.210006474
0.210006534
0.210006583
0.2100064905
0.2100063493
0.2100063065
0.2100061262
0.2100051164
0.2100046854
0.2100046622
0.2100054357
0.2100059812
0.2100062755
0.2100062032
0.2100061981
0.2100061142
0.2100057161
0.2100055391
0.2100054031
0.2100054843
0.2100057347
0.2100061207
0.2100065309
0.2100066902
0.2100068417
0.2100059804
0.2100063072
0.2100065245
0.210006568
0.2100066495
0.2100065804
0.210006395
0.2100063144
0.2100062596
0.2100056872
0.2100052909
0.2100053421
0.2100055658
0.2100059159
0.2100062667
0.2100063028
0.2100063073
0.2100062827
0.2100061966
0.2100059812
0.2100057748
0.2100057587
0.2100059754
0.210006329
0.210006615
0.2100067129
0.210006868
0.2100061498
0.2100063989
0.2100064805
0.2100065865
0.2100066596
0.2100066628
0.2100064966
0.2100063698
0.2100063502
0.2100061289
0.2100057838
0.2100056201
0.2100060252
0.2100061624
0.2100063623
0.210006373
0.2100063865
0.2100064452
0.2100064846
0.2100063212
0.2100060948
0.2100060401
0.210006255
0.2100064782
0.2100066374
0.2100067112
0.210006886
0.2100060177
0.2100062261
0.2100063462
0.2100064879
0.2100065561
0.2100066329
0.210006604
0.2100064728
0.2100063928
0.2100062705
0.2100060816
0.2100058945
0.2100062272
0.2100062911
0.2100064156
0.2100064252
0.2100064738
0.2100066087
0.2100066774
0.2100065433
0.210006332
0.2100062738
0.2100064107
0.2100065225
0.2100066167
0.2100066976
0.2100068502
0.2100056231
0.2100059739
0.2100062937
0.2100064416
0.2100064902
0.2100065654
0.2100066065
0.2100065767
0.2100064871
0.2100063987
0.2100063043
0.2100061996
0.210006281
0.2100063395
0.2100063913
0.2100064524
0.2100065437
0.2100066964
0.2100067411
0.2100066099
0.2100064578
0.2100063945
0.2100064531
0.2100065152
0.2100065884
0.2100066518
0.2100067284
0.2100055548
0.2100055521
0.2100061313
0.210006399
0.2100065143
0.2100065882
0.2100065947
0.2100065701
0.2100065828
0.2100064959
0.2100064358
0.2100048389
0.2100062797
0.2100063865
0.2100065267
0.2100065224
0.2100065848
0.2100066501
0.210006652
0.2100065586
0.2100064601
0.2100064168
0.2100064514
0.2100064931
0.2100065358
0.2100065556
0.2100065656
0.2100058984
0.2100051244
0.210005177
0.2100058909
0.2100062906
0.2100065015
0.2100065815
0.2100065723
0.2100064964
0.2100065378
0.2100064786
0.210006313
0.2100064106
0.2100059805
0.2100065279
0.2100064914
0.2100065101