/*--------------------------------*- C++ -*----------------------------------*\
  =========                 |
  \\      /  F ield         | OpenFOAM: The Open Source CFD Toolbox
   \\    /   O peration     | Website:  https://openfoam.org
    \\  /    A nd           | Version:  8
     \\/     M anipulation  |
\*---------------------------------------------------------------------------*/
FoamFile
{
    version     2.0;
    format      ascii;
    class       volScalarField;
    location    "0.4";
    object      p_rgh;
}
// * * * * * * * * * * * * * * * * * * * * * * * * * * * * * * * * * * * * * //

dimensions      [1 -1 -2 0 0 0 0];

internalField   nonuniform List<scalar> 
67451
(
100003.8656
100003.8811
100003.9579
100003.921
100003.9586
100003.9544
100003.9844
100004.0313
100004.0744
100004.1731
100004.0398
100003.7942
100003.8019
100003.8118
100003.8245
100003.8406
100003.8609
100003.9029
100003.8969
100004.0255
100003.9361
100003.9651
100003.9913
100004.0193
100004.1254
100004.0667
100004.3156
100004.3174
100004.2801
100004.1731
100004.125
100004.0744
100004.0448
100004.0183
100004.0285
100004.0336
100004.0512
100003.7787
100003.7835
100003.7903
100003.7987
100003.8099
100003.8248
100003.8407
100003.8588
100003.88
100003.8774
100003.9088
100003.8969
100003.9175
100003.9416
100003.963
100004.0162
100003.9938
100004.1898
100004.1092
100004.1385
100004.0741
100004.0556
100004.0187
100003.9939
100003.9705
100003.9617
100003.9397
100003.9611
100003.7736
100003.7791
100003.7866
100003.7938
100003.8025
100003.8133
100003.825
100003.8371
100003.8496
100003.8538
100003.8783
100003.8787
100003.9089
100003.9217
100003.9376
100003.9601
100003.9658
100004.0599
100004.0546
100004.0774
100004.0612
100004.0447
100004.0149
100003.9868
100003.955
100003.9453
100003.9461
100003.999
100003.7739
100003.7846
100003.7946
100003.8039
100003.8312
100003.8277
100003.8329
100003.8332
100003.8314
100003.8501
100003.878
100003.9461
100003.9259
100003.9128
100003.9255
100003.9276
100003.9736
100004.0018
100004.0342
100004.0417
100004.0376
100004.0202
100003.9929
100003.9636
100003.9838
100004.0241
100004.086
100003.7687
100003.7802
100003.7919
100003.795
100003.799
100003.8024
100003.8054
100003.8074
100003.8175
100003.8816
100004.0342
100004.1381
100004.1362
100004.012
100003.9335
100003.9196
100003.95
100004.0016
100004.0533
100004.0699
100004.0676
100004.054
100004.0116
100004.0236
100004.1113
100004.1775
100004.2297
100003.7653
100003.7761
100003.8113
100003.7895
100003.9755
100003.8147
100003.8322
100003.8185
100003.8413
100003.8948
100003.9688
100004.0359
100003.9937
100003.9127
100003.8997
100003.9052
100003.9504
100004.0037
100004.0647
100004.0891
100004.0918
100004.0854
100004.0756
100004.0354
100004.0614
100004.121
100004.1472
100003.7621
100003.7748
100003.7887
100003.7892
100003.7883
100003.788
100003.7861
100003.7969
100003.8354
100003.8908
100003.9164
100003.9335
100003.9254
100003.8961
100003.8979
100003.9292
100004.0001
100004.0649
100004.1508
100004.18
100004.1747
100004.1422
100004.1212
100004.1029
100004.0251
100004.0256
100004.0645
100003.7582
100003.7743
100003.7923
100003.8009
100003.8191
100003.7996
100003.7962
100003.806
100003.8415
100003.8804
100003.8954
100003.905
100003.9102
100003.8974
100003.9198
100003.9677
100004.0831
100004.1275
100004.3705
100004.4115
100004.3643
100004.2697
100004.1925
100004.1474
100004.111
100004.0199
100004.0262
100003.7576
100003.7726
100003.7916
100003.799
100003.7988
100003.7957
100003.7887
100003.7836
100003.8004
100003.8303
100003.8399
100003.8486
100003.8685
100003.8932
100003.959
100004.0419
100004.1601
100004.313
100004.4391
100004.6602
100004.5729
100004.3977
100004.2648
100004.1765
100004.1357
100004.0699
100004.0383
100003.7664
100003.7717
100003.7891
100003.7969
100003.8042
100003.8052
100003.7973
100003.7919
100003.794
100003.8163
100003.842
100003.8775
100003.9331
100003.9493
100004.0775
100003.9958
100004.4567
100004.4442
100005.891
100006.1588
100005.3801
100004.7499
100004.4112
100004.2358
100004.1705
100004.1164
100004.0882
100003.7713
100003.7714
100003.7804
100003.7868
100003.7919
100003.801
100003.7961
100003.7892
100003.7927
100003.8055
100003.8414
100003.8815
100003.9245
100003.9589
100004.0266
100004.1223
100004.3755
100004.5255
100005.1058
100005.0726
100004.8745
100004.5895
100004.366
100004.2185
100004.145
100004.1198
100004.1197
100003.7721
100003.7728
100003.775
100003.7806
100003.7908
100003.8026
100003.7983
100003.7916
100003.7968
100003.8093
100003.828
100003.8545
100003.874
100003.8772
100004.0264
100003.9163
100004.4135
100004.0354
100005.0473
100004.8066
100004.6855
100004.4482
100004.2732
100004.165
100004.1131
100004.0925
100004.1206
100003.7631
100003.7545
100003.7622
100003.7707
100003.79
100003.8024
100003.7943
100003.7885
100003.7915
100003.7958
100003.8319
100003.9335
100003.9898
100004.0213
100004.0651
100004.1807
100004.5485
100004.8126
100006.1336
100004.9793
100004.788
100004.5102
100004.304
100004.1649
100004.0964
100004.0689
100004.0975
100003.8198
100003.7831
100003.7461
100003.7646
100003.7899
100003.8041
100003.7854
100003.7661
100003.7514
100003.7562
100003.8211
100003.9427
100004.0373
100004.0202
100004.0103
100004.0794
100004.8852
100004.4232
100011.1048
100005.3061
100004.9377
100004.4435
100004.2174
100004.1102
100004.0619
100004.0413
100004.0779
100003.8704
100003.8408
100003.7565
100003.7435
100003.7757
100003.7899
100003.7821
100003.7623
100003.7483
100003.7235
100003.8437
100003.93
100003.9727
100004.0185
100004.0155
100004.1203
100004.3972
100004.2549
100005.3337
100004.5732
100004.5169
100004.2971
100004.1458
100004.0588
100004.0218
100004.0094
100004.0521
100003.8834
100003.847
100003.7617
100003.7344
100003.7694
100003.7965
100003.7897
100003.7456
100003.7282
100003.7272
100003.9221
100004.44
100004.2006
100003.8662
100003.839
100003.9302
100004.0667
100004.1143
100004.67
100004.3109
100004.2404
100004.1455
100004.0628
100004.0021
100003.9748
100003.9707
100004.0187
100003.845
100003.7988
100003.7367
100003.7404
100003.7894
100003.806
100003.8027
100003.7866
100003.7627
100003.7196
100003.9066
100004.8789
100004.8666
100003.9321
100003.687
100003.8847
100004.014
100004.0725
100004.2395
100004.1332
100004.0847
100004.0398
100003.9931
100003.9521
100003.9346
100003.9354
100003.9856
100003.8163
100003.7524
100003.7321
100003.7466
100003.7783
100003.7959
100003.7869
100003.778
100003.7737
100003.7502
100003.7316
100004.1899
100004.2699
100003.8651
100003.7745
100003.8647
100003.9206
100003.9654
100004.0225
100003.9998
100003.9756
100003.9567
100003.93
100003.9043
100003.898
100003.904
100003.9502
100003.7959
100003.748
100003.7407
100003.7474
100003.7679
100003.7849
100003.7843
100003.7755
100003.7691
100003.7505
100003.7162
100003.6885
100003.6534
100003.7357
100003.8082
100003.8546
100003.8785
100003.9043
100003.9259
100003.9158
100003.9007
100003.8929
100003.8784
100003.8666
100003.87
100003.878
100003.9148
100003.7748
100003.7519
100003.7381
100003.7397
100003.754
100003.7768
100003.7897
100003.7858
100003.7744
100003.7707
100003.7767
100003.7204
100003.7698
100003.8431
100003.8455
100003.85
100003.8549
100003.8678
100003.8761
100003.8693
100003.8549
100003.8511
100003.8448
100003.8426
100003.8511
100003.857
100003.8835
100003.7642
100003.7361
100003.7235
100003.7293
100003.7437
100003.7617
100003.7863
100003.7952
100003.7856
100003.775
100003.7985
100003.7574
100003.9202
100003.8529
100003.8321
100003.8333
100003.8359
100003.8444
100003.8481
100003.8442
100003.8329
100003.8294
100003.8277
100003.8298
100003.8375
100003.8409
100003.8591
100003.7671
100003.7388
100003.7243
100003.7261
100003.7405
100003.7593
100003.7788
100003.801
100003.7985
100003.8176
100003.7917
100003.8909
100003.8214
100003.8505
100003.8325
100003.8402
100003.8362
100003.8371
100003.8343
100003.8289
100003.8218
100003.8188
100003.8187
100003.8211
100003.8265
100003.8297
100003.8407
100003.7577
100003.7737
100003.7533
100003.7283
100003.7349
100003.7538
100003.7751
100003.7834
100003.7864
100003.7897
100003.7667
100003.7408
100004.0558
100003.9953
100003.7619
100003.806
100003.8082
100003.8176
100003.8209
100003.8177
100003.813
100003.8109
100003.8118
100003.8141
100003.8181
100003.8206
100003.8253
100003.7513
100003.8094
100003.7717
100003.7356
100003.7341
100003.7533
100003.7742
100003.7855
100003.8
100003.846
100003.8243
100003.7161
100004.1604
100003.9377
100003.6673
100003.8194
100003.8477
100003.841
100003.8262
100003.8149
100003.8083
100003.8054
100003.8064
100003.8079
100003.81
100003.8104
100003.812
100003.7571
100003.8141
100003.7681
100003.7338
100003.734
100003.7507
100003.7688
100003.7727
100003.7876
100003.794
100003.8109
100003.7685
100003.8118
100003.8041
100003.8263
100003.8483
100003.8309
100003.8174
100003.8093
100003.8039
100003.8015
100003.8
100003.8003
100003.8004
100003.8006
100003.8004
100003.801
100003.7616
100003.7985
100003.7612
100003.7344
100003.7369
100003.753
100003.7789
100003.777
100003.7867
100003.7966
100003.7995
100003.8073
100003.7826
100003.8005
100003.8368
100003.8303
100003.8178
100003.8066
100003.7998
100003.7953
100003.7935
100003.7928
100003.7925
100003.7923
100003.7922
100003.7921
100003.7923
100003.7567
100003.7732
100003.7526
100003.7353
100003.7425
100003.7583
100003.7796
100003.7759
100003.7876
100003.7934
100003.7999
100003.7894
100003.8308
100003.8175
100003.8196
100003.8098
100003.8029
100003.7974
100003.7926
100003.7891
100003.7874
100003.7866
100003.7861
100003.7858
100003.7857
100003.7856
100003.7857
100003.7659
100003.7554
100003.7492
100003.7448
100003.7553
100003.7656
100003.7779
100003.7738
100003.7773
100003.7854
100003.7905
100003.7758
100003.8084
100003.7995
100003.8002
100003.7967
100003.7946
100003.7909
100003.7873
100003.7845
100003.7829
100003.7821
100003.7815
100003.7812
100003.7811
100003.781
100003.781
100003.7838
100003.7523
100003.7552
100003.7543
100003.7582
100003.7634
100003.7717
100003.7691
100003.76
100003.7664
100003.7731
100003.7693
100003.793
100003.7901
100003.7909
100003.7914
100003.7902
100003.7867
100003.7837
100003.7815
100003.78
100003.7792
100003.7786
100003.7783
100003.7781
100003.778
100003.778
100003.852
100003.8285
100003.8141
100003.8009
100003.7945
100003.7932
100003.7935
100003.7943
100003.792
100003.8023
100003.8097
100003.8023
100003.8066
100003.8009
100003.7979
100003.7941
100003.79
100003.7858
100003.7826
100003.7803
100003.7788
100003.7779
100003.7773
100003.7769
100003.7767
100003.7766
100003.7766
100003.8712
100003.8752
100004.1802
100003.9087
100003.9691
100003.9296
100003.958
100003.9596
100004.0859
100003.927
100003.5959
100003.7883
100003.7953
100003.8039
100003.8153
100003.8308
100003.8438
100003.9218
100003.8667
100004.4236
100003.8828
100003.9414
100003.893
100003.9012
100003.9102
100003.8129
100003.8056
100004.0281
100004.0533
100004.0403
100004.0279
100004.005
100003.9811
100003.935
100003.8848
100003.8323
100003.851
100003.7715
100003.7774
100003.7841
100003.7919
100003.8012
100003.8137
100003.8264
100003.8396
100003.8753
100003.8284
100003.8815
100003.8363
100003.8911
100003.8918
100003.8825
100003.8656
100003.8361
100003.9309
100003.9774
100004.0263
100004.0095
100004.004
100003.9769
100003.9441
100003.8805
100003.8367
100003.8297
100003.8451
100003.7662
100003.7727
100003.7798
100003.7865
100003.7937
100003.8009
100003.8077
100003.8077
100003.8112
100003.7842
100003.8714
100003.8435
100003.8703
100003.8794
100003.8789
100003.8612
100003.8207
100003.8925
100003.9506
100004.0023
100004.0071
100004.0016
100003.9714
100003.9227
100003.8767
100003.8783
100003.8794
100003.8895
100003.7665
100003.7771
100003.7869
100003.7898
100003.8069
100003.7999
100003.7916
100003.7787
100003.7979
100003.8232
100003.8145
100003.8531
100003.859
100003.8729
100003.8853
100003.8712
100003.8792
100003.9149
100003.9982
100004.0079
100004.007
100003.9706
100003.9448
100003.9204
100003.9097
100003.8984
100003.9354
100003.7549
100003.7703
100003.7802
100003.7838
100003.7804
100003.7722
100003.7532
100003.7695
100003.7849
100003.8039
100003.8234
100003.8592
100003.8676
100003.8601
100003.8691
100003.8683
100003.8744
100003.8715
100003.9425
100003.9922
100003.9977
100003.9648
100003.9487
100003.9399
100003.9437
100003.9603
100004.0156
100003.7414
100003.7568
100003.7866
100003.7625
100003.8133
100003.7905
100003.7906
100003.7892
100003.8018
100003.8161
100003.8539
100003.8597
100003.8561
100003.847
100003.8577
100003.8382
100003.845
100003.9039
100004.0096
100004.0315
100004.0347
100004.0212
100003.9965
100003.9679
100003.9648
100003.9638
100003.9932
100003.7383
100003.7505
100003.7712
100003.7724
100003.767
100003.7648
100003.7677
100003.777
100003.7927
100003.814
100003.8223
100003.8023
100003.7975
100003.803
100003.8211
100003.79
100003.8458
100003.9224
100003.9872
100004.0368
100004.047
100004.027
100004.0135
100003.9615
100003.9141
100003.9323
100003.9398
100003.7386
100003.7454
100003.7685
100003.7722
100003.7751
100003.7696
100003.7808
100003.7795
100003.7959
100003.8093
100003.8248
100003.81
100003.8208
100003.8044
100003.8084
100003.778
100003.9312
100003.9067
100004.1813
100004.311
100004.2588
100004.1604
100004.081
100004.0436
100003.9578
100003.9214
100003.9331
100003.7446
100003.7523
100003.7665
100003.7732
100003.7714
100003.7573
100003.7577
100003.7608
100003.7667
100003.775
100003.7787
100003.76
100003.7597
100003.7551
100003.7819
100003.866
100003.907
100004.1541
100003.9415
100004.4281
100004.3245
100004.1895
100004.1064
100004.0376
100004.0007
100003.9057
100003.9097
100003.7474
100003.7662
100003.832
100003.7759
100003.785
100003.7752
100003.7599
100003.7606
100003.7653
100003.7653
100003.773
100003.7787
100003.8214
100003.7868
100003.9537
100003.8468
100004.2142
100004.2071
100005.55
100008.9357
100005.85
100004.7526
100004.317
100004.1315
100004.0516
100003.9873
100003.9331
100003.735
100003.7493
100003.7572
100003.7554
100003.7567
100003.772
100003.7588
100003.7418
100003.7448
100003.7476
100003.76
100003.7605
100003.772
100003.807
100003.8756
100003.923
100004.0318
100004.2682
100004.705
100004.9417
100004.5412
100004.3307
100004.1866
100004.093
100004.0357
100004.0086
100003.9934
100003.7243
100003.7405
100003.7467
100003.7478
100003.7575
100003.7781
100003.7749
100003.7579
100003.7472
100003.743
100003.7405
100003.7454
100003.7709
100003.7525
100003.8578
100003.7551
100004.0596
100003.7675
100004.1305
100004.4668
100004.3729
100004.2393
100004.133
100004.0643
100004.0251
100004.0007
100004.0214
100003.7174
100003.7173
100003.7173
100003.7293
100003.7512
100003.7749
100003.7654
100003.7342
100003.7125
100003.6966
100003.7217
100003.751
100003.7771
100003.7892
100003.7934
100003.714
100003.6194
100003.1915
100003.5113
100003.8602
100004.1032
100004.2021
100004.1385
100004.0587
100004.0158
100003.9866
100004.0096
100003.7221
100003.7413
100003.7095
100003.7113
100003.7375
100003.7614
100003.7372
100003.7041
100003.6836
100003.6806
100003.6999
100003.7235
100003.7826
100003.7547
100003.7474
100003.6085
100003.8304
100002.9611
100003.7965
100004.9137
100004.2212
100004.1876
100004.0711
100004.0147
100003.9899
100003.97
100004.0045
100003.7212
100003.7172
100003.712
100003.6894
100003.6992
100003.7372
100003.7225
100003.687
100003.676
100003.6264
100003.6975
100003.7099
100003.7105
100003.6733
100003.6793
100003.6843
100003.8509
100003.579
100003.995
100004.2407
100004.1731
100004.1223
100004.0438
100003.9855
100003.9616
100003.9484
100003.9864
100003.7154
100003.7181
100003.6987
100003.6982
100003.6692
100003.7046
100003.6976
100003.656
100003.6475
100003.5322
100003.6486
100003.6319
100003.689
100003.5581
100003.6199
100003.6645
100003.7631
100003.7082
100003.9538
100004.065
100004.0277
100004.0052
100003.9688
100003.9377
100003.9207
100003.9076
100003.9474
100003.7002
100003.6851
100003.6768
100003.6691
100003.6595
100003.7147
100003.6866
100003.648
100003.5904
100003.4193
100003.6003
100003.6315
100003.7213
100003.4433
100003.3807
100003.371
100003.612
100003.7405
100003.8956
100003.9553
100003.9496
100003.9374
100003.9166
100003.8971
100003.8869
100003.8731
100003.9095
100003.689
100003.6802
100003.6679
100003.6541
100003.6775
100003.7234
100003.6925
100003.6704
100003.6096
100003.4884
100003.4648
100003.417
100003.4479
100003.342
100003.3209
100003.4794
100003.6473
100003.7673
100003.8586
100003.8857
100003.8904
100003.886
100003.8748
100003.8617
100003.8588
100003.8429
100003.8763
100003.6572
100003.6652
100003.6558
100003.6654
100003.7044
100003.7361
100003.7073
100003.6815
100003.6308
100003.5438
100003.4643
100003.3428
100003.3341
100003.2492
100003.339
100003.5606
100003.6793
100003.779
100003.8376
100003.8438
100003.8521
100003.8512
100003.8442
100003.8385
100003.8344
100003.8192
100003.8531
100003.6624
100003.6714
100003.6635
100003.6809
100003.7118
100003.7423
100003.7342
100003.7163
100003.667
100003.6519
100003.5452
100003.4873
100003.3572
100003.4648
100003.5605
100003.6687
100003.7269
100003.7931
100003.829
100003.8222
100003.8277
100003.8289
100003.8257
100003.8179
100003.8118
100003.8065
100003.8417
100003.6471
100003.6629
100003.6712
100003.6835
100003.701
100003.7199
100003.7402
100003.7319
100003.6993
100003.6568
100003.6074
100003.5669
100003.4852
100003.5998
100003.6167
100003.71
100003.7513
100003.7998
100003.8222
100003.8133
100003.8097
100003.8111
100003.8056
100003.797
100003.7987
100003.8086
100003.8356
100003.6462
100003.6702
100003.6686
100003.6809
100003.6963
100003.7204
100003.7445
100003.7641
100003.7382
100003.7453
100003.6968
100003.7684
100003.7726
100003.7125
100003.6549
100003.7197
100003.7567
100003.7969
100003.8126
100003.8081
100003.798
100003.795
100003.7905
100003.7902
100003.8018
100003.8134
100003.8276
100003.6558
100003.7048
100003.6847
100003.6785
100003.6908
100003.7152
100003.7467
100003.7547
100003.7337
100003.7364
100003.5918
100003.6942
100003.364
100003.6904
100003.5564
100003.7457
100003.7497
100003.7914
100003.8022
100003.8027
100003.7956
100003.7916
100003.7918
100003.7964
100003.8052
100003.8111
100003.8168
100003.6661
100003.7132
100003.7056
100003.6929
100003.6992
100003.7113
100003.7331
100003.7416
100003.7322
100003.726
100003.6382
100003.6522
100003.5523
100003.8855
100003.3893
100003.5707
100003.6957
100003.7551
100003.7875
100003.7931
100003.7937
100003.7928
100003.7944
100003.7977
100003.8018
100003.8035
100003.8059
100003.6756
100003.7072
100003.7182
100003.7049
100003.7139
100003.7123
100003.7242
100003.7279
100003.7263
100003.7076
100003.6659
100003.6329
100003.3494
100003.5141
100003.4004
100003.6876
100003.7296
100003.7707
100003.7845
100003.7887
100003.7905
100003.791
100003.7921
100003.7933
100003.7948
100003.7955
100003.7965
100003.677
100003.702
100003.7154
100003.7021
100003.7102
100003.7041
100003.7182
100003.7311
100003.7226
100003.7127
100003.6963
100003.6659
100003.5567
100003.5771
100003.617
100003.6986
100003.7507
100003.763
100003.7789
100003.7832
100003.7853
100003.7861
100003.7868
100003.7874
100003.7881
100003.7885
100003.7889
100003.6853
100003.6956
100003.7113
100003.7049
100003.7097
100003.7035
100003.724
100003.7281
100003.7271
100003.7244
100003.72
100003.7044
100003.6652
100003.6946
100003.7156
100003.7482
100003.7669
100003.7741
100003.779
100003.7806
100003.7814
100003.7818
100003.7821
100003.7824
100003.7827
100003.7829
100003.7831
100003.7061
100003.704
100003.7134
100003.7108
100003.7102
100003.7111
100003.7398
100003.7272
100003.7343
100003.7296
100003.7293
100003.7075
100003.7143
100003.6983
100003.7333
100003.7443
100003.7696
100003.7746
100003.7777
100003.7783
100003.7785
100003.7785
100003.7785
100003.7786
100003.7787
100003.7788
100003.7789
100003.7076
100003.6936
100003.7022
100003.6956
100003.7043
100003.7237
100003.7494
100003.7262
100003.7244
100003.7252
100003.7213
100003.7152
100003.7193
100003.726
100003.7504
100003.7657
100003.7747
100003.7765
100003.777
100003.7769
100003.7766
100003.7764
100003.7762
100003.7761
100003.7761
100003.7762
100003.7762
100003.7601
100003.7288
100003.7308
100003.7333
100003.7477
100003.7638
100003.775
100003.7539
100003.7399
100003.7389
100003.7399
100003.7327
100003.7407
100003.7496
100003.7686
100003.7756
100003.7783
100003.7778
100003.7771
100003.7764
100003.7758
100003.7754
100003.7752
100003.775
100003.775
100003.7749
100003.7749
100003.8108
100003.8326
100003.8158
100003.8766
100003.9211
100003.941
100003.9643
100004.0756
100004.0901
100004.7266
100004.0162
100003.9967
100003.3424
100003.1697
100003.6425
100003.7796
100003.7855
100003.7922
100003.8014
100003.8139
100003.8142
100003.8799
100003.7657
100004.0156
100003.9315
100003.9936
100003.9121
100004.0011
100003.8447
100003.7489
100003.6225
100003.8514
100003.8423
100003.8993
100003.9178
100003.9275
100003.9251
100003.9219
100003.9226
100003.9167
100003.9122
100003.7628
100003.7686
100003.7748
100003.7816
100003.7891
100003.7988
100003.8094
100003.8186
100003.8511
100003.8378
100003.8889
100003.8928
100003.9414
100003.9684
100004.0789
100004.0176
100003.9645
100003.8925
100003.904
100003.94
100003.9525
100003.9551
100003.9473
100003.944
100003.9356
100003.9311
100003.9206
100003.9075
100003.76
100003.7652
100003.7717
100003.7781
100003.7853
100003.7924
100003.8017
100003.8097
100003.8388
100003.8185
100003.8999
100003.8539
100003.8917
100003.8918
100003.9122
100003.8962
100003.8797
100003.8813
100003.9112
100003.9396
100003.9476
100003.9525
100003.9449
100003.9482
100003.9343
100003.9324
100003.8971
100003.8959
100003.7623
100003.7684
100003.7748
100003.7769
100003.7784
100003.7945
100003.8052
100003.8179
100003.8191
100003.8334
100003.8408
100003.8729
100003.874
100003.9126
100003.9356
100003.9553
100003.9716
100003.9826
100004.037
100004.0059
100004.0073
100003.9911
100003.9926
100003.9839
100003.9636
100003.9461
100003.9537
100003.7629
100003.7698
100003.7753
100003.7846
100003.7846
100003.7948
100003.7943
100003.8085
100003.7877
100003.8245
100003.8205
100003.852
100003.8512
100003.8588
100003.856
100003.8872
100003.9189
100003.9522
100003.9923
100003.9757
100003.9831
100003.9675
100003.9929
100003.956
100003.9665
100003.9577
100004.0011
100003.758
100003.7593
100003.7616
100003.7633
100003.6446
100003.786
100003.7792
100003.795
100003.8018
100003.8179
100003.8331
100003.859
100003.8684
100003.871
100003.8939
100003.9228
100003.928
100003.9199
100003.9825
100003.9978
100004.0074
100004.0026
100004.001
100004.0293
100003.987
100003.9878
100004.0038
100003.7659
100003.7717
100003.7801
100003.7823
100003.7797
100003.7884
100003.7883
100003.7949
100003.7981
100003.8167
100003.8305
100003.837
100003.835
100003.8328
100003.8492
100003.8646
100003.8602
100003.8872
100003.7963
100003.8705
100003.907
100003.941
100003.9651
100003.9752
100003.9843
100003.9466
100003.948
100003.755
100003.7616
100003.7783
100003.7747
100003.7742
100003.7859
100003.789
100003.7928
100003.8009
100003.8098
100003.8188
100003.8248
100003.8538
100003.8235
100003.9002
100003.7988
100003.865
100003.6396
100003.6908
100004.1949
100004.0937
100004.0817
100004.054
100004.0247
100003.9982
100003.9792
100003.962
100003.7619
100003.7714
100003.8061
100003.79
100003.7898
100003.7875
100003.7861
100003.7859
100003.7852
100003.7962
100003.8005
100003.7945
100003.8013
100003.7982
100003.8011
100003.8419
100003.5692
100003.9202
100002.6657
100002.5652
100003.5304
100003.8479
100003.9404
100003.9463
100003.9702
100003.9608
100003.9642
100003.7622
100003.7675
100003.9208
100003.8141
100003.7987
100003.7877
100003.7862
100003.7862
100003.7867
100003.7884
100003.7903
100003.7915
100003.8709
100003.7839
100004.1718
100003.7134
100003.8223
100003.3576
100001.2721
100006.061
100005.0263
100004.6341
100004.2858
100004.0994
100004.0207
100003.9824
100003.9727
100003.7557
100003.7675
100003.8036
100003.7873
100003.782
100003.7788
100003.7764
100003.7745
100003.7741
100003.7744
100003.7795
100003.7844
100003.7977
100003.8066
100003.8154
100003.7815
100003.7268
100003.6986
100003.5367
100004.2242
100003.9946
100004.003
100004.0149
100003.9918
100003.9793
100003.9642
100003.9667
100003.747
100003.7583
100003.7739
100003.7717
100003.7736
100003.7745
100003.7733
100003.7721
100003.7708
100003.7666
100003.7899
100003.7871
100003.8125
100003.7861
100003.9007
100003.7509
100003.9402
100003.7753
100003.6567
100004.2033
100004.0494
100004.0371
100004.0013
100003.9758
100003.9684
100003.9538
100003.9618
100003.7684
100003.7565
100003.7669
100003.7631
100003.7672
100003.7666
100003.7655
100003.7592
100003.7633
100003.7547
100003.7719
100003.7974
100003.8074
100003.8003
100003.7883
100003.6169
100003.7622
100003.0842
100002.8503
100003.177
100003.5256
100003.8404
100003.9224
100003.9406
100003.9458
100003.9378
100003.9464
100003.7398
100003.7563
100003.7633
100003.7634
100003.7661
100003.7645
100003.7594
100003.7534
100003.7456
100003.7431
100003.7531
100003.7759
100003.7924
100003.7785
100003.7527
100003.6323
100003.2946
100003.1813
99998.57195
100003.1635
100003.0425
100003.8589
100003.8744
100003.9146
100003.9292
100003.9214
100003.9352
100003.7502
100003.7537
100003.7585
100003.7632
100003.7637
100003.7579
100003.759
100003.7498
100003.7466
100003.771
100003.7241
100003.8697
100003.8627
100003.8233
100003.7704
100003.7002
100003.6379
100003.4669
100003.1559
100003.6686
100003.7453
100003.8957
100003.9059
100003.9044
100003.9098
100003.9035
100003.919
100003.7462
100003.7566
100003.7534
100003.7574
100003.7626
100003.7534
100003.7511
100003.7355
100003.7264
100003.7303
100003.7136
100003.7725
100003.7283
100003.7357
100003.7451
100003.7362
100003.6929
100003.6553
100002.9851
100003.7648
100003.7788
100003.8733
100003.8901
100003.8856
100003.8907
100003.8835
100003.8978
100003.7331
100003.7468
100003.7386
100003.755
100003.7544
100003.7534
100003.7574
100003.7546
100003.7732
100003.7784
100003.819
100003.8964
100004.0234
100003.7815
100003.8436
100003.775
100003.7573
100003.7294
100003.6578
100003.8024
100003.8327
100003.8601
100003.8688
100003.865
100003.8699
100003.8652
100003.879
100003.7369
100003.7344
100003.737
100003.7475
100003.747
100003.746
100003.7481
100003.7417
100003.7501
100003.7245
100003.7554
100003.7209
100003.7311
100003.7364
100003.7936
100003.7881
100003.7848
100003.7756
100003.7689
100003.8089
100003.8326
100003.8442
100003.85
100003.8472
100003.8525
100003.8499
100003.8627
100003.7154
100003.731
100003.7351
100003.7389
100003.7411
100003.7424
100003.7475
100003.7413
100003.7653
100003.7359
100003.7895
100003.7032
100003.7902
100003.7687
100003.7925
100003.7863
100003.7853
100003.7904
100003.7994
100003.8111
100003.8234
100003.8293
100003.8345
100003.8321
100003.8423
100003.838
100003.8487
100003.7155
100003.7303
100003.7248
100003.7323
100003.737
100003.7426
100003.7456
100003.7485
100003.7579
100003.7429
100003.7822
100003.7264
100003.8075
100003.78
100003.8077
100003.797
100003.789
100003.7973
100003.8063
100003.8128
100003.82
100003.822
100003.8244
100003.8253
100003.8317
100003.8278
100003.8362
100003.7011
100003.7161
100003.7204
100003.7285
100003.7348
100003.738
100003.7444
100003.7452
100003.7506
100003.7478
100003.763
100003.7312
100003.7711
100003.7649
100003.7717
100003.7842
100003.7832
100003.797
100003.8034
100003.8085
100003.8133
100003.8147
100003.8164
100003.8167
100003.82
100003.8182
100003.8246
100003.7142
100003.7198
100003.7155
100003.7208
100003.7325
100003.7402
100003.7441
100003.7559
100003.7606
100003.7649
100003.778
100003.7385
100003.9553
100003.8025
100003.8456
100003.8064
100003.7938
100003.7974
100003.7978
100003.8013
100003.8043
100003.8058
100003.8067
100003.8072
100003.8095
100003.8095
100003.8142
100003.7112
100003.7376
100003.719
100003.7125
100003.7248
100003.7349
100003.7441
100003.7553
100003.7428
100003.7819
100003.7235
100003.8659
100003.7644
100003.7262
100003.7485
100003.7763
100003.772
100003.7932
100003.7906
100003.7942
100003.7955
100003.7968
100003.7979
100003.7989
100003.801
100003.802
100003.8048
100003.7297
100003.7336
100003.7323
100003.7214
100003.735
100003.742
100003.7484
100003.7654
100003.7605
100003.7888
100003.7814
100003.7862
100003.9561
100003.8129
100003.8554
100003.8207
100003.7961
100003.7961
100003.7883
100003.7887
100003.7892
100003.7901
100003.7912
100003.7923
100003.794
100003.795
100003.7966
100003.7312
100003.7291
100003.7333
100003.7212
100003.7354
100003.7433
100003.7511
100003.7632
100003.7598
100003.7777
100003.7568
100003.8012
100003.7102
100003.7895
100003.7573
100003.8009
100003.7784
100003.7891
100003.7831
100003.7834
100003.7839
100003.7847
100003.7857
100003.7866
100003.7878
100003.7886
100003.7894
100003.7314
100003.7271
100003.7351
100003.7256
100003.7352
100003.7432
100003.7461
100003.7619
100003.7563
100003.7745
100003.7636
100003.7919
100003.7964
100003.7999
100003.7817
100003.7947
100003.7773
100003.7811
100003.7785
100003.7786
100003.7793
100003.7801
100003.7809
100003.7816
100003.7824
100003.783
100003.7834
100003.7296
100003.7245
100003.734
100003.7263
100003.739
100003.7439
100003.744
100003.7533
100003.7531
100003.7655
100003.7662
100003.7832
100003.768
100003.7938
100003.7765
100003.7864
100003.7758
100003.7762
100003.7752
100003.7753
100003.7759
100003.7765
100003.777
100003.7775
100003.778
100003.7784
100003.7786
100003.7372
100003.7317
100003.7387
100003.7359
100003.7481
100003.747
100003.75
100003.7529
100003.7539
100003.7625
100003.7629
100003.7728
100003.7707
100003.7835
100003.7724
100003.7761
100003.7731
100003.7726
100003.7727
100003.7731
100003.7735
100003.7739
100003.7742
100003.7744
100003.7747
100003.775
100003.7751
100003.7387
100003.7326
100003.7369
100003.7382
100003.7437
100003.7443
100003.7481
100003.7503
100003.7506
100003.7526
100003.7537
100003.7615
100003.7673
100003.7731
100003.7699
100003.7709
100003.7705
100003.7708
100003.7714
100003.7717
100003.772
100003.7722
100003.7723
100003.7724
100003.7726
100003.7727
100003.7727
100003.7531
100003.7496
100003.7521
100003.7482
100003.7515
100003.752
100003.7559
100003.7547
100003.7552
100003.7582
100003.759
100003.7638
100003.7674
100003.7703
100003.7699
100003.7702
100003.7707
100003.771
100003.7712
100003.7713
100003.7713
100003.7714