/*--------------------------------*- C++ -*----------------------------------*\
  =========                 |
  \\      /  F ield         | OpenFOAM: The Open Source CFD Toolbox
   \\    /   O peration     | Website:  https://openfoam.org
    \\  /    A nd           | Version:  8
     \\/     M anipulation  |
\*---------------------------------------------------------------------------*/
FoamFile
{
    version     2.0;
    format      ascii;
    class       volScalarField;
    location    "0.4";
    object      T;
}
// * * * * * * * * * * * * * * * * * * * * * * * * * * * * * * * * * * * * * //

dimensions      [0 0 0 1 0 0 0];

internalField   nonuniform List<scalar> 
67451
(
300.0030693
300.0030796
300.0031374
300.0031007
300.003143
300.0031676
300.0032387
300.0032887
300.003249
300.0032887
300.0032445
300.0030092
300.0030152
300.0030238
300.003032
300.0030416
300.0030499
300.0030802
300.0031021
300.0032712
300.0032847
300.0033957
300.0034228
300.0033128
300.0032623
300.0031758
300.0034413
300.0034559
300.0034152
300.0033189
300.0032625
300.0031903
300.0031313
300.0031252
300.0032141
300.0033167
300.0032785
300.0029846
300.0029859
300.0029994
300.0030071
300.0030166
300.0030235
300.0030282
300.0030375
300.0030924
300.0031845
300.0033309
300.0034347
300.0035434
300.0035476
300.0034693
300.0033729
300.0032069
300.0032871
300.0032327
300.0032748
300.0032194
300.0031899
300.0031355
300.0031202
300.003205
300.0033774
300.0034881
300.0033868
300.0030094
300.0029724
300.0029821
300.0029925
300.0029999
300.0030001
300.0030072
300.0030588
300.0031781
300.0033211
300.0034692
300.0035647
300.0036336
300.0036163
300.0035771
300.0034993
300.0033503
300.0032548
300.0031624
300.0031747
300.0031769
300.0031552
300.0031321
300.0031898
300.0033564
300.0035325
300.0036102
300.0035035
300.0030097
300.0029667
300.0029749
300.0029857
300.0030066
300.003045
300.0031579
300.0033056
300.0034385
300.0035452
300.0036232
300.0036797
300.0036367
300.0036154
300.0035802
300.0034813
300.0033494
300.0032078
300.0031368
300.003141
300.0031555
300.0031868
300.0033221
300.0035092
300.0036408
300.0037101
300.0036173
300.0031122
300.0029957
300.0029498
300.0029634
300.0030123
300.0031201
300.0032647
300.0033999
300.0034951
300.0035704
300.0037108
300.0038302
300.003749
300.0036709
300.0036368
300.0035821
300.0034781
300.0033183
300.0031884
300.0031658
300.0032262
300.0033012
300.003455
300.0036382
300.0037769
300.0038663
300.0037704
300.0032443
300.0030943
300.0029783
300.00298
300.003212
300.0032163
300.0033622
300.0034472
300.0034729
300.0034733
300.0034431
300.0034694
300.0034904
300.0035085
300.0034939
300.003424
300.0033243
300.0032348
300.0032324
300.0033147
300.0033927
300.0033675
300.0032661
300.0034051
300.0035401
300.0036222
300.003576
300.0033605
300.0032191
300.0030386
300.0030474
300.0031982
300.0033394
300.0034439
300.0034905
300.0035219
300.0035331
300.0034962
300.0034934
300.0034954
300.0034752
300.0034397
300.0033948
300.0033648
300.0033532
300.0034054
300.0034927
300.0035664
300.0035546
300.0034174
300.0032743
300.0034514
300.0035516
300.0034566
300.0034314
300.0033448
300.0031605
300.0031085
300.0032948
300.0034325
300.0034797
300.0035035
300.0035329
300.0035567
300.0035408
300.0034797
300.0034864
300.0034521
300.0034304
300.0034295
300.0034897
300.0034883
300.0036885
300.0037779
300.0038082
300.0037683
300.0036531
300.0034012
300.0033153
300.0034545
300.0033375
300.0034576
300.0034323
300.0033187
300.0031236
300.0031409
300.0033285
300.0034558
300.0034923
300.0035172
300.0035494
300.0035394
300.0034625
300.003466
300.0034543
300.0034678
300.0034788
300.0035488
300.00365
300.003847
300.0040363
300.00401
300.0039174
300.003818
300.0036485
300.0032911
300.0033119
300.0032165
300.0034698
300.0034614
300.0034259
300.0032898
300.0031174
300.0031474
300.0033488
300.003459
300.0034911
300.0035162
300.0035196
300.0034857
300.0034618
300.003436
300.0034822
300.0034003
300.0038121
300.0038226
300.0049779
300.0052144
300.0046272
300.0041952
300.0039614
300.00381
300.0035737
300.003254
300.0031225
300.0034771
300.0034742
300.0034768
300.0034277
300.0032822
300.0030907
300.0031577
300.0033417
300.0034341
300.0034619
300.0034447
300.0034046
300.0033945
300.0033265
300.0033777
300.0035782
300.0038461
300.0038936
300.0044168
300.0043919
300.0042671
300.0040896
300.0039489
300.0038382
300.0037286
300.0034702
300.0031526
300.0034663
300.0034347
300.0034171
300.0033723
300.0032438
300.0030361
300.0030117
300.0031627
300.0032549
300.0032918
300.0033209
300.0033866
300.003511
300.0034278
300.0035307
300.0035179
300.0039494
300.0035325
300.0043117
300.00417
300.0040962
300.0039403
300.0038314
300.0037651
300.0037143
300.0036129
300.0033459
300.0034836
300.0034049
300.0033229
300.0032174
300.0030804
300.0029235
300.0029612
300.0030845
300.0032144
300.0033291
300.0034255
300.0035276
300.0036153
300.0036137
300.0036271
300.0036735
300.0038744
300.0027014
300.0030575
300.004173
300.0041943
300.0039874
300.0038376
300.0037371
300.0036759
300.0036052
300.0034173
300.0035325
300.0034293
300.003322
300.0031461
300.0029596
300.0029075
300.0030236
300.0031715
300.0032677
300.0033117
300.0033385
300.0032903
300.0035298
300.0035321
300.0035459
300.0036011
300.0042402
300.003667
300.0079265
300.0046712
300.0042914
300.0038841
300.0036963
300.0036098
300.0035602
300.0035009
300.00334
300.0036293
300.0034677
300.0033709
300.0032421
300.003053
300.0029585
300.0031007
300.0032372
300.0032935
300.0032533
300.0032173
300.0029484
300.0031427
300.0033968
300.0034993
300.0035844
300.0038023
300.0036268
300.004665
300.0039183
300.0038805
300.0037163
300.0035876
300.0035034
300.003443
300.0033716
300.0032189
300.0036562
300.0034762
300.0034171
300.0033599
300.0032343
300.0030669
300.0032343
300.00332
300.003306
300.0031666
300.0030471
300.0027463
300.0026942
300.0030102
300.0033219
300.0034371
300.0035067
300.0034965
300.0039458
300.0036634
300.0036986
300.0036671
300.0036164
300.003556
300.0034839
300.00338
300.0031884
300.0036338
300.0034819
300.0034169
300.0033264
300.0031472
300.0030804
300.003303
300.0033873
300.0032598
300.0028523
300.0024936
300.0022549
300.0011611
300.0012561
300.0022132
300.0030663
300.0033713
300.0034063
300.0035094
300.0035307
300.0036162
300.0036175
300.0035898
300.0035453
300.0034846
300.003384
300.0031854
300.0035394
300.0034475
300.0033622
300.0032167
300.0030115
300.0030175
300.0032597
300.0033892
300.0033988
300.0031948
300.0027588
300.0021792
300.001406
300.002019
300.0028772
300.0032982
300.0033561
300.0033032
300.0032904
300.0034374
300.0035473
300.0035616
300.0035436
300.0035083
300.0034548
300.0033506
300.0031495
300.0033721
300.0033254
300.0032263
300.0030722
300.0029127
300.002917
300.003152
300.0033274
300.0034124
300.0033807
300.0032053
300.002627
300.0022955
300.0029515
300.003317
300.0033823
300.0033288
300.0032251
300.0031642
300.0033513
300.0034756
300.0034996
300.0034881
300.0034567
300.0033967
300.0032766
300.0030826
300.0033355
300.0032503
300.0031519
300.0030422
300.0029474
300.0028943
300.0029765
300.0031894
300.0033355
300.0034054
300.0034233
300.0031856
300.0032471
300.0034231
300.0034408
300.0033855
300.0032883
300.0031506
300.0030648
300.0032415
300.0033918
300.0034293
300.0034214
300.0033824
300.0033015
300.0031669
300.0030101
300.0033399
300.0032738
300.0031904
300.0031105
300.003033
300.0029538
300.0029007
300.0029795
300.0031645
300.0033009
300.0034047
300.0034169
300.0034816
300.0034787
300.0034043
300.003319
300.0032027
300.003066
300.0029908
300.0031149
300.0032888
300.0033394
300.0033265
300.0032689
300.0031712
300.0030541
300.002966
300.0033383
300.0032938
300.0032164
300.0031295
300.0030331
300.0029372
300.0028818
300.0028945
300.0029758
300.0031178
300.0032506
300.0033799
300.0032376
300.003326
300.0032728
300.0032037
300.003096
300.0029966
300.0029538
300.0030226
300.0031668
300.0032179
300.0031954
300.0031302
300.0030517
300.0029868
300.0029667
300.0033434
300.0033081
300.0032144
300.0031017
300.0030013
300.0029213
300.0028859
300.0028841
300.0029594
300.003021
300.0029936
300.0030956
300.002552
300.0029842
300.0030303
300.0030551
300.0029936
300.0029656
300.0029603
300.0029831
300.0030622
300.0030966
300.0030727
300.0030259
300.0029892
300.0029775
300.002987
300.0033239
300.003294
300.0032181
300.0031451
300.0031098
300.0030995
300.0030626
300.0030027
300.0030894
300.0032126
300.0030351
300.0027438
300.0018346
300.0015602
300.0022473
300.0028998
300.0029942
300.0030016
300.0029948
300.002989
300.0030046
300.0030163
300.0030025
300.0029869
300.0029854
300.0029916
300.0029988
300.0032638
300.0032698
300.0032592
300.0032482
300.003261
300.0032703
300.0032265
300.0031435
300.0032304
300.0033547
300.0032972
300.0030851
300.0022641
300.0022927
300.0028608
300.0030025
300.0030035
300.0030017
300.0029997
300.0029961
300.0029938
300.0029926
300.0029905
300.0029909
300.0029954
300.0029988
300.0030009
300.0031773
300.0032995
300.0033411
300.0033469
300.0033558
300.00333
300.0032134
300.0032369
300.0034624
300.0034923
300.0034586
300.0034217
300.0029661
300.0030395
300.003072
300.0030257
300.003002
300.0029994
300.0029995
300.002998
300.0029961
300.0029946
300.0029951
300.0029965
300.0029986
300.0029991
300.002999
300.0031243
300.0033706
300.0034109
300.003404
300.0033846
300.0032953
300.0031442
300.0033235
300.0035
300.0035077
300.0034925
300.0034623
300.0033518
300.0032838
300.0031794
300.0030731
300.0030056
300.0029912
300.0029944
300.002996
300.0029962
300.002996
300.0029963
300.0029969
300.0029975
300.002997
300.0029962
300.0031332
300.0034049
300.0034233
300.0033995
300.0033323
300.0031868
300.0030548
300.0032934
300.0034673
300.0034908
300.0034778
300.0034373
300.0033883
300.0032767
300.0031479
300.0030396
300.0029891
300.0029861
300.0029918
300.0029941
300.0029948
300.002995
300.0029952
300.0029954
300.0029956
300.0029948
300.0029937
300.0031415
300.0033871
300.0033744
300.003303
300.0031893
300.0030329
300.0029488
300.0031612
300.0033694
300.0034339
300.0034216
300.00337
300.0032951
300.0031678
300.0030519
300.0029824
300.0029729
300.0029829
300.0029896
300.002992
300.0029928
300.002993
300.0029931
300.0029932
300.0029933
300.0029927
300.0029918
300.0030546
300.0032351
300.0031843
300.003097
300.0029988
300.0029058
300.0028862
300.0030133
300.0031872
300.0033073
300.0032709
300.0031991
300.0031146
300.003022
300.0029625
300.0029542
300.0029714
300.0029837
300.0029887
300.0029903
300.0029908
300.0029909
300.002991
300.002991
300.002991
300.002991
300.002991
300.0034156
300.0034152
300.0036597
300.0034025
300.003423
300.0033639
300.003392
300.0034011
300.003492
300.0033566
300.0031318
300.0033444
300.0033479
300.0033562
300.0033586
300.0033625
300.0033549
300.003393
300.0033176
300.0037843
300.0033254
300.0033938
300.0033585
300.0033342
300.0033052
300.0032511
300.0031822
300.0034911
300.0035121
300.0034915
300.0034554
300.0033883
300.0032922
300.0031881
300.0031528
300.0031801
300.0032636
300.0032876
300.0032994
300.0033255
300.0033332
300.0033436
300.0033435
300.0033375
300.0033169
300.0033135
300.0032652
300.0033424
300.0033252
300.0033703
300.0033833
300.0033522
300.0033095
300.0032535
300.0033304
300.0034031
300.0034624
300.0034463
300.0034253
300.0033733
300.0033014
300.0032381
300.0032358
300.0032893
300.003499
300.0032307
300.0032503
300.0032891
300.0033017
300.0033093
300.0032967
300.0032734
300.0032397
300.0032371
300.0032566
300.0033645
300.0033698
300.0033766
300.0033978
300.0033848
300.0033329
300.0032562
300.0032692
300.0032994
300.0033628
300.0033734
300.003351
300.0033023
300.0032725
300.0032786
300.00332
300.0034323
300.0036404
300.0031969
300.0032405
300.0032668
300.0032751
300.0032677
300.0032355
300.003217
300.0032374
300.0032924
300.003358
300.0034416
300.0035144
300.0035335
300.0034537
300.0034052
300.0033271
300.0032811
300.003258
300.0033066
300.0033271
300.0033206
300.003308
300.0033443
300.0033995
300.0034587
300.0035734
300.0037014
300.0031747
300.0031828
300.0032024
300.0032127
300.0031911
300.0031858
300.0032056
300.0032597
300.0033301
300.003353
300.0035574
300.0036636
300.0036688
300.0036081
300.0035316
300.0033775
300.0032819
300.0032042
300.0032072
300.0032514
300.0032735
300.003267
300.0033071
300.0034978
300.0036283
300.0037403
300.0038059
300.0031906
300.0031558
300.003149
300.0031485
300.0032082
300.0032284
300.0032728
300.003315
300.0034283
300.0034339
300.0032688
300.0032598
300.003368
300.0034573
300.0034261
300.0033194
300.0032426
300.0031969
300.0032731
300.003355
300.0033935
300.0033586
300.0032788
300.0033403
300.0033882
300.0034649
300.0036119
300.0032184
300.0031723
300.0031099
300.0031215
300.0031914
300.0032521
300.0033003
300.0033929
300.0034962
300.0035279
300.0035217
300.0035078
300.0035242
300.0034838
300.0033964
300.0033082
300.0032906
300.0032667
300.0033078
300.0033941
300.0034461
300.0034352
300.0033508
300.003221
300.0032749
300.0034374
300.0035796
300.0032428
300.0032014
300.0031311
300.0031079
300.0031899
300.0032368
300.003318
300.0033998
300.0034716
300.0035026
300.0035421
300.0035482
300.0035687
300.0034845
300.003365
300.0033013
300.0033919
300.0033354
300.0035515
300.0036744
300.0036582
300.0035828
300.0035007
300.003349
300.0032065
300.003288
300.0034717
300.0033012
300.0032425
300.0031991
300.003106
300.003106
300.0031743
300.0032322
300.0032965
300.0034589
300.003539
300.0035547
300.0035311
300.0034626
300.0033526
300.0033236
300.0033544
300.0034004
300.0035811
300.0034901
300.0039109
300.003813
300.0036826
300.0035689
300.0034738
300.0032522
300.0031839
300.0032949
300.0034057
300.003336
300.003298
300.003203
300.0031107
300.0030897
300.0031761
300.0032309
300.0033169
300.0034636
300.0035045
300.0034516
300.0033555
300.0032837
300.0034129
300.0033548
300.0037012
300.0037116
300.0032391
300.007435
300.0050965
300.0042654
300.0038557
300.003594
300.0034443
300.0032062
300.0031364
300.0034047
300.0033263
300.0032665
300.0032313
300.0031857
300.00307
300.0030779
300.003177
300.003235
300.0032766
300.0033277
300.0032662
300.0032301
300.0032405
300.0034238
300.0035636
300.0036372
300.0037367
300.0040712
300.0043995
300.0040903
300.0039632
300.0038756
300.0037582
300.003541
300.0033731
300.0031547
300.0032942
300.003267
300.0032597
300.0032235
300.0031509
300.0030474
300.0030265
300.003108
300.0031641
300.0031823
300.0032025
300.0032367
300.0033687
300.0033844
300.0035268
300.0034698
300.0036507
300.0033627
300.0036908
300.0039827
300.0039295
300.0038607
300.0038034
300.0037425
300.0035822
300.0034367
300.0032881
300.003216
300.0032136
300.0032152
300.0031468
300.0030645
300.0029956
300.002988
300.0030159
300.003073
300.0031432
300.0032614
300.0034736
300.0035039
300.0034912
300.0034835
300.0033643
300.0031472
300.0001568
299.9982048
300.0026246
300.0036405
300.0038206
300.0037912
300.0036966
300.0035405
300.0034242
300.0032905
300.0034014
300.0033073
300.003175
300.0030534
300.002986
300.0029875
300.0030084
300.0030659
300.003131
300.0032073
300.0032783
300.0032965
300.0034251
300.0034173
300.0034156
300.0033056
300.0034832
300.0022127
299.9952955
300.0041401
300.0037675
300.0037374
300.0036336
300.0035533
300.0034613
300.0033662
300.0032211
300.0034597
300.0033391
300.003231
300.0030657
300.0030154
300.0030129
300.0030797
300.0031354
300.0031993
300.0032775
300.0031149
300.0031669
300.0033371
300.0033248
300.0033066
300.0032962
300.0034507
300.0031125
300.0034175
300.0037334
300.0037097
300.0036918
300.003613
300.0035075
300.0033985
300.0032811
300.0031314
300.0035086
300.0033402
300.0032453
300.0031067
300.0030385
300.003029
300.0031448
300.0031632
300.0032178
300.0031191
300.0029126
300.002973
300.0027544
300.0030019
300.0031262
300.0031927
300.003282
300.0031978
300.0033633
300.0035882
300.0036223
300.0036406
300.0036157
300.0035439
300.0034136
300.0032601
300.0030956
300.0035151
300.0033586
300.0031905
300.0030548
300.0029974
300.0030456
300.0031605
300.0031665
300.0031975
300.0030388
300.0032253
300.0030222
300.0032959
300.0033083
300.0031189
300.0030108
300.0031302
300.003149
300.0032478
300.0035044
300.003583
300.0036097
300.0035966
300.0035343
300.0033982
300.0032387
300.0030855
300.0033514
300.0032746
300.0031155
300.0030187
300.0029416
300.0029988
300.0031248
300.0031717
300.0031894
300.0031662
300.0032727
300.0028967
300.0032332
300.0030301
300.0029863
300.0030501
300.0031059
300.0031
300.0031591
300.0034145
300.0035279
300.0035621
300.0035438
300.0034699
300.0033316
300.003198
300.003064
300.0032398
300.0031412
300.0030508
300.0029733
300.0029319
300.0029595
300.0030565
300.0031386
300.003159
300.0031687
300.0032597
300.0029757
300.0031294
300.0029899
300.0029951
300.0030885
300.0030998
300.0030595
300.0030897
300.0032904
300.0034297
300.0034734
300.0034444
300.0033616
300.0032505
300.0031524
300.0030415
300.0033806
300.0033039
300.0031482
300.0030489
300.0029994
300.0029824
300.0029949
300.0030825
300.0031311
300.0031665
300.003203
300.003132
300.0030523
300.0030666
300.003103
300.0031345
300.0031007
300.0030365
300.0030422
300.003184
300.0033054
300.0033507
300.0033269
300.0032629
300.0031924
300.0031174
300.0030479
300.0033813
300.0033353
300.0032099
300.0031088
300.0030527
300.0030084
300.0029905
300.0030058
300.0030592
300.0031064
300.0031259
300.0031685
300.0030333
300.0031195
300.0030942
300.0031251
300.0030835
300.0030357
300.0030375
300.0031377
300.0032324
300.0032748
300.0032525
300.0032033
300.0031551
300.0031167
300.003101
300.0033838
300.0033189
300.0031969
300.0030898
300.0030176
300.002982
300.002994
300.0030367
300.0030258
300.0030669
300.0031229
300.0031333
300.0033308
300.0032081
300.0031125
300.0031006
300.0030787
300.0030763
300.0030906
300.0031481
300.0032125
300.0032368
300.00321
300.0031738
300.0031555
300.0031608
300.003182
300.0033555
300.0033842
300.0033147
300.0031875
300.0030617
300.0029946
300.0029938
300.0030258
300.0030444
300.0030686
300.0028919
300.003176
300.003111
300.0028537
300.0029171
300.0030797
300.0030958
300.0031466
300.0031707
300.0031956
300.0032122
300.0032164
300.0031987
300.0031895
300.0032012
300.0032274
300.0032533
300.003273
300.0034518
300.0033884
300.0033348
300.0032088
300.0031305
300.0030918
300.0030778
300.0031746
300.0032032
300.0030243
300.0031139
300.0029898
300.0034535
300.0029227
300.003056
300.0031154
300.0031893
300.0032295
300.0032443
300.0032416
300.0032364
300.0032326
300.0032408
300.0032601
300.0032822
300.0033006
300.0032602
300.0034878
300.0034208
300.0033603
300.003259
300.0031947
300.0031467
300.0031732
300.003328
300.0033508
300.0032264
300.0031211
300.0027252
300.0029613
300.0028504
300.0031141
300.0031764
300.0032409
300.0032702
300.0032825
300.0032812
300.0032772
300.0032803
300.0032896
300.0033028
300.0033169
300.0033288
300.0032766
300.0035093
300.0034584
300.0033797
300.00326
300.0031751
300.0030953
300.0032851
300.0034255
300.0034336
300.0033806
300.00329
300.0030098
300.0031014
300.0030648
300.0031469
300.0032157
300.0032571
300.0032895
300.0033037
300.0033084
300.0033095
300.0033135
300.0033195
300.0033271
300.0033365
300.0033451
300.0032292
300.003499
300.00347
300.0033488
300.0032171
300.0031217
300.0030879
300.0033127
300.0034885
300.0034812
300.0034535
300.0033734
300.0031817
300.0031822
300.0031716
300.0031888
300.0032247
300.0032666
300.0032979
300.0033149
300.0033232
300.0033274
300.0033312
300.0033351
300.00334
300.0033472
300.0033542
300.0031555
300.0033769
300.0033515
300.0032204
300.0031464
300.0030559
300.0030233
300.003218
300.003465
300.0034831
300.0034559
300.0033356
300.0032118
300.0031626
300.0031636
300.0031743
300.0032296
300.003275
300.003306
300.0033229
300.003332
300.0033371
300.0033408
300.0033438
300.0033471
300.003353
300.0033592
300.0030794
300.0031728
300.003173
300.0031202
300.0030674
300.0029945
300.0029854
300.0030943
300.0032952
300.0033836
300.0033409
300.0032279
300.0031618
300.0031301
300.0031423
300.0031866
300.0032451
300.0032886
300.0033158
300.0033314
300.0033404
300.0033458
300.0033493
300.0033519
300.0033539
300.003357
300.0033619
300.0030108
300.0030766
300.0030645
300.0030161
300.002986
300.0029739
300.0029874
300.0030166
300.0031385
300.0032145
300.0031791
300.0031115
300.0030687
300.0030632
300.0031174
300.003194
300.0032593
300.0033006
300.0033252
300.0033395
300.0033481
300.0033534
300.0033569
300.0033592
300.0033608
300.0033621
300.0033646
300.0033821
300.0034
300.0033906
300.0034027
300.0034699
300.0034741
300.0034846
300.0035717
300.0035882
300.0041191
300.0034962
300.0034581
300.0023299
300.0026099
300.0032449
300.003353
300.0033564
300.0033628
300.0033679
300.0033754
300.003371
300.003415
300.0033214
300.003401
300.0034359
300.0034833
300.0034219
300.0034773
300.0033376
300.0032655
300.003044
300.0033449
300.0033627
300.0034124
300.0034175
300.0034059
300.0033641
300.0033016
300.0032482
300.0032314
300.0032519
300.0033257
300.0033299
300.0033428
300.0033482
300.0033561
300.0033609
300.0033657
300.003366
300.0033841
300.0033696
300.0034244
300.0034431
300.0034766
300.003499
300.0035541
300.0034938
300.0034457
300.0033834
300.0034137
300.003449
300.003458
300.0034531
300.0034386
300.0034182
300.0033918
300.0033756
300.0033734
300.0034119
300.0033021
300.0033087
300.0033267
300.0033325
300.0033395
300.0033384
300.0033368
300.0033293
300.0033447
300.0033448
300.0034246
300.0034159
300.0033947
300.0034121
300.0034082
300.0033925
300.0033443
300.0033365
300.0033666
300.0034045
300.0034141
300.0034103
300.0033941
300.0033813
300.0033694
300.003372
300.0033842
300.0035107
300.0032812
300.0033053
300.0033148
300.0033204
300.0033143
300.0033235
300.0033278
300.0033546
300.0034019
300.0034007
300.0033847
300.003401
300.0034493
300.0034856
300.0034693
300.0034367
300.0034142
300.0034034
300.0034635
300.0034478
300.0034481
300.0034528
300.0034685
300.0034611
300.0034355
300.0034727
300.0035772
300.0032598
300.0032787
300.0032875
300.0033003
300.0032929
300.0032961
300.0033018
300.0033365
300.003325
300.0032439
300.0033796
300.0034423
300.003497
300.0034723
300.0033928
300.0033526
300.0033234
300.0033087
300.003346
300.0033516
300.003354
300.0033351
300.0033809
300.0034286
300.0034656
300.0035432
300.0036393
300.0032572
300.0032482
300.0032432
300.0032606
300.0031741
300.0033133
300.0033555
300.0033964
300.003374
300.0032753
300.003106
300.003133
300.0032569
300.0034333
300.0034602
300.0033797
300.0033073
300.0032595
300.0033498
300.0034191
300.0034385
300.0034215
300.0034077
300.0033823
300.0033183
300.003346
300.0034797
300.003295
300.0032593
300.003225
300.0032348
300.0032658
300.0033278
300.003374
300.0033479
300.0033791
300.0033769
300.003354
300.0033837
300.0034361
300.0034524
300.0034022
300.0033076
300.003248
300.0032269
300.003194
300.0033306
300.0033698
300.0033648
300.0033182
300.0032708
300.0033626
300.003418
300.0034763
300.0033299
300.0032812
300.0032137
300.0031944
300.0032356
300.0033012
300.0033647
300.0033461
300.0033541
300.0033663
300.003404
300.0034376
300.003482
300.003426
300.0033881
300.0032544
300.0032904
300.0031136
300.0031473
300.0037222
300.0036317
300.0035655
300.0034809
300.0033757
300.0032931
300.0033566
300.0034125
300.0034046
300.0033699
300.003284
300.0032012
300.0031849
300.003227
300.0032876
300.0033279
300.0034083
300.0034338
300.0034472
300.0034314
300.0033716
300.0032804
300.0032547
300.0032982
300.0031159
300.0031719
300.0023384
300.0025763
300.0032908
300.0034288
300.0034213
300.0033695
300.00327
300.0032289
300.0032903
300.0033825
300.0034161
300.0033666
300.0032671
300.003184
300.0031527
300.0032189
300.0032918
300.0033692
300.0033659
300.0033427
300.0032981
300.0033253
300.0032344
300.003556
300.0032719
300.0033155
300.0028964
299.9953954
300.0026049
300.0046165
300.0042604
300.0038384
300.003559
300.0033999
300.0032499
300.0031775
300.0033835
300.0034118
300.0033486
300.0032828
300.003215
300.0031347
300.0031361
300.0032132
300.0032593
300.0032492
300.0032232
300.0031841
300.0031752
300.0032603
300.0033946
300.0033839
300.0033002
300.003132
300.002581
300.0037961
300.0036683
300.0036736
300.0036666
300.0036072
300.0034559
300.0033334
300.0031834
300.0033088
300.0033525
300.0032948
300.0032447
300.0031831
300.0031288
300.003111
300.0031491
300.0031825
300.0031906
300.0032275
300.0032809
300.0032874
300.0032996
300.0034473
300.003354
300.0032047
300.0032398
300.0031544
300.0037905
300.0036512
300.0036635
300.0036403
300.0036191
300.0034773
300.0033657
300.0032244
300.0032436
300.0033092
300.0032464
300.0031908
300.0031373
300.0031065
300.0030829
300.0030655
300.0030873
300.003155
300.0032173
300.0033357
300.0033358
300.0033543
300.0033961
300.0031829
300.0032202
300.0011593
300.0004318
300.0023544
300.0031094
300.0034619
300.0035489
300.0035054
300.0034238
300.0033339
300.0031963
300.0032863
300.0032349
300.0032329
300.0031633
300.0031195
300.0031202
300.0031154
300.0031483
300.0032121
300.0032435
300.0031764
300.0032259
300.0032891
300.0033317
300.0033477
300.0032687
300.0029829
300.0018866
299.9995074
300.0028867
300.0026355
300.0033968
300.0034133
300.0034088
300.0033561
300.0032624
300.0031272
300.0032985
300.0032447
300.0032447
300.0032044
300.0031524
300.003142
300.0031859
300.0032297
300.0032895
300.0032811
300.0028607
300.0029755
300.003253
300.0033404
300.0033038
300.0032864
300.0032444
300.0029697
300.0027571
300.0032411
300.0033085
300.003478
300.0034869
300.0034248
300.0033169
300.0032006
300.0030767
300.0033453
300.0032371
300.0032357
300.003211
300.0031426
300.0031254
300.0032165
300.0032672
300.003269
300.0031421
300.002734
300.0028116
300.0027143
300.0030916
300.0032129
300.0032198
300.0031588
300.0031113
300.0026036
300.0033045
300.0033606
300.0034781
300.0035035
300.0034651
300.0033291
300.0031916
300.0030608
300.0033641
300.0032739
300.003175
300.0031661
300.0031069
300.0031343
300.00322
300.003272
300.003339
300.0032964
300.0029242
300.0027964
300.0028781
300.0032699
300.0033307
300.0032034
300.0031462
300.0030746
300.0030908
300.003345
300.003429
300.0034879
300.0034999
300.0034576
300.0033247
300.0031998
300.0030728
300.0032747
300.0032374
300.0031362
300.0031166
300.0030719
300.0030905
300.0031692
300.0032272
300.0032779
300.003336
300.0032998
300.0030981
300.0031574
300.0033213
300.0032902
300.0032015
300.0031314
300.0030438
300.0031172
300.0033371
300.0034353
300.0034761
300.0034711
300.0033931
300.0032929
300.0031988
300.0030866
300.0031907
300.0031902
300.0031084
300.0030842
300.003075
300.0030845
300.0031295
300.0031854
300.0032511
300.0033149
300.0034271
300.0033043
300.0033903
300.0033287
300.0032806
300.0031978
300.0031196
300.0030274
300.0030868
300.0032813
300.0034067
300.0034436
300.0033991
300.0033322
300.0032669
300.0031969
300.003113
300.003292
300.0033145
300.0031824
300.0031341
300.0031105
300.0031072
300.0031121
300.0031505
300.0032089
300.0032637
300.0033978
300.0033521
300.0033707
300.0032992
300.0032745
300.0032003
300.003124
300.003047
300.0030827
300.0032308
300.0033468
300.0033794
300.0033429
300.0032968
300.0032518
300.0032055
300.0031634
300.003308
300.0032762
300.0032127
300.003171
300.0031408
300.0031214
300.0031222
300.0031305
300.0031574
300.0032045
300.0032802
300.0032951
300.0032471
300.0032532
300.0032201
300.003184
300.0031379
300.0031041
300.0031276
300.0032225
300.0033019
300.0033326
300.0033086
300.0032758
300.003248
300.0032324
300.0032292
300.0033336
300.0032675
300.0031911
300.0031231
300.0030966
300.0031026
300.0031299
300.0031662
300.0031611
300.0031738
300.0032264
300.002802
300.0032252
300.0032625
300.0032734
300.0032116
300.0031895
300.0031849
300.0032006
300.0032468
300.0032881
300.003306
300.003289
300.003271
300.003265
300.0032734
300.0032876
300.0032871
300.0033664
300.003277
300.0032563
300.003168
300.0031244
300.0031293
300.0031664
300.0031661
300.0032153
300.0030928
300.0031699
300.0032617
300.0029813
300.0031927
300.0031981
300.0032173
300.0032481
300.0032599
300.0032802
300.0032923
300.0032976
300.0032904
300.0032885
300.0032963
300.0033116
300.0033257
300.0032649
300.003396
300.0033
300.0033222
300.0033066
300.0032471
300.0031951
300.0032297
300.003289
300.0033077
300.0032438
300.0032203
300.0032504
300.0031256
300.0032678
300.0032717
300.0032801
300.0032944
300.0032987
300.0033073
300.0033095
300.0033099
300.0033099
300.0033141
300.0033235
300.0033366
300.0033468
300.0032922
300.0034137
300.0033339
300.0033404
300.0033681
300.003312
300.0032275
300.0032902
300.0033393
300.0033637
300.0033266
300.0033373
300.0032492
300.0032283
300.0032226
300.003288
300.0032912
300.0033134
300.0033171
300.0033229
300.0033251
300.0033261
300.0033283
300.0033324
300.0033397
300.0033501
300.0033574
300.003309
300.0034193
300.0033743
300.003302
300.0032666
300.0032137
300.0031303
300.0033127
300.0033722
300.0033945
300.0033775
300.0033954
300.0033291
300.003298
300.0032783
300.0033022
300.0033046
300.0033201
300.003326
300.0033312
300.0033344
300.0033366
300.0033389
300.003342
300.0033477
300.0033566
300.0033624
300.0032601
300.0033933
300.0034045
300.0032882
300.0032306
300.0031458
300.0031216
300.0033473
300.0034132
300.0034196
300.0034058
300.0034149
300.0033293
300.0033266
300.0032932
300.0033016
300.0033057
300.0033207
300.0033296
300.0033357
300.0033397
300.0033423
300.0033444
300.0033468
300.0033515
300.0033594
300.0033644
300.0031938
300.0033003
300.003299
300.0032269
300.0031845
300.0031048
300.0030858
300.00324
300.0034017
300.0034233
300.0034009
300.0033459
300.0032942
300.0032888
300.0032736
300.0032893
300.0033071
300.0033235
300.0033339
300.0033405
300.0033445
300.0033472
300.0033491
300.0033509
300.0033542
300.0033607
300.0033651
300.0031416
300.0031888
300.0032088
300.0031651
300.0031337
300.0030921
300.0030893
300.0031642
300.003324
300.0033683
300.003316
300.0032776
300.0032557
300.0032537
300.0032629
300.0032902
300.0033145
300.0033317
300.0033423
300.0033487
300.0033527
300.0033553
300.003357
300.0033583
300.0033597
300.0033623
300.0033654
300.0030802
300.0030838
300.0031009
300.0030762
300.003084
300.0030941
300.0031057
300.0031098
300.003186
300.0032119
300.0031811
300.0031619
300.0031657
300.003199
300.0032472
300.0032916
300.0033212
300.0033386
300.0033486
300.0033546
300.0033583
300.0033607