/*--------------------------------*- C++ -*----------------------------------*\
  =========                 |
  \\      /  F ield         | OpenFOAM: The Open Source CFD Toolbox
   \\    /   O peration     | Website:  https://openfoam.org
    \\  /    A nd           | Version:  8
     \\/     M anipulation  |
\*---------------------------------------------------------------------------*/
FoamFile
{
    version     2.0;
    format      ascii;
    class       scalarField;
    location    "1.6/lagrangian/reactingCloud1";
    object      age;
}
// * * * * * * * * * * * * * * * * * * * * * * * * * * * * * * * * * * * * * //


175
(
0.269449844
0.2641064468
0.2633564858
0.2352636185
0.2265044361
0.2260121951
0.2380554707
0.223637246
0.2205229133
0.2199697116
0.2184904737
0.2167589243
0.215089216
0.2139760771
0.2137287129
0.2136668718
0.2113382129
0.2107965617
0.2067415682
0.2066991684
0.2053996392
0.2049842823
0.2046935325
0.2355752433
0.1925558518
0.1920249174
0.1894435433
0.1892157584
0.1891398301
0.1886842603
0.1885322735
0.2000830714
0.1882080399
0.1867439438
0.18550521
0.1848769588
0.1829816033
0.2122445277
0.1817446114
0.1803154596
0.2104384147
0.1756405118
0.1749408427
0.1742400495
0.1719590473
0.171344119
0.1671267327
0.1914176792
0.1657209372
0.1627336219
0.2121208456
0.1586040978
0.2136050308
0.1538595381
0.1524537427
0.1522780183
0.1510479472
0.1498178762
0.149730014
0.1483242186
0.1479727697
0.1478849075
0.1435796589
0.1421738635
0.2044858541
0.1412073791
0.1388350993
0.1561439557
0.1353206107
0.1708169457
0.1340026774
0.1335633663
0.1325090198
0.130576051
0.1294338422
0.1287293469
0.1269312876
0.1259478145
0.1461276632
0.1246831727
0.1204903914
0.1189289086
0.1421738635
0.1166858747
0.1652816262
0.1144348724
0.1139199271
0.1128393393
0.1629972086
0.1119524879
0.1113711408
0.1100009467
0.1321575709
0.1085251815
0.1066115019
0.1052072891
0.1721345571
0.1761643795
0.1140779136
0.09637033778
0.08963089943
0.1080655198
0.08755370883
0.08618400179
0.1340905396
0.190126898
0.09407841444
0.1792846043
0.1733631262
0.1690597014
0.07788765244
0.0760200929
0.07528251115
0.07444658516
0.07218312734
0.08207320599
0.2108489722
0.08005161872
0.06531951796
0.06398162713
0.06353512771
0.06214357185
0.07808421434
0.06009574354
0.07006421845
0.05909048923
0.08405344047
0.05819100868
0.1221202403
0.04882183725
0.04806288104
0.04777792325
0.04711244953
0.06408082345
0.06808934503
0.04079351633
0.03621861623
0.0343947749
0.02922733127
0.0285398936
0.02783894623
0.02741355351
0.02683941587
0.02596886213
0.02509925389
0.0245415101
0.0541048612
0.02320297014
0.02229494577
0.02140100248
0.02089446988
0.09203936993
0.1032179877
0.01937322748
0.01738308662
0.01531155663
0.01485675791
0.01379556092
0.0262606471
0.01243649438
0.01159837101
0.01082111939
0.01032791871
0.009260104828
0.03016546629
0.008448491731
0.007869827913
0.1621185864
0.005741942912
0.00561434418
0.01622115405
0.003616545163
0.0033151664
0.001205515054
0.0009041362909
)


// ************************************************************************* //
