/*--------------------------------*- C++ -*----------------------------------*\
  =========                 |
  \\      /  F ield         | OpenFOAM: The Open Source CFD Toolbox
   \\    /   O peration     | Website:  https://openfoam.org
    \\  /    A nd           | Version:  8
     \\/     M anipulation  |
\*---------------------------------------------------------------------------*/
FoamFile
{
    version     2.0;
    format      ascii;
    class       scalarField;
    location    "1.6/lagrangian/reactingCloud1";
    object      d;
}
// * * * * * * * * * * * * * * * * * * * * * * * * * * * * * * * * * * * * * //


175
(
0.0005310359174
0.0007997817868
0.0005353255337
0.0009100641606
0.0007350877718
0.0005124616566
0.000654767387
0.000564265487
0.0009390806485
0.0005077617031
0.000780769401
0.0006416952454
0.0009300251544
0.001183790247
0.0005992390148
0.001053226137
0.001060787511
0.000779943454
0.001172725626
0.0008854536592
0.0006658782366
0.0008139055021
0.000539642435
0.0005567505125
0.0009668847712
0.0006552777017
0.0009893398714
0.000532918081
0.0009083983413
0.0006566773251
0.0005133546597
0.001069276583
0.0007031527135
0.0005768353569
0.0005597324287
0.0008298895785
0.0006095798504
0.0005710412635
0.0005425666486
0.0005569937426
0.0006519435849
0.001006347372
0.0005443388326
0.0007448373929
0.0008567922815
0.0005945488598
0.0008746650717
0.000580693825
0.0005606228368
0.001079304789
0.0005571696926
0.000896175518
0.0005639158575
0.0009140200781
0.0008046219538
0.0005172473998
0.0007668429094
0.0007536711687
0.0006918466607
0.0007957128903
0.000585036642
0.0005113229253
0.0007796077272
0.000596940665
0.0006456725642
0.0008320160871
0.000793884029
0.000873309568
0.000824430909
0.001011166399
0.000849254928
0.0008933080618
0.0006174105247
0.0006793349644
0.0008891440916
0.0008057331499
0.0006706856034
0.0008870750112
0.0007665042067
0.0005841098923
0.000907589442
0.0007228588445
0.0005130289226
0.000879745235
0.0008743428549
0.000946187772
0.0005715532529
0.0007582275222
0.00066816369
0.0007072745881
0.0006199344071
0.0008468186524
0.0008964058964
0.0008943482256
0.0009326540716
0.0005685702542
0.0005421420416
0.0005756580314
0.0006589655767
0.0007002532016
0.0007838283244
0.0006684691678
0.0006538732963
0.0009726846664
0.0005125151444
0.0009729157252
0.0005910301124
0.001148234876
0.0009358129028
0.0006451751246
0.0008556227007
0.000616645247
0.0009688251891
0.0006091770153
0.0008064647163
0.0005437989691
0.0005890997639
0.0007682525413
0.001167550724
0.0006613584093
0.001129905436
0.000574495509
0.0005177523114
0.000579216514
0.0005220555772
0.0007858347835
0.001010702296
0.0005400637143
0.0005380439867
0.001111419328
0.001069276583
0.0005897284902
0.0005106728316
0.0005200112427
0.0006924538836
0.001002573067
0.0005360261967
0.0006288177801
0.0009729157252
0.0005166676594
0.0005107811307
0.0005046288517
0.0005756580314
0.0005340027821
0.0005229638781
0.0005868592809
0.0007802988997
0.0005466646223
0.0005392031251
0.0005761503261
0.0007413208878
0.0009052618574
0.000663539356
0.001136688786
0.000743927162
0.0007536054643
0.0005853897674
0.001167332609
0.0006165039966
0.0008360779192
0.0005262765102
0.0006136764289
0.0006339923465
0.0005870379264
0.0005106605981
0.0005445437915
0.0009661497865
0.0007536054643
0.0006553966735
0.0006356319491
0.000706412993
0.0007414736905
0.0006874760828
0.0006622022498
0.0005539428024
)


// ************************************************************************* //
