/*--------------------------------*- C++ -*----------------------------------*\
  =========                 |
  \\      /  F ield         | OpenFOAM: The Open Source CFD Toolbox
   \\    /   O peration     | Website:  https://openfoam.org
    \\  /    A nd           | Version:  8
     \\/     M anipulation  |
\*---------------------------------------------------------------------------*/
FoamFile
{
    version     2.0;
    format      ascii;
    class       labelField;
    location    "1.6/lagrangian/reactingCloud1";
    object      origId;
}
// * * * * * * * * * * * * * * * * * * * * * * * * * * * * * * * * * * * * * //


175
(
966
972
974
1000
1011
1012
401
1013
1018
1019
1022
1026
1028
1030
1031
1032
1039
1042
1050
1051
1054
1057
1058
406
1072
1075
1080
1082
1083
1084
1085
751
1086
1088
1090
1091
1092
1038
1093
1095
431
1098
1099
1100
1101
1102
1104
1076
1105
1108
429
1109
427
1110
1111
1112
1113
1114
1115
1116
1117
1118
1119
1120
438
1121
1122
773
1123
1103
1124
1125
1126
1127
1128
1129
1130
1131
778
1132
1133
1134
780
1135
1106
1136
1137
1138
1107
1139
1140
1141
785
1143
1144
1145
765
763
799
1146
1148
802
1149
1150
784
756
809
441
442
445
1152
1154
1155
1157
1158
815
1041
816
1159
1161
1162
1163
817
1165
821
1166
814
1167
795
1171
1172
1173
1174
825
822
1175
1176
1177
1179
1180
1181
1182
1183
1184
1185
1186
834
1187
1189
1190
1191
810
476
1192
1194
1195
1196
1197
859
1198
1199
1200
1201
1202
855
1203
1204
770
1205
1206
867
1207
1208
1209
1210
)


// ************************************************************************* //
