/*--------------------------------*- C++ -*----------------------------------*\
  =========                 |
  \\      /  F ield         | OpenFOAM: The Open Source CFD Toolbox
   \\    /   O peration     | Website:  https://openfoam.org
    \\  /    A nd           | Version:  8
     \\/     M anipulation  |
\*---------------------------------------------------------------------------*/
FoamFile
{
    version     2.0;
    format      ascii;
    class       scalarField;
    location    "1.6/lagrangian/reactingCloud1";
    object      T;
}
// * * * * * * * * * * * * * * * * * * * * * * * * * * * * * * * * * * * * * //


175
(
299.9999922
299.999984
299.9999853
299.9999928
299.9999943
299.9999992
299.9999991
299.9999991
299.9999978
299.9999978
299.9999994
299.9999987
299.9999981
299.9999991
299.9999995
299.9999994
299.9999993
299.9999982
299.9999993
299.999999
299.9999993
299.9999965
299.9999992
299.999999
299.9999783
299.999998
299.9999905
299.9999931
299.9999981
299.999996
299.999998
300
299.9999926
299.9999978
299.9999922
299.9999964
299.9999962
299.9999988
299.9999964
299.9999967
299.9999995
299.9999909
299.9999985
299.9999969
299.9999916
299.9999967
299.999991
299.999996
299.9999905
299.9999942
299.9999995
299.9999899
299.9999994
299.999998
299.9999925
299.9999877
299.9999954
299.9999903
299.9999931
299.999998
299.9999915
299.9999893
299.999998
299.9999961
299.9999984
299.9999978
299.999998
300
299.9999982
299.9999974
299.9999981
299.9999959
299.9999981
299.9999981
299.999998
299.9999944
299.9999981
299.999995
300
299.9999936
299.9999932
299.9999945
300
299.9999956
299.9999977
299.9999963
299.9999966
299.9999967
299.9999978
299.9999967
299.9999966
299.9999939
300
299.9999859
299.9999841
299.9999882
300
300
300
299.9999928
299.9999971
300
299.9999967
299.9999972
300
300
300
299.9999985
299.9999982
299.9999975
299.9999979
299.9999923
299.9999982
299.999998
299.9999944
300
299.9999989
300
299.9999933
299.9999994
299.9999988
299.9999995
300
299.9999995
300
299.9999974
300
299.9999994
300
299.9999994
299.9999968
299.9999994
299.9999994
300
300
299.9999978
299.9999947
299.999999
299.9999985
299.9999986
299.9999987
299.999999
299.9999988
299.9999988
299.9999991
299.9999988
300
299.9999988
299.9999992
299.9999988
299.9999991
300
299.9999858
299.9999989
299.999999
299.9999991
299.9999998
299.9999989
300
299.9999992
299.9999993
299.9999998
299.9999993
299.9999993
300
299.9999993
299.9999982
300
299.9999984
299.9999992
300
299.9999997
299.9999985
299.9999986
299.9999996
)


// ************************************************************************* //
