/*--------------------------------*- C++ -*----------------------------------*\
  =========                 |
  \\      /  F ield         | OpenFOAM: The Open Source CFD Toolbox
   \\    /   O peration     | Website:  https://openfoam.org
    \\  /    A nd           | Version:  8
     \\/     M anipulation  |
\*---------------------------------------------------------------------------*/
FoamFile
{
    version     2.0;
    format      ascii;
    class       volScalarField;
    location    "1/wallFilmRegion";
    object      kappa;
}
// * * * * * * * * * * * * * * * * * * * * * * * * * * * * * * * * * * * * * //

dimensions      [1 1 -3 -1 0 0 0];

internalField   nonuniform List<scalar> 
1369
(
0.608810003
0.6088100032
0.6088100031
0.6088100029
0.6088100029
0.6088100029
0.6088100029
0.6088100027
0.6088100025
0.6088100026
0.6088100026
0.6088100027
0.6088100027
0.6088100028
0.6088100029
0.6088100031
0.6088100033
0.6088100038
0.6088100043
0.6088100047
0.6088100045
0.6088100039
0.6088100043
0.6088100033
0.6088100027
0.6088100021
0.6088100016
0.6088100012
0.6088100009
0.6088100007
0.6088100005
0.6088100005
0.6088100006
0.6088100003
0.6088100001
0.6088099998
0.6088099995
0.6088099992
0.6088099992
0.6088099992
0.6088099994
0.6088099995
0.6088099996
0.6088099997
0.6088099998
0.6088099999
0.60881
0.6088100001
0.6088100001
0.6088100001
0.6088100001
0.6088100001
0.6088100001
0.6088100003
0.6088100002
0.60881
0.6088099993
0.6088099989
0.6088099998
0.6088100019
0.6088100029
0.608810003
0.6088100031
0.6088100032
0.6088100036
0.6088100045
0.6088100044
0.6088100064
0.6088100113
0.6088100147
0.6088100187
0.6088100257
0.608810031
0.6088100386
0.6088100489
0.6088100583
0.608810051
0.6088100231
0.6088100064
0.6088100019
0.6088100009
0.6088100006
0.6088100124
0.6088100078
0.6088100054
0.6088100039
0.608810003
0.6088100028
0.6088100036
0.6088100067
0.6088100137
0.6088100234
0.6088100128
0.6088100069
0.6088100034
0.6088100016
0.6088100009
0.6088100001
0.6088099999
0.6088100002
0.6088100007
0.6088100015
0.6088100025
0.6088100039
0.6088100053
0.6088100061
0.6088100058
0.6088100048
0.6088100037
0.6088100027
0.608810002
0.6088100015
0.6088100014
0.608810001
0.608809999
0.6088099977
0.6088099982
0.6088100001
0.6088100024
0.6088100029
0.6088100034
0.6088100032
0.6088100031
0.6088100032
0.608810004
0.6088100044
0.6088100039
0.6088100046
0.6088100088
0.6088100277
0.6088100371
0.6088100461
0.6088100552
0.6088100613
0.6088100593
0.6088100432
0.6088100199
0.6088100069
0.6088100023
0.6088100008
0.6088100004
0.6088100002
0.608810005
0.608810009
0.6088100056
0.6088100052
0.608810005
0.6088100043
0.6088100034
0.6088100021
0.6088099993
0.6088099924
0.6088099953
0.6088099952
0.6088099963
0.6088099968
0.6088099969
0.6088099991
0.6088100017
0.6088100021
0.6088100028
0.6088100049
0.6088100072
0.6088100099
0.6088100118
0.6088100122
0.6088100105
0.6088100083
0.6088100066
0.6088100054
0.6088100045
0.608810004
0.6088100037
0.6088100009
0.608809999
0.608809997
0.6088100008
0.6088100022
0.6088100029
0.608810003
0.6088100034
0.6088100032
0.6088100031
0.6088100032
0.6088100033
0.6088100035
0.6088100036
0.6088100038
0.6088100046
0.6088100198
0.6088100299
0.6088100439
0.6088100565
0.6088100537
0.608810035
0.6088100157
0.6088100059
0.6088100023
0.6088100009
0.6088100004
0.6088100002
0.60881
0.6088100011
0.6088100076
0.6088100053
0.6088100043
0.608810005
0.6088100054
0.6088100053
0.6088100153
0.6088100083
0.6088099938
0.6088099952
0.6088099919
0.6088099948
0.6088099922
0.608809992
0.6088099959
0.6088099999
0.6088100021
0.6088100031
0.6088100053
0.6088100087
0.6088100134
0.6088100182
0.6088100207
0.6088100192
0.6088100155
0.6088100102
0.6088100062
0.6088100043
0.6088100036
0.6088100033
0.6088100002
0.6088100005
0.6088100016
0.6088100021
0.6088100026
0.6088100025
0.6088100028
0.6088100032
0.6088100033
0.6088100032
0.6088100032
0.6088100032
0.6088100033
0.6088100034
0.6088100036
0.608810004
0.6088100133
0.6088100191
0.6088100278
0.6088100347
0.6088100299
0.6088100162
0.6088100066
0.6088100028
0.6088100012
0.6088100005
0.6088100002
0.6088100001
0.60881
0.6088100004
0.6088100017
0.6088100048
0.6088100034
0.6088100051
0.6088100066
0.6088100197
0.6088100155
0.6088100059
0.6088099937
0.6088099957
0.6088099909
0.6088099985
0.6088099913
0.608809989
0.6088099938
0.6088099965
0.6088099994
0.60881
0.6088100021
0.6088100052
0.6088100101
0.6088100153
0.6088100181
0.6088100159
0.6088100114
0.6088100059
0.6088100035
0.6088100025
0.6088100022
0.6088100022
0.6088100009
0.6088100016
0.6088100024
0.6088100024
0.6088100026
0.6088100025
0.6088100024
0.6088100031
0.6088100031
0.6088100028
0.6088100032
0.6088100033
0.6088100033
0.6088100034
0.6088100036
0.6088100041
0.6088100089
0.6088100123
0.6088100176
0.6088100211
0.6088100174
0.6088100094
0.6088100044
0.6088100022
0.6088100012
0.6088100006
0.6088100002
0.6088100001
0.60881
0.6088100004
0.6088100007
0.6088100041
0.6088100027
0.6088100065
0.6088100101
0.6088100205
0.6088100129
0.6088100025
0.6088099931
0.6088099953
0.6088099902
0.6088099996
0.6088099978
0.6088099893
0.6088099936
0.6088099953
0.608809999
0.6088099991
0.6088099998
0.6088100021
0.6088100065
0.608810012
0.6088100139
0.6088100093
0.608810006
0.6088100034
0.6088100024
0.6088100017
0.6088100014
0.6088100013
0.6088100007
0.6088100002
0.6088100019
0.6088100021
0.6088100021
0.608810001
0.608810002
0.6088100032
0.6088100034
0.6088100033
0.6088100033
0.6088100034
0.6088100038
0.6088100038
0.6088100041
0.6088100056
0.6088100061
0.6088100083
0.6088100118
0.6088100142
0.6088100125
0.6088100089
0.6088100063
0.6088100049
0.6088100044
0.6088100052
0.608810501
0.6088101713
0.6088100213
0.6088100553
0.608810045
0.608810034
0.6088100062
0.6088100125
0.6088100213
0.6088100213
0.6088100086
0.6088099981
0.6088099917
0.6088099916
0.608809995
0.6088099999
0.6088099995
0.6088099969
0.6088099965
0.6088099965
0.6088099998
0.6088099993
0.6088099991
0.6088099996
0.6088100007
0.6088100024
0.6088100045
0.6088100034
0.6088100028
0.6088100023
0.608810002
0.6088100011
0.6088100006
0.6088100005
0.6088100005
0.6088099995
0.6088100011
0.6088100015
0.6088100022
0.60881
0.6088100012
0.6088100032
0.608810003
0.608810003
0.6088100031
0.6088100033
0.6088100033
0.6088100031
0.608810003
0.6088100041
0.6088100046
0.608810006
0.6088100082
0.6088100103
0.6088100096
0.6088100068
0.6088100048
0.6088100038
0.6088100036
0.6088100045
0.6088103023
0.6088101262
0.6088100556
0.6088100564
0.6088100381
0.6088100292
0.6088100225
0.6088100245
0.6088100318
0.6088100156
0.6088100023
0.6088099935
0.6088099901
0.6088099936
0.6088099999
0.60881
0.6088099998
0.6088099995
0.6088099992
0.6088099992
0.6088100008
0.6088100005
0.6088099997
0.6088099997
0.6088100004
0.6088100018
0.6088100018
0.6088100018
0.6088100019
0.6088100019
0.6088100018
0.6088100004
0.6088099996
0.6088099996
0.6088099998
0.6088100006
0.6088099998
0.6088099987
0.6088099995
0.6088099995
0.6088100002
0.608810003
0.6088100017
0.6088100016
0.6088100016
0.6088100017
0.6088100017
0.6088100018
0.6088100021
0.6088100034
0.6088100038
0.6088100047
0.608810006
0.6088100075
0.6088100081
0.6088100059
0.6088100041
0.6088100033
0.6088100032
0.6088100045
0.6088101277
0.6088100972
0.6088100696
0.6088100426
0.60881003
0.6088100215
0.6088100205
0.6088100248
0.6088100391
0.6088100041
0.6088099968
0.6088099904
0.6088099883
0.6088099897
0.6088100064
0.6088099999
0.6088099891
0.6088099914
0.6088100044
0.6088100078
0.6088100119
0.608810014
0.6088100003
0.6088100002
0.6088100004
0.6088100006
0.6088100008
0.6088100012
0.6088100016
0.6088100019
0.6088100018
0.6088099996
0.6088099987
0.6088099989
0.6088099993
0.6088099997
0.6088099999
0.6088099997
0.6088099993
0.6088099987
0.6088099998
0.608810003
0.6088100012
0.6088100011
0.6088100011
0.6088100011
0.6088100012
0.6088100012
0.6088100016
0.608810003
0.6088100033
0.608810004
0.6088100045
0.6088100053
0.6088100064
0.6088100052
0.6088100035
0.6088100029
0.608810003
0.6088100047
0.6088101228
0.6088100949
0.6088100606
0.6088100384
0.6088100245
0.6088100164
0.6088100181
0.6088100192
0.6088100446
0.6088099968
0.6088099933
0.6088099887
0.6088099874
0.6088099898
0.6088099987
0.6088099997
0.608809984
0.6088099931
0.6088100251
0.608810041
0.6088100134
0.6088100146
0.608810005
0.6088100023
0.6088100009
0.6088099993
0.60881
0.6088100013
0.6088100022
0.6088100025
0.6088100022
0.6088099993
0.6088099987
0.608809999
0.6088099992
0.6088099994
0.6088099997
0.6088099998
0.6088099999
0.6088099997
0.6088100002
0.6088100029
0.608810001
0.6088100009
0.6088100008
0.6088100008
0.6088100008
0.6088100009
0.6088100012
0.6088100027
0.608810003
0.6088100035
0.6088100037
0.6088100038
0.6088100042
0.6088100039
0.608810003
0.6088100026
0.6088100029
0.6088100044
0.6088101562
0.6088100959
0.6088100541
0.608810034
0.6088100213
0.6088100146
0.6088100156
0.6088100042
0.6088100425
0.6088099938
0.6088099916
0.6088099882
0.6088099869
0.6088099898
0.6088099922
0.6088099951
0.6088099824
0.6088099976
0.6088100314
0.6088100316
0.6088100045
0.6088100087
0.6088100016
0.6088099989
0.6088099978
0.6088099968
0.6088099993
0.6088100013
0.6088100043
0.6088100039
0.6088100023
0.60881
0.6088099996
0.6088099998
0.6088099995
0.6088099993
0.6088099995
0.6088099996
0.6088099997
0.6088099997
0.60881
0.6088100028
0.6088100008
0.6088100007
0.6088100006
0.6088100006
0.6088100006
0.6088100007
0.6088100009
0.6088100023
0.6088100024
0.6088100028
0.6088100034
0.608810003
0.6088100028
0.6088100027
0.6088100024
0.6088100023
0.608810003
0.6088100041
0.608810183
0.6088100972
0.6088100531
0.6088100338
0.6088100217
0.6088100171
0.6088100044
0.6088099951
0.6088100597
0.6088099933
0.608809992
0.6088099893
0.6088099869
0.6088099891
0.6088099987
0.6088099853
0.6088099819
0.6088099988
0.6088099986
0.6088099974
0.6088099985
0.608810003
0.6088099987
0.6088099963
0.6088099955
0.6088099956
0.608809999
0.6088100005
0.6088100021
0.6088100029
0.6088100018
0.6088100006
0.6088100006
0.6088100008
0.6088099997
0.6088099993
0.6088099995
0.6088099993
0.6088099994
0.6088099996
0.6088099999
0.6088100008
0.608810002
0.6088100018
0.6088100022
0.608810003
0.6088100024
0.6088100022
0.608810002
0.6088100019
0.6088100022
0.6088100031
0.6088100042
0.6088100408
0.6088100218
0.6088100102
0.6088100031
0.6088099986
0.608809996
0.6088099937
0.6088099928
0.6088099938
0.6088099967
0.6088099957
0.6088099923
0.6088099891
0.6088099879
0.6088099974
0.6088099925
0.6088099845
0.6088099954
0.6088099968
0.6088099957
0.6088099965
0.6088099969
0.6088099959
0.6088099938
0.6088099931
0.6088099944
0.6088099983
0.6088099991
0.6088099992
0.6088100006
0.608810001
0.6088100004
0.6088100006
0.6088100014
0.6088100002
0.6088099998
0.6088099999
0.6088099992
0.6088099992
0.6088099994
0.6088100002
0.6088100025
0.6088100019
0.6088100017
0.6088100015
0.6088100016
0.6088100023
0.6088100033
0.6088100036
0.6088100035
0.6088100028
0.6088100009
0.6088099954
0.6088099946
0.608809994
0.608809993
0.6088099933
0.6088099988
0.6088100075
0.6088100001
0.6088099937
0.608809991
0.608809989
0.6088099917
0.6088099931
0.6088099914
0.6088099955
0.6088099932
0.6088099883
0.608809987
0.6088099864
0.6088099866
0.6088099876
0.60880999
0.6088099931
0.608809997
0.6088099975
0.6088099971
0.6088099982
0.6088099999
0.6088100003
0.6088100008
0.6088100045
0.608810003
0.608810002
0.6088100011
0.6088099994
0.6088099993
0.6088099994
0.6088100007
0.6088100012
0.608810001
0.6088100012
0.6088100031
0.6088100047
0.6088100064
0.6088100041
0.6088100027
0.6088100024
0.6088100008
0.608809998
0.6088099981
0.6088100009
0.6088100064
0.6088100082
0.6088100086
0.6088099993
0.6088099937
0.6088099923
0.6088099923
0.6088099928
0.6088099926
0.6088099936
0.6088099901
0.6088099866
0.608809985
0.6088099848
0.6088099851
0.6088099859
0.6088099875
0.6088099902
0.6088099928
0.608809995
0.6088099955
0.6088099956
0.6088099964
0.6088099984
0.6088100001
0.6088100013
0.608810006
0.6088100057
0.6088100037
0.6088100014
0.6088100001
0.6088099998
0.6088100001
0.6088100014
0.6088100048
0.608810006
0.6088100023
0.6088100007
0.6088099998
0.6088100015
0.6088099989
0.6088099981
0.608810002
0.6088100066
0.6088100059
0.6088100053
0.6088099972
0.6088099942
0.6088099938
0.6088099936
0.6088099931
0.6088099919
0.6088099903
0.6088099872
0.6088099871
0.6088099852
0.6088099851
0.6088099855
0.6088099866
0.6088099886
0.6088099913
0.6088099929
0.6088099937
0.6088099941
0.6088099943
0.6088099951
0.6088099961
0.6088099975
0.6088099992
0.6088100002
0.6088100005
0.6088100003
0.6088099997
0.6088099993
0.6088099999
0.6088100003
0.6088100014
0.6088099991
0.6088099992
0.608809999
0.6088099991
0.6088099977
0.6088099987
0.6088100036
0.6088100032
0.6088100015
0.608810001
0.6088099993
0.6088099949
0.6088099944
0.6088099943
0.6088099932
0.6088099919
0.6088099905
0.6088099885
0.6088099873
0.6088099854
0.6088099866
0.6088099877
0.6088099901
0.6088099928
0.6088099936
0.6088099933
0.6088099934
0.6088099935
0.6088099937
0.6088099945
0.6088099959
0.6088099976
0.6088099987
0.6088099988
0.6088099992
0.6088099993
0.608809999
0.6088099989
0.6088099996
0.6088100002
0.6088100014
0.6088099972
0.6088100036
0.6088100023
0.6088099991
0.6088099969
0.6088099958
0.6088099972
0.6088099979
0.6088099968
0.6088099961
0.6088099949
0.6088099938
0.608809993
0.6088099925
0.6088099889
0.6088099864
0.6088100039
0.6088099999
0.6088100022
0.6088099997
0.608809995
0.6088099933
0.6088099931
0.6088099931
0.6088099932
0.608809994
0.6088099953
0.6088099965
0.6088099973
0.6088099984
0.608809999
0.6088099993
0.6088099995
0.6088099998
0.6088100004
0.6088100009
0.6088100015
0.608809998
0.6088099952
0.6088099932
0.6088099919
0.6088099925
0.6088099955
0.6088099957
0.6088099962
0.6088099952
0.608809994
0.6088099931
0.6088099919
0.6088099891
0.6088099858
0.6088099968
0.6088099967
0.6088099987
0.6088099972
0.6088099944
0.6088099932
0.608809993
0.608809993
0.608809993
0.6088099935
0.6088099945
0.6088099963
0.6088099975
0.6088099987
0.6088099994
0.6088099997
0.60881
0.6088100003
0.6088100008
0.6088100012
0.6088100017
0.6088099924
0.6088099903
0.608809988
0.608809986
0.6088099922
0.6088099915
0.6088099969
0.6088099957
0.6088099946
0.6088099941
0.608809992
0.608809989
0.6088099856
0.608809993
0.6088099949
0.608809997
0.6088099962
0.6088099946
0.6088099937
0.6088099935
0.6088099933
0.6088099931
0.6088099935
0.6088099946
0.608809997
0.6088099985
0.6088099994
0.6088099998
0.60881
0.6088100002
0.6088100006
0.6088100009
0.6088100013
0.6088100019
0.6088099884
0.6088099875
0.6088099851
0.6088099832
0.6088099991
0.6088099935
0.6088099963
0.6088099965
0.6088099952
0.6088099958
0.6088099936
0.608809992
0.6088099858
0.6088099916
0.6088099942
0.6088099962
0.6088099959
0.6088099951
0.6088099948
0.6088099949
0.6088099945
0.6088099939
0.6088099939
0.6088099949
0.6088099978
0.6088099989
0.6088100001
0.6088100002
0.6088100002
0.6088100004
0.6088100007
0.6088100009
0.6088100012
0.6088100022
0.6088099878
0.6088099891
0.6088099879
0.6088099946
0.6088099938
0.6088099941
0.6088099961
0.6088099949
0.6088099955
0.6088099937
0.6088099942
0.608809992
0.6088099937
0.6088099949
0.6088099964
0.6088099962
0.608809996
0.6088099964
0.6088099974
0.6088099975
0.6088099963
0.6088099955
0.6088099959
0.608809997
0.6088099982
0.6088099989
0.6088099997
0.6088100003
0.6088100008
0.6088100013
0.6088100005
0.6088100009
0.6088100024
0.6088099908
0.608809991
0.6088099914
0.6088099917
0.6088099919
0.6088099916
0.6088099937
0.6088099928
0.608809996
0.6088099927
0.6088099941
0.6088099963
0.6088099966
0.6088099968
0.6088099976
0.6088099972
0.6088099976
0.6088099987
0.6088099998
0.6088100006
0.6088099997
0.608809998
0.6088099978
0.6088099984
0.608809999
0.6088099995
0.6088099999
0.6088100003
0.6088100006
0.608810001
0.6088099999
0.6088100005
0.6088100024
0.608809993
0.6088099918
0.6088099917
0.6088099924
0.6088099927
0.6088099922
0.6088099948
0.6088099934
0.6088099972
0.6088099913
0.6088099953
0.6088099951
0.6088099976
0.6088100014
0.6088100013
0.6088099996
0.6088099997
0.6088100008
0.6088100019
0.6088100023
0.6088100015
0.6088099992
0.6088099984
0.6088099986
0.608809999
0.6088099996
0.6088099999
0.6088100001
0.6088100003
0.6088100007
0.6088100002
0.608810001
0.6088100024
0.6088099931
0.6088099925
0.6088099935
0.6088099957
0.6088099929
0.6088099953
0.6088099941
0.6088099982
0.6088099956
0.6088099969
0.6088099953
0.6088099957
0.608810003
0.6088100035
0.6088100017
0.6088100016
0.6088100023
0.6088100028
0.6088100028
0.6088100027
0.6088100029
0.6088100027
0.6088100018
0.6088100008
0.6088100001
0.6088100001
0.6088100003
0.6088100005
0.6088100009
0.6088100014
0.6088100021
0.6088100024
0.608809993
0.6088099938
0.608809998
0.6088099939
0.6088099961
0.6088099959
0.6088099977
0.6088099978
0.6088099963
0.608809999
0.6088100038
0.6088100083
0.6088100034
0.608810002
0.6088100023
0.6088100034
0.6088100039
0.6088100033
0.6088100027
0.6088100024
0.6088100016
0.6088100005
0.6088099996
0.6088099993
0.6088099996
0.6088100002
0.608810001
0.6088100016
0.6088100021
0.6088100024
0.6088100023
0.6088099934
0.6088099941
0.6088099937
0.6088099956
0.6088099987
0.6088099979
0.6088099973
0.6088099956
0.6088099949
0.6088099967
0.6088100136
0.6088100068
0.6088100033
0.6088100027
0.6088100034
0.608810005
0.6088100062
0.608810005
0.6088100032
0.6088100021
0.608810001
0.6088099998
0.6088099989
0.6088099985
0.6088099991
0.6088100002
0.6088100013
0.6088100019
0.6088100023
0.6088100024
0.6088100022
0.6088099972
0.6088099939
0.6088099906
0.6088099965
0.6088100006
0.6088099987
0.6088099986
0.6088099961
0.6088099953
0.608809997
0.60881003
0.6088100059
0.6088100036
0.6088100034
0.6088100042
0.6088100059
0.6088100082
0.6088100087
0.6088100056
0.608810003
0.6088100018
0.6088100013
0.6088100009
0.6088100008
0.6088100011
0.6088100017
0.6088100022
0.6088100024
0.6088100024
0.6088100024
0.6088100021
0.6088099985
0.6088099994
0.6088099967
0.6088099962
0.6088099993
0.6088100496
0.6088100052
0.6088100035
0.6088100033
0.6088100039
0.6088100052
0.6088100075
0.608810011
0.6088100147
0.6088100156
0.6088100136
0.6088100116
0.6088100105
0.6088100102
0.6088100091
0.6088100065
0.6088100039
0.6088100027
0.6088100023
0.6088100022
0.608810002
0.6088099945
0.608809999
0.6088099971
0.6088099961
0.6088100036
0.6088100545
0.6088100041
0.608810003
0.6088100029
0.6088100033
0.6088100042
0.6088100058
0.6088100084
0.6088100122
0.6088100161
0.6088100178
0.6088100169
0.6088100151
0.6088100139
0.6088100112
0.6088100071
0.6088100038
0.6088100024
0.6088100021
0.608810002
0.6088100019
)
;

boundaryField
{
    walls
    {
        type            zeroGradient;
    }
    wallFilmFace_top
    {
        type            zeroGradient;
    }
    region0_to_wallFilmRegion_wallFilmFace
    {
        type            zeroGradient;
    }
    mirrorFace_top
    {
        type            zeroGradient;
    }
    region0_to_wallFilmRegion_mirrorFace
    {
        type            zeroGradient;
    }
    procBoundary0to1
    {
        type            processor;
        value           nonuniform List<scalar> 
52
(
0.6088100027
0.6088100006
0.6088100005
0.6088100005
0.6088100005
0.6088100005
0.6088100006
0.6088100006
0.6088100011
0.6088100021
0.6088100016
0.6088100018
0.6088100018
0.608810002
0.6088100015
0.6088100015
0.6088100009
0.6088100008
0.608810001
0.6088100038
0.6088100038
0.6088100039
0.6088100031
0.6088100031
0.6088099966
0.608809998
0.6088099984
0.6088099978
0.6088099978
0.6088099967
0.6088100035
0.6088100035
0.6088099944
0.6088099944
0.6088099918
0.608809987
0.608809987
0.6088099902
0.6088099935
0.6088099943
0.6088099943
0.6088099936
0.6088099936
0.6088099941
0.6088099949
0.6088100005
0.6088099957
0.6088099891
0.608810004
0.6088100247
0.6088100247
0.6088099923
)
;
    }
    procBoundary0to2
    {
        type            processor;
        value           nonuniform List<scalar> 
26
(
0.6088099943
0.6088099987
0.6088099974
0.6088099967
0.6088100088
0.6088100368
0.6088100025
0.6088100024
0.6088100026
0.6088100029
0.6088100036
0.6088100048
0.6088100067
0.6088100096
0.6088100134
0.6088100168
0.6088100177
0.608810016
0.6088100139
0.6088100112
0.6088100074
0.6088100039
0.6088100024
0.6088100019
0.6088100019
0.6088100019
)
;
    }
}


// ************************************************************************* //
