/*--------------------------------*- C++ -*----------------------------------*\
  =========                 |
  \\      /  F ield         | OpenFOAM: The Open Source CFD Toolbox
   \\    /   O peration     | Website:  https://openfoam.org
    \\  /    A nd           | Version:  8
     \\/     M anipulation  |
\*---------------------------------------------------------------------------*/
FoamFile
{
    version     2.0;
    format      ascii;
    class       volScalarField;
    location    "1/wallFilmRegion";
    object      sigma;
}
// * * * * * * * * * * * * * * * * * * * * * * * * * * * * * * * * * * * * * //

dimensions      [1 0 -2 0 0 0 0];

internalField   nonuniform List<scalar> 
1369
(
0.07244713439
0.07244713436
0.07244713438
0.0724471344
0.07244713441
0.0724471344
0.0724471344
0.07244713443
0.07244713446
0.07244713445
0.07244713444
0.07244713443
0.07244713443
0.07244713442
0.0724471344
0.07244713438
0.07244713434
0.07244713427
0.0724471342
0.07244713415
0.07244713417
0.07244713425
0.0724471342
0.07244713434
0.07244713444
0.07244713452
0.07244713459
0.07244713465
0.07244713469
0.07244713472
0.07244713475
0.07244713475
0.07244713474
0.07244713478
0.07244713481
0.07244713485
0.0724471349
0.07244713494
0.07244713495
0.07244713493
0.07244713491
0.0724471349
0.07244713489
0.07244713487
0.07244713486
0.07244713484
0.07244713482
0.07244713481
0.07244713481
0.07244713481
0.07244713481
0.07244713481
0.07244713481
0.07244713479
0.07244713479
0.07244713482
0.07244713493
0.07244713498
0.07244713485
0.07244713454
0.0724471344
0.07244713439
0.07244713438
0.07244713437
0.0724471343
0.07244713416
0.07244713419
0.07244713389
0.07244713319
0.07244713269
0.07244713211
0.0724471311
0.07244713033
0.07244712923
0.07244712774
0.07244712638
0.07244712743
0.07244713148
0.0724471339
0.07244713455
0.07244713469
0.07244713473
0.07244713303
0.07244713369
0.07244713404
0.07244713426
0.07244713439
0.07244713442
0.0724471343
0.07244713385
0.07244713284
0.07244713144
0.07244713297
0.07244713382
0.07244713433
0.07244713459
0.07244713469
0.07244713481
0.07244713483
0.07244713479
0.07244713472
0.07244713461
0.07244713446
0.07244713426
0.07244713405
0.07244713394
0.07244713398
0.07244713412
0.07244713429
0.07244713443
0.07244713454
0.0724471346
0.07244713462
0.07244713468
0.07244713497
0.07244713516
0.07244713508
0.07244713481
0.07244713447
0.0724471344
0.07244713432
0.07244713437
0.07244713437
0.07244713436
0.07244713424
0.07244713419
0.07244713426
0.07244713415
0.07244713355
0.07244713081
0.07244712944
0.07244712814
0.07244712682
0.07244712593
0.07244712622
0.07244712857
0.07244713195
0.07244713383
0.0724471345
0.0724471347
0.07244713477
0.0724471348
0.0724471341
0.07244713352
0.07244713401
0.07244713407
0.07244713411
0.07244713421
0.07244713433
0.07244713451
0.07244713493
0.07244713592
0.0724471355
0.07244713552
0.07244713535
0.07244713529
0.07244713528
0.07244713495
0.07244713458
0.07244713451
0.07244713441
0.07244713411
0.07244713377
0.07244713339
0.07244713311
0.07244713306
0.0724471333
0.07244713362
0.07244713386
0.07244713404
0.07244713417
0.07244713424
0.07244713428
0.0724471347
0.07244713498
0.07244713526
0.07244713471
0.07244713451
0.0724471344
0.07244713438
0.07244713433
0.07244713436
0.07244713437
0.07244713436
0.07244713434
0.07244713432
0.07244713431
0.07244713427
0.07244713416
0.07244713196
0.07244713049
0.07244712847
0.07244712663
0.07244712704
0.07244712975
0.07244713255
0.07244713396
0.07244713449
0.07244713469
0.07244713477
0.0724471348
0.07244713482
0.07244713466
0.07244713373
0.07244713406
0.07244713421
0.0724471341
0.07244713404
0.07244713406
0.0724471326
0.07244713363
0.07244713573
0.07244713552
0.07244713599
0.07244713558
0.07244713596
0.07244713598
0.07244713541
0.07244713483
0.07244713452
0.07244713437
0.07244713405
0.07244713357
0.07244713289
0.07244713219
0.07244713183
0.07244713204
0.07244713257
0.07244713335
0.07244713393
0.0724471342
0.0724471343
0.07244713434
0.07244713479
0.07244713475
0.07244713458
0.07244713452
0.07244713444
0.07244713445
0.07244713442
0.07244713436
0.07244713435
0.07244713437
0.07244713436
0.07244713436
0.07244713434
0.07244713433
0.0724471343
0.07244713424
0.0724471329
0.07244713205
0.07244713079
0.07244712979
0.07244713049
0.07244713247
0.07244713387
0.07244713442
0.07244713465
0.07244713475
0.0724471348
0.07244713482
0.07244713483
0.07244713477
0.07244713458
0.07244713413
0.07244713433
0.07244713408
0.07244713387
0.07244713197
0.07244713257
0.07244713397
0.07244713574
0.07244713544
0.07244713614
0.07244713504
0.07244713608
0.07244713642
0.07244713572
0.07244713533
0.07244713491
0.07244713482
0.07244713452
0.07244713406
0.07244713336
0.0724471326
0.07244713221
0.07244713252
0.07244713317
0.07244713397
0.07244713432
0.07244713446
0.0724471345
0.07244713451
0.07244713469
0.07244713459
0.07244713448
0.07244713447
0.07244713444
0.07244713447
0.07244713447
0.07244713438
0.07244713438
0.07244713442
0.07244713436
0.07244713435
0.07244713434
0.07244713433
0.0724471343
0.07244713423
0.07244713353
0.07244713304
0.07244713227
0.07244713176
0.0724471323
0.07244713346
0.07244713418
0.0724471345
0.07244713465
0.07244713474
0.0724471348
0.07244713481
0.07244713483
0.07244713477
0.07244713473
0.07244713423
0.07244713444
0.07244713389
0.07244713337
0.07244713185
0.07244713296
0.07244713447
0.07244713582
0.0724471355
0.07244713625
0.07244713488
0.07244713515
0.07244713637
0.07244713576
0.07244713551
0.07244713497
0.07244713496
0.07244713486
0.07244713452
0.07244713388
0.07244713309
0.07244713281
0.07244713347
0.07244713396
0.07244713434
0.07244713447
0.07244713458
0.07244713462
0.07244713463
0.07244713473
0.0724471348
0.07244713455
0.07244713452
0.07244713452
0.07244713467
0.07244713454
0.07244713436
0.07244713433
0.07244713435
0.07244713435
0.07244713433
0.07244713428
0.07244713427
0.07244713423
0.07244713402
0.07244713394
0.07244713362
0.07244713312
0.07244713276
0.07244713301
0.07244713354
0.07244713391
0.07244713412
0.07244713419
0.07244713407
0.07244706219
0.07244710999
0.07244713174
0.07244712681
0.07244712829
0.07244712989
0.07244713393
0.07244713301
0.07244713174
0.07244713174
0.07244713358
0.0724471351
0.07244713603
0.07244713604
0.07244713555
0.07244713484
0.0724471349
0.07244713527
0.07244713533
0.07244713533
0.07244713485
0.07244713492
0.07244713495
0.07244713489
0.07244713472
0.07244713448
0.07244713417
0.07244713433
0.07244713441
0.07244713449
0.07244713454
0.07244713467
0.07244713474
0.07244713475
0.07244713474
0.0724471349
0.07244713467
0.07244713461
0.07244713451
0.07244713483
0.07244713465
0.07244713436
0.07244713439
0.07244713438
0.07244713437
0.07244713435
0.07244713435
0.07244713437
0.07244713439
0.07244713423
0.07244713416
0.07244713395
0.07244713364
0.07244713333
0.07244713343
0.07244713384
0.07244713412
0.07244713427
0.0724471343
0.07244713416
0.072447091
0.07244711653
0.07244712676
0.07244712665
0.0724471293
0.07244713059
0.07244713156
0.07244713127
0.07244713022
0.07244713256
0.07244713449
0.07244713577
0.07244713625
0.07244713575
0.07244713483
0.07244713483
0.07244713485
0.0724471349
0.07244713494
0.07244713493
0.07244713471
0.07244713475
0.07244713487
0.07244713487
0.07244713477
0.07244713457
0.07244713457
0.07244713457
0.07244713455
0.07244713455
0.07244713457
0.07244713476
0.07244713488
0.07244713489
0.07244713485
0.07244713474
0.07244713485
0.07244713502
0.07244713489
0.0724471349
0.07244713479
0.07244713438
0.07244713458
0.0724471346
0.07244713459
0.07244713458
0.07244713457
0.07244713456
0.07244713452
0.07244713434
0.07244713428
0.07244713414
0.07244713396
0.07244713373
0.07244713365
0.07244713397
0.07244713423
0.07244713435
0.07244713436
0.07244713417
0.07244711632
0.07244712073
0.07244712474
0.07244712864
0.07244713048
0.07244713171
0.07244713185
0.07244713123
0.07244712916
0.07244713422
0.07244713528
0.07244713622
0.07244713652
0.07244713632
0.0724471339
0.07244713483
0.0724471364
0.07244713608
0.07244713418
0.0724471337
0.0724471331
0.0724471328
0.07244713478
0.0724471348
0.07244713477
0.07244713474
0.0724471347
0.07244713465
0.07244713459
0.07244713456
0.07244713456
0.07244713488
0.07244713501
0.07244713498
0.07244713493
0.07244713486
0.07244713484
0.07244713487
0.07244713493
0.07244713501
0.07244713485
0.07244713439
0.07244713465
0.07244713466
0.07244713466
0.07244713466
0.07244713466
0.07244713464
0.07244713459
0.07244713439
0.07244713434
0.07244713425
0.07244713417
0.07244713405
0.07244713389
0.07244713407
0.07244713431
0.07244713441
0.07244713439
0.07244713414
0.07244711702
0.07244712107
0.07244712604
0.07244712925
0.07244713128
0.07244713244
0.0724471322
0.07244713204
0.07244712836
0.07244713529
0.0724471358
0.07244713646
0.07244713666
0.0724471363
0.07244713501
0.07244713486
0.07244713715
0.07244713583
0.07244713118
0.07244712888
0.07244713288
0.07244713271
0.07244713411
0.07244713449
0.07244713469
0.07244713493
0.07244713483
0.07244713464
0.0724471345
0.07244713446
0.07244713451
0.07244713493
0.07244713502
0.07244713497
0.07244713494
0.07244713491
0.07244713487
0.07244713485
0.07244713483
0.07244713487
0.07244713479
0.07244713441
0.07244713468
0.0724471347
0.0724471347
0.07244713471
0.07244713471
0.07244713469
0.07244713465
0.07244713443
0.07244713439
0.07244713432
0.07244713428
0.07244713428
0.07244713422
0.07244713425
0.07244713439
0.07244713445
0.07244713441
0.07244713419
0.07244711217
0.07244712093
0.07244712698
0.07244712989
0.07244713174
0.0724471327
0.07244713257
0.07244713421
0.07244712866
0.07244713572
0.07244713604
0.07244713653
0.07244713673
0.07244713631
0.07244713596
0.07244713553
0.07244713738
0.07244713518
0.07244713026
0.07244713025
0.07244713417
0.07244713357
0.07244713459
0.07244713499
0.07244713514
0.07244713528
0.07244713492
0.07244713463
0.0724471342
0.07244713426
0.07244713449
0.07244713483
0.07244713488
0.07244713485
0.0724471349
0.07244713492
0.0724471349
0.07244713489
0.07244713486
0.07244713486
0.07244713483
0.07244713442
0.07244713471
0.07244713473
0.07244713473
0.07244713474
0.07244713474
0.07244713473
0.07244713469
0.07244713449
0.07244713447
0.07244713441
0.07244713433
0.07244713439
0.07244713441
0.07244713443
0.07244713447
0.07244713448
0.07244713439
0.07244713422
0.07244710829
0.07244712074
0.07244712712
0.07244712992
0.07244713167
0.07244713234
0.07244713418
0.07244713554
0.07244712617
0.07244713579
0.07244713598
0.07244713637
0.07244713672
0.0724471364
0.07244713501
0.07244713695
0.07244713744
0.072447135
0.07244713503
0.0724471352
0.07244713505
0.0724471344
0.07244713501
0.07244713536
0.07244713548
0.07244713547
0.07244713497
0.07244713475
0.07244713452
0.07244713441
0.07244713456
0.07244713474
0.07244713474
0.0724471347
0.07244713486
0.07244713492
0.0724471349
0.07244713492
0.07244713491
0.07244713488
0.07244713484
0.0724471347
0.07244713454
0.07244713456
0.07244713451
0.07244713439
0.07244713447
0.07244713451
0.07244713453
0.07244713454
0.0724471345
0.07244713437
0.07244713421
0.07244712891
0.07244713167
0.07244713334
0.07244713438
0.07244713503
0.0724471354
0.07244713573
0.07244713587
0.07244713572
0.0724471353
0.07244713545
0.07244713593
0.0724471364
0.07244713657
0.0724471352
0.07244713591
0.07244713707
0.0724471355
0.07244713528
0.07244713544
0.07244713533
0.07244713527
0.07244713541
0.07244713572
0.07244713582
0.07244713564
0.07244713507
0.07244713495
0.07244713494
0.07244713474
0.07244713468
0.07244713477
0.07244713474
0.07244713462
0.0724471348
0.07244713485
0.07244713484
0.07244713494
0.07244713494
0.07244713492
0.07244713479
0.07244713447
0.07244713455
0.07244713458
0.0724471346
0.0724471346
0.07244713449
0.07244713434
0.0724471343
0.07244713432
0.07244713442
0.07244713469
0.07244713548
0.0724471356
0.07244713569
0.07244713584
0.0724471358
0.072447135
0.07244713374
0.0724471348
0.07244713574
0.07244713613
0.07244713642
0.07244713603
0.07244713583
0.07244713607
0.07244713548
0.07244713581
0.07244713651
0.07244713671
0.07244713679
0.07244713676
0.07244713661
0.07244713627
0.07244713582
0.07244713525
0.07244713519
0.07244713524
0.07244713508
0.07244713484
0.07244713478
0.07244713471
0.07244713417
0.07244713439
0.07244713454
0.07244713467
0.07244713491
0.07244713492
0.07244713492
0.07244713472
0.07244713465
0.07244713467
0.07244713465
0.07244713438
0.07244713415
0.0724471339
0.07244713423
0.07244713443
0.07244713447
0.0724471347
0.07244713511
0.0724471351
0.07244713469
0.07244713389
0.07244713364
0.07244713357
0.07244713493
0.07244713573
0.07244713594
0.07244713593
0.07244713587
0.0724471359
0.07244713576
0.07244713626
0.07244713677
0.072447137
0.07244713702
0.07244713698
0.07244713686
0.07244713664
0.07244713624
0.07244713587
0.07244713555
0.07244713547
0.07244713547
0.07244713535
0.07244713506
0.07244713481
0.07244713463
0.07244713395
0.072447134
0.07244713429
0.07244713461
0.07244713481
0.07244713485
0.07244713481
0.07244713462
0.07244713412
0.07244713395
0.0724471345
0.07244713472
0.07244713485
0.0724471346
0.07244713498
0.07244713509
0.07244713453
0.07244713387
0.07244713397
0.07244713405
0.07244713523
0.07244713566
0.07244713573
0.07244713575
0.07244713583
0.072447136
0.07244713624
0.07244713667
0.0724471367
0.07244713697
0.07244713698
0.07244713693
0.07244713677
0.07244713648
0.07244713609
0.07244713585
0.07244713574
0.07244713568
0.07244713565
0.07244713554
0.07244713538
0.07244713518
0.07244713493
0.0724471348
0.07244713475
0.07244713478
0.07244713486
0.07244713493
0.07244713484
0.07244713478
0.07244713462
0.07244713496
0.07244713494
0.07244713497
0.07244713496
0.07244713515
0.07244713501
0.0724471343
0.07244713437
0.07244713461
0.07244713468
0.07244713493
0.07244713557
0.07244713563
0.07244713565
0.07244713581
0.072447136
0.0724471362
0.0724471365
0.07244713666
0.07244713694
0.07244713677
0.07244713661
0.07244713626
0.07244713586
0.07244713574
0.07244713579
0.07244713578
0.07244713576
0.07244713574
0.07244713562
0.07244713541
0.07244713517
0.07244713501
0.07244713499
0.07244713495
0.07244713493
0.07244713497
0.07244713498
0.07244713489
0.0724471348
0.07244713462
0.07244713522
0.0724471343
0.07244713449
0.07244713496
0.07244713527
0.07244713544
0.07244713523
0.07244713513
0.07244713528
0.07244713539
0.07244713556
0.07244713573
0.07244713584
0.07244713591
0.07244713644
0.07244713679
0.07244713425
0.07244713484
0.07244713451
0.07244713487
0.07244713555
0.07244713579
0.07244713582
0.07244713582
0.0724471358
0.07244713569
0.07244713551
0.07244713534
0.07244713522
0.07244713505
0.07244713497
0.07244713493
0.0724471349
0.07244713485
0.07244713476
0.07244713469
0.0724471346
0.07244713512
0.07244713552
0.07244713581
0.07244713599
0.07244713591
0.07244713548
0.07244713544
0.07244713537
0.07244713552
0.07244713569
0.07244713582
0.072447136
0.07244713641
0.07244713688
0.07244713529
0.0724471353
0.07244713501
0.07244713523
0.07244713564
0.07244713581
0.07244713583
0.07244713584
0.07244713583
0.07244713577
0.07244713561
0.07244713536
0.07244713519
0.07244713501
0.07244713491
0.07244713487
0.07244713483
0.07244713477
0.07244713471
0.07244713465
0.07244713458
0.07244713593
0.07244713623
0.07244713656
0.07244713686
0.07244713595
0.07244713605
0.07244713528
0.07244713545
0.07244713561
0.07244713568
0.07244713598
0.07244713642
0.07244713692
0.07244713584
0.07244713556
0.07244713526
0.07244713538
0.07244713561
0.07244713574
0.07244713576
0.0724471358
0.07244713582
0.07244713577
0.07244713561
0.07244713526
0.07244713504
0.07244713491
0.07244713485
0.07244713482
0.07244713479
0.07244713474
0.07244713469
0.07244713464
0.07244713454
0.0724471365
0.07244713664
0.07244713698
0.07244713726
0.07244713495
0.07244713577
0.07244713536
0.07244713533
0.07244713552
0.07244713543
0.07244713575
0.07244713598
0.07244713688
0.07244713604
0.07244713566
0.07244713537
0.07244713542
0.07244713553
0.07244713558
0.07244713556
0.07244713562
0.07244713571
0.0724471357
0.07244713557
0.07244713515
0.07244713498
0.07244713481
0.07244713479
0.07244713479
0.07244713477
0.07244713473
0.0724471347
0.07244713466
0.07244713451
0.07244713659
0.0724471364
0.07244713658
0.0724471356
0.07244713572
0.07244713568
0.0724471354
0.07244713557
0.07244713548
0.07244713573
0.07244713566
0.07244713599
0.07244713573
0.07244713556
0.07244713535
0.07244713538
0.0724471354
0.07244713534
0.0724471352
0.07244713518
0.07244713536
0.07244713548
0.07244713542
0.07244713525
0.07244713509
0.07244713498
0.07244713486
0.07244713477
0.0724471347
0.07244713464
0.07244713475
0.0724471347
0.07244713448
0.07244713616
0.07244713613
0.07244713607
0.07244713602
0.072447136
0.07244713605
0.07244713574
0.07244713587
0.07244713541
0.07244713588
0.07244713568
0.07244713536
0.07244713531
0.07244713529
0.07244713517
0.07244713523
0.07244713518
0.07244713501
0.07244713485
0.07244713474
0.07244713487
0.07244713512
0.07244713514
0.07244713506
0.07244713497
0.07244713489
0.07244713483
0.07244713478
0.07244713474
0.07244713468
0.07244713483
0.07244713475
0.07244713447
0.07244713584
0.07244713601
0.07244713602
0.07244713593
0.07244713588
0.07244713595
0.07244713558
0.07244713578
0.07244713523
0.07244713608
0.07244713551
0.07244713553
0.07244713517
0.07244713462
0.07244713464
0.07244713488
0.07244713486
0.0724471347
0.07244713455
0.07244713449
0.07244713461
0.07244713493
0.07244713505
0.07244713503
0.07244713497
0.07244713488
0.07244713484
0.07244713481
0.07244713477
0.07244713472
0.07244713479
0.07244713467
0.07244713447
0.07244713583
0.0724471359
0.07244713576
0.07244713544
0.07244713585
0.07244713551
0.07244713569
0.07244713509
0.07244713546
0.07244713527
0.07244713551
0.07244713545
0.07244713439
0.07244713431
0.07244713457
0.0724471346
0.07244713449
0.07244713442
0.07244713442
0.07244713443
0.07244713441
0.07244713443
0.07244713456
0.0724471347
0.07244713481
0.07244713481
0.07244713479
0.07244713475
0.0724471347
0.07244713461
0.07244713451
0.07244713448
0.07244713584
0.07244713572
0.07244713512
0.07244713571
0.07244713539
0.07244713541
0.07244713515
0.07244713515
0.07244713535
0.07244713497
0.07244713428
0.07244713362
0.07244713433
0.07244713454
0.07244713449
0.07244713432
0.07244713425
0.07244713434
0.07244713444
0.07244713448
0.07244713459
0.07244713475
0.07244713488
0.07244713493
0.07244713489
0.07244713479
0.07244713469
0.0724471346
0.07244713452
0.07244713447
0.07244713449
0.07244713578
0.07244713568
0.07244713573
0.07244713546
0.07244713501
0.07244713512
0.07244713521
0.07244713546
0.07244713557
0.0724471353
0.07244713285
0.07244713384
0.07244713434
0.07244713443
0.07244713433
0.0724471341
0.07244713393
0.0724471341
0.07244713436
0.07244713451
0.07244713467
0.07244713485
0.07244713499
0.07244713504
0.07244713496
0.07244713479
0.07244713464
0.07244713454
0.07244713449
0.07244713447
0.0724471345
0.07244713522
0.07244713571
0.07244713619
0.07244713533
0.07244713474
0.07244713501
0.07244713503
0.07244713539
0.07244713551
0.07244713526
0.07244713047
0.07244713397
0.0724471343
0.07244713433
0.07244713421
0.07244713398
0.07244713363
0.07244713356
0.07244713402
0.07244713439
0.07244713456
0.07244713464
0.07244713469
0.0724471347
0.07244713466
0.07244713458
0.0724471345
0.07244713448
0.07244713448
0.07244713448
0.07244713451
0.07244713504
0.07244713491
0.0724471353
0.07244713537
0.07244713492
0.07244712763
0.07244713407
0.07244713432
0.07244713434
0.07244713426
0.07244713407
0.07244713374
0.07244713323
0.07244713269
0.07244713256
0.07244713285
0.07244713315
0.07244713331
0.07244713335
0.0724471335
0.07244713388
0.07244713425
0.07244713443
0.07244713449
0.0724471345
0.07244713453
0.07244713563
0.07244713497
0.07244713525
0.07244713539
0.0724471343
0.07244712692
0.07244713423
0.07244713438
0.0724471344
0.07244713435
0.07244713422
0.07244713398
0.0724471336
0.07244713306
0.0724471325
0.07244713224
0.07244713237
0.07244713263
0.0724471328
0.0724471332
0.0724471338
0.07244713428
0.07244713447
0.07244713452
0.07244713453
0.07244713454
)
;

boundaryField
{
    walls
    {
        type            zeroGradient;
    }
    wallFilmFace_top
    {
        type            zeroGradient;
    }
    region0_to_wallFilmRegion_wallFilmFace
    {
        type            zeroGradient;
    }
    mirrorFace_top
    {
        type            zeroGradient;
    }
    region0_to_wallFilmRegion_mirrorFace
    {
        type            zeroGradient;
    }
    procBoundary0to1
    {
        type            processor;
        value           nonuniform List<scalar> 
52
(
0.07244713443
0.07244713473
0.07244713475
0.07244713475
0.07244713475
0.07244713475
0.07244713474
0.07244713474
0.07244713467
0.07244713452
0.07244713459
0.07244713456
0.07244713456
0.07244713454
0.07244713461
0.07244713461
0.0724471347
0.07244713471
0.07244713468
0.07244713427
0.07244713427
0.07244713426
0.07244713438
0.07244713438
0.07244713532
0.07244713511
0.07244713505
0.07244713514
0.07244713514
0.0724471353
0.07244713432
0.07244713432
0.07244713563
0.07244713563
0.07244713601
0.07244713671
0.07244713671
0.07244713625
0.07244713576
0.07244713565
0.07244713565
0.07244713575
0.07244713575
0.07244713567
0.07244713557
0.07244713475
0.07244713544
0.07244713641
0.07244713424
0.07244713125
0.07244713125
0.07244713593
)
;
    }
    procBoundary0to2
    {
        type            processor;
        value           nonuniform List<scalar> 
26
(
0.07244713565
0.07244713501
0.0724471352
0.07244713531
0.07244713355
0.07244712948
0.07244713446
0.07244713447
0.07244713445
0.0724471344
0.0724471343
0.07244713413
0.07244713386
0.07244713343
0.07244713289
0.07244713239
0.07244713226
0.0724471325
0.07244713281
0.07244713319
0.07244713375
0.07244713426
0.07244713448
0.07244713454
0.07244713455
0.07244713455
)
;
    }
}


// ************************************************************************* //
