/*--------------------------------*- C++ -*----------------------------------*\
  =========                 |
  \\      /  F ield         | OpenFOAM: The Open Source CFD Toolbox
   \\    /   O peration     | Website:  https://openfoam.org
    \\  /    A nd           | Version:  8
     \\/     M anipulation  |
\*---------------------------------------------------------------------------*/
FoamFile
{
    version     2.0;
    format      ascii;
    class       volScalarField;
    location    "1.7";
    object      alphat;
}
// * * * * * * * * * * * * * * * * * * * * * * * * * * * * * * * * * * * * * //

dimensions      [1 -1 -1 0 0 0 0];

internalField   nonuniform List<scalar> 
67410
(
0.0001030410713
0.0001260258911
0.0001387718788
0.0001497593153
0.0001594407754
0.0001677125739
0.0001745946888
0.0001801847552
0.0001846265205
0.0001880719962
0.0001906858555
0.0001927201516
0.0001947231916
0.0001979008631
0.0002041231183
0.0002140788914
0.0002233998673
0.000221884366
0.0002122041863
0.0002427091747
0.0002748488573
0.0001857130831
0.0001655188507
0.0001657801597
0.0001723861304
0.0001789367096
0.0001052265608
0.0001331838861
0.0001488043656
0.0001617523284
0.0001727991715
0.0001821740736
0.0001900981556
0.0001967528005
0.0002023014054
0.0002069137646
0.0002108855345
0.0002150074384
0.0002213209404
0.0002335571153
0.000254671714
0.0002811557077
0.0003012821093
0.0003015833336
0.0002948963707
0.0003417598886
0.0003782261623
0.00026149776
0.0002047888457
0.0001838869187
0.0001875028525
0.0001955958594
0.0001039081504
0.0001357519326
0.0001533189046
0.0001674064287
0.000179105525
0.0001888986008
0.0001971199347
0.0002039990394
0.0002097530604
0.0002147045185
0.0002196625885
0.0002268816643
0.0002410939171
0.0002674048825
0.0003045289771
0.0003424623219
0.0003680167378
0.0003694553361
0.0003643098592
0.000414240135
0.0004486356149
0.0003448705864
0.000258683331
0.0001981812784
0.0001895597738
0.0001985079161
0.000104576125
0.0001374486282
0.0001554408334
0.0001699324218
0.0001819000957
0.0001918357933
0.0002000732517
0.000206876499
0.0002125819702
0.0002178593416
0.0002245325148
0.0002370629728
0.0002621259941
0.0003021271243
0.000350277345
0.0003950955762
0.0004250201124
0.000429044369
0.0004194024411
0.0004614178385
0.0004909178959
0.0004028462842
0.0003008615701
0.0002150194486
0.0001908001758
0.0002087112306
0.0001088550991
0.0001380719944
0.0001553929991
0.0001699283143
0.0001820462128
0.0001920440927
0.0002002161342
0.0002068910547
0.0002125878913
0.000218404991
0.0002271442361
0.0002446379967
0.0002772325117
0.0003243410675
0.0003769115836
0.0004247981797
0.0004572814075
0.0004622566585
0.0004388290171
0.000464035644
0.0004838734851
0.0003912802236
0.0002848886059
0.0002118730924
0.0002079910804
0.000254843099
0.000110760977
0.0001363416915
0.0001527376703
0.000167393316
0.0001797963746
0.0001899692018
0.0001982087953
0.0002049669462
0.0002109035651
0.0002170979773
0.0002257879039
0.0002413666406
0.0002693189257
0.0003116471346
0.0003626541538
0.00041204274
0.0004452976091
0.0004463216252
0.0004020109466
0.0003786270782
0.0004030907703
0.0002997285697
0.0002286490841
0.0002269711624
0.0002638613592
0.0003372813947
0.0001147451301
0.0001332999569
0.0001478946102
0.0001627022503
0.0001756613335
0.0001863509557
0.0001951372059
0.0002026525151
0.0002095474183
0.0002162609055
0.000223038515
0.0002304194981
0.0002402761736
0.0002569018456
0.0002855735086
0.0003245189662
0.0003537187155
0.0003448502215
0.0002879324303
0.0002480536514
0.0002544616865
0.0002347660095
0.000248193661
0.0002873234257
0.0003489890565
0.0004264199817
0.0001300650872
0.0001336980874
0.0001427286782
0.000156725927
0.0001703954552
0.0001822022161
0.0001924725849
0.000201963666
0.0002112095291
0.0002202287999
0.0002285981354
0.0002357007884
0.0002408929666
0.0002439707416
0.0002456660325
0.0002471233288
0.0002474296281
0.0002414951561
0.0002288770052
0.0002301941566
0.0002438859471
0.0002641210164
0.0002991390112
0.0003590270906
0.0004348617809
0.0005071222825
0.0001555697353
0.0001434454791
0.0001409955754
0.0001511249837
0.0001650253018
0.000178562004
0.000191244598
0.0002034612979
0.000215306461
0.0002264651679
0.0002364817934
0.0002449233606
0.0002505311577
0.0002522606646
0.00025007757
0.0002456324588
0.0002412425382
0.0002401747312
0.0002459967646
0.0002588611462
0.0002761072938
0.0003011831956
0.0003469350962
0.0004169016703
0.0004986596691
0.0005573457778
0.0001802493129
0.0001616521703
0.0001465127749
0.0001483798916
0.0001607378923
0.0001760111186
0.0001912383094
0.000205785708
0.0002193737594
0.0002317495342
0.0002427913728
0.0002521271877
0.0002580426261
0.0002600390204
0.0002582508659
0.0002543036336
0.0002530423543
0.0002583050241
0.0002705189306
0.0002861364361
0.0003034759103
0.0003296822475
0.0003779867904
0.0004483011106
0.0005259584052
0.0005752592361
0.0001989083899
0.0001822795643
0.0001596914878
0.0001510220962
0.0001587442243
0.0001745865773
0.0001913870134
0.0002069656645
0.0002210002105
0.0002335842332
0.0002448977272
0.0002544791521
0.0002606413484
0.0002631111032
0.0002626253407
0.0002618029928
0.0002656659626
0.0002769731617
0.0002928655641
0.0003090679204
0.0003251605305
0.0003489374605
0.000393960806
0.0004608857344
0.0005356332032
0.000586734172
0.00021168659
0.0002012588805
0.0001779040724
0.0001604634004
0.0001604224735
0.0001749011321
0.0001920103816
0.0002072550477
0.0002203719947
0.000231922275
0.0002423646853
0.0002517165873
0.0002581523188
0.0002615180406
0.0002634606886
0.0002676935553
0.0002781998603
0.0002948207677
0.0003134996149
0.0003300886975
0.0003436879625
0.0003593813266
0.0003917158344
0.0004530061448
0.0005333595127
0.0005909600874
0.0002198767694
0.0002169118317
0.0001975579955
0.0001760794496
0.0001668968436
0.0001781469279
0.0001950643596
0.0002094235032
0.0002205517156
0.0002294714559
0.0002372871565
0.0002446029487
0.0002509837107
0.0002561135889
0.0002623544526
0.0002734180563
0.0002907563417
0.0003123653428
0.0003338459181
0.0003516297241
0.0003629472816
0.000366085942
0.000365348812
0.0003873991521
0.0004593887918
0.000546186406
0.0002246908899
0.0002289422086
0.0002153830414
0.0001949357351
0.000177945319
0.0001839169204
0.000200864091
0.0002153147505
0.000224900083
0.0002304509751
0.0002336140195
0.000236607214
0.0002413253805
0.0002489687265
0.000261176493
0.000279603584
0.000303816385
0.000331251417
0.0003575428956
0.0003789056438
0.0003919190248
0.0003930366179
0.00038134731
0.000361140796
0.0003424679451
0.0004076872429
0.0002271069857
0.0002380105219
0.0002297627983
0.0002133396004
0.0001922975909
0.0001902714195
0.0002065281185
0.0002228355794
0.0002331379006
0.0002371213159
0.0002358161609
0.0002325541062
0.0002328108857
0.0002412658346
0.0002593139018
0.0002860523366
0.0003189618513
0.0003539648915
0.0003859607733
0.0004111621441
0.000426786652
0.0004320788908
0.0004400607393
0.0004121313071
0.0003385131734
0.0003071828322
0.000227967554
0.0002452925749
0.0002409062635
0.0002288708469
0.0002084252605
0.0001967453524
0.0002087608402
0.0002277268815
0.0002412225547
0.0002468521217
0.0002437718658
0.0002349193346
0.0002278237406
0.0002326916164
0.0002555002789
0.0002929596752
0.0003369145844
0.00037949717
0.000415867957
0.0004437583878
0.0004622976171
0.0004822947667
0.0005512703623
0.0005468401816
0.0003874958685
0.000303425428
0.0002282862892
0.0002517745579
0.0002500338848
0.0002409558198
0.0002242660253
0.000205465655
0.0002068717911
0.0002262921544
0.0002441576817
0.0002528851521
0.0002509414481
0.0002400343085
0.0002270421565
0.000225846564
0.0002518050645
0.0003009472915
0.000354877986
0.0004019087261
0.0004404177723
0.0004698128239
0.0004908165724
0.0005181547909
0.0005879052698
0.0007059808746
0.0004854405689
0.0003314184437
0.0002284037246
0.0002579080391
0.000258455782
0.0002505874146
0.0002370776489
0.0002177356097
0.0002046920603
0.0002169319608
0.0002389189488
0.0002499998824
0.0002495482316
0.000239177116
0.0002252716135
0.0002221654695
0.000248832659
0.0003020341575
0.0003595335584
0.0004084234053
0.0004485394157
0.0004786444993
0.0004969696841
0.0005051074627
0.0005117238613
0.0005003611776
0.0003853620378
0.0002994787014
0.0002282048293
0.0002636972575
0.0002663185121
0.0002594420188
0.0002463212039
0.0002295198079
0.0002079409623
0.0002016152399
0.0002239816869
0.0002371992641
0.0002372571876
0.0002277807653
0.0002137650808
0.0002028633163
0.0002052475788
0.0002297270061
0.0002771714998
0.0003375307377
0.000394576272
0.0004406394218
0.0004708856629
0.0004831047838
0.0004750482075
0.0004022003252
0.0003045626929
0.0002680676296
0.0002274719364
0.000268665022
0.0002732576325
0.0002671979872
0.0002537793573
0.0002365075239
0.0002148539699
0.0001877784074
0.0001987332588
0.0002139275863
0.0002148837028
0.0002082523974
0.0002007258066
0.0001974709086
0.0002003843824
0.0002096587624
0.0002278913273
0.0002605338429
0.000309690912
0.0003586226064
0.0003945881515
0.0004111401458
0.0003776150449
0.0002868124573
0.0002311120909
0.0002367506809
0.0002259843171
0.0002720587134
0.0002784362876
0.0002730384217
0.0002589285477
0.0002402163654
0.0002182990362
0.0001809067189
0.0001697960281
0.0001822814745
0.0001884375517
0.0001909358394
0.0001945116534
0.000200316683
0.0002072500996
0.0002141682088
0.0002210513801
0.0002293254469
0.0002418318904
0.0002626941437
0.0002873858059
0.0003001097344
0.000263830581
0.0002361089476
0.000229863602
0.0002313720591
0.0002235118089
0.0002730419119
0.0002809093151
0.0002759555246
0.0002608956885
0.0002409373066
0.0002186702008
0.0001798129085
0.000156981484
0.0001634448457
0.0001751192388
0.0001860662203
0.0001965057558
0.0002062621486
0.0002149162157
0.0002222215603
0.0002281568019
0.0002329569907
0.0002373221422
0.0002421526739
0.0002480416672
0.0002543414495
0.0002598853381
0.0002500830549
0.0002513725291
0.0002564498654
0.0002198152197
0.0002708774583
0.0002798716976
0.0002750840474
0.0002590688785
0.0002390448015
0.0002180659211
0.0001825751865
0.0001597181945
0.0001635136538
0.0001760971714
0.000189007683
0.0002008999582
0.0002115719713
0.0002210194045
0.0002293418495
0.0002366904818
0.0002433613731
0.0002506994907
0.0002604140219
0.0002735270756
0.0002867010412
0.0002974311696
0.0002758688784
0.0002735253348
0.0002824158942
0.0002146896609
0.0002650993225
0.0002747629471
0.0002698553265
0.0002531940302
0.0002352360644
0.0002177290812
0.000186821023
0.0001655151328
0.0001670615878
0.000178667606
0.0001915090079
0.0002036800523
0.0002148915053
0.0002252431961
0.0002351319644
0.0002449481371
0.0002556999448
0.0002696627504
0.0002890629455
0.0003128034511
0.0003298327239
0.0003413643829
0.0003107129621
0.000296822868
0.0003024348373
0.0002081191865
0.00025570551
0.0002653209389
0.0002599261343
0.0002444310641
0.0002307226343
0.0002178213961
0.0001913786861
0.0001711367577
0.0001690625636
0.0001787418473
0.0001913356472
0.0002039878439
0.0002160878724
0.0002277649483
0.000239788017
0.0002529870743
0.0002687096428
0.0002891675314
0.0003150764479
0.0003426943394
0.0003660608074
0.0003784418504
0.0003450287332
0.0003193282871
0.0002008991514
0.0002438290465
0.0002523035569
0.0002465158926
0.0002360640484
0.0002270484593
0.0002177293799
0.0001959755873
0.0001777064634
0.0001707612455
0.0001767797214
0.0001884023459
0.0002015678384
0.0002149566482
0.0002285092066
0.0002432872828
0.0002601987952
0.0002794390079
0.0003029449868
0.0003322692452
0.0003618944191
0.000385663144
0.0003979163726
0.0003687763322
0.000345327536
0.0001979642599
0.0002355582466
0.0002430290286
0.000238469292
0.0002320744902
0.0002249919709
0.0002166388912
0.0002009155447
0.0001862052448
0.0001740764789
0.0001743737868
0.0001832989392
0.0001961930947
0.0002108429331
0.0002265975891
0.000244430398
0.0002634645592
0.0002807540872
0.0002979466164
0.0003246372225
0.0003523623065
0.0003738500655
0.0003740407081
0.0003482545452
0.0003214196971
0.0002031982025
0.0002393238292
0.0002461152602
0.0002412453299
0.0002328301324
0.0002232399238
0.0002144995043
0.0002068918437
0.0001964884015
0.0001801118186
0.0001738244018
0.0001780079344
0.0001887965115
0.0002035978185
0.0002206049194
0.0002397925003
0.0002610141361
0.0002799033857
0.0002981801233
0.0003209722248
0.0003381848459
0.0003371445615
0.0003310945796
0.0002994949747
0.0002990486306
0.0002084726993
0.000245861119
0.0002506901979
0.0002428482322
0.0002304603407
0.0002181051105
0.0002129903501
0.0002141954168
0.0002069074813
0.0001881017716
0.0001767033443
0.0001749464943
0.0001804659803
0.0001913413746
0.0002041614989
0.0002174060109
0.0002315291497
0.0002477144872
0.0002659845808
0.0002856565452
0.0002991106874
0.0002963312892
0.0002792680759
0.0002655713348
0.0002720676793
0.000287233764
0.0002046650492
0.000241901063
0.0002440935855
0.0002335088284
0.0002188819916
0.0002099391958
0.000215615979
0.0002213299188
0.0002145334619
0.0001959643366
0.0001834602655
0.0001773791841
0.0001774724103
0.0001847352811
0.000194691914
0.0002040905998
0.0002123860925
0.0002205965915
0.0002297583848
0.0002395235123
0.0002470678871
0.0002487049775
0.0002484661632
0.000243811789
0.0002504265885
0.0002693263594
0.000101844128
0.0001269969623
0.0001397681267
0.0001508428047
0.0001613636643
0.000171292451
0.0001804323862
0.000188548282
0.0001954794494
0.0002011312528
0.0002054421912
0.0002083814782
0.0002100407566
0.0002108296639
0.0002116754084
0.000213609491
0.0002158705719
0.000214253223
0.0002087223468
0.0002163768013
0.0002202377105
0.000185725126
0.0001740823938
0.000177079364
0.0001844507312
0.0001949590043
0.0001065118704
0.0002143677311
0.0002514081082
0.0002882506118
0.0003322934325
0.0003825077339
0.0004355836426
0.0004868433017
0.0005321036217
0.0005681225202
0.0005922502427
0.0006026726434
0.0006001186893
0.0005906912881
0.0005868146218
0.0006004237561
0.0006238313501
0.0006311383754
0.0006377741291
0.000682418661
0.0006885650536
0.000543719505
0.0004225767357
0.0004193460497
0.00044642625
0.0005127762695
0.0001054057479
0.0002321625418
0.0002862155614
0.0003455579565
0.0004167306796
0.0004949723731
0.0005725986018
0.0006417628398
0.000696965884
0.0007347732689
0.0007529086136
0.0007516019993
0.0007387955833
0.0007362412265
0.0007753409818
0.0008674332635
0.0009548228286
0.001001512247
0.001033144907
0.0010887625
0.001060995456
0.0008538671625
0.0005510096012
0.0004766199488
0.0005001786939
0.0005734097395
0.0001032480239
0.0002352477408
0.000299843587
0.0003758161286
0.0004670693877
0.000563732619
0.0006535158798
0.0007265099539
0.0007779584623
0.000806611865
0.0008129500785
0.0008028562377
0.000797056645
0.000833815917
0.0009301123467
0.001076189146
0.001214039735
0.00129669365
0.00134245303
0.001352441048
0.001286268909
0.001068955735
0.0006697758845
0.0004831142555
0.000493786418
0.0005533264079
0.0001060126828
0.0002327674146
0.0003004351782
0.0003843948259
0.0004860552297
0.0005905711673
0.0006821076317
0.0007505078052
0.0007937848107
0.0008142654778
0.000815936961
0.0008097140764
0.000822656975
0.0008823086606
0.001005466504
0.001177277664
0.001321664808
0.001397351122
0.001417149933
0.00136808266
0.00125722342
0.001042759183
0.0006700690908
0.0004733805849
0.0004816703497
0.0005275884446
0.0001075830212
0.0002241737113
0.0002881468914
0.0003718710582
0.0004746411422
0.0005780243616
0.000664774462
0.0007265966171
0.0007651885597
0.0007861134817
0.0007947455204
0.0008000164734
0.0008209664451
0.000874370455
0.0009794769071
0.001121479201
0.001235814729
0.00127936236
0.001255007741
0.00115596769
0.001006733927
0.000807487163
0.0005599596932
0.000463439769
0.0005153025434
0.0005947525912
0.0001092114307
0.0002101054498
0.0002665894352
0.0003439099816
0.0004401101855
0.000535207722
0.0006135033238
0.0006705666058
0.0007119807623
0.00074498489
0.0007724175386
0.0007936175499
0.0008119146675
0.0008422338517
0.0009025090916
0.0009735210805
0.001025996707
0.001016103987
0.0009157879076
0.0007559145845
0.0006475091753
0.0005740026213
0.0005027984192
0.0005091926252
0.0007058061968
0.0008452712696
0.0001182387691
0.0001951988447
0.0002425746415
0.0003091542331
0.0003929828718
0.0004750792214
0.0005441803322
0.000600679845
0.000652542718
0.0007054535674
0.0007568033504
0.0007976746218
0.0008228375639
0.0008331588093
0.0008327498715
0.0008228141624
0.0007979513892
0.0007461815714
0.0006696359682
0.0005911002261
0.000549428411
0.0005443791806
0.0005644385506
0.0006995580823
0.001088076272
0.001244883313
0.0001358247717
0.0001898234957
0.0002237968955
0.0002760556684
0.0003440087312
0.0004122515331
0.0004753977476
0.0005379028336
0.0006076097273
0.0006855516987
0.0007606715226
0.0008148897319
0.0008514777425
0.0008734578784
0.0008764328151
0.0008463936744
0.000790690929
0.0007259503726
0.0006681282512
0.000630690977
0.0006253334293
0.0006469738378
0.0007189295687
0.0009668512258
0.001417296423
0.001498788528
0.0001547459703
0.0001985915374
0.0002154930081
0.0002504211603
0.0003015146357
0.0003587741241
0.0004210660151
0.0004937152938
0.0005816168688
0.0006794062738
0.0007665689463
0.0008234166893
0.000865440594
0.0008916624628
0.0009023571088
0.000892227533
0.0008475456696
0.0007968265392
0.0007641620786
0.0007574275494
0.0007713121607
0.0007994113711
0.000884085234
0.001121772451
0.001497978113
0.001551721797
0.0001698049094
0.0002170622566
0.0002185452054
0.0002351844905
0.0002705599945
0.0003211505254
0.0003867911015
0.0004698041184
0.0005706837687
0.0006795952179
0.0007723786744
0.0008327878627
0.0008766235298
0.0009052862695
0.0009221619694
0.0009268169917
0.0009120309866
0.0008892045812
0.000883066078
0.0008971691196
0.0009194934364
0.0009445489154
0.0009939264463
0.001146783396
0.001429605106
0.001494326456
0.0001807360257
0.0002434887025
0.0002317830361
0.0002309776642
0.0002528880624
0.0003006903293
0.0003732486898
0.0004663778176
0.0005742532253
0.0006852002798
0.000779751807
0.0008390259177
0.0008804659622
0.0009083399042
0.0009281671269
0.0009418762439
0.0009483815083
0.0009527904231
0.0009577172827
0.0009685973688
0.0009864004254
0.001011893758
0.001054054034
0.001152450929
0.001343127859
0.001410669826
0.000188821713
0.0002784915295
0.0002561824476
0.0002376810318
0.0002472668369
0.0002953021398
0.0003800663972
0.0004875699149
0.0006004943023
0.0007038279341
0.0007861616366
0.0008402205794
0.0008720734065
0.000893160111
0.0009105891069
0.000927517783
0.0009485012364
0.0009643574804
0.0009797627457
0.0009975263683
0.001018361864
0.001047146763
0.001097700054
0.001163927748
0.001250773476
0.001288114308
0.0001952275705
0.000323220896
0.0002955152225
0.000256776999
0.0002509211523
0.0002989082138
0.0004013232315
0.0005325882707
0.000655326587
0.0007462761802
0.0008026179095
0.0008292101812
0.0008367596857
0.0008389085085
0.0008489543446
0.000876046469
0.0009197266271
0.0009560512166
0.0009856932572
0.001013982913
0.001041050178
0.001074739424
0.001142707601
0.001187931219
0.001195243576
0.001134778803
0.0002005656064
0.0003743139472
0.0003534338442
0.0002923252909
0.0002628849568
0.0003019504656
0.0004192333091
0.0005815591753
0.0007234230972
0.00080550458
0.0008346333603
0.0008231354163
0.0007900064284
0.0007618951222
0.0007597130218
0.0007933128586
0.0008616186678
0.00092980778
0.0009829063123
0.001030388976
0.00107144073
0.001129010311
0.001255114228
0.001305450256
0.00114936517
0.0009405275743
0.0002049803647
0.0004200624478
0.0004271405885
0.0003498459334
0.0002877120803
0.0002995038158
0.0004119423827
0.0005985455419
0.0007656917507
0.0008463919166
0.0008673777107
0.000837110295
0.0007688370567
0.0007024648034
0.0006724615991
0.0006984278182
0.0007849395867
0.0008899825828
0.0009831037153
0.001063357469
0.001135356117
0.001260907967
0.001634291072
0.001723882045
0.00127116214
0.0008840184149
0.0002087469739
0.000458753199
0.000499865382
0.0004294422633
0.0003351082549
0.000300182564
0.0003750778373
0.0005608019923
0.0007523775405
0.0008436325134
0.0008670157615
0.0008405611643
0.0007616054274
0.0006679233457
0.0006067013834
0.0006146234761
0.0007081118796
0.0008396114921
0.0009778147781
0.001091023504
0.0011836497
0.001363441759
0.001627830197
0.001813924345
0.00146374573
0.0008781416941
0.0002126092852
0.0004981687076
0.000565810983
0.0005150081678
0.0004098520361
0.0003209100759
0.0003297123772
0.0004761005186
0.0006770517802
0.0007942528192
0.0008245117486
0.000802585646
0.0007296137857
0.0006362106001
0.0005651244975
0.0005561791573
0.0006334128731
0.0007641952003
0.0009282478121
0.001066224925
0.001151345502
0.001225495139
0.001417487209
0.001517433751
0.00106263613
0.0008186364779
0.0002160671842
0.0005411244486
0.0006309341418
0.0005923834948
0.0004972949741
0.0003674512239
0.0003038465633
0.0003761442109
0.0005501929306
0.0006835022277
0.0007320575994
0.0007242774199
0.000682487607
0.0006308594691
0.0005876663472
0.0005628816175
0.0005793882902
0.0006693184303
0.0008300510932
0.0009963597596
0.0011173426
0.001173396253
0.00120917491
0.00115615983
0.0008380731253
0.0008040510939
0.0002186101974
0.000582054811
0.0006923314347
0.0006653183249
0.0005702160648
0.0004240667036
0.0003065437132
0.0002992053588
0.0004040257394
0.0005196026236
0.0005848377099
0.0006133046493
0.0006271825536
0.000639741401
0.0006517775283
0.0006560233158
0.0006528728564
0.0006667004457
0.0007396239353
0.0008938069713
0.001044538077
0.001128517421
0.001086871855
0.0009631898865
0.0007977665991
0.0007724591338
0.0002197936445
0.0006141155598
0.0007437952883
0.0007275749065
0.0006280093301
0.0004734966252
0.0003289744015
0.000267261726
0.0003016928857
0.0003826099832
0.0004608346564
0.0005348990432
0.0006112139323
0.0006880743073
0.0007570259541
0.0008087539405
0.0008422465331
0.0008698000621
0.0009115293383
0.0009824128401
0.001071525861
0.001108640401
0.001069120735
0.001003648498
0.0008969426879
0.000836380878
0.0002192034991
0.0006318258029
0.0007792507691
0.0007728101657
0.0006701588872
0.0005106289592
0.0003638656224
0.0002776591491
0.0002792712599
0.0003419805493
0.0004291574311
0.0005305916334
0.0006414889844
0.0007523423256
0.000850861644
0.0009266535059
0.0009785995398
0.001016854458
0.001055783843
0.001108233704
0.001172066178
0.001212866655
0.001217213861
0.001190252736
0.001118115884
0.001073587735
0.0002165449301
0.0006324549394
0.0007949542224
0.0007966562049
0.00069532778
0.000537269869
0.0004066075737
0.000314127059
0.0003055184912
0.0003667729603
0.0004595067793
0.0005693033021
0.0006890773541
0.0008088680687
0.0009154666962
0.0009986777785
0.001061402086
0.00111838422
0.001179212466
0.001253994442
0.001337665842
0.001365448736
0.001382450983
0.00141031042
0.001381585867
0.001342632169
0.0002119717015
0.0006176217922
0.0007916424145
0.0008005901921
0.0007016257871
0.0005560911519
0.0004522955545
0.0003612238307
0.0003429106358
0.000400434784
0.0004936458036
0.0006035568757
0.0007227312187
0.0008426686671
0.0009508119283
0.001036186651
0.001107557732
0.001179980988
0.00126522932
0.001376588648
0.001485508313
0.001489956042
0.001497245795
0.001544656556
0.001543135081
0.001493993705
0.000206708351
0.0005951257557
0.0007762644684
0.0007897759329
0.0006876590367
0.0005691393706
0.000497110213
0.000414109081
0.000383613683
0.0004269613203
0.0005108369257
0.0006141285364
0.0007293279335
0.0008500451012
0.0009660938049
0.001065922413
0.001154478497
0.001244748593
0.001344798973
0.001457626212
0.0015559593
0.001596702145
0.001611877341
0.001667150003
0.001705007796
0.000202985561
0.000579765839
0.000761251887
0.000773240946
0.0006611293615
0.0005748071287
0.0005339348906
0.000472133736
0.0004354530503
0.0004532996889
0.0005132579446
0.0005994860583
0.0007056154024
0.0008282841848
0.0009608253447
0.001089531243
0.00120287103
0.001311125089
0.001422385711
0.001542793062
0.001638647361
0.001676313419
0.00169324088
0.001779357685
0.001927417835
0.0002027424957
0.0005809602139
0.0007566715419
0.0007611843819
0.000644493834
0.0005799937792
0.0005707553576
0.0005461603258
0.0005107503076
0.0004941747425
0.000515942584
0.000571916205
0.0006596237937
0.0007806583418
0.0009320552721
0.001090469234
0.001231849992
0.001358565157
0.001485547662
0.001621715695
0.001725240811
0.001773949065
0.001814162034
0.001888457476
0.001857644183
0.0002051377971
0.0005955083022
0.0007565200001
0.0007442475842
0.000624109298
0.0005823622902
0.0006156659095
0.0006427613017
0.0006152166489
0.0005615827028
0.000536479719
0.0005499658676
0.0006039504342
0.000704062625
0.0008482991215
0.001021316882
0.001177551923
0.001321696238
0.001456667025
0.001594580615
0.001711175705
0.001798430592
0.001816035689
0.001821019428
0.001754985842
0.0002043611611
0.000602488923
0.0007328446558
0.000687320828
0.0005832090144
0.0005914798344
0.0006858627023
0.0007610306017
0.0007401487168
0.0006568220978
0.0005883099809
0.0005556786821
0.0005658844949
0.0006287114903
0.0007346800545
0.0008661590816
0.00101242063
0.001171486863
0.001318494409
0.001461951438
0.001573426016
0.001636815798
0.001606348675
0.001514523041
0.001563214516
0.001681796449
0.000194558307
0.0005813340561
0.000657515143
0.000586475236
0.0005402566841
0.0006390448805
0.0007906794973
0.0008774165371
0.0008562183685
0.0007661704478
0.0006744782648
0.0006030108902
0.000567127644
0.0005892659488
0.0006585208916
0.0007465527621
0.0008350317842
0.0009246173272
0.001026371657
0.00114830099
0.001282775679
0.00139188497
0.001384581371
0.001303143606
0.001327814067
0.001499335368
0.0001059245757
0.0001316379522
0.0001441994229
0.0001550274597
0.0001655660776
0.0001760050313
0.0001861355513
0.0001955869904
0.0002040370063
0.000211260957
0.0002171212198
0.0002215512478
0.0002245883093
0.0002264745463
0.0002278042679
0.0002293107031
0.000230880481
0.0002306677662
0.0002286025373
0.0002296971571
0.0002281721332
0.0002152350401
0.0001960316223
0.0001941449484
0.0001994187103
0.0002098787597
0.0001135208941
0.0002713217182
0.0003296354169
0.0003832194319
0.0004459727331
0.000517602076
0.00059384471
0.0006682426308
0.0007351297941
0.0007907334796
0.0008329410995
0.0008608137983
0.0008750660422
0.0008796595989
0.0008829942073
0.0008944688955
0.000913274239
0.0009269358647
0.0009391677221
0.0009567323947
0.0009304498896
0.000817723451
0.0006966488886
0.0006623991072
0.0006758305062
0.0007430457592
0.0001129598038
0.0003043384652
0.0003897459802
0.0004782396979
0.0005819356312
0.0006952440547
0.0008079332123
0.0009096658934
0.0009939256324
0.001057798526
0.001100222319
0.001120916342
0.001122158124
0.00111520264
0.001126220311
0.001178046983
0.001253583958
0.001314672759
0.001361356096
0.001398880846
0.001350741012
0.001178294721
0.0009180399431
0.0008105513825
0.0008239669864
0.0008992818428
0.0001093208068
0.0003064429051
0.0004075612433
0.0005198965232
0.0006521733
0.0007915722449
0.00092171756
0.001030394633
0.001112644737
0.001168343404
0.001198344941
0.001203236276
0.001189451889
0.001185366249
0.001238140931
0.001356069601
0.001491691687
0.001589539622
0.001646172801
0.001658984184
0.001584467895
0.001395933308
0.001076467083
0.0008525459964
0.000859218685
0.0009183937085
0.0001102796592
0.0002998953255
0.0004041259971
0.0005264276594
0.0006732366449
0.0008250077801
0.0009605902827
0.001067014815
0.001141645465
0.001187164638
0.001206065855
0.001200123346
0.001181615873
0.001191563082
0.001276079608
0.001431815192
0.001582737172
0.001677648541
0.001715042716
0.00168961428
0.001582375977
0.001388240922
0.001077427712
0.0008501125631
0.0008547569242
0.0008764335597
0.0001121177885
0.0002866397409
0.0003843729488
0.0005052109444
0.0006548624299
0.000808821278
0.0009428293486
0.001044252895
0.001112865353
0.001153878509
0.001171481437
0.001168160396
0.001155278698
0.001167864401
0.001247416934
0.00138471604
0.001513186134
0.001585473762
0.001594114736
0.001531249412
0.001390152926
0.001188514489
0.0009448631576
0.0008454330665
0.0008735574652
0.0008964997134
0.0001125679693
0.0002653245632
0.0003530703267
0.0004657020673
0.0006095051249
0.0007574954976
0.0008850842952
0.0009816119434
0.001049494226
0.001095804622
0.001125217323
0.001138412046
0.001138685888
0.001144948087
0.001186681632
0.001269031042
0.00134959733
0.001381946412
0.001348971866
0.001243708932
0.001090359683
0.0009461063963
0.0008858971593
0.0009016820755
0.001061188111
0.001133092754
0.0001177432331
0.0002385891734
0.0003179457573
0.0004186422123
0.0005495654486
0.0006845249536
0.0008024617939
0.0008964551941
0.0009709070578
0.001031954781
0.001081411167
0.001117516657
0.001139736244
0.001152905928
0.001165678093
0.001185011201
0.001198606601
0.001177399588
0.001116876965
0.001048081612
0.0009670876351
0.0009233307705
0.0009401313908
0.001084480013
0.001423448339
0.001478922667
0.0001298483874
0.0002221423347
0.0002880560027
0.00037352098
0.0004858371356
0.0006034630364
0.0007121226297
0.0008093199851
0.0008988661376
0.0009813001492
0.001050911453
0.001101611451
0.001134108404
0.001158636201
0.001176300723
0.001184290944
0.001174615084
0.001138841186
0.001089496339
0.001041100158
0.001001655668
0.0009963708715
0.001061767764
0.001323915654
0.001696431138
0.00169820541
0.0001444799397
0.0002228071624
0.0002702303959
0.0003367416831
0.0004270093395
0.0005276692727
0.000631871075
0.0007391288728
0.0008488179061
0.0009528302509
0.001037499507
0.001093496988
0.001128444277
0.001152947942
0.001170802188
0.001181952616
0.001180840344
0.001159325753
0.001125098717
0.001093897021
0.001076919275
0.001088055965
0.001170572333
0.00142336187
0.001741339525
0.001723373859
0.0001567731675
0.0002345256063
0.0002660689443
0.0003115734639
0.0003797363821
0.0004679577228
0.0005749000692
0.0006973716756
0.0008269428073
0.000947589069
0.001041583644
0.001099817738
0.001134631355
0.001156306696
0.001171167702
0.001181414642
0.001184677898
0.001177147679
0.001159928558
0.001140689983
0.001130000528
0.001140549648
0.001202508281
0.001387222113
0.00163963424
0.001642407525
0.0001657261923
0.000255514267
0.0002733542197
0.0002985669173
0.0003476864429
0.0004296713769
0.0005467949966
0.000688141696
0.0008344137761
0.0009642352751
0.001060998415
0.00111877473
0.001150020554
0.001167148984
0.001177536374
0.001183932944
0.001184817693
0.001177399888
0.001162155081
0.001145406194
0.001136849253
0.001147473026
0.001194808819
0.001315664575
0.00150072431
0.00153341481
0.0001723271282
0.0002845468484