/*--------------------------------*- C++ -*----------------------------------*\
  =========                 |
  \\      /  F ield         | OpenFOAM: The Open Source CFD Toolbox
   \\    /   O peration     | Website:  https://openfoam.org
    \\  /    A nd           | Version:  8
     \\/     M anipulation  |
\*---------------------------------------------------------------------------*/
FoamFile
{
    version     2.0;
    format      ascii;
    class       volScalarField;
    location    "1.7";
    object      k;
}
// * * * * * * * * * * * * * * * * * * * * * * * * * * * * * * * * * * * * * //

dimensions      [0 2 -2 0 0 0 0];

internalField   nonuniform List<scalar> 
67410
(
0.006845452539
0.008888353699
0.01077686366
0.01255116957
0.01422715891
0.01574277405
0.01706253584
0.01817382279
0.01908194204
0.01980163555
0.02035629828
0.02079242427
0.02122410414
0.02191525354
0.02330255012
0.0256192452
0.02789745399
0.02752234886
0.02514769888
0.03289342632
0.04221931428
0.01927272665
0.01533258236
0.01538776979
0.01663989826
0.0179291246
0.006792084278
0.009296807049
0.01160552435
0.01371361423
0.01565162919
0.01739709723
0.01894461189
0.0202953083
0.02145714992
0.02244740119
0.02331702956
0.02423385597
0.0256673202
0.02856415103
0.03394369099
0.04137336655
0.04753131006
0.04762890636
0.04548922044
0.06115360369
0.07498791357
0.03578813102
0.0219596392
0.01772768964
0.01843730858
0.02006342641
0.006622850345
0.009659014784
0.01232105199
0.01469011141
0.0168160895
0.01870638876
0.0203712504
0.02181900578
0.02306811992
0.02417006082
0.02529620406
0.02697554377
0.03043890905
0.03742256516
0.04853921808
0.06142273959
0.07097369783
0.07152803765
0.06949046739
0.08994510306
0.1056079943
0.06232191984
0.03503919989
0.02057927319
0.01884274432
0.02065826472
0.006708790141
0.009902596671
0.01266531903
0.0151377997
0.01734603395
0.01929376673
0.02098739216
0.02243998682
0.02369530057
0.0248848552
0.02642532527
0.02943872016
0.03596849521
0.0477819949
0.0642631048
0.08182159152
0.09473921949
0.09654407358
0.09219320152
0.1117086223
0.1265660704
0.0851733379
0.04746787898
0.02423088463
0.01907494517
0.02279027137
0.007269945487
0.009993523868
0.01265846959
0.01513800396
0.01737482332
0.01933658148
0.02101822062
0.02244378115
0.02369663755
0.02500816653
0.02703972695
0.03134697123
0.04024483923
0.0551044797
0.07447139281
0.09466676899
0.1097627421
0.1121845664
0.1010361947
0.1130608467
0.1230551328
0.08045509969
0.04261971539
0.02352531639
0.02260630688
0.03389769333
0.007526869174
0.009745457046
0.01223039221
0.0146904251
0.01694860683
0.01892144591
0.02059905986
0.02202799454
0.02332189682
0.0247094017
0.02672091096
0.03052619494
0.03800310566
0.05090640286
0.06898188893
0.08911939719
0.1041581005
0.1046792654
0.08487938306
0.07525752719
0.08545443622
0.04721275838
0.0273892269
0.02690702386
0.0363098527
0.0594324072
0.008074678259
0.009315357557
0.01146746168
0.01387885243
0.01617800754
0.01820717656
0.01996460104
0.02153162701
0.0230209575
0.02451880248
0.02607866165
0.02783117634
0.03025903339
0.03458770846
0.04274931694
0.05525316752
0.06571945879
0.06251465867
0.04354868162
0.03226919983
0.03397604703
0.02885409617
0.03219106458
0.04308215815
0.06359465185
0.09518451356
0.01036694432
0.009368476549
0.0106797825
0.01287760776
0.01522182657
0.01740404984
0.01942071935
0.02138233794
0.0233843086
0.02542444742
0.02739505242
0.02912619801
0.03042624676
0.03121083219
0.03164759568
0.03202701988
0.03211315539
0.03059244155
0.02745234223
0.02774822028
0.03113690429
0.03649118464
0.0467517844
0.0673469329
0.09893672204
0.1348443339
0.01483074981
0.01077990765
0.010420165
0.01197254717
0.01427594587
0.01671324578
0.01917083857
0.02169799683
0.02429876605
0.02688472347
0.02931850267
0.03145260016
0.03291402882
0.03337437097
0.03280171286
0.03164376129
0.03051488018
0.0302308629
0.03169863573
0.03509283468
0.03991520857
0.04745825502
0.06293310425
0.0909445206
0.1303035142
0.1630388425
0.01991898906
0.01368867114
0.01124910521
0.01153997672
0.01354189376
0.01623681686
0.01916765981
0.02219596035
0.02522640878
0.02815617132
0.03090665573
0.03333371348
0.0349211009
0.03546773692
0.03498331565
0.0339170471
0.03356707279
0.03496152076
0.03833741785
0.04289119931
0.04823738937
0.05689346742
0.07477050566
0.1052631555
0.1450672225
0.1737085064
0.0242677431
0.01740830595
0.01336211061
0.0119529318
0.01320639869
0.01597348
0.01919683992
0.02245189279
0.02560358808
0.02860616036
0.03144821599
0.03396176496
0.03563104384
0.03631264383
0.03617763787
0.03594207516
0.03699280262
0.04019631853
0.04494063212
0.05005507975
0.05539878789
0.06377843255
0.08130635072
0.1113572644
0.150542293
0.1807861398
0.02749498649
0.02122799642
0.01658427229
0.01349276302
0.01348595975
0.01603017852
0.01932188308
0.02251520643
0.02545919647
0.02820188147
0.03080283595
0.03323037393
0.03495526815
0.03587370952
0.03640320194
0.03756835363
0.04055866824
0.04554319754
0.0515014687
0.05710523578
0.06191443463
0.06770446617
0.08047503354
0.1077072292
0.1494207686
0.1835467167
0.02967011483
0.02466460146
0.02045443282
0.01624682672
0.01459601928
0.01663055571
0.019941719
0.0229893067
0.02550125937
0.02760950582
0.0295260953
0.03137892953
0.03303968478
0.03440156191
0.036087523
0.03917946628
0.04429451215
0.05112138814
0.0584019341
0.06480321607
0.0690559711
0.07026391851
0.06998232887
0.07873914533
0.1108301019
0.1567582112
0.03098788743
0.02748162152
0.02431744588
0.01991575185
0.0165933452
0.01772649168
0.02114697068
0.02430282936
0.02651858664
0.02784737512
0.02861975359
0.02935874536
0.03053922425
0.03249721507
0.03574931697
0.04095749811
0.04834985242
0.0574792734
0.06698163038
0.07524828718
0.08052607831
0.08097838694
0.0760894938
0.06831659299
0.06151026002
0.08732639054
0.03166075432
0.02970557123
0.02767819776
0.02385879143
0.01938062957
0.01897476234
0.02235945418
0.02603368629
0.02850060831
0.02948705766
0.02916599363
0.02836301557
0.02841789842
0.03050614506
0.03522427026
0.04284818379
0.05327224784
0.06562454507
0.07806047963
0.0886260265
0.09551078631
0.09780501977
0.1008498886
0.08860724535
0.05996575074
0.04947393548
0.03190261939
0.03155336252
0.03043203926
0.02746422129
0.02277207578
0.0202902825
0.02284860708
0.02719298158
0.03051613839
0.0319634923
0.03117572223
0.02895074411
0.02721634339
0.02836710715
0.03417249695
0.04491530105
0.05942569602
0.07544628609
0.09065839311
0.1032750405
0.1120667799
0.121608679
0.1574310889
0.1557216056
0.07816644655
0.04815001053
0.03199252743
0.03324467934
0.03278404848
0.0304451476
0.02637004314
0.02213132756
0.02243896349
0.02685470173
0.03126734585
0.03355011172
0.03304325002
0.03023526017
0.02703828058
0.02671723374
0.0331657542
0.04737806052
0.06594275446
0.08465820994
0.1017278875
0.1158112943
0.1263707852
0.1406158333
0.1807374944
0.2611862287
0.1227736856
0.05727906119
0.0320259794
0.03488569757
0.03503152736
0.0329298972
0.02947359053
0.02485737072
0.02196934708
0.02468086367
0.02994324052
0.03279345498
0.03268239373
0.03002488992
0.02662370568
0.02585669689
0.03239062485
0.04773819111
0.0677185326
0.08746481191
0.105558163
0.1202622045
0.1296789567
0.133930452
0.137233186
0.1310107785
0.07775322746
0.04698547815
0.03197084122
0.03647119032
0.0371973086
0.0353001087
0.03181968069
0.02762575495
0.02267454776
0.02131855225
0.0263176374
0.02952305683
0.0295442263
0.02723346309
0.02397992835
0.02158040222
0.02206174922
0.02760477883
0.04017777101
0.05963394335
0.08159028288
0.1018471262
0.1163790901
0.1225164272
0.1184443482
0.0847398161
0.04855880372
0.03768406498
0.0317664865
0.03786045782
0.03916339715
0.03744470733
0.03377850643
0.02933693611
0.02421236531
0.0184931172
0.02071724447
0.02401411311
0.02423253548
0.02275758994
0.02113448979
0.0204447729
0.02104339839
0.02302534291
0.02718671899
0.03551602031
0.0501970614
0.0673787551
0.08162802243
0.08863887557
0.07475399177
0.04306366857
0.02798579148
0.02939973038
0.03135301993
0.03882547091
0.04066476656
0.03910249791
0.03516607399
0.03026681463
0.02499888672
0.01716678868
0.01511803671
0.01742748958
0.01862431036
0.01911696322
0.01983457599
0.02103331591
0.02251413188
0.0240424588
0.02561128075
0.02755965087
0.03063896263
0.03614259232
0.04326787379
0.04720053959
0.03647366228
0.0292210967
0.02769846477
0.02806343836
0.03067131053
0.03910908119
0.04139322111
0.03994540076
0.03570499285
0.03045045098
0.02508567442
0.01696048653
0.01291766393
0.01400174996
0.01607344408
0.01814537024
0.02023886203
0.02229968277
0.02421202786
0.02588792044
0.02729060832
0.0284509996
0.02952523815
0.03073547508
0.03224395451
0.03390126187
0.03539582747
0.03278251986
0.03312445707
0.0344775308
0.02966562162
0.03849344802
0.04109029294
0.03969567759
0.03520823158
0.02997461575
0.02494723242
0.01748486346
0.0133717778
0.01401148672
0.01625143773
0.01872281284
0.02115439928
0.02346323378
0.02560718832
0.02757348844
0.02936954599
0.03104598068
0.03294005072
0.03553272058
0.03919222095
0.04306547209
0.04635965547
0.03988270379
0.03921803092
0.04181798473
0.02829836866
0.03686960115
0.03960498192
0.0382017878
0.03362932605
0.0290266628
0.02486949413
0.01830696205
0.01436162342
0.01462775542
0.0167307156
0.01922276708
0.02174468268
0.02420551104
0.02659465147
0.02898113204
0.03144874887
0.03426349272
0.03809677897
0.04376156846
0.05125540528
0.05701573479
0.06109319775
0.0505935216
0.04617862193
0.04795829912
0.02659204682
0.03430208892
0.03692900015
0.03544089657
0.03133990661
0.02792253379
0.02489010456
0.01921081973
0.01535535501
0.01498184968
0.0167457901
0.01918871438
0.02181063378
0.02447519775
0.02719158569
0.03013592249
0.03353967046
0.03783044996
0.04380444857
0.0520117889
0.06155266355
0.07026744166
0.07512698136
0.06240779218
0.05343178713
0.02477676312
0.03118643209
0.03339070086
0.03187480871
0.02922858174
0.0270396381
0.02486877303
0.02014418061
0.01655817509
0.01528580505
0.01638096431
0.01860510905
0.02129572582
0.02421817127
0.02736660865
0.03101667892
0.0354742247
0.04091094922
0.04808309569
0.05785688645
0.0686649473
0.07802034623
0.08309094579
0.07131818303
0.06243772503
0.02405555105
0.02910193971
0.03097650255
0.02982514081
0.02824818813
0.0265522525
0.02461949827
0.0211709294
0.01818115444
0.01588675386
0.01593895329
0.0176108628
0.02017428726
0.02329816825
0.0269077219
0.03130608425
0.03637278681
0.04130384757
0.04650451953
0.05521369867
0.06506800595
0.07327862284
0.07333723019
0.06355566272
0.05413861017
0.02534442386
0.0300398652
0.03176973262
0.03052611433
0.0284343958
0.02614131071
0.02413375147
0.02244756028
0.02024670852
0.01700956949
0.0158398257
0.01660927613
0.01868150725
0.02172397495
0.02550334773
0.03013069722
0.03570161381
0.0410580105
0.04659071965
0.05399759733
0.05996133484
0.05957594196
0.05745886007
0.04700369185
0.04688545847
0.02668151047
0.03170854816
0.03296725557
0.03093852302
0.02786202426
0.02495325364
0.02379184859
0.02406046233
0.02245399156
0.01855435107
0.01637010524
0.01604404658
0.01707037645
0.01918912022
0.02184687546
0.02477287086
0.02809399546
0.03215640652
0.03707215057
0.04276506015
0.04690309836
0.04603913344
0.04087880467
0.03697018967
0.03881029785
0.04326358775
0.02571796288
0.0306977386
0.03125788279
0.02860656753
0.02513433033
0.02311641511
0.02437957501
0.02569336224
0.02414337692
0.02013873506
0.01764614055
0.01649380847
0.01650848121
0.01788619886
0.01986714495
0.02183303726
0.02364444647
0.02550686795
0.02766752107
0.03006926627
0.03199646204
0.03241977974
0.03235490351
0.03115760611
0.03287770291
0.03803171713
0.007361557866
0.009618075127
0.01164916903
0.01356783812
0.01552634206
0.0174962169
0.01941409346
0.02120118787
0.0227901761
0.02412886566
0.02517619923
0.02590359649
0.02631889093
0.02651596468
0.02672416969
0.0272058992
0.02777661174
0.02735704473
0.02595266959
0.02787487255
0.02888225501
0.02056402085
0.0180773746
0.01870715084
0.02029765409
0.02267696603
0.008051865895
0.01238162384
0.01509453583
0.01779145529
0.0207788849
0.02394003559
0.02712880069
0.0301553894
0.03287539647
0.03519114397
0.03703798116
0.03841746957
0.03952154574
0.04092239837
0.04359017032
0.04820831638
0.05347624929
0.05601101848
0.05724056546
0.06505914423
0.06799887324
0.04667577767
0.03049786819
0.02786849629
0.02938661202
0.0333385811
0.007885373453
0.01315489726
0.01664518009
0.02022738589
0.02408991296
0.02796439563
0.03160222472
0.03481055231
0.0375191834
0.03973644587
0.04154073745
0.04320585746
0.04549370046
0.04995311966
0.05868600911
0.07241658114
0.08654665442
0.09457044184
0.09989951349
0.1130516945
0.1187626656
0.08566922307
0.04459840964
0.03079829153
0.03038207643
0.03397564958
0.007566176607
0.01330810368
0.01719548124
0.02133648467
0.02573063987
0.02993614471
0.03363175347
0.03667045052
0.03910003164
0.04107848668
0.04289848624
0.04525128154
0.04968986309
0.05891626122
0.07573661639
0.09946736869
0.1213785925
0.1333267432
0.1390643036
0.1479428088
0.1505160565
0.1185508159
0.06015520811
0.03247878054
0.02925181945
0.03251865703
0.007977998962
0.01312912087
0.01707434077
0.02146237494
0.02612915146
0.0304579378
0.03407648312
0.03689697348
0.03909037486
0.04095710826
0.04298204921
0.04618823771
0.05263262191
0.0653635224
0.08707671778
0.1148022873
0.1379084994
0.1486489146
0.1498050299
0.1484935456
0.1448178905
0.1160998853
0.06132828293
0.03258607044
0.02976915567
0.034763334
0.00821678399
0.01255527742
0.01625053758
0.02064037036
0.02538693868
0.02972274417
0.03324958454
0.03594478223
0.03807775049
0.04001975238
0.04226255325
0.0457142665
0.05208026606
0.06375298513
0.08284787145
0.1066317841
0.1257608071
0.1325362812
0.128161122
0.1177809919
0.1069396521
0.08337198294
0.04665723932
0.0328124827
0.03700847863
0.04880589755
0.008465389886
0.01174846163
0.01496947682
0.01915722479
0.02381976468
0.02806965382
0.0315325581
0.03427057989
0.03662638172
0.03894434534
0.04149254693
0.04463554511
0.04918042582
0.05659141395
0.06821997388
0.08238956069
0.09374096696
0.09531234673
0.08445714074
0.06545951403
0.05653277499
0.04667773895
0.03840530493
0.04122370363
0.06192484941
0.08883173503
0.009916225478
0.01127131458
0.01364843561
0.01737976306
0.02176755922
0.02584452193
0.02932116401
0.03235501095
0.03531203222
0.03841328809
0.04161010298
0.04470232511
0.04763570492
0.05063388175
0.05400880835
0.05743631987
0.05915868112
0.05640720909
0.04900764872
0.04224401281
0.04074254846
0.04222477975
0.04693898717
0.06368163374
0.11388444
0.1479810564
0.01308179947
0.01189362868
0.0128270337
0.01570980711
0.01959551505
0.02346293741
0.02710358187
0.03071193071
0.03457349786
0.0386968335
0.04273576823
0.046182236
0.04891042362
0.05087103602
0.05195291377
0.05176884402
0.05025241029
0.04777187954
0.04548894136
0.04505330794
0.04724508495
0.0521671825
0.06319512081
0.09513612945
0.163730337
0.1871951664
0.01698474728
0.01377321055
0.01294233764
0.01451813332
0.01766206807
0.02135252429
0.0253154635
0.02962624973
0.03437927872
0.03933926708
0.04392534891
0.04760075404
0.05043778818
0.05235024612
0.05338656879
0.05354827469
0.05272589476
0.05190063354
0.05224009187
0.05431338095
0.05812179651
0.06448194999
0.07858778978
0.1160578154
0.1814308198
0.2013200313
0.02045865193
0.01651951065
0.01411867864
0.01411418483
0.01630426099
0.01984872546
0.02419622838
0.02910810062
0.03445000017
0.03984580848
0.04465936609
0.0484580626
0.05138257039
0.0534808885
0.0549852922
0.05611745116
0.05698868723
0.05814335464
0.06043537788
0.06403574265
0.06876215638
0.07546574438
0.08849819307
0.1208073525
0.1786851948
0.2037197793
0.02318355901
0.01975945771
0.01627057961
0.01469515125
0.01578256126
0.01918110163
0.02395063652
0.02932302754
0.03488612368
0.04025774927
0.04496492208
0.04861197025
0.05146196958
0.05370865318
0.0557342691
0.05786768011
0.06032222005
0.06339503925
0.06724497903
0.07182699277
0.07706556501
0.08385853451
0.09598700205
0.1222745566
0.170366053
0.1972054586
0.02530836526
0.02333973793
0.01932420823
0.01633958776
0.01620191286
0.01945171124
0.02484231637
0.03078470272
0.03636416673
0.04121801715
0.04520775918
0.04827984309
0.05067672296
0.05283087673
0.05524239767
0.05829337879
0.06227164964
0.0670899889
0.07266812069
0.07853656657
0.08419012365
0.09011938544
0.1001130039
0.1177091352
0.1470457675
0.1713819719
0.02705752137
0.02715509741
0.02321557997
0.01902551179
0.01748422916
0.02042351966
0.02673171648
0.0337153816
0.03946449257
0.04349726396
0.04611089776
0.04772480373
0.04891595397
0.05041014959
0.05297046028
0.05716601354
0.06316267123
0.07046023
0.0786135127
0.08672603031
0.09362828423
0.0992181469
0.1084687071
0.1192750929
0.1163937333
0.1264020428
0.02855989385
0.03093194842
0.02779320776
0.02267265647
0.01950955609
0.02150747886
0.02860677132
0.0371803796
0.04363520356
0.04700570097
0.04805285146
0.04758496039
0.04668115189
0.04676534391
0.04912119089
0.05451599561
0.06308923728
0.07397565746
0.08605693401
0.09779283567
0.1075932612
0.1186509817
0.1441269553
0.1709876226
0.1061622397
0.08355131602
0.02983381033
0.03426580535
0.03266215481
0.02718493351
0.02233673552
0.02234564241
0.02907990408
0.03923640828
0.04701778997
0.05023776782
0.05032758961
0.04819366065
0.04506377605
0.04313725522
0.04462990065
0.0509246495
0.0623712568
0.07806239461
0.0957423831
0.112507872
0.1281504723
0.1555195115
0.2544637209
0.2997869403
0.1451868225
0.07856295435
0.03094177576
0.03714992468
0.03721029066
0.03229842531
0.02619726102
0.02339555057
0.02764859693
0.03823555794
0.04770947628
0.05141339104
0.05116662765
0.04828826733
0.0438579753
0.0402787371
0.04062962062
0.04720311671
0.06078352462
0.08104099024
0.1043158608
0.1253559608
0.1451334129
0.1893311354
0.2660248935
0.3535491418
0.2140030381
0.08960394849
0.03209875587
0.04020742313
0.04135756998
0.0374703278
0.03106823702
0.0255458692
0.02541266011
0.0338494486
0.04457977837
0.04939713427
0.04925642724
0.04625721738
0.041677796
0.03776790636
0.03745641047
0.04298563189
0.05548364937
0.0764137067
0.102330601
0.1253888077
0.1400136966
0.1519494135
0.1936308483
0.2244513831
0.1125509189
0.06932206072
0.03315294946
0.04358081354
0.04561790807
0.04239677287
0.03630063375
0.02888839064
0.02419792485
0.02748886659
0.03739133135
0.04333529987
0.04393027421
0.04156832575
0.03797193777
0.03487406964
0.03407632014
0.03717231683
0.04577973572
0.06182326918
0.08612269246
0.1130177911
0.1333364984
0.1411207792
0.1464199856
0.1347057644
0.07867672731
0.06270191828
0.03393955013
0.04683103779
0.04984242917
0.04713827614
0.04102762144
0.03246406011
0.02455776913
0.02195513402
0.02761249341
0.03356773251
0.03541248285
0.03492526324
0.03383492292
0.03328718672
0.03392834379
0.03608265457
0.04032500711
0.04817187587
0.06200744548
0.08288965024
0.1061816063
0.1215975846
0.1103529248
0.08660368867
0.05847324601
0.05533495997
0.03430951844
0.04941190508
0.05339823479
0.05127500056
0.04492405385
0.0355613293
0.02582662819
0.01923158196
0.01951666774
0.02385772389
0.02709108721
0.02930159892
0.03136393659
0.03363242977
0.03612263915
0.03880146051
0.04186119264
0.04583653171
0.05154071205
0.05976535345
0.06999878779
0.07697910635
0.07420692054
0.06420915288
0.0549899124
0.05342455821
0.03412670281
0.05082781136
0.05572057733
0.05417778241
0.04779266088
0.03804077742
0.02771821635
0.0193178338
0.01679871977
0.01949164977
0.02346522355
0.02748462179
0.03141276686
0.03510826985
0.03844962856
0.04142298106
0.04420007519
0.04714502315
0.05073564262
0.0554205829
0.06104388932
0.06547781587
0.0667272153
0.06482608433
0.06233400378
0.06121289392
0.03330433529
0.05080194592
0.05649706672
0.0554759358
0.04949547337
0.03994915883
0.03003450983
0.02116765182
0.01788743993
0.01996282514
0.02401365899
0.02843540193
0.03276684079
0.03677702345
0.04034312044
0.04349779396
0.04649156882
0.04976042059
0.05376233851
0.05897194556
0.06523262442
0.06867246446
0.07098060755
0.07255885314
0.07232446411
0.07061905831
0.0319115103
0.049457914
0.05581312968
0.05531391946
0.04993300893
0.04132972957
0.03246554216
0.02364414504
0.01986201489
0.02139572084
0.02522505834
0.02956960986
0.03388721383
0.03795288271
0.04165740747
0.04505765252
0.04852172001
0.05259918116
0.05800460932
0.06583908637
0.07434455579
0.07797191499
0.07989226084
0.08127453862
0.08064605594
0.07704790159
0.03034397789
0.04747593362
0.05424675034
0.05414530886
0.04921634121
0.04217031715
0.03466114463
0.02627561248
0.02196454448
0.02251496889
0.02575459995
0.02984430914
0.03413258735
0.03836776635
0.04245315131
0.04649060695
0.05091139684
0.05633140585
0.06349384014
0.07294335028
0.083131718
0.08967335014
0.09248540127
0.09244490099
0.09136051796
0.02925833538
0.046029752
0.05275901868
0.05270992956
0.04776626071
0.04225508487
0.03629552398
0.02920967051
0.02461532704
0.02372151532
0.02571277138
0.0291703199
0.03331643503
0.03781643802
0.04252022741
0.04752160559
0.0531508065
0.05993217102
0.06857643783
0.07943886619
0.09027569551
0.09670292274
0.09977003993
0.102039337
0.1096748741
0.02918821392
0.04578724853
0.05197263202
0.05162874488
0.04647415994
0.04176919263
0.0375073042
0.03259052892
0.02827626369
0.02561028487
0.02572438231
0.02795627153
0.03157486114
0.03617923404
0.04142803139
0.0471262115
0.0534448591
0.06091073305
0.07076744369
0.08273852259
0.09398478758
0.1006283072
0.1054495704
0.1082880969
0.0986326747
0.02988549785
0.04586513624
0.05105866779
0.04991551489
0.04421769763
0.0404546967
0.03884322955
0.03681404206
0.03304406715
0.02865462271
0.02653470146
0.02695182347
0.02940327054
0.03356385877
0.03889033673
0.04496070683
0.05156645264
0.05891691581
0.06733533189
0.0771078774
0.08753542891
0.09749061355
0.09966898174
0.09753217045
0.08973663965
0.0296641846
0.04461527786
0.04834975097
0.04547308744
0.0401774211
0.03912106055
0.04108698673
0.04156174095
0.03828847699
0.03273209771
0.02865238879
0.02703054703
0.02773890181
0.03072752248
0.03523804847
0.04052231755
0.04642753763
0.05318505982
0.06079308754
0.06933168438
0.07704702582
0.08260444353
0.08403100469
0.08070679307
0.08118014246
0.08676756384
0.02688821192
0.0411396254
0.04304161373
0.03895590609
0.0360786607
0.03935650427
0.04429904146
0.04567062721
0.04272140609
0.03712862189
0.03213651896
0.02884672802
0.02767822901
0.02924383016
0.03274990685
0.03695942946
0.0412936124
0.04589739354
0.05123947763
0.05761356379
0.06448779468
0.07046666032
0.07292886165
0.07153403409
0.07365904336
0.08336663264
0.007963495986
0.01033435054
0.01240010332
0.01433131197
0.0163451493
0.01847089636
0.02065870659
0.02281094341
0.02482608182
0.02661707714
0.02811641487
0.02927765622
0.03008760043
0.03059553816
0.03095374036
0.03135928333
0.03178349722
0.03171892847
0.0311461459
0.03143425507
0.03101813115
0.02761936576
0.0229189851
0.02248361112
0.02372245205
0.02627695113
0.009146755626
0.01423686109
0.01732015807
0.02030233628
0.02367388107
0.02736256177
0.03122323407
0.03502083442
0.03855391982
0.04167951357
0.04431197798
0.04644234443
0.04823256103
0.0501789611
0.05316774154
0.05794987883
0.0637928173
0.06833880481
0.07178200652
0.07809561896
0.08106019266
0.06825908552
0.04616057842
0.03805469762
0.03794894982
0.04159162616
0.009056430856
0.01526188303
0.01924741051
0.02326831964
0.02765329095
0.03215481053
0.03651510149
0.04049719017
0.04398333927
0.04694825529
0.04945203164
0.05173382355
0.05447988191
0.0591820604
0.067992648
0.08185671236
0.09743466791
0.1091280023
0.1176111798
0.1290630194
0.1343555074
0.1158361611
0.07082512625
0.04508719238
0.04071100268
0.04333152653
0.008482546972
0.01526103396
0.01969937485
0.02436003788
0.0293703996
0.03427818855
0.03872939327
0.04252279212
0.04564744795
0.0482224012
0.05051095875
0.05313270422
0.0575528504
0.0665373888
0.08320454454
0.1068720449
0.1300948536
0.1451905048
0.1535510154
0.1618000489
0.1651379692
0.1468579851
0.09452295146
0.05050188831
0.04071338213
0.0421433634
0.008633199199
0.01489245699
0.0193366852
0.0242470478
0.02958199438
0.03468050208
0.03910015925
0.04266469659
0.04546391934
0.04775709999
0.05000014463
0.05313791211
0.05917999214
0.07143762707
0.09256494894
0.1199576607
0.1439154734
0.1571798281
0.1617023778
0.163241687
0.1623031231
0.144923019
0.09652720093
0.05165173578
0.04238943995
0.0448463235
0.00892452974
0.01418987455
0.01828651112
0.02316183609
0.02862198086
0.03380277959
0.03817937356
0.04160064383
0.04425220607
0.04649843077
0.04886920164
0.05230996615
0.05865971012
0.07069361645
0.09028254988
0.1145954687
0.1350455879
0.1453746694
0.1463745873
0.1416536683
0.1348525872
0.1152734688
0.07510865392
0.04922965201
0.05249744852
0.06087377826
0.008995294908
0.01321505902
0.01680559616
0.02147384323
0.02690980801
0.03207595007
0.03641047483
0.03981842092
0.04257905302
0.04509120637
0.04777035702
0.05118588654
0.05642000117
0.06524100767
0.0790660827
0.09652255315
0.1116926839
0.1182404406
0.1141335994
0.1018240047
0.08960490206
0.07311082208
0.05535173048
0.05614156091
0.08364992594
0.09999478544
0.009836632423
0.01235507858
0.01527698153
0.01955653017
0.0247769497
0.02979475564
0.03409707721
0.0376761613
0.04086371172
0.04397660438
0.04716000261
0.05048695023
0.05424756298
0.05916643409
0.06608062532
0.07473378083
0.0820963684
0.0830107262
0.07520244649
0.06457060007
0.05775752601
0.05425927564
0.05703039287
0.08098423995
0.1360688822
0.1525379743
0.01195884276
0.01234551625
0.01417161866
0.01775844992
0.02250119447
0.02725211193
0.03160380838
0.03561253093
0.03955638361
0.04354266823
0.0473991504
0.05085173776
0.05380541109
0.0565210763
0.05926717363
0.06197221082
0.06372584717
0.06271112673
0.05909583055
0.05566950196
0.05478586222
0.05783968354
0.07100631086
0.1122978807
0.1794918196
0.1889812249
0.01480666884
0.01338126463
0.01385850519
0.01636933301
0.0203554909
0.02481184803
0.02938860218
0.03406938192
0.0389256898
0.04377225396
0.0481774839
0.05173420602
0.0544045702
0.05642996553
0.05802666762
0.05926372696
0.05993813828
0.05972338164
0.05898298515
0.05895044981
0.06074907067
0.0664959647
0.08368721246
0.1283205337
0.1916074952
0.1990107949
0.0174379828
0.01518106564
0.01443075193
0.0156263398
0.01866364969
0.02288947433
0.02789554385
0.03337611609
0.0390647638
0.0445118826
0.04917077635
0.05267008838
0.05513545915
0.05690284092
0.05827865899
0.05944144753
0.06041431936
0.06121933644
0.0621538499
0.06381093179
0.06689969715
0.07335817607
0.08959682216
0.1279423277
0.1834145243
0.1967481911
0.01949086564
0.01744541839
0.01577085708
0.01567074554
0.01771988895
0.02182701903
0.02747044317
0.03381810145
0.04014427245
0.0458285472
0.05038771629
0.05361248348
0.05576623071
0.05730126321
0.05859761831
0.05989475496
0.06130551583
0.06295848116
0.06510135926
0.06799948251
0.07192720457
0.07818461819
0.0915912485
0.1214450615
0.1690904818
0.1889985765
0.02107735805
0.02003448129
0.01777850669
0.01653721004
0.01764175501
0.02174563288
0.0282908451
0.03567264344
0.04250098223
0.04805949601
0.05211665795
0.05476661973
0.05638115068
0.05752845085
0.05865588053
0.06008035513
0.06201847998
0.06466486781
0.06816138249
0.07236852459
0.07696487452
0.08255112456
0.09310660312
0.1139698609
0.1471378827
0.1718102973
0.02247170696
0.0229496849
0.02044499455
0.01820840785
0.01833341309
0.02239310813
0.0300749002
0.03880675523
0.04618882594
0.05138813903
0.0545671961
0.05623489787
0.05699643894
0.05747528908
0.05827027926
0.05988087391
0.06268028499
0.06689439554
0.07242776015
0.07850665014
0.08406132951
0.08957111139
0.1003651557
0.1168268047
0.1251038331
0.1421864487
0.02400778214
0.02626757523
0.02382139188
0.0207070407
0.01965266232
0.02318098369
0.03181985093
0.04218213044
0.05038016638
0.05526816741
0.05744326807
0.05786139378
0.05737728786
0.05682496366
0.05714631218
0.05921181943
0.06355358522
0.07035570142
0.07911872785
0.08808328371
0.09567780667
0.1050689345
0.1294411466
0.1596273801
0.1266911965
0.1114685254
0.02602700228
0.03011516869
0.02799104467
0.02418143753
0.02170081556
0.02368377282
0.03222294122
0.0441034407
0.05346424241
0.0583542349
0.05976337616
0.05906909607
0.05731210009
0.05555835517
0.05527899081
0.0580052888
0.06470289682
0.07527806395
0.08848207986
0.101117131
0.1121349981
0.132633238
0.1924058692
0.2500475366
0.1903418724
0.1065099741
0.0284247503
0.03455720495
0.03303633499
0.02885004728
0.02491916519
0.0242387508
0.03067372969
0.043111964
0.05385590868
0.0591872132
0.06029562565
0.05894509133
0.05636393661
0.05374606701
0.05295913979
0.05625582441
0.06531406515
0.07998589131
0.09770878965
0.1135945485
0.1265046739
0.1535524175
0.2211962176
0.2534074882
0.2825151542
0.1213109946
0.03079313839
0.03917210031
0.03887798504
0.03474887532
0.02966349667
0.02580161586
0.027954466
0.03869749945
0.05049435205
0.0566904983
0.05811107443
0.0567128009
0.05395738349
0.05116705015
0.05023482863
0.05361078291
0.06352579091
0.08036658924
0.1009127432
0.1184507303
0.1275073261
0.1377939208
0.1792632885
0.2411996833
0.1663629127
0.1034110125
0.03300664011
0.04374566361
0.04489047623
0.04140966129
0.03556603703
0.02885300912
0.02585555992
0.03189085611
0.04308967481
0.05023432545
0.05256020821
0.05193721853
0.04991609273
0.04785450484
0.04725753274
0.04994547939
0.05817698296
0.07390485363
0.09518961408
0.1156429544
0.1272153307
0.1285465096
0.1495158914
0.1549700441
0.1197872858
0.09475429853
0.03486304694
0.04807484195
0.05056008315
0.04786088769
0.04158625138
0.03280043605
0.02558761041
0.0254340778
0.03303470706
0.04037077982
0.04397416844
0.04501482412
0.04484534458
0.04458003463
0.04513212527
0.04732388567
0.05230546419
0.06201227301
0.07820659695
0.09890270165
0.1181625641
0.1239801172
0.1258321373
0.1149939143
0.09701125296
0.08919580222
0.03613908931
0.05172454992
0.05543359726
0.05334293233
0.04681947889
0.03684813181
0.02713664819
0.02208308741
0.02444188454
0.03036456281
0.03509757622
0.0383022016
0.04059163731
0.04248087938
0.04436182343
0.0465830737
0.04961451841
0.05423350494
0.06150165673
0.0720008882
0.08450052234
0.09563674897
0.09332060437
0.08791972204
0.08180432094
0.0830455782
0.03664216077
0.05427396428
0.05908026185
0.05750388587
0.05089508354
0.04061240428
0.03004899523
0.0225491927
0.02138588002
0.0252831909
0.03028534873
0.03486844875
0.03874270528
0.04188872043
0.0444471068
0.046683513
0.04897914192
0.05183828881
0.05584147835
0.06143415187
0.06814362327
0.0736974046
0.07595498209
0.07583003365
0.07563829086