/*--------------------------------*- C++ -*----------------------------------*\
  =========                 |
  \\      /  F ield         | OpenFOAM: The Open Source CFD Toolbox
   \\    /   O peration     | Website:  https://openfoam.org
    \\  /    A nd           | Version:  8
     \\/     M anipulation  |
\*---------------------------------------------------------------------------*/
FoamFile
{
    version     2.0;
    format      ascii;
    class       volScalarField;
    location    "1.7";
    object      nut;
}
// * * * * * * * * * * * * * * * * * * * * * * * * * * * * * * * * * * * * * //

dimensions      [0 2 -1 0 0 0 0];

internalField   nonuniform List<scalar> 
67410
(
8.934621575e-05
0.0001092762721
0.0001203282851
0.0001298554746
0.0001382502547
0.000145422722
0.0001513901966
0.0001562373362
0.0001600887828
0.0001630763441
0.0001653428063
0.0001671067222
0.0001688435234
0.000171598825
0.00017699405
0.0001856265705
0.0001937086613
0.0001923945233
0.0001840008656
0.0002104514906
0.0002383196132
0.0001610306844
0.0001435204083
0.0001437470653
0.0001494751312
0.000155155158
9.124125862e-05
0.0001154829643
0.0001290274572
0.0001402546315
0.0001498333485
0.0001579623279
0.0001648332999
0.0001706035404
0.0001754147297
0.0001794140958
0.0001828580005
0.0001864320749
0.0001919064612
0.0002025163544
0.000220824671
0.0002437887543
0.0002612402022
0.0002615013397
0.0002557030655
0.0002963381424
0.0003279580333
0.0002267433611
0.0001775713319
0.0001594474376
0.000162582867
0.0001696003275
9.00980832e-05
0.0001177097249
0.0001329420255
0.0001451573176
0.0001553016069
0.0001637931862
0.0001709219056
0.0001768867746
0.0001818760792
0.0001861694756
0.0001904685949
0.0001967282105
0.0002090515646
0.000231865643
0.0002640557248
0.0002969474943
0.0003191055415
0.0003203528716
0.0003158911875
0.00035918544
0.0003890099082
0.0002990356221
0.000224303005
0.0001718420141
0.0001643664302
0.0001721253629
9.067729414e-05
0.0001191809411
0.0001347819673
0.0001473476275
0.0001577248035
0.0001663400523
0.0001734827548
0.0001793818489
0.0001843290559
0.0001889050493
0.0001946913257
0.0002055564168
0.0002272884281
0.0002619731995
0.0003037239983
0.0003425855985
0.0003685329107
0.0003720222382
0.0003636616684
0.0004000929494
0.0004256726865
0.000349306173
0.0002608756063
0.0001864423111
0.0001654419788
0.0001809726024
9.43875937e-05
0.0001197214743
0.0001347405034
0.00014734408
0.0001578515162
0.0001665206834
0.0001736066629
0.0001793944842
0.0001843342025
0.0001893781903
0.0001969559477
0.0002121246993
0.0002403872458
0.0002812348504
0.0003268184496
0.0003683405631
0.0003965064821
0.0004008204801
0.0003805063987
0.0004023630875
0.0004195647072
0.0003392773104
0.0002470255313
0.0001837141341
0.0001803481297
0.0002209733262
9.604018596e-05
0.0001182211415
0.0001324380796
0.0001451459942
0.0001559006924
0.0001647215565
0.0001718661099
0.0001777260992
0.0001828737313
0.0001882448857
0.0001957798817
0.0002092881299
0.0002335254301
0.0002702280412
0.0003144560032
0.0003572806
0.0003861157041
0.000387003652
0.0003485818549
0.000328305671
0.0003495181076
0.0002598931956
0.000198260518
0.0001968056406
0.0002287930019
0.0002924552566
9.949482536e-05
0.000115583659
0.0001282386695
0.0001410783771
0.0001523152029
0.0001615841788
0.0001692027366
0.0001757192561
0.0001816978157
0.0001875190638
0.0001933959057
0.0001997959226
0.0002083425923
0.0002227586184
0.0002476196561
0.0002813890395
0.0003067079555
0.0002990180774
0.000249664849
0.0002150860638
0.0002206424342
0.0002035644861
0.0002152075606
0.0002491368321
0.000302606825
0.0003697469199
0.0001127786831
0.0001159288659
0.0001237592937
0.0001358963097
0.0001477491583
0.0001579868016
0.0001668922351
0.0001751219438
0.0001831390202
0.0001909596148
0.0001982166458
0.0002043753296
0.000208877431
0.0002115461204
0.0002130160422
0.0002142795876
0.0002145451097
0.0002093993141
0.0001984581634
0.0001996002451
0.0002114723571
0.000229018138
0.0002593820615
0.0003113107096
0.0003770664191
0.0004397229726
0.0001348936627
0.0001243807887
0.0001222565174
0.0001310397328
0.0001430926919
0.0001548303605
0.0001658274305
0.0001764205238
0.0001866914579
0.0001963671643
0.0002050525668
0.0002123722266
0.0002172347151
0.0002187343316
0.0002168413265
0.0002129869223
0.0002091803737
0.0002082544471
0.0002133027078
0.0002244573728
0.0002394114467
0.0002611546242
0.0003008257916
0.0003614933027
0.0004323846858
0.0004832706392
0.0001562932629
0.0001401677586
0.0001270404625
0.0001286594606
0.0001393750699
0.0001526184699
0.0001658219573
0.0001784360034
0.0001902182038
0.0002009492373
0.0002105236062
0.0002186186684
0.0002237479117
0.0002254789448
0.0002239283912
0.0002205056994
0.0002194119947
0.0002239752087
0.0002345658395
0.0002481077209
0.0002631426818
0.0002858659894
0.0003277504541
0.0003887192983
0.0004560547171
0.0004988026356
0.0001724725297
0.000158053736
0.0001384676915
0.0001309505036
0.0001376463498
0.0001513832329
0.000165950881
0.0001794591317
0.0001916284942
0.0002025401053
0.0002123500306
0.0002206580644
0.0002260012734
0.000228142757
0.0002277215038
0.000227008392
0.000230357914
0.0002401623218
0.0002539425515
0.0002679915169
0.0002819452621
0.000302561959
0.0003416011998
0.0003996310288
0.0004644433079
0.0005087521447
0.0001835525118
0.0001745106883
0.0001542597888
0.0001391370325
0.0001391015454
0.0001516559667
0.000166491388
0.0001797100447
0.0001910837607
0.0002010990166
0.0002101536294
0.0002182626492
0.000223843045
0.0002267614227
0.000228445841
0.000232116096
0.0002412260375
0.0002556379326
0.0002718342378
0.0002862184608
0.0002980101508
0.0003116175381
0.0003396542221
0.0003927985623
0.0004624720779
0.0005124170907
0.0001906542316
0.0001880833667
0.000171301683
0.0001526776751
0.0001447154498
0.0001544703756
0.0001691394723
0.0001815902965
0.0001912395829
0.0001989738992
0.0002057508956
0.0002120944109
0.0002176271501
0.0002220752324
0.0002274866329
0.0002370798092
0.0002521137345
0.0002708507553
0.00028947635
0.0003048963967
0.000314709503
0.0003174307114
0.0003167908853
0.0003359111855
0.0003983327668
0.0004735948783
0.0001948285729
0.0001985149178
0.0001867577748
0.0001690279333
0.0001542955549
0.0001594735107
0.0001741683918
0.0001866985721
0.0001950100298
0.00019982322
0.0002025659021
0.0002051613
0.00020925241
0.0002158799258
0.0002264652267
0.00024244327
0.0002634380528
0.0002872267523
0.0003100237463
0.0003285468759
0.0003398301065
0.0003407986525
0.0003306612064
0.0003131426856
0.0002969514672
0.0003535030714
0.0001969235835
0.0002063780583
0.000199226464
0.0001849859142
0.0001667403846
0.0001649834722
0.0001790796374
0.0001932198496
0.0002021530109
0.0002056070451
0.0002044753571
0.0002016468358
0.0002018694842
0.0002092007447
0.0002248501664
0.0002480349582
0.0002765706222
0.0003069214649
0.000334664584
0.0003565158693
0.0003700626194
0.0003746503673
0.0003815652703
0.0003573556733
0.0002935219576
0.0002663563287
0.0001976697863
0.0002126923153
0.0002088889572
0.000198453057
0.0001807246732
0.0001705970012
0.0001810155983
0.0001974610586
0.0002091631781
0.0002140445948
0.0002113737269
0.0002036977154
0.0001975451304
0.0002017660393
0.000221543356
0.0002540242683
0.0002921373716
0.0003290603939
0.0003605968336
0.0003847793138
0.0004008520676
0.0004181862269
0.000477951864
0.0004741591011
0.000335993831
0.0002630983685
0.0001979461499
0.0002183128098
0.0002168034914
0.0002089319273
0.0001944601984
0.000178158367
0.0001793775816
0.0001962169679
0.0002117081895
0.0002192758044
0.0002175904498
0.0002081329003
0.0001968674206
0.0001958306945
0.0002183392045
0.0002609502625
0.0003077133735
0.0003484934172
0.0003818840224
0.0004073716075
0.0004255830441
0.00044928682
0.0005097671072
0.0006121467463
0.0004209233201
0.0002873712162
0.0001980479526
0.0002236311008
0.0002241060689
0.0002172834503
0.0002055691507
0.0001887976456
0.000177487531
0.0001881007179
0.0002071656532
0.0002167739646
0.0002163823746
0.0002073896157
0.0001953321719
0.0001926388031
0.0002157618028
0.0002618926622
0.0003117502853
0.0003541425137
0.0003889266173
0.0004150298449
0.0004309183833
0.0004379733626
0.0004437100927
0.0004338602134
0.0003341453833
0.0002596764638
0.0001978754564
0.0002286508689
0.0002309237765
0.0002249612221
0.000213584207
0.0001990157191
0.0001803046562
0.0001748195926
0.0001942135372
0.0002056745373
0.0002057248042
0.0001975078391
0.0001853548739
0.0001759019714
0.0001779693391
0.0001991953483
0.0002403342859
0.0002926715545
0.000342135452
0.0003820763437
0.0004083022856
0.0004188959255
0.0004119116196
0.0003487455764
0.0002640846215
0.000232440084
0.0001972399285
0.0002329583487
0.000236940614
0.0002316863541
0.000220051118
0.0002050747357
0.0001862989166
0.0001628216996
0.0001723206371
0.0001854956611
0.0001863247532
0.0001805747956
0.0001740485296
0.0001712262301
0.0001737524993
0.0001817942751
0.0001976036361
0.000225907775
0.0002685315845
0.0003109599369
0.0003421453772
0.000356496999
0.0003274280274
0.0002486935311
0.0002003960621
0.0002052853239
0.0001959499814
0.0002359009531
0.0002414309536
0.000236750523
0.0002245159154
0.0002082906125
0.0001892860963
0.0001568632706
0.0001472292269
0.000158055361
0.0001633933283
0.0001655596352
0.0001686602555
0.0001736938135
0.0001797057802
0.0001857044563
0.0001916728125
0.0001988471735
0.0002096913666
0.0002277808153
0.0002491907395
0.0002602235295
0.0002287661273
0.0002047288326
0.0001993135652
0.0002006215438
0.0001938060476
0.0002367534332
0.0002435752548
0.0002392798759
0.000226221552
0.0002089156608
0.0001896078733
0.000155914813
0.0001361177838
0.0001417221853
0.0001518450631
0.0001613372092
0.0001703893471
0.0001788491247
0.0001863530651
0.0001926875146
0.0001978339309
0.0002019961219
0.0002057810683
0.0002099695194
0.0002150757521
0.0002205382068
0.0002253453581
0.0002168458435
0.0002179639659
0.000222366515
0.0001906007293
0.0002348766073
0.000242675496
0.0002385241637
0.0002246374539
0.0002072745793
0.0001890838304
0.0001583099453
0.0001384907732
0.0001417818571
0.0001526930361
0.0001638877516
0.0001741995547
0.0001834532636
0.0001916451293
0.0001988615033
0.0002052334658
0.0002110177363
0.0002173805307
0.000225803883
0.0002371741133
0.0002485971624
0.00025790123
0.0002392046253
0.0002371725696
0.0002448815508
0.0001861563702
0.0002298663851
0.0002382456831
0.0002339903032
0.000219543308
0.0002039719349
0.00018879168
0.0001619914583
0.0001435172609
0.0001448582508
0.0001549218487
0.0001660566398
0.0001766101627
0.0001863316183
0.0001953075631
0.00020388209
0.000212393645
0.0002217164562
0.0002338234684
0.0002506450482
0.0002712302674
0.0002859963725
0.0002959954435
0.000269417712
0.0002573736537
0.0002622397361
0.0001804591408
0.0002217210341
0.000230058528
0.000225380684
0.0002119448776
0.0002000582379
0.0001888715862
0.0001659433184
0.0001483917215
0.0001465932712
0.0001549862109
0.0001659063079
0.0001768770364
0.0001873689739
0.000197494157
0.0002079193285
0.0002193641667
0.0002329970994
0.0002507359688
0.0002732013327
0.0002971485335
0.0003174093549
0.0003281449001
0.0002991726036
0.0002768879079
0.00017419868
0.0002114229851
0.0002187711891
0.0002137526939
0.0002046898688
0.0001968724224
0.0001887919216
0.0001699293489
0.0001540883162
0.0001480662019
0.0001532848531
0.0001633628383
0.0001747786392
0.000186388074
0.0001981394835
0.0002109535142
0.0002256174026
0.0002423004562
0.0002626822986
0.0002881090655
0.0003137966969
0.0003344062676
0.0003450309108
0.0003197636948
0.0002994306599
0.0001716538217
0.0002042513765
0.0002107292636
0.0002067755117
0.0002012305514
0.0001950892779
0.0001878463878
0.0001742127881
0.0001614575965
0.0001509408346
0.0001511986694
0.0001589376747
0.0001701181923
0.0001828210591
0.0001964819041
0.0002119446879
0.0002284491095
0.0002434407132
0.0002583482002
0.0002814913399
0.0003055314197
0.0003241630752
0.0003243280263
0.0003019696145
0.000278701271
0.0001761922258
0.0002075165703
0.000213405399
0.0002091826841
0.0002018858452
0.0001935701545
0.0001859913777
0.0001793948563
0.0001703741158
0.0001561740704
0.0001507222992
0.0001543498482
0.0001637046118
0.0001765388071
0.0001912856404
0.0002079231505
0.0002263243463
0.000242703085
0.0002585506845
0.000278313467
0.0002932382891
0.0002923362385
0.0002870903054
0.0002596904798
0.0002593034148
0.0001807658294
0.0002131851559
0.0002173724279
0.0002105726608
0.0001998310886
0.0001891178264
0.0001846828213
0.0001857277903
0.0001794084934
0.000163102149
0.0001532186273
0.0001516952798
0.0001564812187
0.000165911254
0.0001770275592
0.0001885118398
0.000200757955
0.0002147921718
0.0002306340477
0.0002476914369
0.0002593573689
0.0002569472895
0.0002421517922
0.0002302754388
0.0002359084292
0.0002490588817
0.0001774642983
0.0002097514952
0.0002116526103
0.0002024745547
0.0001897915534
0.0001820371925
0.0001869595192
0.0001919141147
0.0001860209785
0.0001699197684
0.0001590775411
0.0001538046597
0.0001538854971
0.0001601831132
0.0001688164825
0.0001769660479
0.0001841590199
0.0001912782774
0.0001992223857
0.0002076896223
0.0002142312326
0.0002156507119
0.0002154435796
0.0002114078088
0.0002171434748
0.0002335313723
8.830845127e-05
0.0001101183984
0.0001211922512
0.0001307950954
0.0001399177234
0.000148526967
0.0001564521977
0.0001634894832
0.0001694994892
0.0001744001566
0.0001781381571
0.0001806867951
0.0001821255335
0.0001828095693
0.000183542883
0.0001852198868
0.0001871804239
0.0001857779844
0.0001809821545
0.0001876193128
0.0001909671498
0.0001610413721
0.0001509460186
0.0001535447198
0.0001599364606
0.0001690482015
9.235584182e-05
0.0001858771871
0.0002179948194
0.0002499408999
0.0002881303525
0.0003316710831
0.0003776931078
0.0004221402663
0.0004613854069
0.000492617322
0.0005135384116
0.0005225756338
0.00052036108
0.0005121865803
0.0005088251213
0.0005206255548
0.0005409221733
0.0005472579932
0.0005530117547
0.0005917229669
0.00059705273
0.0004714571683
0.0003664146285
0.0003636133405
0.0003870946084
0.0004446266262
9.139673908e-05
0.0002013070121
0.0002481762656
0.0002996319497
0.000361345684
0.000429188918
0.0004964984951
0.0005564707051
0.0006043371906
0.0006371199233
0.000652845052
0.0006517120834
0.0006406076639
0.0006383928031
0.0006722961316
0.0007521491214
0.0008279243485
0.0008684085226
0.0008958369586
0.000944062906
0.0009199864454
0.0007403856039
0.0004777785313
0.000413275444
0.0004337032866
0.000497201851
8.952579783e-05
0.000203982206
0.0002599931196
0.0003258687666
0.0004049942995
0.0004888108315
0.0005666617778
0.0006299548658
0.0006745658309
0.0006994111844
0.0007049070564
0.0006961547155
0.0006911259234
0.0007229998429
0.000806498269
0.0009331611184
0.001052691015
0.001124359898
0.001164037488
0.001172698366
0.00111532117
0.0009268887655
0.0005807606226
0.0004189067558
0.0004281606743
0.0004797878339
9.192304775e-05
0.0002018315557
0.0002605061125
0.0003333073573
0.0004214569063
0.0005120825169
0.0005914536815
0.0006507634256
0.0006882889084
0.0007060477035
0.0007074970652
0.0007021012297
0.000713324018
0.0007650478973
0.0008718378216
0.00102081495
0.001146012758
0.001211640101
0.001228807239
0.001186261479
0.001090136123
0.000904173925
0.0005810148864
0.0004104668063
0.0004176549926
0.0004574708149
9.32847032e-05
0.0001943800086
0.0002498509918
0.0003224480466
0.0004115597971
0.0005012032361
0.0005764241622
0.0006300301245
0.0006634931994
0.0006816372063
0.0006891220508
0.0006936924948
0.000711858194
0.0007581647326
0.0008493023744
0.0009724323596
0.00107157253
0.001109332507
0.001088214164
0.001002336583
0.0008729366312
0.0007001697539
0.0004855392871
0.0004018473443
0.0004468176285
0.0005157091004
9.469669661e-05
0.0001821814744
0.0002311585871
0.000298203072
0.0003816180903
0.0004640770299
0.000531967075
0.0005814466247
0.0006173568341
0.0006459746991
0.000669761516
0.0006881439943
0.000704009348
0.0007302989801
0.000782563421
0.0008441376763
0.0008896390896
0.0008810609804
0.0007940768431
0.0006554509649
0.0005614530393
0.0004977158593
0.000435975075
0.000441519867
0.0006120032523
0.0007329336915
0.0001025242674
0.0001692560161
0.0002103354311
0.0002680664513
0.0003407541053
0.0004119397366
0.00047185725
0.0005208479521
0.0005658182266
0.0006116971848
0.0006562225215
0.0006916619246
0.0007134806151
0.0007224300387
0.000722075274
0.0007134598292
0.0006919011755
0.0006470116193
0.0005806391049
0.000512541017
0.0004764076475
0.0004720296829
0.0004894233587
0.0006065856783
0.000943469104
0.001079437185
0.0001177730398
0.0001645950924
0.000194053316
0.0002393667772
0.0002982887434
0.0003574619823
0.0004122160085
0.0004664141289
0.0005268569285
0.0005944403466
0.00065957667
0.0007065892066
0.000738314571
0.0007573734027
0.0007599527915
0.0007339056978
0.000685605764
0.0006294693429
0.0005793319535
0.0005468702834
0.0005422249175
0.0005609894799
0.0006233823668
0.000838355097
0.001228935301
0.001299598377
0.0001341795888
0.0001721978741
0.000186853069
0.0002171391788
0.0002614422205
0.0003110918375
0.0003651050711
0.0004280991982
0.00050431858
0.000589111691
0.0006646903733
0.0007139829978
0.0007504218353
0.0007731586842
0.000782431841
0.0007736483176
0.000734904606
0.0006909261054
0.0006626028592
0.0006567634576
0.000668802903
0.00069316784
0.0007665884854
0.0009726866804
0.001298893813
0.001345496186
0.0001472372086
0.0001882138369
0.0001894996626
0.0002039275291
0.000234601538
0.0002784684986
0.0003353853568
0.0004073658556
0.0004948385062
0.000589275535
0.000669728008
0.0007221087727
0.000760118602
0.0007849719405
0.0007996046941
0.000803640888
0.000790819834
0.000771027067
0.0007657044188
0.0007779332045
0.0007972906538
0.0008190162985
0.0008618314926
0.0009943733447
0.001239607264
0.001295728042
0.0001567156142
0.0002111282016
0.0002009781997
0.0002002798353
0.0002192782655
0.0002607275074
0.0003236427452
0.0004043948955
0.0004979335527
0.0005941356537
0.0006761212221
0.000727517771
0.0007634503717
0.0007876197626
0.0008048118034
0.0008166988275
0.0008223394312
0.0008261623554
0.0008304344276
0.000839868544
0.0008553055584
0.000877410799
0.0009139680303
0.0009992876092
0.001164623242
0.001223189764
0.0001637267582
0.0002414791357
0.0002221349233
0.0002060923495
0.0002144041359
0.0002560554177
0.0003295543416
0.0004227704866
0.0005206871016
0.0006102876119
0.0006816791161
0.0007285535982
0.0007561731443
0.0007744573563
0.0007895699398
0.0008042486986
0.000822443366
0.000836192254
0.0008495501033
0.0008649528815
0.000883019313
0.0009079785953
0.0009518138241
0.001009238796
0.001084542557
0.001116921669
0.0001692813224
0.0002802639371
0.0002562403387
0.0002226504632
0.0002175728108
0.0002591822336
0.0003479860644
0.0004618057658
0.0005682320222
0.0006470943524
0.000695948244
0.0007190063997
0.0007255525748
0.0007274158099
0.000736126532
0.0007596180779
0.0007974930782
0.0008289900469
0.0008546925668
0.0008792224759
0.0009026927391
0.0009319046792
0.0009908447215
0.001030052878
0.001036393027
0.0009839636151
0.0001739099696
0.0003245666791
0.0003064615041
0.0002534743548
0.0002279466312
0.0002618201663
0.0003635158137
0.0005042682756
0.0006272783182
0.0006984511403
0.0007237087245
0.0007137388968
0.000685012809
0.0006606375602
0.0006587455154
0.0006878799614
0.0007471078951
0.000806234569
0.0008522761892
0.0008934483419
0.000929044866
0.0009789631272
0.001088314189
0.001131954426
0.0009966134336
0.0008155289414
0.0001777380239
0.0003642351703
0.0003703725149
0.0003033504221
0.0002494742134
0.0002596986992
0.0003571938326
0.0005189970415
0.0006639293111
0.0007339044306
0.0007521012616
0.0007258564515
0.0006666568284
0.0006091055776
0.0005830899356
0.0006056053491
0.0006806197341
0.0007717024358
0.0008524477813
0.0009220361285
0.000984471293
0.001093334744
0.001417174328
0.001494779218
0.001102228416
0.0007665304542
0.0001810040471
0.0003977838733
0.0004334320737
0.0003723682607
0.0002905713683
0.0002602872728
0.0003252286584
0.0004862696086
0.0006523844841
0.0007315116837
0.0007517873786
0.0007288486753
0.0006603862723
0.0005791546984
0.000526069325
0.0005329387144
0.0006140025011
0.0007280257041
0.000847861632
0.000946024789
0.001026341193
0.001182237977
0.001411490081
0.001572855632
0.001269214474
0.0007614349716
0.0001843530347
0.0004319609652
0.0004906133782
0.0004465622935
0.0003553815531
0.0002782600857
0.0002858923961
0.0004128250895
0.0005870695533
0.0006886945183
0.0007149321269
0.0006959201
0.0006326463244
0.000551656586
0.0004900180458
0.0004822617504
0.0005492311832
0.000662632502
0.0008048824087
0.000924522193
0.0009983302766
0.001062624989
0.001229104065
0.001315764533
0.0009214102136
0.0007098375983
0.0001873513441
0.0004692077425
0.0005470814933
0.000513654266
0.0004312031225
0.0003186158163
0.0002634642449
0.0003261532005
0.0004770704244
0.0005926627555
0.0006347651612
0.0006280190614
0.0005917832125
0.0005470165467
0.0005095638924
0.0004880731799
0.0005023862225
0.0005803646734
0.0007197358451
0.0008639418874
0.000968846053
0.001017449106
0.001048473882
0.00100250393
0.0007266910212
0.0006971901665
0.0001895563505
0.0005046982859
0.0006003188701
0.0005768958399
0.0004944327974
0.0003677069239
0.0002658029428
0.0002594397399
0.0003503291604
0.0004505456647
0.0005071109632
0.0005317946659
0.0005438282181
0.0005547180026
0.0005651545362
0.0005688360887
0.0005661043765
0.0005780943054
0.0006413261822
0.0007750180278
0.0009057167132
0.0009785344329
0.0009424238739
0.0008351790857
0.0006917407475
0.0006697967018
0.0001905824783
0.0005324979867
0.000644942947
0.0006308782748
0.0005445451043
0.0004105673925
0.0002852524789
0.0002317415042
0.0002615966084
0.0003317596322
0.000399588118
0.000463809258
0.0005299818161
0.000596627369
0.0006564152757
0.0007012685617
0.0007303099378
0.000754201521
0.0007903848386
0.0008518477251
0.0009291173854
0.0009612993365
0.0009270315081
0.0008702603602
0.000777735988
0.0007252229244
0.0001900707308
0.0005478543892
0.0006756861722
0.0006701015026
0.0005810927137
0.000442764586
0.0003155064472
0.000240757033
0.0002421548704
0.000296529938
0.0003721208418
0.0004600742824
0.0005562332357
0.0006523540488
0.0007377800524
0.0008034990931
0.0008485414096
0.0008817121208
0.000915467602
0.0009609466058
0.001016295353
0.001051673167
0.001055442665
0.001032064581
0.0009695149085
0.0009309047006
0.0001877654642
0.0005483998093
0.0006893024443
0.0006907781418
0.0006029163675
0.0004658646295
0.0003525676975
0.0002723781569
0.0002649137316
0.0003180273445
0.0003984366682
0.0004936410671
0.0005974970032
0.0007013674135
0.0007937989898
0.0008659512386
0.0009203393848
0.0009697484367
0.001022492402
0.001087335611
0.001159886571
0.001183977011
0.001198719653
0.001222876128
0.001197969172
0.00116419266
0.0001838000087
0.0005355379373
0.0006864306304
0.0006941890701
0.0006083770955
0.0004821842793
0.0003921834258
0.0003132155388
0.0002973362948
0.0003472153779
0.0004280384997
0.0005233422325
0.0006266781715
0.0007306758241
0.0008244467591
0.0008984751049
0.0009603608538
0.001023158887
0.001097077566
0.001193637672
0.001288080344
0.001291937041
0.001298258219
0.001339367356
0.001338047998
0.001295437998
0.0001792361601
0.0005160316212
0.0006730963187
0.0006848118202
0.000596266222
0.0004934978704
0.0004310413438
0.0003590718098
0.0003326296336
0.0003702163585
0.0004429448238
0.0005325088496
0.0006323981241
0.000737071869
0.000837697598
0.0009242588765
0.001001045698
0.001079318659
0.001166072033
0.001263904169
0.001349168416
0.001384496609
0.001397655259
0.001445581171
0.001478407501
0.0001760081415
0.0005027130668
0.0006600789322
0.0006704744108
0.0005732625628
0.0004984127025
0.0004629725544
0.0004093851054
0.0003775794922
0.0003930543481
0.0004450440874
0.0005198123689
0.0006118369937
0.0007182029603
0.0008331292556
0.0009447299743
0.001043006698
0.001136873506
0.001233347229
0.001337752086
0.00142086704
0.001453527311
0.001468205219
0.001542875677
0.001671256324
0.000175797394
0.0005037487232
0.0006561073381
0.0006600202218
0.0005588379778
0.0005029100556
0.000494899443
0.0004735732698
0.0004428695067
0.0004284969789
0.0004473719126
0.0004959065835
0.0005719577192
0.0006769066203
0.0008081827063
0.0009455432483
0.001068134283
0.001178008635
0.00128811451
0.001406185283
0.001495951652
0.001538187055
0.001573056806
0.001637475357
0.001610757099
0.0001778743976
0.0005163634369
0.0006559760545
0.0006453345041
0.0005411627732
0.0005049639738
0.0005338414163
0.0005573358191
0.0005334520293
0.0004869462552
0.0004651795986
0.0004768734705
0.0005236834245
0.0006104905595
0.0007355578199
0.000885581287
0.001021052472
0.001146039685
0.001263072396
0.001382656879
0.001483755958
0.001559413513
0.001574678661
0.001578999395
0.001521742064
0.0001772010207
0.0005224164353
0.0006354473521
0.0005959735879
0.0005056983885
0.0005128698531
0.0005947088996
0.0006598868622
0.0006417803356
0.0005695280958
0.0005101214725
0.000481827009
0.0004906764908
0.0005451536735
0.0006370388169
0.0007510440204
0.000877867087
0.001015793009
0.001143262764
0.00126765377
0.001364312902
0.001419277589
0.0013928592
0.001313237155
0.001355457543
0.001458279717
0.0001687009984
0.0005040731382
0.0005701293692
0.0005085307085
0.0004684545717
0.0005541133645
0.0006855953026
0.0007608048928
0.0007424240945
0.0006643437925
0.0005848377651
0.0005228686225
0.0004917543853
0.0005109504843
0.0005710012953
0.0006473335162
0.0007240534224
0.0008017327341
0.000889963506
0.0009956879005
0.001112290223
0.001206898208
0.001200565001
0.001129950357
0.001151342089
0.001300067771
9.184669895e-05
0.0001141427168
0.0001250347581
0.0001344237504
0.0001435617851
0.0001526134012
0.0001613975733
0.0001695929129
0.0001769199163
0.0001831837957
0.0001882652174
0.0001921064783
0.0001947398927
0.0001963754208
0.0001975283863
0.000198834572
0.0002001956781
0.000200011191
0.0001982204005
0.0001991695142
0.0001978471634
0.0001866294813
0.000169978294
0.0001683424104
0.0001729153276
0.0001819852623
9.843344696e-05
0.0002352619813
0.0002858256848
0.0003322883277
0.0003867016407
0.0004488113616
0.0005149212673
0.0005794316316
0.0006374294294
0.0006856433307
0.0007222415045
0.0007464098639
0.000758767917
0.0007627509059
0.0007656422335
0.0007755917889
0.0007918977337
0.0008037435743
0.0008143496599
0.0008295798431
0.0008067903451
0.0007090455621
0.0006040621673
0.0005743643868
0.0005860108725
0.0006442932339
9.794693894e-05
0.0002638907077
0.000337947408
0.0004146801969
0.0005045948126
0.0006028444289
0.0007005571073
0.00078876946
0.0008618310521
0.0009172152235
0.0009540008769
0.0009719446334
0.0009730213328
0.0009669901539
0.0009765434393
0.001021482121
0.001086979956
0.001139949788
0.001180428649
0.001212966274
0.001171224483
0.001021696515
0.0007960300411
0.0007028270656
0.0007144598787
0.0007797654281
9.47915881e-05
0.0002657154947
0.0003533950206
0.0004508007901
0.0005654978273
0.0006863705326
0.0007992194728
0.0008934533571
0.000964772451
0.001013068802
0.001039083157
0.00104332443
0.001031371955
0.001027829213
0.001073589964
0.001175845647
0.00129344324
0.001378286884
0.001427393221
0.001438501997
0.001373889344
0.001210411121
0.0009334021253
0.0007392406763
0.0007450267248
0.0007963374673
9.562303169e-05
0.0002600381492
0.0003504163639
0.0004564639624
0.000583761862
0.0007153624976
0.0008329260486
0.0009252067927
0.0009899190961
0.001029388837
0.001045778123
0.00104062538
0.001024577518
0.001033202647
0.001106486724
0.001241524742
0.001372388888
0.001454686314
0.00148711056
0.001465061644
0.001372075752
0.001203741319
0.0009342352404
0.0007371307344
0.0007411580177
0.0007599539684
9.721689633e-05
0.0002485443074
0.0003332885706
0.0004380670184
0.0005678296443
0.0007013272518
0.0008175256303
0.0009054700408
0.0009649639872
0.00100052657
0.001015790112
0.001012910438
0.001001740675
0.001012653633
0.001081633427
0.001200685184
0.001312081313
0.001374761753
0.001382254103
0.001327743532
0.001205399115
0.001030558649
0.0008192888
0.0007330731964
0.0007574599684
0.000777353352
9.760726025e-05
0.0002300619948
0.0003061461521
0.0004038089608
0.0005285004167
0.0006568227657
0.0007674550012
0.0008511541843
0.0009100149972
0.0009501708136
0.0009756746019
0.0009871157303
0.0009873531056
0.0009927829153
0.001028969831
0.001100374654
0.001170233295
0.001198283064
0.001169690681
0.001078417191
0.0009454484382
0.0008203667893
0.0007681595137
0.000781846639
0.0009201541974
0.0009825030584
0.0001020947235
0.0002068798305
0.00027568973
0.0003630034609
0.0004765268321
0.0005935501232
0.0006958131479
0.0007773148798
0.0008418721682
0.0008948067148
0.0009376903778
0.0009689974219
0.0009882639238
0.0009996831595
0.001010757614
0.001027520964
0.001039309076
0.001020920553
0.0009684414856
0.0009087891938
0.0008385595728
0.0008006181775
0.000815186003
0.0009403504002
0.001234269594
0.00128237217
0.0001125910854
0.0001926188528
0.0002497724164
0.0003238789448
0.0004212681297
0.0005232614594
0.0006174801772
0.0007017600438
0.0007794055762
0.0008508841703
0.0009112441719
0.0009552061312
0.0009833841562
0.001004652022
0.001019968632
0.001026896567
0.0010185061
0.0009874867934
0.0009446999979
0.0009027358385
0.0008685336645
0.0008639512634
0.0009206567396
0.00114796456
0.001470972566
0.00147251211
0.0001252781031
0.0001931953698
0.0002343159133
0.0002919877169
0.0003702586648
0.000457540805
0.0005478941556
0.0006408974072
0.0007360088135
0.0008261979795
0.0008996147483
0.0009481701892
0.0009784729426
0.0009997199475
0.001015201165
0.00102486945
0.001023904741
0.001005249378
0.0009755711327
0.0009485161985
0.0009337948183
0.0009434513475
0.001015000985
0.001234193982
0.001509912237
0.001494335261
0.0001359375826
0.0002033564641
0.0002307075789
0.0002701644411
0.0003292683877
0.0004057650157
0.0004984946631
0.000604689776
0.0007170409313
0.0008216533677
0.0009031561365
0.0009536509698
0.0009838378434
0.001002632444
0.001015518261
0.001024403172
0.001027232529
0.001020703
0.001005772283
0.000989090517
0.000979821648
0.0009889686236
0.001042692565
0.001202857149
0.001421723255
0.001424128892
0.0001437007864
0.0002215557513
0.0002370246823
0.0002588865329
0.0003014779675
0.0003725669873
0.0004741247748
0.000596686444
0.0007235189757
0.000836087262
0.0009199906636
0.0009700885689
0.0009971818304
0.001012033835
0.001021040626
0.001026586943
0.001027353962
0.001020921898
0.001007703079
0.0009931800698
0.0009857602376