/*--------------------------------*- C++ -*----------------------------------*\
  =========                 |
  \\      /  F ield         | OpenFOAM: The Open Source CFD Toolbox
   \\    /   O peration     | Website:  https://openfoam.org
    \\  /    A nd           | Version:  8
     \\/     M anipulation  |
\*---------------------------------------------------------------------------*/
FoamFile
{
    version     2.0;
    format      ascii;
    class       volScalarField;
    location    "1.7";
    object      p;
}
// * * * * * * * * * * * * * * * * * * * * * * * * * * * * * * * * * * * * * //

dimensions      [1 -1 -2 0 0 0 0];

internalField   nonuniform List<scalar> 
67410
(
100003.9667
100003.9376
100003.9262
100003.9108
100003.899
100003.8892
100003.8819
100003.8773
100003.8758
100003.8778
100003.8839
100003.8949
100003.9121
100003.9368
100003.9688
100004.0043
100004.0329
100004.0474
100004.052
100004.0659
100004.0454
100003.9627
100003.9501
100003.9261
100003.9097
100003.9016
100003.9494
100003.9248
100003.9116
100003.893
100003.8768
100003.8624
100003.8509
100003.8427
100003.8379
100003.8368
100003.8394
100003.8461
100003.8567
100003.8702
100003.8848
100003.8972
100003.9064
100003.9151
100003.9212
100003.9229
100003.8802
100003.883
100003.8925
100003.8857
100003.8707
100003.8671
100003.9362
100003.9166
100003.9029
100003.8836
100003.8662
100003.8506
100003.8377
100003.8281
100003.822
100003.8194
100003.8205
100003.8249
100003.8314
100003.8378
100003.8434
100003.8511
100003.8649
100003.8792
100003.8874
100003.9053
100003.8641
100003.8491
100003.8649
100003.8679
100003.8563
100003.8594
100003.9236
100003.9066
100003.8911
100003.8708
100003.8518
100003.8344
100003.8198
100003.8086
100003.8009
100003.7968
100003.7962
100003.7978
100003.7997
100003.8014
100003.81
100003.8367
100003.8704
100003.8886
100003.8942
100003.928
100003.892
100003.8284
100003.8363
100003.8489
100003.8422
100003.8412
100003.9165
100003.8988
100003.8832
100003.8624
100003.8427
100003.8243
100003.8086
100003.7962
100003.7873
100003.7819
100003.7798
100003.7795
100003.7792
100003.7834
100003.8104
100003.8605
100003.9051
100003.9087
100003.8891
100003.8751
100003.8559
100003.8266
100003.8397
100003.8407
100003.8292
100003.8025
100003.9104
100003.8926
100003.8775
100003.8563
100003.8358
100003.8162
100003.7992
100003.7852
100003.7749
100003.7682
100003.7652
100003.7649
100003.7664
100003.7718
100003.7905
100003.8216
100003.8524
100003.8474
100003.8355
100003.8415
100003.8551
100003.8452
100003.8477
100003.8213
100003.7995
100003.7255
100003.9086
100003.89
100003.8751
100003.8532
100003.8319
100003.8109
100003.7922
100003.7765
100003.7646
100003.7569
100003.7537
100003.755
100003.7605
100003.7702
100003.7851
100003.804
100003.8216
100003.8298
100003.8351
100003.8638
100003.8704
100003.8577
100003.8359
100003.7889
100003.7588
100003.7077
100003.9026
100003.8857
100003.8726
100003.8513
100003.8297
100003.8074
100003.7868
100003.7691
100003.7552
100003.7462
100003.7428
100003.7453
100003.7539
100003.7685
100003.7882
100003.8095
100003.8293
100003.8428
100003.8528
100003.8646
100003.8628
100003.8384
100003.8095
100003.7661
100003.7975
100003.855
100003.8873
100003.8756
100003.8664
100003.8479
100003.8275
100003.8044
100003.7819
100003.7617
100003.7455
100003.7348
100003.7306
100003.7332
100003.7423
100003.7569
100003.7762
100003.7983
100003.8203
100003.8311
100003.8346
100003.8368
100003.8327
100003.8195
100003.7989
100003.7966
100003.9264
100004.067
100003.8661
100003.8604
100003.8567
100003.8424
100003.8243
100003.8012
100003.7774
100003.7552
100003.737
100003.7248
100003.7197
100003.7219
100003.7307
100003.7444
100003.7617
100003.7813
100003.7997
100003.8113
100003.8174
100003.8221
100003.8272
100003.8308
100003.8318
100003.88
100004.0561
100004.2164
100003.8445
100003.8425
100003.8447
100003.8352
100003.82
100003.7979
100003.7736
100003.7502
100003.7307
100003.7171
100003.7106
100003.7114
100003.7189
100003.7316
100003.7485
100003.7675
100003.7849
100003.7981
100003.81
100003.8272
100003.8539
100003.8871
100003.9269
100003.985
100004.1495
100004.2911
100003.8238
100003.8236
100003.8305
100003.8266
100003.8149
100003.7947
100003.7709
100003.7473
100003.7274
100003.713
100003.705
100003.7036
100003.7089
100003.7202
100003.7364
100003.7553
100003.7735
100003.793
100003.8195
100003.8619
100003.9243
100004.003
100004.1096
100004.0814
100004.1468
100004.2173
100003.8043
100003.8047
100003.8146
100003.8165
100003.8096
100003.7922
100003.7696
100003.7464
100003.7268
100003.7122
100003.7033
100003.7002
100003.7025
100003.7113
100003.7251
100003.7432
100003.7654
100003.7968
100003.85
100003.935
100004.0535
100004.184
100004.4734
100004.1728
100004.1577
100004.0419
100003.7871
100003.7873
100003.7982
100003.8054
100003.8047
100003.7913
100003.7706
100003.7478
100003.7285
100003.7142
100003.7049
100003.7003
100003.7005
100003.7059
100003.7164
100003.7328
100003.759
100003.8055
100003.8947
100004.0456
100004.2736
100004.4883
100005.2292
100004.2347
100004.2764
100003.9914
100003.7745
100003.7736
100003.7835
100003.7939
100003.8006
100003.7928
100003.7753
100003.7526
100003.733
100003.7182
100003.7086
100003.7037
100003.7026
100003.7049
100003.711
100003.7235
100003.7501
100003.8098
100003.941
100004.1816
100004.5871
100005.0017
100006.8959
100004.3571
100004.4409
100004.0574
100003.7704
100003.7678
100003.7732
100003.7831
100003.7968
100003.7966
100003.7847
100003.7619
100003.7408
100003.7243
100003.7128
100003.7073
100003.7062
100003.7071
100003.7087
100003.7133
100003.7324
100003.7978
100003.9713
100004.3484
100005.1153
100006.4837
100012.5192
100004.4209
100004.6177
100004.0482
100003.776
100003.7722
100003.7713
100003.7757
100003.7919
100003.8008
100003.7977
100003.776
100003.7521
100003.7325
100003.7182
100003.7101
100003.7087
100003.7105
100003.7098
100003.7072
100003.713
100003.766
100003.8993
100004.1013
100004.292
100004.4399
100003.915
100004.3485
100003.6624
100003.8574
100003.7899
100003.7854
100003.7799
100003.7763
100003.7871
100003.8024
100003.811
100003.7936
100003.767
100003.7438
100003.7265
100003.7159
100003.7125
100003.7124
100003.7078
100003.6959
100003.6821
100003.707
100003.8271
100004.0476
100004.3601
100004.6874
100004.7399
100003.924
100003.8871
100003.8576
100003.8104
100003.8057
100003.797
100003.7867
100003.7891
100003.8027
100003.8203
100003.8106
100003.7841
100003.758
100003.7374
100003.723
100003.7142
100003.7095
100003.7062
100003.7039
100003.7063
100003.7186
100003.7645
100003.8697
100004.0043
100004.4315
100004.0282
100003.9321
100003.8998
100003.8732
100003.835
100003.8304
100003.8197
100003.805
100003.8012
100003.8101
100003.8285
100003.826
100003.804
100003.7782
100003.7557
100003.738
100003.7251
100003.7167
100003.7125
100003.7134
100003.7218
100003.7419
100003.7751
100003.8257
100003.8835
100004.0761
100003.921
100003.8916
100003.862
100003.8372
100003.8608
100003.8569
100003.845
100003.8286
100003.8222
100003.8307
100003.847
100003.8451
100003.8261
100003.8005
100003.7752
100003.7526
100003.7345
100003.7214
100003.7144
100003.7151
100003.7261
100003.7513
100003.7942
100003.8456
100003.8886
100003.9271
100003.9001
100003.8952
100003.8641
100003.8587
100003.8848
100003.8816
100003.87
100003.8549
100003.8508
100003.864
100003.8798
100003.8738
100003.852
100003.8237
100003.7942
100003.7673
100003.7452
100003.7293
100003.7209
100003.7211
100003.7314
100003.7536
100003.7881
100003.8348
100003.8825
100003.9143
100003.8722
100003.861
100003.8365
100003.8341
100003.9036
100003.9013
100003.8916
100003.8811
100003.8844
100003.906
100003.9233
100003.91
100003.8798
100003.8466
100003.8119
100003.7812
100003.7561
100003.738
100003.7283
100003.728
100003.7383
100003.7603
100003.794
100003.8369
100003.8568
100003.877
100003.8644
100003.868
100003.852
100003.8583
100003.9152
100003.9141
100003.9072
100003.9043
100003.9191
100003.9503
100003.9723
100003.9474
100003.9075
100003.869
100003.8291
100003.7954
100003.7678
100003.748
100003.7373
100003.737
100003.7487
100003.7744
100003.8208
100003.9466
100003.953
100003.9229
100003.9139
100003.9044
100003.9133
100003.945
100003.9188
100003.9184
100003.9142
100003.9209
100003.955
100004.0078
100004.0659
100004.0084
100003.939
100003.8913
100003.8447
100003.8081
100003.7789
100003.7577
100003.7458
100003.745
100003.7576
100003.7844
100003.8282
100003.895
100003.9537
100004.0025
100004.0143
100003.9675
100003.956
100003.9156
100003.9137
100003.9052
100003.9089
100003.9313
100003.9624
100003.9776
100003.9522
100003.9171
100003.8827
100003.8472
100003.8154
100003.7879
100003.7667
100003.7535
100003.7514
100003.7657
100003.7963
100003.8429
100003.9139
100003.9992
100004.0689
100004.125
100004.1075
100004.4148
100003.9111
100003.9083
100003.8957
100003.8987
100003.9187
100003.9461
100003.958
100003.9359
100003.9041
100003.876
100003.8475
100003.8204
100003.7956
100003.7747
100003.7601
100003.757
100003.7749
100003.8109
100003.8567
100003.9224
100003.9964
100004.0677
100004.2251
100003.9867
100004.0171
100003.9073
100003.9005
100003.884
100003.8846
100003.9007
100003.9203
100003.9245
100003.9048
100003.883
100003.8635
100003.8438
100003.8237
100003.8039
100003.7855
100003.7709
100003.7631
100003.7699
100003.7953
100003.8371
100003.8937
100003.9461
100003.9637
100003.9732
100003.9703
100004.0102
100003.8997
100003.8874
100003.8721
100003.874
100003.8897
100003.9032
100003.9001
100003.8826
100003.8641
100003.8502
100003.8372
100003.8236
100003.8097
100003.7962
100003.7861
100003.7829
100003.7899
100003.8082
100003.838
100003.8819
100003.9224
100003.9543
100003.9788
100003.9739
100003.9653
100003.9526
100003.8772
100003.8638
100003.8558
100003.8676
100003.8861
100003.8904
100003.8815
100003.8694
100003.8488
100003.8393
100003.8298
100003.8216
100003.8133
100003.8052
100003.7995
100003.8001
100003.8099
100003.8285
100003.8553
100003.892
100003.9388
100003.9589
100003.9821
100003.9782
100003.9766
100003.9671
100003.8457
100003.818
100003.8059
100003.7893
100003.7758
100003.7644
100003.7559
100003.7505
100003.7482
100003.7491
100003.7531
100003.7602
100003.7699
100003.781
100003.7919
100003.8015
100003.811
100003.8207
100003.8217
100003.7975
100003.7515
100003.7898
100003.7933
100003.7882
100003.7747
100003.7636
100003.8283
100003.8047
100003.7909
100003.7713
100003.7538
100003.7381
100003.7256
100003.7165
100003.7111
100003.7092
100003.7105
100003.7142
100003.7183
100003.7191
100003.7141
100003.7067
100003.7054
100003.7103
100003.7097
100003.6884
100003.6487
100003.7128
100003.7385
100003.7471
100003.7341
100003.7215
100003.8127
100003.7949
100003.7805
100003.7603
100003.7418
100003.725
100003.7114
100003.7012
100003.6945
100003.6911
100003.6903
100003.6904
100003.6871
100003.677
100003.6652
100003.661
100003.6645
100003.6702
100003.6732
100003.6698
100003.6533
100003.6705
100003.6944
100003.7211
100003.7101
100003.6958
100003.7999
100003.7842
100003.7681
100003.7468
100003.727
100003.709
100003.6941
100003.6825
100003.6743
100003.6692
100003.6661
100003.6617
100003.6518
100003.6399
100003.6372
100003.6416
100003.6486
100003.6555
100003.6599
100003.6464
100003.6221
100003.6385
100003.6546
100003.6838
100003.6767
100003.6456
100003.7928
100003.7767
100003.7601
100003.7383
100003.718
100003.6992
100003.6832
100003.6704
100003.661
100003.6545
100003.6496
100003.6427
100003.6327
100003.6259
100003.6267
100003.6333
100003.6411
100003.6441
100003.649
100003.624
100003.6037
100003.6295
100003.6487
100003.6544
100003.6303
100003.5569
100003.7861
100003.7703
100003.7542
100003.7323
100003.7114
100003.6915
100003.6742
100003.66
100003.6492
100003.6417
100003.6366
100003.6314
100003.6251
100003.621
100003.62
100003.6222
100003.6256
100003.6261
100003.6394
100003.6403
100003.6214
100003.6583
100003.6554
100003.6003
100003.5539
100003.4755
100003.7831
100003.7671
100003.7517
100003.7294
100003.7078
100003.6865
100003.6674
100003.6513
100003.6388
100003.6305
100003.6266
100003.6268
100003.6307
100003.6381
100003.6481
100003.6577
100003.6663
100003.6737
100003.6901
100003.6972
100003.6857
100003.6646
100003.6222
100003.5209
100003.491
100003.4763
100003.7764
100003.7621
100003.749
100003.7276
100003.7058
100003.6831
100003.6619
100003.6432
100003.6283
100003.6182
100003.6138
100003.6155
100003.6234
100003.6373
100003.6578
100003.6809
100003.702
100003.7055
100003.7065
100003.7002
100003.675
100003.6295
100003.5639
100003.4773
100003.4859
100003.473
100003.7606
100003.7503
100003.7421
100003.7241
100003.7038
100003.6802
100003.6566
100003.635
100003.6171
100003.6049
100003.5994
100003.6009
100003.6092
100003.6243
100003.6455
100003.6707
100003.6955
100003.6937
100003.686
100003.67
100003.6427
100003.5964
100003.5378
100003.4929
100003.5057
100003.4969
100003.7367
100003.7322
100003.7302
100003.7177
100003.7004
100003.677
100003.6517
100003.6274
100003.6072
100003.5931
100003.5864
100003.5868
100003.5937
100003.6066
100003.624
100003.6431
100003.6584
100003.6602
100003.6533
100003.6404
100003.6207
100003.5869
100003.5506
100003.5336
100003.549
100003.5452
100003.7115
100003.7105
100003.7147
100003.7083
100003.6953
100003.6733
100003.6473
100003.6217
100003.5999
100003.5844
100003.5761
100003.5746
100003.5795
100003.5903
100003.6051
100003.6209
100003.6327
100003.6339
100003.6299
100003.6248
100003.617
100003.6011
100003.5778
100003.5751
100003.5888
100003.5859
100003.6885
100003.688
100003.6966
100003.6963
100003.6886
100003.6692
100003.6439
100003.6182
100003.5961
100003.5797
100003.5697
100003.5661
100003.5685
100003.5764
100003.5878
100003.5992
100003.6078
100003.6124
100003.6171
100003.6227
100003.6255
100003.6205
100003.5858
100003.5963
100003.5874
100003.5694
100003.668
100003.6663
100003.6766
100003.6819
100003.6803
100003.6648
100003.6411
100003.6163
100003.595
100003.5788
100003.568
100003.562
100003.5618
100003.5659
100003.5729
100003.579
100003.5846
100003.5926
100003.6037
100003.6148
100003.617
100003.6196
100003.5224
100003.6182
100003.6074
100003.554
100003.6511
100003.6485
100003.6567
100003.6653
100003.671
100003.6609
100003.6396
100003.6158
100003.5955
100003.5803
100003.5701
100003.5639
100003.5611
100003.5607
100003.5603
100003.5582
100003.5587
100003.5672
100003.5804
100003.5861
100003.5471
100003.5312
100002.8697
100003.4934
100003.5453
100003.5968
100003.6392
100003.6366
100003.6406
100003.6484
100003.6609
100003.6585
100003.6413
100003.618
100003.598
100003.583
100003.5731
100003.5674
100003.5638
100003.559
100003.5504
100003.5378
100003.5285
100003.5341
100003.5457
100003.5473
100003.4569
100003.4512
100002.5688
100003.2665
100003.3509
100003.5805
100003.6338
100003.6302
100003.6318
100003.6351
100003.6497
100003.6574
100003.6474
100003.6245
100003.6035
100003.587
100003.5759
100003.5694
100003.5659
100003.5593
100003.5427
100003.516
100003.4907
100003.4876
100003.4753
100003.4191
100002.7346
100002.9155
99996.18577
100002.6855
100002.7222
100003.4889
100003.6352
100003.6294
100003.6295
100003.6295
100003.6397
100003.6557
100003.657
100003.6363
100003.613
100003.5941
100003.5797
100003.5708
100003.5665
100003.5607
100003.5405
100003.5068
100003.4833
100003.4815
100003.4878
100003.4869
100003.4038
100003.3217
100002.8074
100002.802
100002.997
100003.3899
100003.644
100003.6359
100003.6329
100003.6313
100003.6366
100003.6516
100003.6668
100003.6533
100003.6269
100003.605
100003.5881
100003.5768
100003.5707
100003.5638
100003.5395
100003.4956
100003.4611
100003.4542
100003.4632
100003.4823
100003.4703
100003.479
100003.0701
100003.2849
100003.3667
100003.5461
100003.6589
100003.6491
100003.6428
100003.6388
100003.6416
100003.651
100003.6729
100003.6726
100003.6455
100003.6211
100003.6018
100003.5884
100003.5806
100003.5753
100003.5665
100003.5478
100003.5187
100003.4876
100003.4796
100003.4881
100003.4714
100003.485
100003.4291
100003.4068
100003.5304
100003.6214
100003.6779
100003.6672
100003.6588
100003.6522
100003.6543
100003.662
100003.6797
100003.6918
100003.6702
100003.6446
100003.6232
100003.6069
100003.5948
100003.5856
100003.5782
100003.5713
100003.5632
100003.5518
100003.5386
100003.5303
100003.5186
100003.5453
100003.5656
100003.5986
100003.6393
100003.6568
100003.6988
100003.6881
100003.6788
100003.6717
100003.6757
100003.6858
100003.7009
100003.7141
100003.7
100003.6742
100003.6484
100003.6252
100003.6059
100003.5912
100003.5813
100003.5763
100003.5765
100003.5809
100003.5867
100003.5906
100003.593
100003.5852
100003.6298
100003.6631
100003.6735
100003.6862
100003.7192
100003.7098
100003.7014
100003.6973
100003.7061
100003.7237
100003.74
100003.7462
100003.7286
100003.7004
100003.669
100003.6402
100003.6163
100003.5985
100003.5874
100003.5832
100003.5858
100003.5946
100003.6076
100003.6232
100003.6461
100003.6603
100003.6519
100003.6645
100003.6611
100003.6547
100003.7372
100003.7303
100003.7246
100003.727
100003.7438
100003.7737
100003.7957
100003.7887
100003.7567
100003.723
100003.6852
100003.6531
100003.6264
100003.6065
100003.594
100003.589
100003.591
100003.5987
100003.6075
100003.6136
100003.6444
100003.6477
100003.6418
100003.6679
100003.6631
100003.6502
100003.7512
100003.7476
100003.7464
100003.7575
100003.7843
100003.824
100003.8479
100003.8176
100003.7823
100003.7439
100003.7009
100003.6664
100003.6374
100003.6156
100003.6017
100003.5957
100003.5971
100003.6023
100003.5975
100003.5228
100003.6425
100003.6574
100003.6413
100003.6768
100003.6818
100003.6545
100003.7595
100003.7593
100003.7643
100003.7902
100003.846
100003.9395
100004.0607
100003.9371
100003.8388
100003.7816
100003.7198
100003.6801
100003.6483
100003.6247
100003.6092
100003.6024
100003.6043
100003.613
100003.6247
100003.6386
100003.6591
100003.6608
100003.6444
100003.6818
100003.6765
100003.76
100003.7587
100003.7595
100003.7732
100003.8049
100003.8413
100003.8528
100003.8203
100003.7886
100003.7553
100003.718
100003.6854
100003.6565
100003.6327
100003.6156
100003.6072
100003.6084
100003.6183
100003.6325
100003.6481
100003.67
100003.6811
100003.6737
100003.7169
100003.7546
100003.7578
100003.7543
100003.7539
100003.7643
100003.7956
100003.8324
100003.8468
100003.8213
100003.7795
100003.7514
100003.72
100003.6915
100003.6648
100003.6401
100003.6201
100003.6082
100003.6072
100003.6219
100003.65
100003.6695
100003.6759
100003.6465
100003.53
100003.7248
100003.751
100003.7459
100003.7392
100003.7387
100003.7453
100003.766
100003.7861
100003.7898
100003.7714
100003.7503
100003.7348
100003.7161
100003.6958
100003.6742
100003.6511
100003.6294
100003.6124
100003.6059
100003.6132
100003.6295
100003.6456
100003.6704
100003.7165
100003.7246
100003.7657
100003.768
100003.7303
100003.7211
100003.7228
100003.7285
100003.7442
100003.7609
100003.7612
100003.7431
100003.728
100003.7198
100003.7098
100003.6979
100003.6838
100003.668
100003.6537
100003.644
100003.6404
100003.6435
100003.6574
100003.6813
100003.6983
100003.7257
100003.7527
100003.781
100003.7748
100003.7626
100003.7147
100003.7058
100003.7094
100003.7154
100003.7336
100003.7433
100003.7342
100003.7155
100003.7074
100003.7049
100003.7008
100003.696
100003.6895
100003.6804
100003.6722
100003.6686
100003.6713
100003.6801
100003.6942
100003.7128
100003.7382
100003.7654
100003.7896
100003.8145
100003.8124
100003.7955
100003.6907
100003.6641
100003.6524
100003.6368
100003.6245
100003.6141
100003.6065
100003.6018
100003.5999
100003.6008
100003.6043
100003.6103
100003.6183
100003.6284
100003.6405
100003.6536
100003.6657
100003.6748
100003.68
100003.6815
100003.6762
100003.6599
100003.6462
100003.6345
100003.6233
100003.6143
100003.6757
100003.6532
100003.6415
100003.6252
100003.6108
100003.5977
100003.587
100003.5789
100003.5738
100003.5717
100003.5725
100003.5759
100003.5817
100003.5895
100003.5987
100003.6082
100003.6168
100003.6235
100003.6285
100003.6332
100003.6322
100003.6218
100003.6131
100003.6011
100003.5889
100003.5781
100003.6594
100003.6441
100003.6333
100003.6173
100003.6025
100003.5884
100003.5763
100003.5667
100003.56
100003.5563
100003.5557
100003.5579
100003.5626
100003.5693
100003.5774
100003.5864
100003.5946
100003.6009
100003.6047
100003.6036
100003.5979
100003.5934
100003.5914
100003.5801
100003.5677
100003.5569
100003.6467
100003.6345
100003.6232
100003.6069
100003.5911
100003.5757
100003.5622
100003.5511
100003.5429
100003.5379
100003.5362
100003.5377
100003.5419
100003.5482
100003.5551
100003.5628
100003.5714
100003.5763
100003.5777
100003.5766
100003.5699
100003.5625
100003.5665
100003.5577
100003.5456
100003.5339
100003.64
100003.628
100003.6162
100003.5996
100003.5832
100003.5669
100003.5521
100003.5397
100003.5303
100003.5243
100003.5221
100003.5235
100003.5284
100003.5356
100003.5449
100003.5568
100003.5679
100003.569
100003.5656
100003.5605
100003.5546
100003.5499
100003.5528
100003.5437
100003.5304
100003.5168
100003.6334
100003.6211
100003.6098
100003.5931
100003.5763
100003.5589
100003.5429
100003.5291
100003.5185
100003.5117
100003.5093
100003.5115
100003.5182
100003.5281
100003.5412
100003.5569
100003.5707
100003.5682
100003.564
100003.5614
100003.5577
100003.5532
100003.5485
100003.5348
100003.5186
100003.503
100003.6276
100003.616
100003.6048
100003.588
100003.5707
100003.5522
100003.5347
100003.5194
100003.5075
100003.5001
100003.4978
100003.5012
100003.5108
100003.526
100003.5459
100003.5699
100003.5941
100003.5883
100003.5861
100003.5841
100003.5727
100003.5579
100003.5443
100003.5289
100003.5067
100003.4794
100003.6189
100003.6086
100003.5989
100003.5826
100003.5653
100003.5458
100003.5269
100003.51
100003.4967
100003.4882
100003.4857
100003.49
100003.502
100003.5225
100003.5497
100003.584
100003.6258
100003.6069
100003.5949
100003.5809
100003.5663
100003.5509
100003.5373
100003.5261
100003.4852
100003.469
100003.6043
100003.5964
100003.5897
100003.5755
100003.5591
100003.5393
100003.5193
100003.5007
100003.4857
100003.4757
100003.4721
100003.4759
100003.4874
100003.5077
100003.5369
100003.5741
100003.6303
100003.5951
100003.5816
100003.565
100003.5533
100003.5443
100003.5361
100003.529
100003.4879
100003.4891
100003.5855
100003.5808
100003.5776
100003.5665
100003.5519
100003.5326
100003.512
100003.4921
100003.4755
100003.4639
100003.4586
100003.4599
100003.4678
100003.482
100003.5011
100003.523
100003.5453
100003.5464
100003.5444
100003.5409
100003.5405
100003.5448
100003.5442
100003.5537
100003.5133
100003.5179
100003.5673
100003.5648
100003.5644
100003.5564
100003.5442
100003.5262
100003.5057
100003.4851
100003.4673
100003.4542
100003.4471
100003.4462
100003.4512
100003.4622
100003.4782
100003.4971
100003.5153
100003.5188
100003.5206
100003.5239
100003.5315
100003.5434
100003.5541
100003.5662
100003.5458
100003.541
100003.5516
100003.5496
100003.5512
100003.5461
100003.5366
100003.5206
100003.501
100003.4804
100003.4619
100003.4477
100003.439
100003.4359
100003.4382
100003.4456
100003.4572
100003.4709
100003.484
100003.4927
100003.5011
100003.5128
100003.5298
100003.5522
100003.5681
100003.5741
100003.558
100003.5444
100003.5377
100003.5359
100003.5384
100003.5361
100003.5296
100003.5163
100003.4982
100003.478
100003.4594
100003.4446
100003.4347
100003.4298
100003.4299
100003.4341
100003.442
100003.4523
100003.4632
100003.4744
100003.489
100003.5095
100003.5361
100003.5743
100003.5947
100003.5849
100003.5729
100003.5477
100003.5255
100003.5235
100003.5266
100003.5265
100003.5235
100003.5135
100003.4975
100003.4782
100003.4599
100003.445
100003.4344
100003.4282
100003.4262
100003.4273
100003.4315
100003.4386
100003.4475
100003.4601
100003.4806
100003.51
100003.5431
100003.5985
100003.6054
100003.5642
100003.5813
100003.5641
100003.5165
100003.5131
100003.5165
100003.5182
100003.5185
100003.5125
100003.4994
100003.4814
100003.4633
100003.448
100003.4368
100003.4297
100003.4259
100003.4245
100003.4249
100003.428
100003.4345
100003.4461
100003.4711
100003.5135
100003.5543
100003.6346
100003.6847
100003.489
100003.5727
100003.5652
100003.512
100003.5072
100003.5092
100003.5118
100003.515
100003.5134
100003.5042
100003.4876
100003.4693
100003.4531
100003.4407
100003.4324
100003.4275
100003.4244
100003.4219
100003.4207
100003.4237
100003.4281
100003.45
100003.4976
100003.4958
100003.6199
100003.5526
100003.3815
100003.5064
100003.5277
100003.5128
100003.5069
100003.507
100003.5085
100003.5135
100003.5159
100003.5116
100003.4968
100003.4781
100003.4604
100003.4461
100003.4362
100003.4301
100003.4262
100003.4223
100003.418
100003.4155
100003.4141
100003.4286
100003.4585
100003.4659
100003.4626
100003.4191
100003.2511
100003.397
100003.4716
100003.5195
100003.5118
100003.5105
100003.5098
100003.5145
100003.5196
100003.5203
100003.5089
100003.4898
100003.4708
100003.4546
100003.4427
100003.4348
100003.4296
100003.4244
100003.4185
100003.4134
100003.4071
100003.4169
100003.4454
100003.4791
100003.499
100003.4709
100003.4311
100003.5082
100003.526
100003.5315
100003.5221
100003.5192
100003.5167
100003.52
100003.5261
100003.5301
100003.5231
100003.504
100003.4843
100003.4663
100003.4522
100003.4421
100003.4353
100003.4298
100003.4243
100003.4188
100003.4141
100003.4111
100003.416
100003.4183
100003.3045
100003.4689
100003.4633
100003.5386
100003.5348
100003.5475
100003.5369
100003.5323
100003.5293
100003.5322
100003.5394
100003.5443
100003.5403
100003.5215
100003.5013
100003.4817
100003.4654
100003.453
100003.4441
100003.438
100003.4346
100003.4338
100003.4354
100003.44
100003.4459
100003.4414
100003.3388
100003.4989
100003.5205
100003.554
100003.5487
100003.5658
100003.555
100003.5504
100003.5485
100003.5545
100003.5651
100003.5714
100003.5646
100003.5441
100003.5227
100003.5001
100003.4805
100003.4644
100003.4524
100003.4447
100003.4417
100003.4438
100003.4515
100003.4648
100003.4828
100003.4981
100003.4932
100003.5345
100003.548
100003.5589
100003.5591
100003.5848
100003.5753
100003.5731
100003.5763
100003.5915
100003.6118
100003.6253
100003.6045
100003.5732
100003.5477
100003.5193
100003.496
100003.4766
100003.4623
100003.4535
100003.4509
100003.4549
100003.4657
100003.4827
100003.5044
100003.5256
100003.5349
100003.5473
100003.5515
100003.5495
100003.5406
100003.6033
100003.5965
100003.5994
100003.6125
100003.6449
100003.688
100003.7382
100003.6766
100003.6113
100003.5768
100003.5375
100003.5109
100003.4887
100003.4724
100003.4625
100003.4595
100003.4636
100003.4749
100003.494
100003.5207
100003.5569
100003.5498
100003.5485
100003.5473
100003.5402
100003.5353
100003.6198
100003.6168
100003.6275
100003.6525
100003.695
100003.7244
100003.7653
100003.6747
100003.6319
100003.5933
100003.552
100003.5253
100003.501
100003.483
100003.4718
100003.468
100003.4709
100003.4802
100003.4941
100003.5084
100003.5253
100003.5517
100003.5455
100003.5415
100003.5216
100003.4944
100003.632
100003.6339
100003.6623
100003.7334
100003.8819
100004.0602
100004.5863
100003.9664
100003.7807
100003.6733
100003.5802
100003.5449
100003.5141
100003.4936
100003.4811
100003.4763
100003.4792
100003.4904
100003.5097
100003.5448
100003.5567
100003.5612
100003.5566
100003.5503
100003.5302
100003.6307
100003.6283
100003.6398
100003.6637
100003.6983
100003.7247
100003.7437
100003.6765
100003.6391
100003.604
100003.5699
100003.5448
100003.5215
100003.5025
100003.4896
100003.4837
100003.4857
100003.4964
100003.5137
100003.5355
100003.5566
100003.5709
100003.5648
100003.5485
100003.3262
100003.6269
100003.6227
100003.632
100003.6556
100003.7009
100003.7601
100003.8274
100003.7356
100003.6538
100003.618
100003.5779
100003.5525
100003.5309
100003.5121
100003.4984
100003.491
100003.4917
100003.5036
100003.5243
100003.5505
100003.5685
100003.5834
100003.5827
100003.5821
100003.5841
100003.6211
100003.6133
100003.618
100003.6292
100003.6487
100003.6627
100003.6621
100003.6353
100003.6117
100003.5934
100003.5737
100003.5566
100003.5402
100003.5233
100003.5103
100003.503
100003.5023
100003.5113
100003.5291
100003.5571
100003.5782
100003.6015
100003.6126
100003.6124
100003.5969
100003.6141
100003.6052
100003.6083
100003.6161
100003.6283
100003.6353
100003.633
100003.6158
100003.5961
100003.5826
100003.5702
100003.5587
100003.547
100003.5346
100003.5246
100003.5198
100003.5227
100003.5356
100003.5631
100003.6656
100003.6104
100003.6236
100003.6367
100003.6416
100003.6327
100003.6217
100003.6092
100003.6003
100003.6034
100003.6089
100003.6148
100003.614
100003.6076
100003.5954
100003.5829
100003.5732
100003.5656
100003.5589
100003.5519
100003.5441
100003.5374
100003.5347
100003.5379
100003.548
100003.5653
100003.59
100003.6059
100003.6308
100003.6495
100003.6604
100003.6565
100003.6544
100003.5366
100003.5117
100003.5006
100003.4854
100003.4735
100003.4631
100003.4552
100003.4499
100003.4471
100003.4466
100003.4481
100003.4511
100003.4552
100003.46
100003.4651
100003.4705
100003.4758
100003.48
100003.4813
100003.4789
100003.4741
100003.4749
100003.4717
100003.466
100003.4579
100003.4496
100003.5235
100003.5018
100003.4908
100003.4757
100003.4625
100003.4502
100003.4399
100003.4318
100003.4261
100003.4228
100003.4218
100003.4225
100003.4243
100003.4266
100003.4288
100003.4309
100003.4332
100003.4344
100003.4338
100003.4315
100003.4289
100003.4326
100003.4359
100003.4314
100003.4228
100003.4123
100003.5071
100003.4926
100003.4828
100003.4686
100003.4553
100003.4424
100003.431
100003.4215
100003.4144
100003.4095
100003.4069
100003.406
100003.406
100003.4062
100003.4068
100003.4085
100003.4102
100003.4096
100003.4067
100003.4029
100003.4013
100003.4017
100003.4076
100003.4056
100003.3975
100003.3857
100003.4942
100003.4834
100003.4739
100003.4597
100003.4458
100003.4319
100003.4193
100003.4085
100003.3999
100003.3938
100003.39
100003.388
100003.3873
100003.388
100003.3914
100003.3982
100003.4048
100003.4037
100003.3984
100003.3923
100003.3858
100003.3797
100003.3816
100003.379
100003.3695
100003.3532
100003.488
100003.4778
100003.4676
100003.4532
100003.4388
100003.4241
100003.4103
100003.3982
100003.3884
100003.3813
100003.3771
100003.3755
100003.3767
100003.3816
100003.3924
100003.4059
100003.4169
100003.4104
100003.4
100003.3885
100003.3775
100003.3694
100003.3672
100003.3584
100003.3429
100003.3181
100003.4821
100003.4712
100003.4613
100003.4468
100003.432
100003.4164
100003.4014