/*--------------------------------*- C++ -*----------------------------------*\
  =========                 |
  \\      /  F ield         | OpenFOAM: The Open Source CFD Toolbox
   \\    /   O peration     | Website:  https://openfoam.org
    \\  /    A nd           | Version:  8
     \\/     M anipulation  |
\*---------------------------------------------------------------------------*/
FoamFile
{
    version     2.0;
    format      ascii;
    class       volScalarField;
    location    "1.7";
    object      p_rgh;
}
// * * * * * * * * * * * * * * * * * * * * * * * * * * * * * * * * * * * * * //

dimensions      [1 -1 -2 0 0 0 0];

internalField   nonuniform List<scalar> 
67410
(
100004.0271
100003.998
100003.9865
100003.9712
100003.9593
100003.9495
100003.9422
100003.9377
100003.9362
100003.9381
100003.9442
100003.9552
100003.9724
100003.9972
100004.0291
100004.0647
100004.0932
100004.1078
100004.1123
100004.1263
100004.1058
100004.023
100004.0105
100003.9865
100003.9701
100003.9619
100004.0098
100003.9851
100003.972
100003.9533
100003.9371
100003.9228
100003.9113
100003.903
100003.8982
100003.8971
100003.8998
100003.9065
100003.917
100003.9306
100003.9451
100003.9576
100003.9667
100003.9754
100003.9815
100003.9832
100003.9406
100003.9433
100003.9528
100003.946
100003.931
100003.9274
100003.9965
100003.9769
100003.9632
100003.944
100003.9266
100003.9109
100003.8981
100003.8884
100003.8823
100003.8798
100003.8809
100003.8853
100003.8917
100003.8982
100003.9038
100003.9115
100003.9252
100003.9395
100003.9477
100003.9657
100003.9244
100003.9095
100003.9252
100003.9282
100003.9166
100003.9197
100003.9839
100003.967
100003.9514
100003.9311
100003.9121
100003.8947
100003.8802
100003.8689
100003.8612
100003.8572
100003.8565
100003.8582
100003.8601
100003.8618
100003.8703
100003.897
100003.9307
100003.9489
100003.9546
100003.9883
100003.9523
100003.8887
100003.8966
100003.9092
100003.9026
100003.9016
100003.9768
100003.9591
100003.9436
100003.9228
100003.9031
100003.8847
100003.869
100003.8565
100003.8476
100003.8423
100003.8402
100003.8398
100003.8396
100003.8437
100003.8708
100003.9209
100003.9655
100003.969
100003.9494
100003.9355
100003.9162
100003.887
100003.9
100003.901
100003.8895
100003.8628
100003.9708
100003.9529
100003.9378
100003.9166
100003.8962
100003.8766
100003.8595
100003.8456
100003.8352
100003.8286
100003.8255
100003.8253
100003.8267
100003.8322
100003.8508
100003.882
100003.9127
100003.9077
100003.8959
100003.9019
100003.9154
100003.9055
100003.9081
100003.8816
100003.8599
100003.7858
100003.9689
100003.9503
100003.9354
100003.9136
100003.8923
100003.8713
100003.8525
100003.8369
100003.8249
100003.8172
100003.814
100003.8154
100003.8209
100003.8305
100003.8454
100003.8643
100003.8819
100003.8902
100003.8955
100003.9242
100003.9307
100003.918
100003.8962
100003.8493
100003.8192
100003.768
100003.9629
100003.946
100003.933
100003.9116
100003.8901
100003.8677
100003.8471
100003.8294
100003.8155
100003.8065
100003.8031
100003.8057
100003.8143
100003.8288
100003.8485
100003.8698
100003.8897
100003.9031
100003.9131
100003.925
100003.9231
100003.8988
100003.8698
100003.8265
100003.8579
100003.9153
100003.9476
100003.9359
100003.9268
100003.9083
100003.8879
100003.8647
100003.8423
100003.8221
100003.8058
100003.7952
100003.791
100003.7936
100003.8027
100003.8173
100003.8365
100003.8586
100003.8806
100003.8914
100003.8949
100003.8971
100003.893
100003.8798
100003.8593
100003.857
100003.9867
100004.1273
100003.9265
100003.9208
100003.917
100003.9027
100003.8846
100003.8616
100003.8378
100003.8155
100003.7973
100003.7851
100003.78
100003.7823
100003.7911
100003.8047
100003.8221
100003.8416
100003.8601
100003.8717
100003.8777
100003.8824
100003.8876
100003.8911
100003.8922
100003.9403
100004.1165
100004.2767
100003.9048
100003.9029
100003.905
100003.8955
100003.8803
100003.8582
100003.8339
100003.8105
100003.791
100003.7774
100003.7709
100003.7718
100003.7793
100003.792
100003.8088
100003.8279
100003.8452
100003.8584
100003.8703
100003.8876
100003.9143
100003.9475
100003.9872
100004.0454
100004.2099
100004.3514
100003.8841
100003.8839
100003.8909
100003.887
100003.8753
100003.855
100003.8312
100003.8076
100003.7877
100003.7734
100003.7653
100003.7639
100003.7692
100003.7806
100003.7967
100003.8156
100003.8339
100003.8533
100003.8798
100003.9222
100003.9846
100004.0633
100004.1699
100004.1418
100004.2072
100004.2776
100003.8646
100003.8651
100003.875
100003.8769
100003.87
100003.8525
100003.83
100003.8068
100003.7871
100003.7726
100003.7636
100003.7605
100003.7628
100003.7717
100003.7855
100003.8035
100003.8258
100003.8572
100003.9104
100003.9953
100004.1138
100004.2444
100004.5337
100004.2332
100004.2181
100004.1023
100003.8474
100003.8477
100003.8585
100003.8657
100003.8651
100003.8516
100003.8309
100003.8082
100003.7889
100003.7745
100003.7652
100003.7607
100003.7608
100003.7662
100003.7767
100003.7931
100003.8193
100003.8658
100003.955
100004.1059
100004.334
100004.5486
100005.2895
100004.295
100004.3368
100004.0517
100003.8349
100003.834
100003.8439
100003.8542
100003.861
100003.8532
100003.8356
100003.813
100003.7933
100003.7786
100003.7689
100003.7641
100003.763
100003.7652
100003.7713
100003.7838
100003.8104
100003.8701
100004.0014
100004.2419
100004.6474
100005.062
100006.9562
100004.4175
100004.5013
100004.1177
100003.8307
100003.8281
100003.8335
100003.8434
100003.8572
100003.857
100003.845
100003.8223
100003.8011
100003.7846
100003.7731
100003.7676
100003.7665
100003.7675
100003.769
100003.7737
100003.7927
100003.8582
100004.0316
100004.4087
100005.1756
100006.5441
100012.5796
100004.4812
100004.678
100004.1086
100003.8363
100003.8325
100003.8316
100003.836
100003.8522
100003.8612
100003.8581
100003.8363
100003.8125
100003.7928
100003.7786
100003.7705
100003.769
100003.7708
100003.7702
100003.7675
100003.7734
100003.8263
100003.9596
100004.1617
100004.3523
100004.5002
100003.9753
100004.4089
100003.7228
100003.9178
100003.8503
100003.8458
100003.8402
100003.8367
100003.8474
100003.8628
100003.8713
100003.854
100003.8273
100003.8042
100003.7868
100003.7762
100003.7729
100003.7727
100003.7682
100003.7562
100003.7425
100003.7674
100003.8875
100004.1079
100004.4204
100004.7477
100004.8003
100003.9844
100003.9474
100003.9179
100003.8707
100003.866
100003.8574
100003.847
100003.8495
100003.863
100003.8806
100003.8709
100003.8444
100003.8183
100003.7977
100003.7833
100003.7746
100003.7698
100003.7665
100003.7642
100003.7666
100003.779
100003.8248
100003.93
100004.0646
100004.4918
100004.0886
100003.9925
100003.9601
100003.9335
100003.8953
100003.8908
100003.88
100003.8653
100003.8616
100003.8704
100003.8888
100003.8863
100003.8643
100003.8385
100003.8161
100003.7983
100003.7854
100003.777
100003.7728
100003.7737
100003.7822
100003.8022
100003.8354
100003.8861
100003.9439
100004.1364
100003.9814
100003.9519
100003.9223
100003.8975
100003.9212
100003.9172
100003.9053
100003.8889
100003.8826
100003.8911
100003.9074
100003.9054
100003.8864
100003.8608
100003.8355
100003.813
100003.7948
100003.7817
100003.7747
100003.7755
100003.7864
100003.8116
100003.8546
100003.906
100003.9489
100003.9874
100003.9605
100003.9555
100003.9245
100003.919
100003.9451
100003.9419
100003.9303
100003.9153
100003.9112
100003.9244
100003.9401
100003.9341
100003.9124
100003.884
100003.8545
100003.8276
100003.8056
100003.7896
100003.7812
100003.7814
100003.7917
100003.8139
100003.8484
100003.8952
100003.9429
100003.9747
100003.9326
100003.9214
100003.8969
100003.8944
100003.9639
100003.9617
100003.9519
100003.9415
100003.9448
100003.9663
100003.9836
100003.9703
100003.9401
100003.9069
100003.8722
100003.8416
100003.8164
100003.7983
100003.7886
100003.7883
100003.7986
100003.8206
100003.8544
100003.8972
100003.9171
100003.9374
100003.9248
100003.9284
100003.9124
100003.9186
100003.9755
100003.9744
100003.9676
100003.9646
100003.9795
100004.0107
100004.0326
100004.0078
100003.9678
100003.9293
100003.8895
100003.8557
100003.8281
100003.8083
100003.7976
100003.7973
100003.809
100003.8347
100003.8812
100004.0069
100004.0134
100003.9833
100003.9742
100003.9647
100003.9737
100004.0053
100003.9791
100003.9787
100003.9745
100003.9813
100004.0154
100004.0682
100004.1263
100004.0687
100003.9994
100003.9517
100003.905
100003.8684
100003.8392
100003.8181
100003.8062
100003.8053
100003.8179
100003.8447
100003.8885
100003.9553
100004.014
100004.0629
100004.0746
100004.0279
100004.0163
100003.9759
100003.974
100003.9655
100003.9693
100003.9917
100004.0227
100004.038
100004.0126
100003.9774
100003.9431
100003.9076
100003.8757
100003.8482
100003.827
100003.8138
100003.8117
100003.826
100003.8566
100003.9032
100003.9743
100004.0595
100004.1292
100004.1853
100004.1678
100004.4751
100003.9715
100003.9687
100003.9561
100003.9591
100003.9791
100004.0064
100004.0183
100003.9962
100003.9644
100003.9364
100003.9079
100003.8808
100003.8559
100003.835
100003.8205
100003.8174
100003.8352
100003.8713
100003.917
100003.9827
100004.0568
100004.1281
100004.2854
100004.0471
100004.0774
100003.9676
100003.9608
100003.9444
100003.9449
100003.9611
100003.9806
100003.9849
100003.9651
100003.9433
100003.9239
100003.9041
100003.884
100003.8642
100003.8459
100003.8312
100003.8234
100003.8303
100003.8556
100003.8975
100003.9541
100004.0065
100004.024
100004.0336
100004.0307
100004.0705
100003.9601
100003.9478
100003.9324
100003.9343
100003.95
100003.9635
100003.9605
100003.943
100003.9245
100003.9106
100003.8975
100003.8839
100003.87
100003.8565
100003.8465
100003.8433
100003.8502
100003.8686
100003.8984
100003.9423
100003.9828
100004.0146
100004.0392
100004.0343
100004.0257
100004.013
100003.9375
100003.9242
100003.9161
100003.928
100003.9464
100003.9507
100003.9419
100003.9297
100003.9091
100003.8997
100003.8902
100003.8819
100003.8737
100003.8655
100003.8599
100003.8605
100003.8702
100003.8888
100003.9156
100003.9524
100003.9991
100004.0192
100004.0424
100004.0385
100004.0369
100004.0274
100004.0267
100003.9991
100003.9869
100003.9703
100003.9568
100003.9454
100003.9369
100003.9315
100003.9293
100003.9301
100003.9341
100003.9412
100003.951
100003.962
100003.9729
100003.9826
100003.992
100004.0017
100004.0027
100003.9785
100003.9325
100003.9709
100003.9743
100003.9692
100003.9557
100003.9446
100004.0093
100003.9857
100003.972
100003.9523
100003.9348
100003.9192
100003.9066
100003.8975
100003.8921
100003.8902
100003.8916
100003.8953
100003.8993
100003.9001
100003.8951
100003.8877
100003.8864
100003.8913
100003.8908
100003.8694
100003.8297
100003.8939
100003.9195
100003.9281
100003.9151
100003.9025
100003.9937
100003.9759
100003.9615
100003.9413
100003.9228
100003.9061
100003.8925
100003.8823
100003.8755
100003.8721
100003.8713
100003.8714
100003.8681
100003.8581
100003.8463
100003.8421
100003.8455
100003.8512
100003.8543
100003.8508
100003.8343
100003.8516
100003.8755
100003.9021
100003.8911
100003.8768
100003.9809
100003.9652
100003.9491
100003.9278
100003.908
100003.89
100003.8751
100003.8635
100003.8553
100003.8502
100003.8471
100003.8427
100003.8328
100003.8209
100003.8182
100003.8226
100003.8296
100003.8365
100003.841
100003.8274
100003.8031
100003.8195
100003.8356
100003.8649
100003.8577
100003.8266
100003.9738
100003.9577
100003.9411
100003.9193
100003.899
100003.8802
100003.8642
100003.8514
100003.842
100003.8356
100003.8307
100003.8237
100003.8137
100003.8069
100003.8078
100003.8143
100003.8221
100003.8252
100003.83
100003.8051
100003.7848
100003.8105
100003.8297
100003.8355
100003.8113
100003.738
100003.9671
100003.9513
100003.9353
100003.9133
100003.8924
100003.8725
100003.8552
100003.841
100003.8302
100003.8227
100003.8176
100003.8124
100003.8062
100003.802
100003.801
100003.8032
100003.8066
100003.8071
100003.8204
100003.8213
100003.8024
100003.8393
100003.8364
100003.7813
100003.7349
100003.6565
100003.9641
100003.9481
100003.9327
100003.9104
100003.8888
100003.8675
100003.8484
100003.8323
100003.8198
100003.8115
100003.8076
100003.8078
100003.8117
100003.8192
100003.8291
100003.8387
100003.8473
100003.8547
100003.8711
100003.8782
100003.8667
100003.8456
100003.8032
100003.7019
100003.672
100003.6573
100003.9575
100003.9431
100003.93
100003.9086
100003.8869
100003.8641
100003.8429
100003.8242
100003.8093
100003.7992
100003.7948
100003.7965
100003.8045
100003.8184
100003.8388
100003.8619
100003.883
100003.8865
100003.8875
100003.8812
100003.856
100003.8105
100003.745
100003.6583
100003.6669
100003.654
100003.9416
100003.9313
100003.9231
100003.9052
100003.8848
100003.8612
100003.8377
100003.816
100003.7982
100003.7859
100003.7804
100003.7819
100003.7903
100003.8053
100003.8265
100003.8517
100003.8765
100003.8747
100003.867
100003.851
100003.8237
100003.7774
100003.7188
100003.6739
100003.6867
100003.6779
100003.9178
100003.9133
100003.9112
100003.8987
100003.8815
100003.858
100003.8327
100003.8084
100003.7882
100003.7742
100003.7675
100003.7678
100003.7747
100003.7876
100003.805
100003.8242
100003.8394
100003.8412
100003.8343
100003.8214
100003.8017
100003.768
100003.7316
100003.7146
100003.73
100003.7262
100003.8925
100003.8915
100003.8957
100003.8893
100003.8763
100003.8543
100003.8283
100003.8027
100003.7809
100003.7654
100003.7571
100003.7556
100003.7605
100003.7713
100003.7862
100003.802
100003.8137
100003.8149
100003.8109
100003.8058
100003.798
100003.7821
100003.7588
100003.7561
100003.7698
100003.7669
100003.8696
100003.869
100003.8776
100003.8774
100003.8696
100003.8502
100003.8249
100003.7992
100003.7771
100003.7607
100003.7507
100003.7471
100003.7495
100003.7574
100003.7688
100003.7802
100003.7889
100003.7934
100003.7981
100003.8037
100003.8065
100003.8015
100003.7668
100003.7773
100003.7684
100003.7504
100003.849
100003.8474
100003.8577
100003.8629
100003.8613
100003.8459
100003.8221
100003.7973
100003.776
100003.7598
100003.749
100003.743
100003.7428
100003.7469
100003.7539
100003.76
100003.7656
100003.7736
100003.7847
100003.7959
100003.798
100003.8006
100003.7034
100003.7992
100003.7884
100003.735
100003.8321
100003.8295
100003.8377
100003.8463
100003.852
100003.8419
100003.8206
100003.7968
100003.7766
100003.7614
100003.7511
100003.7449
100003.7422
100003.7417
100003.7413
100003.7393
100003.7397
100003.7483
100003.7615
100003.7671
100003.7281
100003.7122
100003.0507
100003.6744
100003.7263
100003.7778
100003.8202
100003.8177
100003.8217
100003.8294
100003.8419
100003.8395
100003.8223
100003.799
100003.779
100003.764
100003.7541
100003.7484
100003.7448
100003.7401
100003.7315
100003.7188
100003.7095
100003.7151
100003.7267
100003.7283
100003.6379
100003.6323
100002.7498
100003.4476
100003.5319
100003.7615
100003.8148
100003.8112
100003.8128
100003.8161
100003.8308
100003.8384
100003.8284
100003.8055
100003.7845
100003.7681
100003.7569
100003.7504
100003.7469
100003.7404
100003.7237
100003.697
100003.6718
100003.6686
100003.6563
100003.6001
100002.9156
100003.0965
99996.36678
100002.8666
100002.9032
100003.6699
100003.8163
100003.8104
100003.8105
100003.8106
100003.8207
100003.8367
100003.838
100003.8173
100003.794
100003.7751
100003.7608
100003.7518
100003.7475
100003.7417
100003.7215
100003.6878
100003.6643
100003.6625
100003.6688
100003.668
100003.5848
100003.5027
100002.9884
100002.983
100003.178
100003.5709
100003.825
100003.8169
100003.8139
100003.8123
100003.8176
100003.8326
100003.8478
100003.8343
100003.8079
100003.786
100003.7691
100003.7578
100003.7517
100003.7449
100003.7205
100003.6766
100003.6421
100003.6352
100003.6443
100003.6633
100003.6513
100003.66
100003.2511
100003.4659
100003.5477
100003.7272
100003.8399
100003.8301
100003.8238
100003.8199
100003.8226
100003.832
100003.854
100003.8537
100003.8265
100003.8021
100003.7828
100003.7695
100003.7616
100003.7563
100003.7475
100003.7288
100003.6998
100003.6686
100003.6607
100003.6691
100003.6524
100003.666
100003.6101
100003.5878
100003.7114
100003.8024
100003.8589
100003.8482
100003.8398
100003.8332
100003.8354
100003.843
100003.8607
100003.8729
100003.8512
100003.8256
100003.8042
100003.7879
100003.7758
100003.7666
100003.7593
100003.7523
100003.7443
100003.7328
100003.7196
100003.7113
100003.6996
100003.7264
100003.7466
100003.7796
100003.8203
100003.8378
100003.8798
100003.8691
100003.8599
100003.8528
100003.8567
100003.8668
100003.8819
100003.8951
100003.881
100003.8553
100003.8294
100003.8062
100003.787
100003.7722
100003.7623
100003.7574
100003.7575
100003.7619
100003.7677
100003.7716
100003.774
100003.7662
100003.8109
100003.8441
100003.8545
100003.8672
100003.9003
100003.8908
100003.8824
100003.8783
100003.8871
100003.9047
100003.921
100003.9272
100003.9097
100003.8814
100003.85
100003.8213
100003.7973
100003.7795
100003.7684
100003.7642
100003.7668
100003.7756
100003.7886
100003.8042
100003.8271
100003.8413
100003.8329
100003.8455
100003.8421
100003.8357
100003.9182
100003.9113
100003.9056
100003.908
100003.9248
100003.9547
100003.9767
100003.9697
100003.9377
100003.904
100003.8663
100003.8341
100003.8074
100003.7875
100003.7751
100003.77
100003.772
100003.7797
100003.7885
100003.7947
100003.8254
100003.8287
100003.8228
100003.8489
100003.8441
100003.8312
100003.9322
100003.9286
100003.9274
100003.9386
100003.9654
100004.0051
100004.0289
100003.9987
100003.9634
100003.9249
100003.882
100003.8474
100003.8184
100003.7966
100003.7827
100003.7767
100003.7781
100003.7833
100003.7785
100003.7038
100003.8235
100003.8384
100003.8223
100003.8579
100003.8628
100003.8355
100003.9405
100003.9403
100003.9453
100003.9712
100004.027
100004.1205
100004.2417
100004.1181
100004.0198
100003.9626
100003.9009
100003.8611
100003.8294
100003.8057
100003.7902
100003.7834
100003.7854
100003.794
100003.8057
100003.8196
100003.8401
100003.8418
100003.8254
100003.8628
100003.8575
100003.941
100003.9398
100003.9405
100003.9542
100003.9859
100004.0223
100004.0338
100004.0013
100003.9696
100003.9363
100003.899
100003.8664
100003.8375
100003.8137
100003.7966
100003.7883
100003.7894
100003.7993
100003.8135
100003.8291
100003.851
100003.8621
100003.8547
100003.8979
100003.9356
100003.9388
100003.9354
100003.9349
100003.9453
100003.9766
100004.0134
100004.0278
100004.0023
100003.9605
100003.9324
100003.901
100003.8725
100003.8458
100003.8211
100003.8011
100003.7892
100003.7882
100003.8029
100003.831
100003.8505
100003.8569
100003.8275
100003.711
100003.9058
100003.932
100003.927
100003.9203
100003.9197
100003.9263
100003.947
100003.9671
100003.9708
100003.9525
100003.9313
100003.9158
100003.8971
100003.8768
100003.8552
100003.8321
100003.8104
100003.7934
100003.787
100003.7943
100003.8105
100003.8266
100003.8514
100003.8975
100003.9056
100003.9467
100003.949
100003.9113
100003.9021
100003.9038
100003.9095
100003.9252
100003.9419
100003.9422
100003.9241
100003.909
100003.9008
100003.8908
100003.8789
100003.8648
100003.8491
100003.8347
100003.8251
100003.8215
100003.8245
100003.8384
100003.8623
100003.8793
100003.9067
100003.9337
100003.962
100003.9558
100003.9437
100003.8957
100003.8868
100003.8905
100003.8964
100003.9147
100003.9243
100003.9153
100003.8966
100003.8884
100003.8859
100003.8818
100003.877
100003.8705
100003.8614
100003.8532
100003.8496
100003.8523
100003.8611
100003.8752
100003.8938
100003.9192
100003.9464
100003.9706
100003.9955
100003.9934
100003.9765
100003.9923
100003.9658
100003.9541
100003.9385
100003.9262
100003.9158
100003.9082
100003.9035
100003.9016
100003.9025
100003.906
100003.9119
100003.92
100003.9301
100003.9422
100003.9553
100003.9674
100003.9765
100003.9817
100003.9832
100003.9779
100003.9616
100003.9479
100003.9362
100003.925
100003.916
100003.9774
100003.9549
100003.9432
100003.9269
100003.9125
100003.8994
100003.8887
100003.8806
100003.8755
100003.8733
100003.8742
100003.8776
100003.8834
100003.8912
100003.9004
100003.9099
100003.9185
100003.9252
100003.9302
100003.9349
100003.9339
100003.9235
100003.9148
100003.9028
100003.8906
100003.8798
100003.9611
100003.9458
100003.935
100003.919
100003.9042
100003.8901
100003.878
100003.8684
100003.8617
100003.858
100003.8574
100003.8596
100003.8643
100003.871
100003.8791
100003.8881
100003.8963
100003.9026
100003.9064
100003.9053
100003.8996
100003.8951
100003.8931
100003.8818
100003.8694
100003.8586
100003.9484
100003.9362
100003.9249
100003.9086
100003.8928
100003.8774
100003.8639
100003.8528
100003.8446
100003.8396
100003.8379
100003.8394
100003.8436
100003.8498
100003.8568
100003.8645
100003.8731
100003.878
100003.8794
100003.8783
100003.8716
100003.8642
100003.8682
100003.8594
100003.8473
100003.8356
100003.9417
100003.9297
100003.9179
100003.9013
100003.8849
100003.8686
100003.8538
100003.8414
100003.832
100003.826
100003.8238
100003.8252
100003.8301
100003.8373
100003.8466
100003.8585
100003.8696
100003.8707
100003.8673
100003.8622
100003.8562
100003.8516
100003.8545
100003.8454
100003.8321
100003.8185
100003.9351
100003.9228
100003.9115
100003.8948
100003.878
100003.8606
100003.8446
100003.8308
100003.8202
100003.8134
100003.811
100003.8132
100003.8199
100003.8298
100003.8429
100003.8586
100003.8724
100003.8699
100003.8657
100003.8631
100003.8594
100003.8549
100003.8502
100003.8365
100003.8203
100003.8047
100003.9293
100003.9177
100003.9065
100003.8897
100003.8724
100003.8539
100003.8364
100003.8211
100003.8092
100003.8018
100003.7995
100003.8029
100003.8125
100003.8277
100003.8476
100003.8716
100003.8958
100003.89
100003.8878
100003.8858
100003.8744
100003.8596
100003.846
100003.8306
100003.8084
100003.7811
100003.9206
100003.9103
100003.9006
100003.8843
100003.867
100003.8475
100003.8286
100003.8117
100003.7984
100003.7899
100003.7874
100003.7917
100003.8037
100003.8242
100003.8514
100003.8857
100003.9275
100003.9086
100003.8966
100003.8826
100003.868
100003.8526
100003.8389
100003.8278
100003.7869
100003.7707
100003.906
100003.8981
100003.8914
100003.8772
100003.8608
100003.841
100003.821
100003.8024
100003.7874
100003.7774
100003.7738
100003.7776
100003.7891
100003.8094
100003.8386
100003.8758
100003.932
100003.8968
100003.8833
100003.8667
100003.855
100003.846
100003.8378
100003.8307
100003.7896
100003.7908
100003.8872
100003.8825
100003.8793
100003.8681
100003.8536
100003.8343
100003.8137
100003.7938
100003.7772
100003.7656
100003.7603
100003.7616
100003.7695
100003.7837
100003.8028
100003.8247
100003.847
100003.8481
100003.8461
100003.8426
100003.8422
100003.8465
100003.8459
100003.8554
100003.815
100003.8196
100003.869
100003.8665
100003.8661
100003.8581
100003.8458
100003.8279
100003.8074
100003.7868
100003.769
100003.7559
100003.7488
100003.7479
100003.7529
100003.7639
100003.7799
100003.7988
100003.817
100003.8205
100003.8223
100003.8256
100003.8332
100003.8451
100003.8558
100003.8679
100003.8475
100003.8427
100003.8533
100003.8513
100003.8529
100003.8478
100003.8383
100003.8223
100003.8027
100003.7821
100003.7636
100003.7494
100003.7406
100003.7376
100003.7399
100003.7473
100003.7589
100003.7726
100003.7857
100003.7944
100003.8028
100003.8145
100003.8315
100003.8539
100003.8698
100003.8758
100003.8597
100003.8461
100003.8394
100003.8376
100003.8401
100003.8378
100003.8313
100003.818
100003.7999
100003.7797
100003.7611
100003.7463
100003.7364
100003.7315
100003.7315
100003.7358
100003.7437
100003.7539
100003.7649
100003.7761
100003.7907
100003.8112
100003.8378
100003.876
100003.8964
100003.8866
100003.8746
100003.8494
100003.8272
100003.8252
100003.8283
100003.8282
100003.8252
100003.8152
100003.7992
100003.7799
100003.7616
100003.7467
100003.7361
100003.7299
100003.7279
100003.729
100003.7332
100003.7403
100003.7492
100003.7618
100003.7823
100003.8117
100003.8448
100003.9002
100003.9071
100003.8659
100003.883
100003.8658
100003.8182
100003.8148
100003.8182
100003.8199
100003.8202
100003.8142
100003.8011
100003.783
100003.765
100003.7496
100003.7385
100003.7314
100003.7276
100003.7261
100003.7266
100003.7297
100003.7362
100003.7478
100003.7728
100003.8152
100003.856
100003.9363
100003.9864
100003.7907
100003.8744
100003.8669
100003.8137
100003.8089
100003.8109
100003.8135
100003.8167
100003.8151
100003.8059
100003.7893
100003.771
100003.7547
100003.7424
100003.7341
100003.7292
100003.7261
100003.7236
100003.7223
100003.7254
100003.7298
100003.7517
100003.7993
100003.7975
100003.9216
100003.8543
100003.6832
100003.8081
100003.8294
100003.8145
100003.8086
100003.8086
100003.8102
100003.8151
100003.8176
100003.8133
100003.7985
100003.7798
100003.7621
100003.7478
100003.7379
100003.7318
100003.7279
100003.724
100003.7197
100003.7172
100003.7158
100003.7303
100003.7602
100003.7676
100003.7643
100003.7208
100003.5528
100003.6987
100003.7733
100003.8212
100003.8135
100003.8122
100003.8115
100003.8162
100003.8213
100003.822
100003.8106
100003.7915
100003.7725
100003.7563
100003.7444
100003.7365
100003.7313
100003.7261
100003.7202
100003.7151
100003.7088
100003.7186
100003.7471
100003.7808
100003.8007
100003.7726
100003.7328
100003.8099
100003.8277
100003.8332
100003.8238
100003.8209
100003.8184
100003.8217
100003.8278
100003.8318
100003.8248
100003.8057
100003.786
100003.768
100003.7539
100003.7438
100003.737
100003.7315
100003.726
100003.7205
100003.7157
100003.7128
100003.7177
100003.72
100003.6062
100003.7706
100003.765
100003.8403
100003.8365
100003.8492
100003.8386
100003.834
100003.831
100003.8339
100003.8411
100003.846
100003.842
100003.8232
100003.803
100003.7834
100003.7671
100003.7547
100003.7458
100003.7397
100003.7363
100003.7355
100003.7371
100003.7417
100003.7476
100003.7431
100003.6405
100003.8006
100003.8222
100003.8557
100003.8504
100003.8675
100003.8567
100003.8521
100003.8502
100003.8562
100003.8668
100003.8731
100003.8663
100003.8458
100003.8244
100003.8018
100003.7822
100003.7661
100003.7541
100003.7464
100003.7434
100003.7455
100003.7532
100003.7664
100003.7845
100003.7998
100003.7949
100003.8362
100003.8497
100003.8606
100003.8608
100003.8865
100003.877
100003.8748
100003.878
100003.8932
100003.9135
100003.927
100003.9062
100003.8749
100003.8494
100003.821
100003.7977
100003.7783
100003.764
100003.7552
100003.7526
100003.7566
100003.7674
100003.7844
100003.8061
100003.8273
100003.8366
100003.849
100003.8532
100003.8512
100003.8423
100003.905
100003.8982
100003.9011
100003.9142
100003.9466
100003.9897
100004.0399
100003.9783
100003.913
100003.8785
100003.8392
100003.8126
100003.7904
100003.7741
100003.7642
100003.7612
100003.7653
100003.7766
100003.7957
100003.8224
100003.8586
100003.8515
100003.8502
100003.8489
100003.8419
100003.837
100003.9215
100003.9185
100003.9292
100003.9542
100003.9967
100004.0261
100004.067
100003.9764
100003.9336
100003.895
100003.8537
100003.827
100003.8027
100003.7847
100003.7735
100003.7697
100003.7726
100003.7819
100003.7958
100003.8101
100003.827
100003.8534
100003.8472
100003.8432
100003.8233
100003.7961
100003.9337
100003.9356
100003.964
100004.0351
100004.1836
100004.3619
100004.888
100004.2681
100004.0824
100003.975
100003.8819
100003.8466
100003.8158
100003.7953
100003.7828
100003.778
100003.7809
100003.7921
100003.8114
100003.8465
100003.8584
100003.8629
100003.8583
100003.852
100003.8319
100003.9324
100003.93
100003.9415
100003.9654
100004
100004.0263
100004.0454
100003.9782
100003.9408
100003.9057
100003.8716
100003.8465
100003.8232
100003.8042
100003.7913
100003.7854
100003.7874
100003.7981
100003.8154
100003.8372
100003.8583
100003.8726
100003.8665
100003.8502
100003.6279
100003.9286
100003.9244
100003.9337
100003.9573
100004.0026
100004.0618
100004.1291
100004.0373
100003.9555
100003.9197
100003.8796
100003.8542
100003.8326
100003.8138
100003.8001
100003.7927
100003.7934
100003.8053
100003.826
100003.8522
100003.8702
100003.8851
100003.8844
100003.8838
100003.8858
100003.9228
100003.915
100003.9196
100003.9309
100003.9504
100003.9644
100003.9638
100003.937
100003.9134
100003.8951
100003.8754
100003.8583
100003.8419
100003.825
100003.812
100003.8047
100003.804
100003.813
100003.8308
100003.8588
100003.8799
100003.9032
100003.9143
100003.9141
100003.8986
100003.9158
100003.9069
100003.91
100003.9178
100003.93
100003.937
100003.9347
100003.9175
100003.8978
100003.8843
100003.8719
100003.8604
100003.8487
100003.8363
100003.8263
100003.8215
100003.8244
100003.8373
100003.8647
100003.9673
100003.9121
100003.9253
100003.9384
100003.9433
100003.9343
100003.9234
100003.9109
100003.902
100003.9051
100003.9106
100003.9164
100003.9157
100003.9093
100003.8971
100003.8846
100003.8749
100003.8673
100003.8606
100003.8536
100003.8458
100003.8391
100003.8364
100003.8396
100003.8496
100003.867
100003.8917
100003.9076
100003.9325
100003.9512
100003.9621
100003.9582
100003.9561
100003.959
100003.9341
100003.9229
100003.9078
100003.8958
100003.8855
100003.8776
100003.8723
100003.8695
100003.869
100003.8705
100003.8735
100003.8776
100003.8823
100003.8874
100003.8928
100003.8982
100003.9024
100003.9036
100003.9013
100003.8964
100003.8973
100003.894
100003.8884
100003.8802
100003.872
100003.9459
100003.9242
100003.9132
100003.8981
100003.8849
100003.8726
100003.8622
100003.8541
100003.8485
100003.8452
100003.8441
100003.8449
100003.8467
100003.849
100003.8511
100003.8533
100003.8555
100003.8568
100003.8562
100003.8539
100003.8513
100003.8549
100003.8583
100003.8538
100003.8452
100003.8347
100003.9295
100003.9149
100003.9052
100003.891
100003.8777
100003.8647
100003.8533
100003.8439
100003.8367
100003.8319
100003.8293
100003.8284
100003.8284
100003.8286
100003.8292
100003.8309
100003.8326
100003.8319
100003.8291
100003.8253
100003.8236
100003.824
100003.8299
100003.828
100003.8198
100003.808
100003.9166
100003.9058
100003.8962
100003.882
100003.8682
100003.8543
100003.8417
100003.8309
100003.8223
100003.8161
100003.8123
100003.8104
100003.8097
100003.8104
100003.8138
100003.8205
100003.8272
100003.826
100003.8208
100003.8147
100003.8082
100003.8021
100003.804
100003.8014
100003.7918
100003.7755
100003.9104
100003.9002
100003.89
100003.8755
100003.8612
100003.8464
100003.8327
100003.8206
100003.8108
100003.8036
100003.7994
100003.7979
100003.7991
100003.804
100003.8147
100003.8283
100003.8393
100003.8327
100003.8224
100003.8108
100003.7999
100003.7918
100003.7896
100003.7808
100003.7653
100003.7405
100003.9045
100003.8935
100003.8837
100003.8691
100003.8544
100003.8387
100003.8238