/*--------------------------------*- C++ -*----------------------------------*\
  =========                 |
  \\      /  F ield         | OpenFOAM: The Open Source CFD Toolbox
   \\    /   O peration     | Website:  https://openfoam.org
    \\  /    A nd           | Version:  8
     \\/     M anipulation  |
\*---------------------------------------------------------------------------*/
FoamFile
{
    version     2.0;
    format      ascii;
    class       volScalarField;
    location    "1.8/wallFilmRegion";
    object      alpha;
}
// * * * * * * * * * * * * * * * * * * * * * * * * * * * * * * * * * * * * * //

dimensions      [0 0 0 0 0 0 0];

internalField   nonuniform List<scalar> 
1342
(
0.9012063219
1.432786728
1.789732719
1.766667537
2.136574182
0.7968368588
0.31233232
0.1882736763
0.2074965134
0.1709657593
0.1047415369
0.04125813815
0.01739399536
0.01709184267
0.02252793551
0.02976108144
0.06197291867
0.1300161946
0.2711838591
0.3334845061
0.2908233788
0.2182645528
0.1556246713
0.7750691029
0.3363670381
3.967945599
0.6992757484
0.8505441829
1.220292343
1.549626851
1.611058181
1.238291715
0.147327087
0.2553989971
0.1508600906
0.1682194249
0.1134795622
0.04717833653
0.01316825336
0.009030064937
0.0120859102
0.01750560701
0.02421647861
0.11042937
0.07650742732
0.1111290998
0.2188294725
0.3610141404
0.4761657267
0.5406119275
2.56343656
0.1096448736
3.58663163
1.151271023
1.496482731
1.691190131
1.438003227
0.966787542
0.5838580724
0.2211090414
0.0545492256
0.2381207193
0.1207775069
0.1308745371
0.07277751994
0.01734503528
0.006650664496
0.0074653036
0.01040115062
0.01499567924
0.0206906153
0.2216508632
0.104720615
0.0563640097
0.0537894762
0.07008575891
0.1020862287
0.1589367788
0.4819294145
0.3591750128
3.35982589
0.9244647512
0.8085568538
1.183075982
1.476458177
1.024530671
0.7531424701
0.4432376299
0.1542129437
0.2188229366
0.07814001328
0.08710505138
0.02564451974
0.005308447458
0.005122728143
0.006556690925
0.00952593157
0.01543503392
0.02317875519
0.461490235
0.2150356498
0.09378667449
0.05192834225
0.04447611797
0.04861464932
0.0580216935
0.08375463024
0.1013989926
2.438267494
1.077880091
1.015440107
1.140204385
1.375202505
1.483629692
1.243800567
1.447958408
0.6770725282
0.1928103293
0.02693313594
0.0347552825
0.003149232987
0.003359417288
0.004785835819
0.00547973641
0.02227652971
0.0791880119
0.1594650396
1.476714272
0.7330532872
0.3530658845
0.1730004341
0.08046599198
0.0474311864
0.04434312182
0.05535862218
0.06264613615
2.379010653
1.077147553
0.361471386
0.07821589035
0.06715918334
0.09708934924
0.4038325236
0.498522466
0.1494641898
0.1179032919
0.1733690298
0.004103647967
0.005604741412
0.001452861696
0.003375293547
0.003268919285
0.002439820915
0.002846592184
0.004926276041
0.007757804976
0.5509267743
0.2550113813
0.09869138736
0.03507144496
0.02284178829
0.0240082149
0.02737960627
0.03808292879
0.04866283768
2.980448237
0.7400501921
0.1757824327
0.01316633262
0.01532363182
0.02016369041
0.04756458073
0.2916678794
0.05211666821
0.1028441443
0.2356771447
0.02537690441
0.01523210273
0.008597099599
0.004098391532
0.001569166773
0.0004008428152
0.001252118941
0.004215336145
0.008565214755
0.2544092162
0.1118635397
0.04398538876
0.03020573556
0.03731195321
0.05651640942
0.08791703275
0.1334476965
0.1863872217
3.627360786
0.9583121371
0.2970308598
0.01013934964
0.003123641129
0.006256074037
0.01727350784
0.3057145716
0.05803820153
0.07207518357
0.2524250212
0.04716839257
0.0415018335
0.03880957272
0.03562439837
0.01407384637
0.00186936554
0.002120135195
0.007173824372
0.01440910843
0.1232904957
0.06017563535
0.04153653168
0.04754400488
0.07042086291
0.1243412496
0.2250988755
0.3751623194
0.5582881143
4.739574254
1.589507372
0.7867128676
0.1181727266
0.003496212768
0.001883594557
0.00228916618
0.2633517122
0.0009842735687
0.06285844967
0.1235884692
0.5056405202
0.09365909653
0.0814163558
0.1322058514
0.08512325906
0.01057422388
0.00349911696
0.00993829002
0.0185767374
0.05810166451
0.04420238397
0.04640982957
0.05801142713
0.08225606938
0.1268326614
0.1911520452
0.2710634235
0.3437999427
3.872959688
0.1288791937
0.04490696652
0.647725051
0.1007880062
0.008233881015
0.008399193252
0.2815833914
0.005435893435
0.06335099824
0.07477640272
0.0967588121
0.08310350443
0.09116089298
0.1541876952
0.2300206391
0.04552152058
0.008665779934
0.01594317637
0.02515245355
0.04023911609
0.04518104762
0.05300525187
0.06448256257
0.08436845608
0.1161442653
0.1569150758
0.2083276319
0.239452301
3.687873075
0.03980517769
0.05044103771
0.08065745412
0.2816798184
0.05062341762
0.1002794664
0.4126822206
0.04769259726
0.06879793579
0.0687352484
0.06279105547
0.05125158262
0.03705086383
0.07149043734
0.230148791
0.09742722023
0.02692319937
0.03358642572
0.04727104656
0.06314368032
0.07514062343
0.08408101975
0.09320590072
0.1071667748
0.1280185406
0.1535589562
0.1971222135
0.2149241609
4.319308034
0.2088244356
0.4909959134
0.07829658798
0.493744915
0.3438501932
0.7948257416
0.5771804598
0.1703561529
0.07763625719
0.06087536785
0.05609309484
0.05217231655
0.04301180687
0.04386088655
0.121546483
0.09937492855
0.05839531399
0.07512454191
0.1188597125
0.1691209289
0.2020792796
0.2098726826
0.2017819569
0.1909643361
0.1847626653
0.1835825699
0.2276128121
0.2328867304
5.764880081
0.259096849
0.5098982231
0.09574934517
0.5545702392
0.7195942179
0.3222911517
0.1636601169
0.1097589269
0.05440850009
0.03949691857
0.03822667552
0.03909274665
0.03716963137
0.03581944734
0.06286276825
0.07415734829
0.08374008672
0.1290039435
0.2121078918
0.3018321611
0.3569258597
0.3608294822
0.3278975819
0.281949841
0.2392361669
0.2058234156
0.3216075323
0.3132587668
7.527940986
0.5157212944
1.790196296
0.4423729401
0.686063376
1.456978188
0.9801769327
0.2651020104
0.07201939452
0.01259507069
0.02728661407
0.05774953646
0.1132935805
0.1830328667
0.2320102278
0.239097768
0.2053838528
0.1637575506
0.1770352693
0.2426258629
0.3129398251
0.3500828506
0.3456538952
0.3121130315
0.2664647106
0.2214480375
0.1861361263
0.3854883667
0.6020361548
8.843338384
0.7920566096
1.60221419
1.068855541
1.031517227
0.3798979679
0.6128672082
0.3848889198
0.1424261192
0.03300641821
0.1032418366
0.2510404875
0.3816988143
0.3607355563
0.24815156
0.1749388309
0.1272503933
0.1123409722
0.1409400076
0.1830296481
0.2090529211
0.2136355189
0.2033768554
0.1861760562
0.1682968028
0.153830026
0.1466335397
0.3734156553
1.395724679
9.313252956
0.7109418788
0.4657369029
1.044473451
0.6298797832
0.01285626063
0.09774400283
0.2573126462
0.2432008292
0.09394661991
0.1900993208
0.261570052
0.1916799198
0.1493812889
0.1977131558
0.1798859077
0.08870677446
0.08823753504
0.1097805414
0.1202454143
0.1136563756
0.1024374676
0.09445566216
0.09161810994
0.09392421638
0.1024399832
0.1200157423
0.3537415617
3.892029735
9.030362672
0.3546991021
0.1005397814
0.3610974837
0.002452818146
0.0008174766562
0.001957167374
0.04933329832
0.1150855511
0.1627583532
0.232593544
0.1886738682
0.07650330498
0.05774345373
0.2779802824
0.3021003828
0.1437897995
0.1548429488
0.142374762
0.1473150534
0.1504280965
0.1433250063
0.1334394348
0.1324663977
0.1387220122
0.1487433669
0.1787719068
0.4922246382
7.27220561
8.870778006
0.123874036
0.007017300835
0.07703026543
0.04198825446
0.06229503232
0.09082031795
0.05659396533
0.1004632016
0.2142777992
0.228905378
0.1281734109
0.04902936621
0.06165337248
0.3554755492
0.3628173823
0.17557289
0.1529361509
0.1375549822
0.2080092377
0.3776938691
0.5726382486
0.7701570055
0.9673334214
0.9256270442
0.7273762491
0.5327908163
1.256670646
9.746926738
9.226154254
0.1187361674
0.01667373518
0.04945341041
0.07217521399
0.4043155637
0.2216129439
0.03957604007
0.08675223846
0.2396101212
0.2061835745
0.09447718771
0.0454891022
0.07919261711
0.3411148829
0.361889655
0.2191110817
0.1602301531
0.1357894593
0.1132419149
0.129857218
0.4148358761
2.558543657
5.076583894
4.779730868
4.475992799
4.165470486
7.140696457
10.50630606
8.27134372
0.2039720957
0.04135551301
0.06066095832
0.1369272786
0.4569148004
0.151093561
0.01676441937
0.06902651082
0.2105477485
0.1868220378
0.1001063733
0.0837524798
0.1329046265
0.3024629532
0.3446935574
0.3057026159
0.2654956571
0.1621168272
0.09398130143
0.1785121966
1.950184446
6.513635415
5.645844718
3.151129389
2.654178956
2.072100842
4.332177799
6.220842262
5.537503768
0.1910825049
0.1010278583
0.1086896089
0.4036761923
0.5638760975
0.1913269389
0.1218567515
0.2739961777
0.3083646591
0.2762831796
0.2300552542
0.2014795981
0.2020038651
0.2854298227
0.3374244056
0.4001157085
0.4786855533
0.2168517767
0.1660266535
4.201861016
7.860379228
4.524109025
3.279036884
2.76310335
2.770773464
2.312783701
4.213975242
5.259555429
4.689165969
0.09123814152
0.171629545
0.2114844432
0.8933784216
0.5625409633
0.2496188963
0.1878786145
0.3287877835
0.3017547242
0.2657641143
0.2340249871
0.2023191835
0.195733338
0.2710149831
0.3526311918
0.4766569217
0.9190087663
0.9838510216
3.413477335
8.134866248
4.784545388
3.724860063
3.037949457
2.8398516
2.817804437
2.572513953
3.793333494
4.302307163
4.257639546
0.06479831906
0.2531004453
0.3972688066
1.625367656
0.8472844576
0.6836485536
0.4527703198
0.4207466785
0.3064893577
0.2390421677
0.1901106196
0.1568733818
0.166804974
0.259392234
0.3775129245
0.6333323189
2.462208866
6.494111201
7.571397711
5.291855915
3.907309481
3.439745254
3.160415687
3.094430992
3.081350647
3.001539699
3.685473804
3.747996639
4.019776832
0.08099984246
0.327290267
0.5783133896
1.130543792
1.060653419
0.9808197539
0.7474799854
0.6339898
0.3451851293
0.2129799759
0.1450873519
0.1213706867
0.1458886389
0.2582934437
0.4886664
1.277990062
7.165290849
6.770060706
6.642090967
4.309308303
3.828633943
3.52484599
3.37848639
3.395841265
3.476348996
3.637281795
4.143704557
4.041975047
4.253981707
0.1638373739
0.8603477012
0.9874604428
0.8415750029
1.299962571
1.530825864
0.925572231
0.6983241043
0.3292705589
0.1819429103
0.1244856003
0.1110148777
0.1403454284
0.3600945315
1.142877405
4.358465259
6.360336523
4.454253767
4.183426144
3.751524285
3.5812836
3.478365645
3.455146602
3.53205635
3.694348284
3.973768975
4.368099405
4.318296656
4.611194409
0.2312045998
0.5675983303
0.6918242203
1.01365162
0.9444562363
0.7185480205
0.3942582303
0.3841955906
0.2540094877
0.1770941089
0.1388701921
0.1305708336
0.2643449357
3.408619341
5.163654816
6.428679065
6.239095061
5.493412905
5.240307307
4.5986745
4.09354957
3.697332127
3.484269515
3.514425982
3.746216411
4.166665862
4.703887772
5.149705407
5.561061771
0.2718766295
0.3415460933
0.3324220419
0.9471331914
0.4949357006
0.3403975987
0.2392348727
0.2082568739
0.2212884996
0.2112124297
0.1955585621
0.2706839168
2.047139828
4.923025929
4.178048838
3.957411976
3.375523495
2.945253492
2.658511323
2.47282144
2.45977565
2.484436438
2.615442265
2.922735886
3.286768337
3.860999619
4.628229605
5.40835368
5.963009123
0.2715131875
0.2179833725
0.1555855421
0.6117178041
0.1744872764
0.2306202302
0.2660449445
0.215622413
0.2351193356
0.2896552894
0.4723778869
2.55790277
5.620367015
7.025082107
5.581376778
4.856105792
4.365991664
4.284058511
4.120531683
4.034570295
4.056692523
4.018948814
3.787795717
3.602824418
3.546715646
3.735588226
4.172023293
4.391985344
5.331859076
0.1055103828
0.07295333606
0.04450355402
0.1871918313
0.01380351869
0.01395396138
0.07956926764
0.1238382085
0.1856736023
0.332973061
0.9053724361
2.171655998
2.366870767
1.627420303
1.995530647
2.521766955
2.946813293
3.458810498
3.686538846
3.400654565
2.629889149
1.487624978
1.263625355
1.677113061
1.597131899
1.781529342
2.715879763
3.420583357
5.184851818
1.218205315
0.8948043068
0.7248378689
0.6897121895
0.5713369445
0.6840399657
1.031852364
1.36545842
1.661358343
2.574343736
6.043201309
9.941698929
12.8063077
8.691735468
5.705357436
4.196002431
4.427590807
4.332261043
4.189485592
4.074072602
4.10580492
4.153411928
4.076988268
4.166095214
4.436858456
4.710808221
5.084998546
5.251678357
6.192296606
14.29447885
0.1432516904
0.4547921531
0.04390301205
0.3089366959
0.02295818492
0.04925317525
0.1009966153
0.1885485566
0.003889062413
0.0003610307395
7.981587543e-37
0.1984345171
0.001227325775
0.0001198180499
2.073143862e-37
0.4104306636
0.0007867257075
7.776796377e-06
4.961325818e-38
1.368809092
8.401843254e-09
2.299813047e-39
9.51846874e-40
1.241364764
4.131678938
0.4308047782
1.033584939
0.05340473266
0.009126684882
3.226540669
0.001495234759
0.0003290303328
8.230905415e-05
5.599190441e-05
3.543880778e-05
0.0002531763309
9.724775781e-05
0.0006066019554
0.03334845844
0.00601046155
0.05519067049
0.0004231626221
0.003740699696
0.0005616027229
0.005121526824
0.0001706672443
0.00035654721
0.008823556273
0.001491031286
0.0096190088
10.8695279
0.1214669376
1.172348315
0.6373999207
2.00530771
1.003759223
0.5460800286
0.3087972259
0.4736379571
1.375370804
1.095086764
0.9651474697
0.4825323653
0.8376693424
0.09492623468
0.3697544512
0.1537271591
0.3968262084
0.4425941031
0.7080559081
0.2785082466
0.01352007554
0.5068939231
0.2699892441
0.4850431818
0.5832198912
0.8533196856
0.4680678832
0.2742906318
0.2111942564
0.7188656229
0.3013647178
2.838864652
0.7683397653
0.3510301734
0.7317329302
0.6125883625
0.3332541286
0.5878121476
0.592400745
0.8641933766
4.367637042
1.113171894
0.5616469203
0.3660257319
0.263701403
0.3798759395
0.896756029
0.2336215571
0.1872560666
0.1911286818
0.1780720151
0.3282680007
0.5074444668
0.4975331875
0.1634304832
0.3216808664
0.09820550764
0.7500686656
0.5500951985
0.9776572619
0.04895786417
0.3097546815
0.03021220991
1.002422049
1.581124134
0.7675175976
0.01364579602
4.041221029e-05
1.77961288e-06
0.44273929
2.938455494
0.2468848691
0.0001801332092
0.1515397159
1.888838355
0.03120338264
0.09811418554
0.01619315494
0.4482250886
0.01391704473
0.003991745238
0.009142024578
0.003642854645
1.146514731e-15
0.0008128742067
1.210869526e-15
6.968465002e-36
0.01244794734
0.1278751245
0.02744017647
0.0002846170764
0.004345770796
0.0005319263176
6.188101364e-05
0.0001056003861
0.0001403946699
0.002368671365
0.001035180259
0.008520598172
0.1043191574
0.05244828329
0.1724646076
0.0009290869323
0.009949554879
0.00144577828
0.0005814061912
0.0004289907309
0.001975912523
0.02296129294
0.01262310173
0.05022562841
0.01064334889
0.003075770761
8.435509931e-16
0.1837603212
5.060326624e-16
2.335288994e-36
0.04468804623
0.2219648132
0.0663495284
0.001254079156
0.01423751171
0.002562011905
0.0003562581356
0.0004470852505
0.0009154437111
0.02433003716
0.01001965006
0.05275752329
0.2553950432
0.1486023973
0.340310881
0.002168036832
0.03318235032
0.004393043981
0.007445185416
0.003444105154
0.02421118209
0.1012103352
0.08396043123
0.1952322215
0.005145390326
0.1847471199
0.003671491193
0.001571174258
0.002800582354
0.001132557497
9.321339288e-17
0.004347062348
0.03452780013
0.006531081354
0.002759193134
0.003428846174
0.01221089969
0.09160309802
0.06076878645
0.1373802543
0.4054769273
0.2405622312
0.4290277563
0.01555731364
0.1399994459
0.06237623315
0.07021626687
0.05708377086
0.1931271682
0.2940127973
0.01546591083
0.000505046393
0.0004130170269
0.0001632803047
1.993601037e-18
4.020753208e-05
0.04447897879
0.2234807818
0.1293626023
0.1876111943
0.1993012079
0.2393210267
0.3980012309
0.2518719284
0.3165372912
0.2170628551
0.3110749131
0.6363646828
0.1385301886
16.16517367
36.82930778
14.01094453
0.9906534242
0.02023788581
0.6989486025
0.0005582518612
0.8644461854
1.459386305e-09
1.095115319
5.103616361
0.4201345249
0.2936908386
1.046322853
1.644262363
0.6931585163
0.000207861348
2.516916239
0.2149820933
8.403414519e-05
0.7136665703
0.2490393669
0.002113542001
0.4214936091
0.3398854565
0.002760420145
0.8952025341
0.1952903774
0.03875406601
2.659863051
0.0002224930037
0.004677060948
2.586134958
0.1823316198
1.518305884
0.0008859681216
2.521921013
0.5214869559
0.01017425897
0.0007972414076
0.07680406514
0.001530881862
7.205019493e-05
0.0003058100663
0.02086918435
0.006284708597
0.0002303482234
0.003695310565
0.1814669449
1.451750585
0.2180802554
0.007682427807
0.006210556352
0.0006925390768
0.0005665804203
3.882652302e-36
0.1764368776
0.008507423644
0.0001911819698
0.003364536775
0.09716336086
0.01638753257
0.0009918918257
0.03390422744
0.5056292642
0.2918809845
0.02153862773
0.001093267362
0.02685282683
0.1995517963
0.07295786291
0.01443536122
0.2000451801
0.6411513382
0.7088444676
0.7616594974
0.003476043837
0.007268486812
0.003032612475
0.01571167495
0.113820448
0.02196462263
0.1130537762
0.2609701228
0.2261915733
0.2023051659
0.768709274
1.382866581
1.778906343e-08
1.330854466e-34
0.7683015216
0.4920277439
0.4580964979
6.399882166e-07
9.477034077e-25
3.996750893e-38
1.713895833e-38
0.3611777941
0.3316581906
4.818426176e-06
2.002614292e-38
8.401940801e-39
0.2104886861
0.1971408475
2.653705018e-05
7.785291535e-39
3.295329295e-39
0.3493328354
0.4916220082
2.535211206e-08
1.877598486e-39
1.049101549e-39
0.9145420174
0.04712126502
7.817354318
0.1720642509
0.6931007343
0.01529072381
0.6312153494
0.007129008964
0.1916760243
0.1761716618
0.009539607041
0.003398394878
0.7897100683
1.95365812e-09
0.1680161564
0.3289577683
0.0004221326373
8.82794825e-16
0.5627753111
7.865771664e-35
0.002022826943
11.90888938
0.5681950742
0.1281629638
2.526020188
0.04460640958
0.4844519199
0.04807076921
0.04310304139
0.3507401094
0.0433028505
0.03417001667
0.04801963242
0.07509836104
0.1090574557
0.1537913808
0.008424593116
0.002498509203
0.4829444468
0.04288966534
0.04247071451
0.01801361841
0.0308104695
0.01402430074
0.02964231167
0.07141118608
0.04324917084
0.06100915679
0.0002622414274
3.659661852e-17
5.266248165e-37
0.003149053108
0.9527552579
0.05169963136
0.05712220576
0.001442929321
0.001493803256
2.859949366e-10
2.505870983e-10
0.006819947978
2.206055355e-10
0.04752200333
0.003872394785
0.01108970856
0.004802108592
3.231978309e-20
9.485565603e-38
0.06688115347
2.958885817e-05
0.004158687214
1.348466053e-05
3.854822114e-23
3.593861929e-06
3.974304583e-24
0.03381320517
1.454986168
0.05253237339
1.085749229e-31
1.523495801e-08
1.108470788e-08
1.962812527e-31
1.053442534e-31
1.84172689e-39
1.001954388e-39
7.737046219e-35
5.311498125e-40
0.05953832974
3.859181294e-10
1.002693808e-34
0.3490247494
0.419982851
0.5123539776
2.413949351e-21
1.741361453e-06
3.642126057e-21
2.472533676e-38
3.041690512e-38
1.832230247e-38
1.248373892e-38
0.7067994077
0.2584328429
0.9473967208
6.949128988e-21
1.534928979e-05
1.262618244e-20
1.251510385e-38
1.299568417e-38
8.084234651e-39
5.382271348e-39
1.338971848
0.1728959464
3.580921613
2.308909953e-20
3.597661009e-05
1.598189181e-20
4.909866199e-39
4.353158495e-39
2.820428576e-39
1.935140588e-39
0.2134928685
0.7885664286
0.01423831994
7.185440158e-34
7.384409751e-10
8.162001696e-36
1.38260204e-39
1.631210884e-39
1.158359007e-39
1.45901133e-39
8.427106957e-40
)
;

boundaryField
{
    walls
    {
        type            zeroGradient;
    }
    wallFilmFace_top
    {
        type            zeroGradient;
    }
    region0_to_wallFilmRegion_wallFilmFace
    {
        type            zeroGradient;
    }
    mirrorFace_top
    {
        type            zeroGradient;
    }
    region0_to_wallFilmRegion_mirrorFace
    {
        type            zeroGradient;
    }
    procBoundary2to0
    {
        type            processor;
        value           nonuniform List<scalar> 
26
(
1.046447483
1.543909456
1.758498106
1.4089262
1.669100667
1.191321405
0.4601446757
0.3090569626
0.2967744298
0.3011455937
0.2561115455
0.2130780288
0.1612883018
0.1090953572
0.06563426832
0.04711667024
0.05559438665
0.1004902375
0.1218422691
0.1219138715
0.1076777609
0.08549183274
0.05856066255
0.09830496764
0.4839197049
3.93961167
)
;
    }
    procBoundary2to1
    {
        type            processor;
        value           nonuniform List<scalar> 
33
(
1.053219258
1.053219258
0.7970973939
0.7970973939
1.263921122
1.277530401
1.307895394
1.307895394
1.412284971
1.30380165
1.247754168
1.706875139
1.30227074
0.3382833448
0.179200101
0.1676522005
1.041973907
0.886890086
0.4261443262
0.09967736744
0.1031361315
0.1666045675
0.1909414888
0.1030786438
0.03816542276
0.03418022189
0.05905590946
0.1404301047
0.2716796039
0.3500745011
0.3758081769
0.1309148506
1.644441773
)
;
    }
    procBoundary2to3
    {
        type            processor;
        value           nonuniform List<scalar> 
64
(
0.1974204609
0.06431904298
0.09983223147
0.2031388369
0.1393791022
7.685753147e-37
1.825986222e-37
3.687459028e-38
6.292439452e-40
0.2654857708
0.6168718857
0.5171578625
0.7038982524
0.6168718857
0.3582691636
0.2548315999
0.2067597927
0.12014106
0.03690149387
0.01376962842
0.00596925202
0.001869603631
6.969341451e-07
1.933090869e-06
1.933090869e-06
5.697127768e-07
0.02747917719
0.02747917719
0.01593157529
0.02747917719
1.313764745e-35
7.48777808e-36
1.313764745e-35
4.066369508e-36
2.394150459e-36
0.860869533
1.204479421e-09
0.2654857708
0.0007830110136
1.313764745e-35
0.02184321113
2.681021715e-38
1.280889637e-38
6.084117575e-39
2.367182644e-39
8.189882995e-40
1.06477296
1.438673293e-34
0.6299035696
0.07313892116
0.06431904298
0.1450091239
0.2105249614
0.08452222382
4.950895974e-37
0.009487838167
1.933465621e-10
7.790566203e-38
6.107034629e-35
2.643994364e-40
9.173409077e-39
3.857610571e-39
1.411126014e-39
6.288468837e-40
)
;
    }
}


// ************************************************************************* //
