/*--------------------------------*- C++ -*----------------------------------*\
  =========                 |
  \\      /  F ield         | OpenFOAM: The Open Source CFD Toolbox
   \\    /   O peration     | Website:  https://openfoam.org
    \\  /    A nd           | Version:  8
     \\/     M anipulation  |
\*---------------------------------------------------------------------------*/
FoamFile
{
    version     2.0;
    format      ascii;
    class       volScalarField;
    location    "1.8/wallFilmRegion";
    object      T;
}
// * * * * * * * * * * * * * * * * * * * * * * * * * * * * * * * * * * * * * //

dimensions      [0 0 0 1 0 0 0];

internalField   nonuniform List<scalar> 
1342
(
299.9999951
299.9999945
299.999995
299.999996
299.9999969
299.9999982
299.9999997
300.0000001
300.0000001
300.0000001
300.0000004
300.0000018
300.000005
300.0000051
300.0000037
300.0000028
300.0000017
300.0000016
300.000001
300.0000007
300.0000005
300.0000004
300.0000004
300.0000011
300.000002
300.0000017
299.9999961
299.9999956
299.999995
299.9999951
299.9999955
299.9999977
299.9999996
299.9999996
300.0000003
300.0000001
300.0000003
300.0000012
300.0000047
300.0000069
300.0000053
300.0000037
300.0000028
300.0000007
300.0000015
300.0000016
300.0000011
300.0000004
299.9999999
299.9999995
299.9999998
300.0000026
300.0000017
299.9999971
299.9999963
299.9999968
299.9999966
299.9999966
299.9999967
299.9999984
300.0000005
299.9999997
300.0000005
300.0000002
300.0000007
300.0000031
300.0000076
300.0000071
300.0000052
300.0000036
300.0000027
300.0000002
300.0000006
300.0000015
300.0000021
300.0000022
300.000002
300.0000013
300.0000001
300
300.0000014
299.9999987
299.9999976
299.9999975
299.9999972
299.9999976
299.9999982
299.9999989
299.9999999
299.9999999
300.0000011
300.0000005
300.0000017
300.0000077
300.0000085
300.000007
300.0000048
300.0000029
300.0000019
300
300.0000002
300.0000006
300.0000015
300.0000021
300.0000025
300.0000028
300.0000025
300.0000017
300.0000015
299.9999994
299.9999996
299.9999994
299.9999983
299.9999973
299.9999978
299.9999983
300.0000004
300.0000003
300.0000033
300.0000011
300.0000083
300.0000108
300.000008
300.0000068
300.0000017
300.0000002
300.0000001
300
300
300.0000001
300.0000004
300.0000011
300.0000021
300.0000027
300.0000031
300.0000031
300.0000017
299.9999992
299.9999983
300.000001
300.0000033
300.0000033
300.0000002
300.000001
300.0000032
300.000002
300.0000012
300.0000167
300.000006
300.0000145
300.0000092
300.0000082
300.0000091
300.0000079
300.0000056
300.0000045
300
300.0000001
300.0000005
300.0000015
300.0000024
300.0000025
300.0000027
300.000003
300.0000032
300.0000017
299.9999984
299.9999958
300.0000002
300.0000064
300.0000065
300.0000008
299.9999991
300.0000035
300.0000005
300.0000004
300.0000038
300.000003
300.0000033
300.0000055
300.0000112
300.0000288
300.0000107
300.0000053
300.0000036
300.0000001
300.0000004
300.0000011
300.0000016
300.0000014
300.0000012
300.0000011
300.0000012
300.0000014
300.0000017
299.999998
299.999996
299.9999998
300.0000102
300.000006
300.0000004
299.9999987
300.0000024
300
299.9999989
300.0000039
300.0000019
300.0000014
300.0000013
300.0000023
300.0000094
300.0000083
300.0000041
300.0000027
300.0000004
300.0000009
300.0000014
300.0000013
300.000001
300.0000009
300.0000008
300.0000009
300.0000009
300.0000014
299.9999965
299.9999971
299.9999978
300.0000079
300.0000152
300.0000132
299.9999981
300.0000859
299.9999999
299.9999995
299.9999988
299.9999999
300.0000015
300.0000009
300.0000008
300.0000026
300.000006
300.0000033
300.0000023
300.000001
300.0000013
300.0000013
300.0000011
300.000001
300.0000009
300.0000009
300.0000009
300.0000009
300.0000015
299.999995
299.9999992
299.9999979
299.9999987
300.000005
300.0000066
299.9999981
300.0000063
299.9999997
299.9999998
299.9999999
299.9999998
299.9999998
300.0000007
300.0000006
300.0000011
300.0000032
300.0000023
300.0000018
300.0000014
300.0000013
300.0000011
300.000001
300.000001
300.0000009
300.0000009
300.000001
300.000001
300.0000016
299.9999949
299.9999991
299.9999976
299.9999988
300.0000004
299.9999998
299.9999979
299.9999989
299.9999994
299.9999997
300
300.0000007
300.0000021
300.0000014
300.0000007
300.0000009
300.0000016
300.0000014
300.0000012
300.000001
300.0000009
300.0000009
300.0000009
300.0000009
300.0000009
300.000001
300.000001
300.0000011
300.0000017
299.9999952
299.9999986
299.9999984
299.9999983
299.9999982
299.9999977
299.9999976
299.999998
299.999999
299.9999996
299.9999999
300.0000003
300.0000013
300.0000022
300.0000011
300.0000011
300.0000011
300.000001
300.0000008
300.0000007
300.0000007
300.0000007
300.0000008
300.0000008
300.0000009
300.000001
300.0000011
300.0000012
300.0000017
299.9999922
299.9999963
299.999996
299.9999974
299.9999976
299.9999971
299.9999969
299.9999972
299.9999987
299.9999995
299.9999998
300.0000001
300.0000007
300.0000018
300.0000017
300.0000015
300.0000011
300.0000009
300.0000007
300.0000007
300.0000007
300.0000007
300.0000008
300.0000009
300.000001
300.0000011
300.0000011
300.0000012
300.0000019
299.9999931
299.9999962
299.9999955
299.9999966
299.9999977
299.999998
299.9999986
299.999999
300.0000008
300.0000004
300.0000001
299.9999999
299.9999999
299.9999999
300
300.0000003
300.0000007
300.0000008
300.0000008
300.0000007
300.0000008
300.0000008
300.0000009
300.000001
300.0000011
300.0000012
300.0000012
300.0000014
300.000002
299.9999946
299.9999976
299.9999965
299.9999969
299.9999984
299.9999982
299.9999986
299.999999
300.0000002
299.9999998
299.9999995
299.9999995
299.9999996
299.9999998
300.0000001
300.0000005
300.0000009
300.0000009
300.0000009
300.0000009
300.0000009
300.000001
300.000001
300.0000011
300.0000012
300.0000013
300.0000012
300.0000016
300.0000022
299.9999953
299.9999975
299.9999972
299.9999974
300.0000021
299.9999982
299.9999976
299.9999979
299.9999996
299.9999995
299.9999995
299.9999997
300.0000001
300.0000004
300.0000008
300.000001
300.0000012
300.0000012
300.0000011
300.0000011
300.0000012
300.0000013
300.0000013
300.0000013
300.0000013
300.0000013
300.0000012
300.000002
300.0000023
299.9999958
299.9999978
299.9999982
300.0000129
300.0000226
300.000007
299.9999972
299.9999987
299.9999994
299.9999995
299.9999995
299.9999999
300.0000008
300.0000007
300.0000009
300.0000008
300.0000008
300.0000009
300.0000009
300.000001
300.0000011
300.0000011
300.0000011
300.0000011
300.0000011
300.0000011
300.0000011
300.0000023
300.0000023
299.999997
300.0000024
299.9999989
299.9999993
299.9999988
299.9999983
299.9999982
299.9999999
299.9999995
299.9999995
299.9999996
300.0000002
300.0000009
300.0000006
300.0000003
299.9999994
299.9999988
299.9999988
299.9999991
299.9999995
299.9999999
300.0000004
300.0000009
300.0000012
300.0000013
300.0000011
300.0000012
300.0000024
300.0000021
299.9999986
300.0000011
299.9999995
299.9999994
299.9999978
299.999998
299.9999992
300.0000001
299.9999995
299.9999995
299.9999998
300.0000006
300.0000008
300.0000002
299.9999995
299.9999983
299.9999973
299.9999971
299.9999975
299.9999985
300.0000003
300.0000013
300.0000015
300.0000016
300.0000017
300.0000017
300.0000019
300.0000021
300.000002
299.9999993
300.0000004
299.9999998
299.9999993
299.9999979
299.9999982
300.0000013
300.0000002
299.9999996
299.9999995
299.9999996
299.9999993
299.9999992
299.9999993
299.9999987
299.9999976
299.999997
299.9999971
299.9999977
300.0000002
300.0000012
300.0000014
300.0000015
300.0000016
300.0000016
300.0000017
300.0000017
300.0000019
300.0000019
299.9999996
300
299.9999998
299.9999992
299.9999982
299.9999997
300.0000001
300
299.9999999
299.9999998
299.9999998
299.9999994
299.9999989
299.9999988
299.9999983
299.9999974
299.9999975
299.9999981
299.9999998
300.0000012
300.0000015
300.0000015
300.0000015
300.0000015
300.0000016
300.0000016
300.0000017
300.0000018
300.0000019
300.0000001
299.9999999
299.9999998
299.999999
299.9999985
300
300.0000001
300
300
300
299.9999999
299.9999995
299.999999
299.9999988
299.9999984
299.9999977
299.9999982
300
300.0000011
300.0000014
300.0000015
300.0000015
300.0000014
300.0000015
300.0000015
300.0000016
300.0000017
300.0000018
300.0000018
300.0000006
300
299.9999998
299.9999993
299.999999
299.9999995
299.9999998
300
300.0000001
300.0000001
300.0000001
299.9999997
299.9999992
299.999999
299.9999987
299.9999984
299.9999996
300.0000011
300.0000013
300.0000015
300.0000014
300.0000014
300.0000014
300.0000014
300.0000014
300.0000016
300.0000017
300.0000018
300.0000018
300.0000007
300.0000001
299.9999998
299.9999998
299.9999994
299.9999993
299.9999994
299.9999998
300
300.0000001
300.0000003
299.9999999
299.9999996
299.9999994
299.9999992
299.9999994
300.000001
300.0000015
300.0000015
300.0000014
300.0000013
300.0000013
300.0000013
300.0000013
300.0000014
300.0000015
300.0000016
300.0000018
300.0000018
300.0000007
300.0000001
300
300
299.9999999
299.9999997
299.9999996
299.9999997
299.9999999
300.0000002
300.0000005
300.0000002
300
299.9999999
300.0000003
300.000001
300.0000014
300.0000015
300.0000014
300.0000013
300.0000013
300.0000013
300.0000013
300.0000013
300.0000013
300.0000014
300.0000016
300.0000017
300.0000018
300.0000006
300.0000003
300.0000003
300.0000001
300
300
299.9999998
299.9999997
299.9999999
300.0000002
300.0000005
300.0000004
300.0000003
300.0000012
300.0000014
300.0000015
300.0000015
300.0000015
300.0000014
300.0000013
300.0000013
300.0000012
300.0000012
300.0000012
300.0000013
300.0000014
300.0000015
300.0000016
300.0000017
300.0000006
300.0000006
300.0000006
300.0000002
300.0000004
300.0000005
300.0000002
299.9999998
299.9999999
300.0000001
300.0000003
300.0000004
300.0000012
300.0000015
300.0000015
300.0000016
300.0000016
300.0000015
300.0000014
300.0000013
300.0000013
300.0000012
300.0000012
300.0000012
300.0000012
300.0000012
300.0000012
300.0000012
300.0000012
300.0000006
300.0000009
300.0000011
300.0000001
300.0000006
300.000001
300.0000006
300.0000001
299.9999999
299.9999999
300.0000001
300.0000011
300.0000014
300.0000014
300.0000015
300.0000015
300.0000016
300.0000016
300.0000016
300.0000015
300.0000013
300.0000012
300.0000011
300.0000011
300.0000012
300.0000012
300.0000012
300.0000012
300.0000012
300.0000008
300.0000012
300.0000017
300.0000001
300.0000006
300.0000022
300.0000008
300.0000003
299.9999999
299.9999998
300.0000001
300.0000011
300.0000013
300.0000012
300.0000012
300.0000013
300.0000013
300.0000015
300.0000015
300.0000014
300.0000014
300.0000013
300.0000012
300.0000011
300.0000011
300.0000012
300.0000012
300.0000012
300.0000012
300.0000008
300.000001
300.0000012
300.0000003
300.0000003
300.0000007
300.0000007
300.0000005
300.0000003
300
299.9999998
300.0000002
300.0000008
300.000001
300.000001
300.000001
300.0000009
300.0000009
300.0000009
300.0000009
300.0000009
300.0000009
300.000001
300.000001
300.000001
300.0000011
300.0000011
300.0000011
300.0000012
299.9999979
299.9999999
299.9999999
299.9999998
299.9999999
299.9999997
299.9999998
299.9999999
299.9999995
299.9999958
299.9999788
299.9984394
299.9999995
299.9999905
299.9999511
299.9985285
299.9999998
299.9999924
299.9996604
299.9980576
300
299.9986037
299.9990476
299.999058
299.9999948
299.9999998
299.9999998
299.9999765
299.9999997
299.9999994
299.9999779
299.9999982
299.9999941
299.9999654
299.9999816
299.999973
299.9999917
299.9999906
299.9999985
299.9999998
299.9999998
299.9999999
299.9999889
299.9999996
299.9999979
299.9999938
299.9999912
299.9999946
299.9999973
299.9999978
299.9999992
299.9999983
299.9999997
299.9999992
299.9999998
299.9999998
299.9999998
299.9999998
299.9999999
299.9999998
299.9999998
299.9999998
299.9999999
299.9999999
299.9999997
299.9999994
299.9999995
299.9999993
299.9999999
299.9999999
299.9999999
299.9999992
299.9999991
299.9999994
299.9999996
299.9999999
299.9999999
299.9999999
299.9999998
299.9999999
299.9999999
300
299.9999881
299.9999762
299.9999882
299.9999922
299.9999909
299.9999925
299.9999938
299.9999934
299.9999939
299.9999881
299.9999818
299.9999856
299.9999931
299.999991
299.9999942
299.9999948
299.9999947
299.9999948
299.999995
299.9999949
299.999995
299.9999949
299.9999947
299.9999949
299.999995
299.999995
299.9999951
299.9999949
299.9999951
299.9999949
299.9999951
299.9999949
299.9999951
299.9999949
299.9999963
299.9999949
299.9999951
300.0000618
300.0002125
299.999995
299.999997
299.9999953
300.0000078
299.9999959
299.9999974
299.9999967
299.9999953
299.9999987
299.9999997
299.9999985
299.9999966
299.9999979
299.999996
299.9988942
299.9999901
299.9987428
299.9962533
299.9999995
299.9999997
299.9999996
299.9999954
299.9999991
299.9999968
299.999984
299.9999891
299.9999927
299.9999995
299.999999
299.9999998
299.9999999
299.9999999
299.9999999
299.9999988
299.9999998
299.9999992
299.9999976
299.9999971
299.9999989
299.9999996
299.9999996
299.9999998
299.9999982
299.9999953
299.9986636
299.9999995
299.9986663
299.9980939
299.9999996
299.9999997
299.9999995
299.9999978
299.9999992
299.9999982
299.999997
299.9999952
299.9999986
299.9999999
299.9999998
299.9999999
299.9999999
299.9999999
299.9999999
299.9999994
299.9999999
299.9999995
299.9999996
299.9999992
299.9999998
299.9999999
299.9999999
299.9999999
299.9999971
299.9999995
299.9999965
299.9999918
299.9999948
299.9999897
299.9985424
299.9999984
299.9999991
299.9999986
299.9999993
299.9999986
299.9999997
299.9999999
299.9999999
299.9999999
300
300
300
299.9999997
300
299.9999999
299.9999999
299.9999998
299.9999999
299.9999997
299.9999994
299.9999812
299.9999794
299.9999575
299.998639
299.999891
299.9999998
299.9999997
299.9999998
299.9999999
299.9999999
299.9999999
300
300
300
299.9999999
300
300
299.9999999
299.9999901
299.9999819
299.9999858
299.9999918
299.9999985
299.999992
299.9999911
299.9999923
299.9993028
299.9999819
299.9999789
299.9999906
299.9999931
299.9999742
299.9999743
299.9999913
299.9999801
299.9999947
299.9999949
299.9999727
299.9999947
299.999995
299.999999
299.9999948
299.999995
299.9999989
299.9999957
299.9999949
299.9999943
299.9999966
300.0000186
299.9999949
299.9999972
299.9999995
299.9999977
299.9999837
299.9999998
299.9999998
299.9999981
299.9999913
299.9999997
299.9999987
299.9999853
299.9999969
299.9999999
299.9999997
299.9999955
299.9999992
299.9999998
299.9999998
299.9999996
299.9999975
299.9999971
299.9999883
299.999986
299.9971516
299.9999997
299.9999992
299.9999926
299.9999996
299.9999999
299.9999999
299.9999983
299.9999998
299.9999999
299.9999996
299.9999991
299.999997
299.9999999
300
299.9999999
299.9999997
299.9999999
299.9999999
299.9999999
299.9999999
299.9999987
299.9999994
299.9999991
299.9999996
299.9999992
299.9999996
299.9999999
300
300
299.9999999
299.9999999
300
299.9985304
299.9989445
299.9999998
299.9999999
299.9999999
299.999309
299.9990838
299.9983691
299.9987804
299.9999999
300
299.9998323
299.9988261
299.9991819
300
300
299.9999584
299.9991803
299.9992631
300
300
299.9987897
299.9991238
299.9991805
299.9999836
299.999999
299.9999814
299.9999912
299.9999998
299.9999988
299.9999919
299.9999971
299.9999927
299.9999939
299.9999983
299.9999969
299.9999922
299.999236
299.9999947
299.9999954
299.999991
299.9990661
299.999996
299.9971906
299.9999881
299.9999977
299.9999971
299.9999998
299.9999986
299.9999998
299.9999975
299.9999998
299.9999998
299.9999999
299.9999998
299.9999997
299.9999998
299.9999999
299.9999999
299.9999999
299.9999979
299.9999945
299.9999999
299.9999998
299.9999998
299.9999997
299.9999998
299.9999995
299.9999997
299.9999999
299.9999998
299.9999998
299.9999733
299.9986193
299.9985682
299.9999969
300
299.9999998
299.9999999
299.9999981
299.9999986
299.9988165
299.998839
299.9999995
299.9988153
299.9999998
299.9999991
299.9999995
299.9999993
299.9987429
299.9983209
299.9999999
299.999857
299.9999989
299.9998072
299.9988009
299.9995622
299.9990221
299.9999998
300
299.9999998
299.9990257
299.9984659
299.9984718
299.9989784
299.99893
299.9989512
299.9989439
299.9989213
299.9989502
299.9999999
299.9987438
299.9989284
300
300
300
299.999039
299.9996223
299.9987655
299.9990027
299.998764
299.9987962
299.9989959
300
300
300
299.9988636
299.9999275
299.9990652
299.9988389
299.9990661
299.9990751
299.9992621
300
299.9999999
300
299.9991314
299.9999776
299.9991102
299.9992031
299.9991504
299.9991891
299.9992297
299.9999999
300
299.9999997
299.9990796
299.9986261
299.9990507
299.9991514
299.9990812
299.999098
299.9990481
299.9991176
)
;

boundaryField
{
    walls
    {
        type            zeroGradient;
    }
    wallFilmFace_top
    {
        type            zeroGradient;
    }
    region0_to_wallFilmRegion_wallFilmFace
    {
        type            zeroGradient;
    }
    mirrorFace_top
    {
        type            zeroGradient;
    }
    region0_to_wallFilmRegion_mirrorFace
    {
        type            zeroGradient;
    }
    procBoundary2to0
    {
        type            processor;
        value           nonuniform List<scalar> 
26
(
299.9999941
299.9999942
299.999995
299.9999974
299.9999975
299.9999981
299.9999997
299.9999999
300
300
300.0000001
300.0000002
300.0000004
300.000001
300.000002
300.0000027
300.0000024
300.0000015
300.000001
300.0000008
300.0000008
300.0000011
300.0000017
300.0000037
300.0000025
300.0000018
)
;
    }
    procBoundary2to1
    {
        type            processor;
        value           nonuniform List<scalar> 
33
(
299.999994
299.999994
299.999996
299.999996
299.9999974
299.9999987
299.9999993
299.9999993
299.9999988
299.9999987
299.9999985
299.9999967
299.9999936
299.9999924
299.9999922
299.9999906
299.9999948
299.9999958
299.9999963
299.9999968
299.9999979
299.9999989
299.9999993
299.9999996
300.0000004
300.0000009
300.0000007
300.0000005
300.0000004
300.0000003
300.0000004
300.0000006
300.0000006
)
;
    }
    procBoundary2to3
    {
        type            processor;
        value           nonuniform List<scalar> 
64
(
299.9999999
299.9999998
299.9999999
299.9999999
299.9999999
299.9982414
299.9985495
299.9984314
299.9990683
299.9999942
299.999994
299.9999942
299.9999945
299.999994
299.9999949
299.999995
299.9999951
299.9999951
299.9999952
299.9999953
299.9999954
299.9999957
300.0002046
300.0002165
300.0002165
300.0002223
299.999996
299.999996
299.9999946
299.999996
299.9959103
299.9917588
299.9959103
299.9956601
299.9976103
299.9999921
299.999354
299.9999942
299.9999842
299.9959103
299.9999997
299.9984496
299.9987248
299.9992375
299.9992886
299.9992057
299.9999964
299.9929029
299.9999978
299.9999999
299.9999998
299.9999999
299.9999999
299.9999999
299.9984496
299.9999996
299.9987681
299.9985593
299.9989094
299.9989745
299.9990942
299.999293
299.9992557
299.9991331
)
;
    }
}


// ************************************************************************* //
