/*--------------------------------*- C++ -*----------------------------------*\
  =========                 |
  \\      /  F ield         | OpenFOAM: The Open Source CFD Toolbox
   \\    /   O peration     | Website:  https://openfoam.org
    \\  /    A nd           | Version:  8
     \\/     M anipulation  |
\*---------------------------------------------------------------------------*/
FoamFile
{
    version     2.0;
    format      ascii;
    class       volVectorField;
    location    "1.8/wallFilmRegion";
    object      U;
}
// * * * * * * * * * * * * * * * * * * * * * * * * * * * * * * * * * * * * * //

dimensions      [0 1 -1 0 0 0 0];

internalField   nonuniform List<vector> 
1342
(
(0.01819480494 0.0174604053 0)
(0.05378169955 0.02979977797 0)
(0.05104355281 0.03077448305 0)
(0.002854076175 0.03948374818 0)
(-0.03766082187 0.0441197349 0)
(0.008260107579 -0.09459565635 0)
(0.5303279507 -0.6404990736 0)
(0.459208646 -0.7227026549 0)
(0.589450855 0.5273702399 0)
(0.4959302244 0.8081859952 0)
(0.372108476 1.022420238 0)
(0.07969825904 0.9501321307 0)
(-0.4994344251 0.7525754534 0)
(-0.7795500208 0.7307413664 0)
(-0.8814439866 0.7880426387 0)
(-0.922814238 0.8522786621 0)
(-1.476092231 0.901014041 0)
(-0.5316648284 0.9899093083 0)
(0.02162975951 0.9548028421 0)
(0.2901885487 0.9391814774 0)
(0.399051905 0.9325278411 0)
(0.4083173544 0.9234708171 0)
(0.3754914292 0.8912068048 0)
(0.2079818378 0.8516935256 0)
(0.07716502543 -0.6126074284 0)
(0.1449426519 0.7376905797 0)
(-0.005434489251 -0.03556103654 0)
(0.03308989436 0.006774102162 0)
(0.04388827776 0.02822498528 0)
(0.06202671496 0.04364974524 0)
(0.05495911042 0.05013021051 0)
(0.009701666767 -0.05240873037 0)
(0.09339433911 -0.1280788964 0)
(0.7858222878 -0.1699151708 0)
(0.6718258179 -0.3365074554 0)
(1.002666688 0.4791415699 0)
(0.8344092052 0.6830552127 0)
(0.4718449426 0.7684811704 0)
(-0.3857252796 0.6931083612 0)
(-0.6477401101 0.6801459506 0)
(-0.7516984157 0.7256541589 0)
(-0.8209213619 0.7931762921 0)
(-0.8490339606 0.8588776602 0)
(-2.050695137 0.8798806712 0)
(-1.306134553 1.057699624 0)
(-0.8089932031 1.07703559 0)
(-0.5257585643 0.9906831101 0)
(-0.2668884658 0.9231074739 0)
(-0.08940085548 0.8744098251 0)
(0.0229818391 0.8015557016 0)
(0.1208552994 0.7619921038 0)
(0.09174391483 -0.8328173407 0)
(0.1747688153 0.8285373443 0)
(-0.02787453265 -0.08083331468 0)
(0.008631504484 -0.05111976119 0)
(0.03475778405 -0.1000918417 0)
(0.04532587848 -0.1319128451 0)
(0.0681852626 -0.1070932658 0)
(0.08500616091 -0.07531950512 0)
(0.09072664336 -0.1750115476 0)
(0.2672255904 -0.1364160296 0)
(0.9522324325 0.04520732528 0)
(0.7723807331 -0.06141351211 0)
(1.269303067 0.4247698515 0)
(0.9728723038 0.5898456121 0)
(0.03441238756 0.6299543137 0)
(-0.60126833 0.6438500425 0)
(-0.5941684258 0.652648931 0)
(-0.6783809256 0.710945643 0)
(-0.7251347834 0.7665236719 0)
(-0.7259349599 0.772106721 0)
(-1.825849364 0.8617767408 0)
(-1.52117717 1.233376486 0)
(-0.9979325861 1.301306178 0)
(-0.6974322799 1.20618136 0)
(-0.5772681723 1.174981491 0)
(-0.4737233206 1.156973813 0)
(-0.2897118911 1.018570231 0)
(0.0437445417 0.819567808 0)
(0.07210955255 0.6663890381 0)
(0.163929876 0.8639617733 0)
(-0.04796676323 -0.0766995134 0)
(0.03575988349 -0.05835585174 0)
(0.07663848948 -0.1100314821 0)
(0.07646769756 -0.1525978265 0)
(0.04766945849 -0.1904048883 0)
(0.03172194958 -0.2376208705 0)
(0.05663414983 -0.2916033973 0)
(0.3777518909 -0.272018427 0)
(1.029101335 0.07289942892 0)
(0.7718787285 -0.01203559571 0)
(1.38589638 0.3652625565 0)
(0.4984769613 0.5269012671 0)
(-0.5312452657 0.59326337 0)
(-0.5364698054 0.575540259 0)
(-0.5138448267 0.5960090584 0)
(-0.5753013425 0.6288708074 0)
(-0.5170976992 0.3551859538 0)
(-0.3965745659 0.00699622323 0)
(-1.023318859 0.8538845793 0)
(-0.9271573346 1.423243106 0)
(-0.7682756772 1.813672954 0)
(-0.5863090458 1.705676825 0)
(-0.506739923 1.416502095 0)
(-0.4457191816 1.295211594 0)
(-0.3371956816 1.234409476 0)
(-0.1598285615 1.111472795 0)
(-0.03162614039 0.8141377103 0)
(0.1560906594 0.9235230923 0)
(-0.03094201635 -0.07246012048 0)
(-0.03197859296 -0.0649595219 0)
(-0.012019828 -0.04986883561 0)
(0.04248046855 -0.06570653596 0)
(0.07489994805 -0.09842039304 0)
(0.04261174096 -0.0862185263 0)
(0.02230935688 -0.04898513884 0)
(-0.07851483929 -0.1482498157 0)
(1.019379132 0.04169291697 0)
(0.5603707679 -0.2725029216 0)
(1.152913061 0.1175385042 0)
(-0.4997058473 0.5938984829 0)
(-0.4350633874 0.4269978992 0)
(-0.4233394552 0.440057454 0)
(-0.4239519184 0.4972487831 0)
(-0.1992594894 -0.5220209858 0)
(0.1348259501 -1.490999142 0)
(0.1606085408 -0.8853730524 0)
(0.1705090592 0.8539273122 0)
(0.1659271979 1.607796425 0)
(0.142655653 2.35728747 0)
(0.07229426684 2.776342178 0)
(-0.1065325876 2.485972189 0)
(-0.2964102367 1.702832903 0)
(-0.2956013076 1.386763913 0)
(-0.1905674864 1.291962868 0)
(-0.05853604446 0.9460248119 0)
(0.152604288 0.9461739778 0)
(0.01413629633 -0.03260944366 0)
(-0.06337711514 -0.05405387174 0)
(-0.1981554829 -0.06933099733 0)
(-0.1830003781 -0.05087221853 0)
(-0.2883306116 0.06742569183 0)
(-0.1517111164 -0.05553961968 0)
(-0.1808204264 -0.09932102423 0)
(-0.1622125013 -0.3488236847 0)
(-1.009549782 0.08818872022 0)
(0.9420823169 -0.02912474085 0)
(0.2442760892 -0.6347302252 0)
(0.3827152542 -0.4529833844 0)
(-0.2778853099 0.1980686089 0)
(-0.2674283295 0.1195783547 0)
(-0.3040773478 0.2301895277 0)
(-0.3176386023 0.3372908981 0)
(-0.3648114327 0.6733999384 0)
(-0.3604614401 0.8356124257 0)
(-0.3487071456 0.9423498685 0)
(1.129147098 0.8569558429 0)
(1.016130267 1.446293114 0)
(0.7804183378 1.853703141 0)
(0.249468429 1.677724269 0)
(-0.2021220604 1.455151708 0)
(-0.2527835896 1.451794824 0)
(-0.2183539178 1.44873967 0)
(-0.1330270912 1.404068239 0)
(0.002448202273 0.7941964724 0)
(0.1370461767 0.9337164187 0)
(-0.01037654392 0.02567906535 0)
(-0.07736105445 -0.1850597219 0)
(-0.1202579763 0.1000012303 0)
(-0.2856147601 -0.003189430009 0)
(-0.2948071586 -0.1058826906 0)
(-0.3168448136 -0.07335307709 0)
(-0.3132670957 0.06262958261 0)
(-0.3370981941 -0.3339629488 0)
(-1.490773959 0.300805935 0)
(-0.3416047832 0.07369754538 0)
(0.2366184173 -0.8789759868 0)
(0.2369977865 -0.9687434099 0)
(0.2519585373 -1.01065648 0)
(0.279474202 -0.9992805128 0)
(0.3041828579 -0.9375084364 0)
(0.3128661689 -0.8233608356 0)
(0.3219251997 0.8362146271 0)
(0.3214019738 0.9380998999 0)
(0.3190371394 1.03220387 0)
(1.952214367 0.8644052348 0)
(1.648264444 1.2841897 0)
(0.9749953824 1.461498745 0)
(0.3945372286 1.509107857 0)
(0.2820361585 1.617949816 0)
(0.2748924323 1.683092914 0)
(0.2909259983 1.6818376 0)
(0.2972885656 1.59934562 0)
(0.3054286024 1.304897717 0)
(0.168854926 0.9565196742 0)
(-0.03544614581 0.08445043874 0)
(-0.06670633428 -0.07378463749 0)
(-0.07463262371 0.09125038138 0)
(-0.2779679376 0.02756230795 0)
(-0.3099718739 -0.09697878979 0)
(-0.3306638463 -0.07231756928 0)
(-0.3099588393 0.09698982122 0)
(-0.2324857939 -0.4022367625 0)
(-1.561755501 0.3433195484 0)
(-0.9646766362 0.3569210224 0)
(0.2858674198 -0.6547270493 0)
(0.3612482344 -0.6073106613 0)
(0.4530859019 -0.58994701 0)
(0.5128887993 -0.6168124234 0)
(0.5380444749 -0.7307251784 0)
(0.5691573891 -0.7928231011 0)
(0.5187530216 0.8030848924 0)
(0.4825658212 0.9057209509 0)
(0.4641661923 0.998699116 0)
(2.292045615 0.8971978937 0)
(1.470594409 1.170982663 0)
(0.6270868962 1.31672934 0)
(0.4144012178 1.444010052 0)
(0.3625705087 1.549695811 0)
(0.2985788688 1.571622459 0)
(0.2034928651 1.493464289 0)
(0.1421139697 1.405067492 0)
(0.1152071494 1.230724791 0)
(0.1483746083 0.9867742063 0)
(0.02816868742 0.1426340736 0)
(-0.04338449333 0.09573319009 0)
(0.0404274598 0.04382138906 0)
(0.4036916927 -0.02067925717 0)
(0.3930529746 -0.03329619375 0)
(0.3446526892 0.02017524869 0)
(-0.3069000085 0.2206126457 0)
(-0.4162292107 -0.2158534569 0)
(-1.416920825 0.3484484924 0)
(-1.315185599 0.4595204452 0)
(-0.254653236 -0.09814968906 0)
(-0.4174414153 0.1320220381 0)
(0.4483706658 -0.266049893 0)
(0.5420754645 -0.303569992 0)
(0.5836594861 -0.5004299177 0)
(0.5973606116 -0.650182996 0)
(0.7289382038 0.6700202184 0)
(0.6615887484 0.8317072225 0)
(0.6248508636 0.9433838593 0)
(1.645202353 0.9735048566 0)
(0.8286249731 1.141175375 0)
(0.5716866872 1.262821271 0)
(0.5070363177 1.378463096 0)
(0.4431640585 1.47470386 0)
(0.3529172764 1.490395957 0)
(0.2672378995 1.428032228 0)
(0.2022471704 1.343432007 0)
(0.1590200658 1.150928292 0)
(0.1834979123 0.9422699451 0)
(-0.03882535658 -0.08339901124 0)
(-0.1370265063 -0.07951504649 0)
(-0.07725084783 0.1098141828 0)
(0.1581490744 0.05288867176 0)
(0.4793968069 -0.09245048955 0)
(0.3517185073 0.03416035048 0)
(-0.2096850352 0.1893789198 0)
(-0.2369432509 -0.159972475 0)
(-1.180678344 0.3371173576 0)
(-1.169894228 0.4307152405 0)
(-0.9761860546 0.4750221577 0)
(-0.7013054398 0.376618533 0)
(-0.2586456034 0.2477864651 0)
(0.320602668 -0.007532751237 0)
(0.510584039 -0.219830581 0)
(0.5983876182 -0.4274724438 0)
(0.8653087212 0.4507612744 0)
(0.839249238 0.6976668726 0)
(0.8016943465 0.8515318161 0)
(0.9080848025 0.9723049327 0)
(0.7477171499 1.082123223 0)
(0.6876338789 1.190327884 0)
(0.6291651089 1.29773028 0)
(0.5506908219 1.38723298 0)
(0.4588844752 1.413013934 0)
(0.3736636684 1.364701871 0)
(0.3023531504 1.2840581 0)
(0.2494585098 1.044536031 0)
(0.2075832567 0.9019958532 0)
(-0.1049181073 0.04636769919 0)
(-0.2851315253 -0.06863752901 0)
(-0.2950097516 0.2359012637 0)
(0.332684775 -0.03012272615 0)
(0.4834720826 -0.05216171527 0)
(0.370675043 0.1715129645 0)
(-0.1256807159 0.1111204182 0)
(-0.1086204084 0.09348888962 0)
(-0.8931104795 0.3147490256 0)
(-0.9616769349 0.4415540497 0)
(-0.8684761771 0.5403711437 0)
(-0.6905512224 0.5556617696 0)
(-0.3815654401 0.4960978641 0)
(0.2079574193 0.2419028069 0)
(0.4249585159 0.03728806903 0)
(0.5075084073 -0.2588249466 0)
(0.8469777503 0.307740704 0)
(0.9563975655 0.5798244695 0)
(0.9728829924 0.7554666984 0)
(0.9560773226 0.8791963663 0)
(0.9156649658 0.9801946029 0)
(0.8653320991 1.07664876 0)
(0.8015695587 1.175239007 0)
(0.7120658959 1.255952215 0)
(0.5987484466 1.285945706 0)
(0.5032837594 1.273628041 0)
(0.4169225356 1.212431656 0)
(0.351336779 0.8863563975 0)
(0.2145033522 0.8477851709 0)
(0.2385081434 -0.1996684017 0)
(0.26409562 -0.10124558 0)
(0.233731047 0.2250003697 0)
(0.2627049171 0.03326890919 0)
(0.2449187594 0.0475972646 0)
(-0.03721942569 0.1315802065 0)
(-0.1022628294 0.156742469 0)
(-0.07141486888 0.1438852641 0)
(-0.5949600551 0.2767499896 0)
(-0.7461976193 0.4501389843 0)
(-0.6963918992 0.5906284628 0)
(-0.5759706656 0.6284833423 0)
(-0.3644157581 0.5763751287 0)
(0.05189250503 0.4797054741 0)
(0.3369659495 0.2309850601 0)
(0.4689957366 0.07137664638 0)
(0.804590667 0.344236227 0)
(0.9803351357 0.5799124297 0)
(0.9775310908 0.7151590262 0)
(0.912296468 0.783778693 0)
(0.8613348546 0.8498949526 0)
(0.8213544125 0.9177151364 0)
(0.7803511911 0.9922598102 0)
(0.7263448824 1.066817211 0)
(0.6600191562 1.125090604 0)
(0.5836460881 1.150111041 0)
(0.4930673315 1.125255686 0)
(0.4218510305 0.6023093206 0)
(0.1964482425 0.7471093173 0)
(0.153976395 0.02592921186 0)
(0.2500384375 -0.06184743673 0)
(0.279991446 0.09687875069 0)
(0.2056853805 0.07017000161 0)
(0.133251433 0.0485018645 0)
(0.08572274525 0.1102439804 0)
(0.0597013171 0.1666177739 0)
(0.02327026398 0.186035002 0)
(-0.3904777877 0.2940149226 0)
(-0.5350646259 0.4872667233 0)
(-0.5157222798 0.6602512571 0)
(-0.4577507367 0.7089643487 0)
(-0.3264842589 0.6555472178 0)
(-0.04322134462 0.5824502274 0)
(0.3266967791 0.4259512557 0)
(0.4656715337 0.3085374952 0)
(0.8063051417 0.4607184659 0)
(0.9336671421 0.6140639512 0)
(0.8691591436 0.688353301 0)
(0.7927958641 0.7468680102 0)
(0.739215317 0.796711013 0)
(0.7071902915 0.846770251 0)
(0.6862917336 0.9017462146 0)
(0.664847327 0.9604735011 0)
(0.6330908519 1.015119978 0)
(0.5864992836 1.05252575 0)
(0.5078914273 1.054501569 0)
(0.457682017 -0.07214076661 0)
(0.1605337109 0.6090159076 0)
(0.09984753589 0.1039667371 0)
(-0.3830134163 0.08149901329 0)
(0.007676357033 0.09890611226 0)
(0.1649207578 0.09835832173 0)
(0.1178126592 -0.03072295313 0)
(0.2328134373 -0.4913909285 0)
(0.3332172403 -0.8363425082 0)
(0.3423650624 -0.5943679957 0)
(0.4904745503 0.3949368842 0)
(0.520055847 0.8658515587 0)
(0.5025666582 1.224394753 0)
(0.4704319021 1.470461794 0)
(0.4139277956 1.582264397 0)
(0.3731536952 1.62293862 0)
(0.3551782138 1.571347377 0)
(0.3783479946 1.410603571 0)
(0.5682770614 1.036739391 0)
(0.7882732395 0.7256957277 0)
(0.7806871571 0.6967450207 0)
(0.7092506597 0.7349507162 0)
(0.6538998952 0.7768724659 0)
(0.6215410915 0.8211805234 0)
(0.6044836843 0.8704384131 0)
(0.5927194531 0.9242265754 0)
(0.5764827 0.9787457836 0)
(0.5505748691 1.025937285 0)
(0.5066805105 1.066594835 0)
(0.4483766612 -0.4393377103 0)
(0.1424979156 0.441224902 0)
(0.08573451149 -0.0206990272 0)
(-0.3815856368 0.06280036524 0)
(-0.1131950718 0.2028159472 0)
(0.1028451602 0.1045569024 0)
(0.1524916293 -0.2124020269 0)
(0.2489265757 -0.4967232593 0)
(0.3435441048 -0.6827717547 0)
(0.4501891901 -0.6266710026 0)
(0.9604613729 0.3913100665 0)
(0.758218152 0.7137455085 0)
(0.4537821763 0.7980145472 0)
(0.2176008235 0.805823522 0)
(0.1168627887 0.8446818287 0)
(0.1437533826 0.9511779066 0)
(0.2500961396 1.040242682 0)
(0.3630715713 1.03437651 0)
(0.5772700549 0.8596992951 0)
(0.7356544182 0.7145762279 0)
(0.7127209696 0.6977762004 0)
(0.6411557882 0.7284980784 0)
(0.5811058854 0.7704398223 0)
(0.5432714673 0.820394042 0)
(0.5220825831 0.8807377449 0)
(0.5077913089 0.9510531265 0)
(0.5094873487 1.024838921 0)
(0.5021944916 1.091473534 0)
(0.5039677554 1.132765482 0)
(0.3748085853 -0.2965043155 0)
(0.1464493108 0.2746967342 0)
(0.1043655682 0.1005506339 0)
(-0.5664064668 0.0865790582 0)
(-0.05035616428 0.09607913535 0)
(0.0380511498 0.07732084304 0)
(-0.3420345092 -0.2924967698 0)
(0.1622217319 -0.3380016132 0)
(0.1859013627 -0.2274315956 0)
(0.2279921318 -0.224378619 0)
(1.113041939 0.3225323718 0)
(0.8522013781 0.5709266866 0)
(0.5187474174 0.6287060384 0)
(0.1929962855 0.5883726928 0)
(-0.05368389204 0.5103041465 0)
(0.3215890797 0.463277031 0)
(0.5512809771 0.2469404932 0)
(0.6127727821 0.4784104926 0)
(0.7171690757 0.5845576968 0)
(0.7384286427 0.6462846843 0)
(0.688322759 0.6653060649 0)
(0.6202927241 0.7088750597 0)
(0.563718759 0.7724317645 0)
(0.5272903258 0.8485177498 0)
(0.5066607855 0.9366916909 0)
(0.4941947651 1.032928459 0)
(0.4894081393 1.142535882 0)
(0.4859137644 1.19461053 0)
(0.5125372951 1.1069297 0)
(0.2291381833 -0.2164272791 0)
(0.1469936358 0.1883631742 0)
(0.1138924097 0.1222267251 0)
(-0.5885557402 0.09524509492 0)
(-0.01038918775 -0.02753438406 0)
(-0.378157289 -0.3526122417 0)
(-0.4223228346 -0.4222036472 0)
(-0.3766659136 -0.2301702547 0)
(0.1381247492 0.03871113721 0)
(-0.4726112587 0.203575928 0)
(1.15917264 0.3448178481 0)
(0.9584454092 0.4948244113 0)
(0.6574585694 0.5189261578 0)
(0.4082660715 0.5112629151 0)
(0.1840069701 0.4934267402 0)
(0.5640027092 0.2633453638 0)
(0.5925849713 -0.03845559897 0)
(0.4594708383 0.2256924161 0)
(0.4342996247 0.381681895 0)
(0.4765085574 0.4894689446 0)
(0.5383067663 0.5890305664 0)
(0.5920293203 0.6836129099 0)
(0.6267703845 0.7742930724 0)
(0.6383136259 0.8654729712 0)
(0.6305850007 0.961139959 0)
(0.6060379714 1.052939324 0)
(0.5611156412 1.133913058 0)
(0.5335746124 1.196614964 0)
(0.5506736271 0.83661285 0)
(0.09150501074 -0.2173725156 0)
(0.123728496 0.187876563 0)
(0.2358268609 -0.1867083218 0)
(0.618928036 0.08622514755 0)
(0.152165774 0.181549033 0)
(0.3237496536 0.4663293076 0)
(0.3933730506 0.7979990331 0)
(0.5987485511 0.6370359166 0)
(0.4616580993 0.336148957 0)
(-1.118581669 0.3427308225 0)
(1.157885729 0.368162949 0)
(1.050009771 0.4438934339 0)
(0.8035741294 0.4566936891 0)
(0.642596649 0.523589897 0)
(0.4452699218 0.6668898635 0)
(0.6279780692 0.287400194 0)
(0.5694402249 0.05268504188 0)
(0.417743941 0.2337519217 0)
(0.3373947837 0.3969837283 0)
(0.3455171368 0.5022380391 0)
(0.0966938872 0.6471057388 0)
(-0.09556292619 0.7384817763 0)
(-0.1124160455 0.771053558 0)
(-0.07378753204 0.6920590763 0)
(-0.108099972 0.5377827659 0)
(-0.1179845675 0.4879202268 0)
(-0.1055362905 0.5423477494 0)
(0.02001018019 0.8739149612 0)
(0.2264941345 0.6420355998 0)
(0.1122173639 -0.1116658504 0)
(0.08781143454 0.1613963896 0)
(0.4291760087 -0.4081840157 0)
(0.880014115 0.09202405701 0)
(0.4871549925 0.310086681 0)
(0.6110941571 0.5190526253 0)
(0.5613708278 0.3486908454 0)
(0.5871214352 0.337424707 0)
(0.4647827186 -0.00203285592 0)
(-1.056685925 0.3837298905 0)
(1.105902339 0.375328284 0)
(1.0988322 0.403288163 0)
(0.9354103027 0.4440177224 0)
(0.6864436498 0.6132003979 0)
(0.4332769834 0.834840023 0)
(0.5839671602 0.439803394 0)
(0.5525428715 0.2817157071 0)
(0.4749426936 0.3701444329 0)
(0.4098475034 0.4803978836 0)
(0.3947281498 0.5679568287 0)
(0.2495855062 0.6510479666 0)
(0.04549084872 0.7513335986 0)
(-0.1248931201 0.6446461548 0)
(-0.1286507215 0.2911329963 0)
(-0.107087088 0.1612990662 0)
(-0.1225326309 0.1425141822 0)
(-0.1319146303 0.1681630549 0)
(-0.1001610318 0.1605130598 0)
(-0.0321577663 0.1856654657 0)
(0.0688692406 0.02862230534 0)
(0.0828156574 0.08346458396 0)
(0.4281977349 -0.2510903588 0)
(1.107646065 0.1015519377 0)
(0.8521878593 0.3463513544 0)
(0.823551141 0.5932639674 0)
(0.6878935049 0.354963439 0)
(0.5994367654 0.008895824966 0)
(0.1527679317 -0.3423646402 0)
(-0.8243506711 0.3840650338 0)
(0.9318549996 0.3737353173 0)
(0.9654307564 0.3956535123 0)
(0.8357280696 0.4456052049 0)
(0.6138099849 0.5822418239 0)
(0.4890352697 0.7216399511 0)
(0.5381837378 0.5816476425 0)
(0.5451277888 0.5012596413 0)
(0.5287387364 0.5351019247 0)
(0.5263506792 0.4435805431 0)
(0.5140204032 0.4008874757 0)
(0.4285184427 0.4852619999 0)
(-0.1547233107 0.6115774397 0)
(0.004374568835 0.5065934692 0)
(-0.01958772888 0.275491277 0)
(-0.08000072361 0.1527098429 0)
(-0.1143448319 0.00985967541 0)
(-0.1255452168 0.01335485177 0)
(-0.0908537878 -0.05109400295 0)
(-0.03725151882 0.04097631412 0)
(0.1105221229 -0.04072122541 0)
(0.1282187047 -0.002357096937 0)
(0.3293509616 0.02048493522 0)
(1.155123632 0.116194606 0)
(1.091024915 0.3348449088 0)
(0.8790166544 0.476308557 0)
(0.7093656581 -0.308398703 0)
(0.7632763791 -0.940172227 0)
(0.8119390176 -0.5778289642 0)
(0.8220634562 0.3670166058 0)
(0.85108098 0.7192173136 0)
(0.8462670379 1.013011464 0)
(0.8164019718 1.220386269 0)
(0.7276293198 1.093350699 0)
(0.5958020918 0.8189481799 0)
(0.5741823921 0.6730710853 0)
(0.5889959525 0.6174698689 0)
(0.5974090001 0.6053123401 0)
(0.6302956238 0.3126098401 0)
(0.6300998829 0.1182768816 0)
(0.2160437262 -0.1148605785 0)
(0.1021071413 0.1551754094 0)
(-0.04846980413 0.0510919171 0)
(-0.04973640173 -0.002494616209 0)
(-0.1394096192 -0.06644291282 0)
(-0.1642953984 -0.07788506825 0)
(-0.1617062868 -0.04784102802 0)
(-0.1383149332 -0.099365793 0)
(-0.07874028868 -0.002001509466 0)
(0.06106015034 -0.08747681088 0)
(0.1374128746 -0.01607352051 0)
(0.3376983451 0.1904487863 0)
(1.19999515 0.171767923 0)
(1.157739463 0.327588861 0)
(0.701605657 0.3476992073 0)
(0.6954172414 -0.4813799679 0)
(0.90684182 -0.9431439623 0)
(1.054262729 -0.5811241225 0)
(1.14051978 0.364696885 0)
(1.10059711 0.7714178737 0)
(1.043212871 1.114718696 0)
(0.9680625311 1.260600657 0)
(0.8309742328 1.04107289 0)
(0.689623993 0.7697017621 0)
(0.6550570769 0.6856372663 0)
(0.6597168205 0.6446517142 0)
(0.658238449 0.6104362397 0)
(0.6790416251 0.2984136393 0)
(0.3248590205 -0.1416448667 0)
(0.2555060253 0.0466414077 0)
(0.04829624122 0.05187077769 0)
(-0.05420684393 -0.07003881944 0)
(-0.1184021423 -0.1075781203 0)
(-0.1429156294 -0.1123890151 0)
(-0.1485796539 -0.1131916883 0)
(-0.1438524454 -0.09567364715 0)
(-0.1264760351 -0.1073888707 0)
(-0.03891788993 -0.03692220279 0)
(0.07986354013 -0.1018691459 0)
(0.143973955 -0.02829963702 0)
(0.5853476119 0.6807764515 0)
(1.208207271 0.2797122795 0)
(1.092519975 0.3187787416 0)
(-0.08388976625 0.2682552278 0)
(0.4031481337 0.0391405304 0)
(0.3772746855 -0.06630131038 0)
(0.5857494409 -0.1743525427 0)
(1.489974308 0.3269928603 0)
(1.411604464 0.7118217231 0)
(1.273510055 1.022339755 0)
(1.116349419 1.093998927 0)
(0.9214555378 0.8584105291 0)
(0.7837503884 0.7015104755 0)
(0.7389758945 0.676777953 0)
(0.7142628088 0.6368841302 0)
(0.6768603129 0.5786882383 0)
(0.3731974589 0.2152464138 0)
(0.1147023424 -0.08692732697 0)
(0.173424085 0.01099689302 0)
(-0.02786288426 -0.09075380425 0)
(-0.09316030385 -0.1420867682 0)
(-0.1105045314 -0.1492305528 0)
(-0.1284575548 -0.1488339172 0)
(-0.1329702749 -0.1437979148 0)
(-0.1289605326 -0.1313245667 0)
(-0.1076054173 -0.1237169757 0)
(-0.02769219747 -0.07933916356 0)
(0.0796667931 -0.1027888965 0)
(0.1436577993 -0.03342234198 0)
(0.8620738086 0.915951343 0)
(1.183512976 0.3952512996 0)
(0.9708545116 0.3463047011 0)
(-1.105401603 0.2709274598 0)
(0.02202660282 0.2361846955 0)
(0.2070108868 0.2035351632 0)
(0.2583280874 0.1580327947 0)
(1.381316484 0.2818502715 0)
(1.412402345 0.5683292833 0)
(1.298800157 0.8000868533 0)
(1.160639524 0.8181842261 0)
(0.9944627579 0.6777267438 0)
(0.8837664155 0.6617370256 0)
(0.8135781715 0.6662899437 0)
(0.7366039328 0.6224154934 0)
(0.4848458463 0.3745205802 0)
(0.1452545774 0.01634935584 0)
(0.09456882187 -0.1009812812 0)
(0.0775725587 -0.09609490452 0)
(-0.04633094523 -0.1337110931 0)
(-0.07933216001 -0.1656239317 0)
(-0.09639224411 -0.1723869075 0)
(-0.1085995164 -0.1749402336 0)
(-0.1126492149 -0.172965964 0)
(-0.1071807818 -0.1668173187 0)
(-0.08048017871 -0.1559811815 0)
(-0.01264241731 -0.1253497128 0)
(0.07455360345 -0.1066928176 0)
(0.1426352198 -0.03125179544 0)
(0.9083082711 0.7820096417 0)
(0.9005518865 -0.5955904242 0)
(0.7711360688 -0.856937246 0)
(0.7790423729 0.2453186796 0)
(0.5054841912 1.184646777 0)
(0.3282437568 0.9850871942 0)
(0.2300827318 0.5269043661 0)
(0.9273810135 0.27611343 0)
(1.088925667 0.4152936239 0)
(1.134784991 0.5505567015 0)
(1.147237049 0.5684348349 0)
(1.069787493 0.5679156626 0)
(0.9800525708 0.6372558593 0)
(0.7490095397 0.6300530146 0)
(0.3702276086 0.3602321121 0)
(0.1347266476 0.09375618558 0)
(0.1053370337 -0.08521907998 0)
(0.01853709416 -0.1250796036 0)
(-0.01844159484 -0.1627122864 0)
(-0.06203508812 -0.1791189863 0)
(-0.07431074697 -0.1876437061 0)
(-0.08241077416 -0.1926992806 0)
(-0.08908045552 -0.1969951666 0)
(-0.09365822267 -0.1989098264 0)
(-0.09229052096 -0.1955399365 0)
(-0.08013735784 -0.1823812664 0)
(-0.05060056124 -0.1514227512 0)
(-0.000598158237 -0.1144614361 0)
(0.09978305299 -0.03557257921 0)
(0.7458880351 0.5582027281 0)
(0.8440293277 -0.1710503444 0)
(0.6900108513 -0.5617277821 0)
(1.432421433 0.2532763093 0)
(0.6951295997 0.7297858095 0)
(0.2944642782 0.496418312 0)
(0.1911297214 0.2760497809 0)
(0.5563936775 0.2365525918 0)
(0.8052552585 0.30961924 0)
(1.007841344 0.3916566992 0)
(1.125375734 0.443064867 0)
(1.118405303 0.5097094084 0)
(1.014688652 0.4579679513 0)
(0.24967954 -0.01155838956 0)
(0.1548977696 -0.0620407907 0)
(0.1387433766 -0.08950595255 0)
(0.1174818552 -0.1337754952 0)
(0.06824337239 -0.1444164296 0)
(0.03632908117 -0.144923706 0)
(-0.003887712642 -0.1532019145 0)
(-0.03256412192 -0.1708054374 0)
(-0.04603524937 -0.1889439626 0)
(-0.05534393111 -0.2061130692 0)
(-0.06154495845 -0.2164337411 0)
(-0.06032700387 -0.2184662778 0)
(-0.05206730199 -0.2097264669 0)
(-0.03498304081 -0.1860640913 0)
(-0.005405417101 -0.1462007287 0)
(0.06598643384 -0.07245494335 0)
(0.6054206384 0.4096895491 0)
(0.7059008371 0.2490882639 0)
(0.5243821928 0.0007059174227 0)
(1.739729073 0.2596767964 0)
(0.7307105988 0.4502273465 0)
(0.1922257329 0.2720809173 0)
(0.1867057718 0.2081911563 0)
(0.3407003467 0.2189257772 0)
(0.6928676905 0.2698235162 0)
(0.9371975652 0.3385933342 0)
(1.067843967 0.3806660458 0)
(1.054719983 0.3985534019 0)
(0.2642933096 -0.07733320561 0)
(0.03055917615 -0.1313651326 0)
(0.01584422138 -0.1168598302 0)
(0.03507236603 -0.1401714447 0)
(0.008720917585 -0.1418030397 0)
(-0.03848056214 -0.1443412522 0)
(-0.06599361665 -0.1601969277 0)
(-0.0941047286 -0.1770725645 0)
(-0.1003360411 -0.1861722448 0)
(-0.0897559129 -0.2001793024 0)
(-0.07166643447 -0.2102129889 0)
(-0.05985220911 -0.2110526468 0)
(-0.04986734571 -0.2116580394 0)
(-0.04273664611 -0.2057134961 0)
(-0.03867141887 -0.1858980348 0)
(-0.03559822289 -0.1499600201 0)
(-0.04391953677 -0.09170873781 0)
(0.4865127024 0.329982585 0)
(0.5264869517 0.334041869 0)
(0.4199650876 0.2893664798 0)
(1.620275317 0.2543867508 0)
(0.439160397 0.3170391408 0)
(0.01148675318 0.321918657 0)
(0.1495119938 0.2414714693 0)
(0.3053973564 0.2246432786 0)
(0.6190219856 0.2609624922 0)
(0.8448665698 0.3237655811 0)
(0.9088446995 0.1963266173 0)
(0.3932071004 -0.1860261924 0)
(0.1918739623 -0.2397762527 0)
(0.09814793802 -0.198358325 0)
(0.08740238548 -0.1333160429 0)
(0.1019101755 -0.1253541782 0)
(0.1010056139 -0.09925555427 0)
(0.09226559815 -0.08025337839 0)
(0.09080774202 -0.07011628955 0)
(0.09088781776 -0.07290988091 0)
(0.07820611453 -0.08403894236 0)
(0.06161460917 -0.1000981993 0)
(0.0334741488 -0.1111660819 0)
(5.237413788e-05 -0.1128123816 0)
(-0.002584085945 -0.117095156 0)
(-0.008145861575 -0.1176244427 0)
(-0.02515113801 -0.1031450243 0)
(-0.04692154962 -0.09630566855 0)
(-0.1085817038 -0.02882071438 0)
(0.3976749749 0.2947379521 0)
(0.428225334 0.3261110199 0)
(0.3680762227 0.3455269646 0)
(1.296613892 0.2352394028 0)
(-0.2377751739 0.1815346812 0)
(-0.1486106588 0.260180291 0)
(0.1298119153 0.2566787815 0)
(0.2562708479 0.2579353223 0)
(0.5116124303 0.2612110674 0)
(0.7003118534 0.3183370398 0)
(0.6030652283 0.05445584107 0)
(0.127016914 -0.1855757089 0)
(-0.222108436 -0.1671222355 0)
(-0.2324913072 -0.0702800756 0)
(-0.1075951437 -0.1467254298 0)
(0.02359407959 -0.1173371301 0)
(0.02868367147 -0.08431238257 0)
(0.02529504209 -0.0007484545281 0)
(0.02998164021 0.04588067807 0)
(0.04061298963 0.07585874906 0)
(0.05231197192 0.07431661086 0)
(0.02616120217 0.09282668778 0)
(-0.05311063632 0.1957968386 0)
(-0.1126723219 0.146326536 0)
(-0.1402331396 0.1064628556 0)
(-0.141590399 0.02627652952 0)
(-0.1185460619 -0.01323751724 0)
(-0.1083162159 -0.04336479654 0)
(-0.1289243262 0.01741450328 0)
(1.207946135 0.2174644739 0)
(1.309141458 0.2507472479 0)
(1.401699005 0.2753422212 0)
(1.151032589 0.2531866311 0)
(1.125597785 0.2829739203 0)
(1.061927018 0.3109565021 0)
(0.8635542863 0.3114275773 0)
(0.7499026877 0.3129002807 0)
(0.711434073 0.3224625702 0)
(0.7120634199 0.314495851 0)
(0.7032700537 0.1673081281 0)
(0.512846951 -0.04946109204 0)
(0.2784173784 -0.002614893636 0)
(0.1934963046 0.09401917159 0)
(0.1246224628 0.07510994571 0)
(0.08427815458 0.09206578429 0)
(0.04490220384 0.08560932643 0)
(0.0247514804 0.1213494599 0)
(0.005056589031 0.1559595779 0)
(-0.0183431144 0.184359613 0)
(-0.03498305869 0.2110431789 0)
(-0.0344610982 0.2423771403 0)
(-0.0101653672 0.2657633139 0)
(0.02894142224 0.2717464249 0)
(0.05842933064 0.262386229 0)
(0.0647851103 0.2411292213 0)
(0.04301435902 0.2160315718 0)
(-0.003743900387 0.1608879972 0)
(-0.07069021795 0.09324729421 0)
(-0.8779353837 0.0002097548331 -0.1535031277)
(-1.506749934 -0.00381941983 -2.878021097)
(-2.059566014 0.2200518346 -3.715060375)
(-1.537063271 0.1559429653 -2.714860967)
(-1.875361862 0.7918843933 -3.104335116)
(-1.703803978 0.6662934543 -2.618983188)
(-1.171926649 0.654138898 -2.581641062)
(-0.8487961358 0.659106873 -2.593032004)
(-1.827117455 -1.234270237 -2.306643989)
(-0.9245722644 -0.8170514679 -1.561698988)
(-0.7566314966 -0.8303337671 -1.576930108)
(-18.02894477 -8.698610848 -16.5499475)
(-2.102722287 -2.797976576 -3.01888269)
(-0.9484135356 -1.143146684 -1.247391934)
(-0.7553270716 -1.142387831 -1.24478985)
(-18.84654716 -10.93481185 -11.95917289)
(-1.404361666 -4.210022474 -2.677575703)
(-1.020260103 -1.317928284 -0.8388348909)
(-0.7497944384 -1.302574517 -0.8265021875)
(-19.77106496 -10.77905897 -6.837644839)
(-1.021318759 5.415604441 -2.657046838)
(-10.12788535 2.537534208 -1.235776623)
(-22.7264401 3.241426074 -1.598926505)
(-23.6302506 3.092400299 -1.523123446)
(8.728848733e-06 -0.2111922441 -1.374768947)
(0.0001610277629 -1.044747152 -1.553140137)
(2.717316387e-05 -1.072688416 -1.460975127)
(0 0.2612864147 -0.8151046199)
(-5.337827801e-07 -1.338128323 -1.371571948)
(3.666169195e-07 -1.369226577 -1.959182886)
(0 0.3100692075 -0.4921363172)
(0 -1.602178899 -4.057504463)
(0 -2.288387874 -4.606054271)
(0 -1.510286411 -6.370702094)
(0 -2.06637739 -5.497676529)
(0 -1.669201813 -5.812033332)
(0 -0.6495477423 -6.763150764)
(0 -1.230008981 -6.032093357)
(0 -0.7236265566 -6.246255802)
(0 0.1038997145 -8.275022012)
(0 -0.003231725871 -6.470369874)
(0 -0.2876703928 -9.550747747)
(0 1.050847882 -4.223436845)
(0 1.183887064 -6.004228701)
(0 1.654934148 -5.662714162)
(0 0.2360998112 -1.31031601)
(0 1.991619665 -5.689824461)
(0 1.893904145 -4.163992211)
(-1.275481e-08 1.067351962 -1.108767609)
(2.370185787e-07 1.466127283 -1.862554061)
(-1.42825306e-06 1.538091988 -1.506383884)
(4.542560755e-06 0.123232353 -0.6640504643)
(9.99623574e-05 1.600578169 -3.139200113)
(0.0001808726901 0.8599533674 -2.5064114)
(-6.088180135e-05 -1.080684236 -1.385864666)
(-0.0001912047174 -1.101380071 -1.381392607)
(-0.0006122312923 -1.083084156 -1.360897216)
(0.0005591100947 1.390927177 -3.311291357)
(-0.00162986493 1.599488094 -2.904162545)
(-0.001740679065 1.571695306 -3.053755387)
(0.001672938045 -1.094086234 -1.335577951)
(0.001816142357 -1.224268274 -1.173485403)
(-1.680739284 0.6826815471 -3.114936519)
(0.003021524977 2.032146391 -2.181559032)
(0.0005464043246 -1.280705103 -1.0984436)
(-1.423051216e-05 -1.619946712 -0.894967639)
(1.338884111e-05 -1.648232016 -1.161657164)
(-5.585848434e-07 -2.233504641 -0.8750147804)
(-0.000379799969 1.917687379 -1.726486187)
(-5.232024581e-07 1.744510708 -1.326770628)
(1.54125229e-05 1.792903818 -1.657283076)
(0 -3.128688646 -0.7427276356)
(0 -3.004806357 -0.3942739208)
(0 -4.072219556 -0.07646991704)
(0 -3.947574587 -0.05814415773)
(0 1.622462321 -1.075444881)