/*--------------------------------*- C++ -*----------------------------------*\
  =========                 |
  \\      /  F ield         | OpenFOAM: The Open Source CFD Toolbox
   \\    /   O peration     | Website:  https://openfoam.org
    \\  /    A nd           | Version:  8
     \\/     M anipulation  |
\*---------------------------------------------------------------------------*/
FoamFile
{
    version     2.0;
    format      ascii;
    class       volScalarField;
    location    "0.8";
    object      epsilon;
}
// * * * * * * * * * * * * * * * * * * * * * * * * * * * * * * * * * * * * * //

dimensions      [0 2 -3 0 0 0 0];

internalField   nonuniform List<scalar> 
67410
(
0.002686326533
0.003753633484
0.02614213341
0.03847706932
0.04740586236
0.05392260055
0.05994455147
0.06633409676
0.07316102387
0.08035169056
0.08827987379
0.09774366588
0.1090649092
0.120804714
0.1291217296
0.1281896705
0.1131264805
0.09164644525
0.09061940201
0.1187584432
0.1609056753
0.2077848491
0.2354539316
0.2035521315
0.1183174382
0.10961725
0.012541882
0.02519340864
0.03774823359
0.04856722658
0.05596286067
0.06185437765
0.06820345422
0.07599935356
0.08538467524
0.09639412069
0.1096947199
0.1262080992
0.145544061
0.1647965533
0.1787621113
0.1806632264
0.1650051336
0.1406705757
0.1470947586
0.2130587457
0.3087244593
0.4069826394
0.469526283
0.4335749577
0.2445889183
0.1951630526
0.03236902723
0.03889693987
0.05003563841
0.05862005606
0.06502915464
0.07121919723
0.07907491309
0.0893965005
0.10184639
0.1159808117
0.1323562318
0.1519623118
0.174262238
0.1961532297
0.2127100756
0.2174567342
0.205620397
0.1914289674
0.2295760614
0.3511398335
0.4983935462
0.6326962234
0.7257214823
0.7239090603
0.488430106
0.346589055
0.04036536297
0.04762063481
0.05791427551
0.06599621655
0.07317308627
0.08152264924
0.09267528801
0.1066153127
0.1218090185
0.1369007062
0.1522808268
0.1695601104
0.1893508506
0.2097351876
0.2269379778
0.2341401002
0.2281450743
0.234836606
0.3197970287
0.4915382115
0.669350492
0.8307003825
0.9757968982
1.02009039
0.7839898918
0.5381760648
0.04548047319
0.05284175049
0.06355228142
0.07306632714
0.08325317651
0.09606046171
0.1121835711
0.1301047015
0.1470701633
0.1611954883
0.1727024924
0.1836106061
0.1962465734
0.2113159041
0.226226993
0.2342689546
0.2355541511
0.2669878364
0.3931770101
0.5975684414
0.8031204912
1.029701827
1.250925909
1.335534745
1.061632269
0.7031374842
0.04894026328
0.05661916467
0.06901415136
0.08199908465
0.09753048831
0.1165353828
0.1378669997
0.158646236
0.1761660453
0.1891410736
0.1972979703
0.2012532534
0.2032126543
0.2066314143
0.2129546949
0.2189889337
0.2281796477
0.2763146088
0.4157220042
0.6328661326
0.8767809916
1.170063004
1.456075825
1.562118871
1.266814002
0.7908305211
0.05222753901
0.06067109356
0.07632750399
0.09494450366
0.1174874913
0.1426306625
0.1672863958
0.1886377542
0.2057845517
0.2193154501
0.2283306779
0.2303303065
0.2237194132
0.2118616471
0.202920161
0.2044849024
0.2207087749
0.2621156148
0.3661452844
0.5648727063
0.8268455348
1.150604775
1.461369292
1.563419735
1.283989589
0.8162370498
0.0566509339
0.06667018348
0.08745259568
0.1133332358
0.1427591196
0.1717804985
0.1967403132
0.2167099679
0.2342962197
0.251039305
0.2653964948
0.2726786438
0.2672148068
0.2486411265
0.2313914749
0.23820453
0.2672798044
0.2765209178
0.2806813713
0.4024076405
0.6147516965
0.9038065736
1.183936795
1.268086965
1.084405638
0.8577789303
0.06343609579
0.07630440804
0.1038288207
0.1370501418
0.1711532519
0.2010425258
0.2246003902
0.2445397081
0.2649070765
0.2873597078
0.3096618385
0.3255854084
0.3280119035
0.3181862375
0.3217889789
0.3776452573
0.455133601
0.4160257043
0.2539104835
0.2735696519
0.3476095291
0.4880457673
0.6677476208
0.8079840168
0.8751995406
0.9475742559
0.07328477842
0.09050627984
0.1252197426
0.1639324788
0.1997458449
0.2286872554
0.2516744157
0.273971671
0.2998969551
0.3308215444
0.3633296735
0.3891449623
0.4016205873
0.4158612488
0.4914089508
0.6718989109
0.8444225788
0.7467833159
0.3322429256
0.2796086186
0.2827493656
0.3309800517
0.4332487944
0.5978547101
0.8341618483
1.092153067
0.08561625631
0.1078986311
0.1484767303
0.1900584852
0.2258064669
0.2540050306
0.2784987546
0.3056714016
0.3399450512
0.3821874236
0.4272762371
0.4649288998
0.493914704
0.5616077891
0.777352585
1.141657422
1.423120865
1.297199456
0.5509264826
0.3508998822
0.3047287006
0.3255883298
0.4098311524
0.6352403305
1.038556036
1.519215736
0.09809454368
0.1238607226
0.1675014029
0.2104670441
0.2469297984
0.2766281005
0.3049490721
0.3390753944
0.3837884975
0.4394133613
0.4990391556
0.5525385127
0.6152326294
0.7860144411
1.196809062
1.75668586
2.18352693
2.119374189
1.052789881
0.5087061558
0.3564391527
0.3634084379
0.4387817559
0.8743113023
1.766136274
2.695147506
0.1076970224
0.1326259593
0.175269073
0.219363682
0.259633833
0.2949398502
0.3296565321
0.371895054
0.427556692
0.497000768
0.5725606751
0.6492134246
0.771360951
1.087210699
1.703903953
2.465663604
3.070542253
3.117521927
1.869844879
0.8321726794
0.4465758056
0.4841300464
0.6335144079
1.611105089
3.363654871
5.01576765
0.1136163907
0.1326236988
0.1683221856
0.2110117878
0.2573844503
0.3032380397
0.3480604392
0.3990335768
0.4643609361
0.5457362922
0.6370436286
0.7419637072
0.9316099651
1.374655776
2.142120648
3.047364647
3.755783436
3.863281869
2.647784638
1.220505179
0.6065271786
0.7588232405
1.207719856
3.068051184
5.905269672
8.422088123
0.118862937
0.1307455032
0.1540077218
0.1867073071
0.2330268839
0.2892805665
0.3484018581
0.4102189529
0.4842313223
0.5724593935
0.671403695
0.7842326457
0.9758706905
1.40921748
2.177104588
3.095688211
3.812261065
3.927284549
2.796946141
1.132901489
0.916276303
1.272709976
2.107298783
4.638959634
8.361146332
10.9971565
0.1260572762
0.1360531296
0.1497877608
0.1654918782
0.1958564337
0.2496981184
0.3365362673
0.4075639386
0.4621897429
0.5441065346
0.6262393154
0.6923141644
0.7413015028
0.8419250601
1.171873073
1.848855117
2.531889981
2.520409886
1.544252756
1.206186994
1.693133144
2.000725403
0.96060238
1.779673991
5.266767439
8.591966342
0.1333730608
0.1471447806
0.1611103025
0.1664380765
0.1776674174
0.2548482748
0.6285395212
0.6973241957
0.4032491154
0.4676538446
0.533412912
0.57705835
0.5923596779
0.6029732252
0.6879254176
0.9394848785
1.275090739
1.329439791
1.181913124
1.744375898
2.458854232
2.732031368
1.646250863
1.029285676
2.56934538
4.953810303
0.1379293508
0.1582673497
0.1785907652
0.1858006973
0.2390120948
0.7736645189
3.360115739
4.001304103
0.5497080169
0.3711618558
0.4251322482
0.471279475
0.5063023533
0.5337950852
0.5714318601
0.6425917034
0.7479258842
0.7994529127
0.7974739851
1.14911005
1.747046712
2.065375564
1.285371299
0.6554905249
1.053952027
2.281445545
0.1359697765
0.1641443812
0.1933746708
0.2040995809
0.1903599727
0.1731895349
0.3248270778
0.3487223771
0.2215505426
0.2917531277
0.3451879365
0.3935716209
0.4417340399
0.4902752918
0.5339356614
0.5732271742
0.6080722967
0.6247397162
0.6167090766
0.6931581652
0.9843943409
1.261935242
0.7938562781
0.3955162321
0.3702610192
0.8344883287
0.1210349154
0.1568669758
0.1912245939
0.208780394
0.2013063141
0.1696138304
0.1396566245
0.1229980192
0.1271529156
0.1850827378
0.2608344647
0.3200268566
0.3742806744
0.4290310714
0.4789543891
0.5178258493
0.5424691798
0.5470103935
0.5276731092
0.4921169711
0.5473562508
0.6737659729
0.4533041201
0.2394887555
0.1446333374
0.2623685069
0.09489463964
0.1221135602
0.1494256338
0.1672668185
0.1745926599
0.1647328027
0.1420885771
0.1185693171
0.1071684951
0.1084620985
0.1425466547
0.2211713605
0.2920261721
0.3492254876
0.3982434612
0.4367776136
0.4592822565
0.4606973599
0.4370783311
0.3805203454
0.3477072428
0.35496055
0.2618222216
0.156949309
0.08270808517
0.1074647206
0.08342406572
0.09471218509
0.1095529855
0.1217205214
0.1330849874
0.1425853754
0.1417986033
0.130248557
0.1186132702
0.1095050355
0.09944446978
0.1055226094
0.172662784
0.2539590547
0.3086532354
0.345937373
0.3672817299
0.3670172435
0.3426338608
0.2915290771
0.2357982002
0.1926153403
0.155177766
0.1045902164
0.06110766256
0.06985927324
0.08662690419
0.09672070334
0.1102551969
0.1205742268
0.1293058872
0.1360816918
0.1390207449
0.1369945587
0.1326267717
0.1256702017
0.1133427501
0.1022922072
0.0866410163
0.1277918041
0.2058971977
0.2544205406
0.2815832165
0.2804274343
0.2511689754
0.2007806841
0.1546145414
0.1276398542
0.1020880385
0.07549488285
0.04961058289
0.05661209879
0.09047732584
0.1016212114
0.1154521411
0.1253760917
0.1336795204
0.1407141927
0.1452267135
0.1482667258
0.1490395478
0.14408905
0.1361517193
0.1943053569
0.09814835209
0.07713666923
0.08394601343
0.1393909339
0.1981590814
0.204754104
0.1773390687
0.142665658
0.1457356577
0.2403467704
0.09531105175
0.06076046886
0.04894187736
0.06379051647
0.08911579692
0.1030239151
0.1186694902
0.1301816112
0.1421020121
0.1550544827
0.1590535353
0.1653008842
0.1682912272
0.1690957535
0.2614472621
1.721372154
0.1856350025
0.08479693789
0.07922174767
0.08765969496
0.1110644617
0.1358978874
0.127774258
0.1065018848
0.1469166982
0.3899192169
0.10287547
0.0564626722
0.04252474755
0.08096747344
0.09988890148
0.1174176346
0.1317423637
0.1533369255
0.196790037
0.1747954272
0.1757458354
0.1773348272
0.1647373719
0.1455111838
0.1697628211
0.1310907327
0.08391293326
0.09886257483
0.1181077623
0.08201618791
0.07266948374
0.08274249015
0.07068341626
0.07581629594
0.12278393
0.06011941159
0.04351026827
0.03527868219
0.07500433789
0.09352874216
0.1155855734
0.1330069815
0.1480983435
0.1633063007
0.1706883557
0.1741866547
0.1670462234
0.1502846174
0.1271036843
0.1015524617
0.08161819536
0.09143980287
0.1329789131
0.1448266712
0.09492900148
0.06970510873
0.06329712184
0.07744455807
0.05974699816
0.0662935427
0.05291702679
0.04096755431
0.03021856713
0.07773051912
0.08547344857
0.1028711786
0.1215574418
0.1373947489
0.1484850329
0.155501564
0.1570552126
0.1500463941
0.1351664105
0.1152525096
0.09436641395
0.07859292997
0.07017953543
0.08170476774
0.09915562373
0.0902058269
0.1039583236
0.08770283072
0.1406414579
0.1009249913
0.1262710589
0.1153948588
0.0829470696
0.05205726442
0.09554071901
0.09243093766
0.09602918452
0.1033243904
0.1169481866
0.1303719936
0.137190221
0.1432684477
0.1629601507
0.2129755677
0.2348652093
0.1819753561
0.1069102102
0.07064028014
0.06068938546
0.06897750924
0.08403449917
0.0990867934
0.1430739019
0.2597319291
0.2245538023
0.2851258195
0.2249679903
0.16840417
0.1135949594
0.06432803361
0.125133802
0.119794592
0.116348043
0.1083044669
0.1099800532
0.1270432403
0.166364663
0.2526006865
0.4031096079
0.5796178762
0.6179814401
0.4830278805
0.3047233076
0.1511211883
0.06599523154
0.04918936683
0.05856971095
0.1033311238
0.2084083665
0.3533472695
0.3474115901
0.513804891
0.3411565398
0.2143551624
0.135997499
0.07418624121
0.002540620896
0.003477961233
0.005659783766
0.03620649125
0.0468373763
0.05439273823
0.06079421344
0.06711824616
0.07349769988
0.07962587868
0.08536163556
0.09104692569
0.09719661373
0.1034473841
0.1072861399
0.1044209518
0.09333666314
0.08130198586
0.08103378363
0.09438996321
0.1121432143
0.1305554727
0.1396007384
0.1281098859
0.1060750635
0.1059599244
0.005755703797
0.0206025617
0.03158110949
0.04211993103
0.0487426314
0.05272706389
0.05622577372
0.06060387287
0.06622344325
0.07297278159
0.08092891524
0.09053845574
0.1021357845
0.1149079837
0.1253841352
0.1276472329
0.118540382
0.1045981241
0.1014028944
0.1201792998
0.1476458417
0.1770456853
0.1948889751
0.1814130768
0.1456051413
0.1358901851
0.008075311199
0.03273005164
0.04330029073
0.05110424006
0.05519847221
0.0567452409
0.058303996
0.06163228455
0.06718898219
0.07467696844
0.08396903862
0.09544655634
0.1096760139
0.1265364382
0.1425166159
0.150586818
0.146373058
0.1350726473
0.1362685524
0.1665507298
0.2077588524
0.263766258
0.3192552504
0.3111557555
0.2560282291
0.2134633672
0.04121311392
0.04077073473
0.04964156491
0.05597929406
0.05874999702
0.0593024975
0.06046464447
0.06404076333
0.07012583268
0.0779440331
0.08710408653
0.09811744739
0.1122616476
0.1311262041
0.1492835096
0.1604941377
0.160973272
0.1561642619
0.1657415146
0.2084642303
0.286382316
0.4252377203
0.5436015456
0.5475728296
0.4262114953
0.3107000326
0.04719670191
0.04398463364
0.05236917404
0.05867725893
0.06193153682
0.06334244297
0.06547154481
0.06980527059
0.07626812126
0.08415777372
0.0932210745
0.1041315461
0.1183016681
0.1365939958
0.1541656516
0.1666888322
0.1710079125
0.17118823
0.1877238892
0.2456465722
0.3867275916
0.5912775976
0.7634142473
0.7871072071
0.637763356
0.4196660319
0.05117010265
0.04531685376
0.05348225543
0.0608111805
0.06609868795
0.06958682926
0.07281375304
0.0770895966
0.08312351576
0.09096530607
0.1004815172
0.1119473772
0.1259809285
0.142293239
0.1584721923
0.1705756318
0.1756989537
0.177304788
0.1966391133
0.2698444199
0.4480417557
0.6983183383
0.9093773362
0.9554316769
0.811053741
0.5412077546
0.05506920265
0.04679533609
0.05513969632
0.06430740677
0.07253474701
0.07822855826
0.08170545221
0.08522085852
0.09131836605
0.09975074428
0.1099030421
0.1213862432
0.1347084211
0.1487226267
0.1619493835
0.1719790222
0.1753159436
0.1745597783
0.1920463189
0.2664326812
0.4403104065
0.6951919364
0.9253017047
1.002085393
0.8961406905
0.6490047139
0.06004728462
0.04978624278
0.05903094326
0.07049802621
0.08148364587
0.08856637969
0.09229714747
0.09714546382
0.1035964249
0.1132115803
0.1249619156
0.1364665583
0.1468960154
0.1586546451
0.169234755
0.1777875478
0.1802020254
0.1753919256
0.1825724834
0.2436268328
0.3750465418
0.5898075049
0.8115074084
0.9198451051
0.8685426864
0.6953150517
0.06689656567
0.05531319959
0.06626018782
0.07987722145
0.09234634085
0.09987458972
0.1053494889
0.1100040274
0.1181856404
0.1314259288
0.1476192698
0.1621658093
0.1724664268
0.1831822166
0.1983395789
0.2141983926
0.2206966229
0.2041065737
0.1856717269
0.2161166423
0.295279639
0.4354916262
0.6131234296
0.7412287465
0.7534116991
0.6863845755
0.07596789455
0.06395302046
0.07701649721
0.09187065834
0.1041098999
0.1118323867
0.118079836
0.1245868593
0.1367532604
0.1563157001
0.1801117998
0.2015047094
0.2169914954
0.2336688673
0.2660386421
0.3065465413
0.3243657987
0.2836949525
0.226049802
0.2150049714
0.2387281782
0.3055417017
0.4134696462
0.5438322615
0.6377537619
0.6934332799
0.08693864161
0.07529894229
0.09011799956
0.1049945613
0.1159948725
0.1242146695
0.1310247277
0.1408607649
0.1592532425
0.1877742414
0.2219892231
0.2539050871
0.2809179328
0.3141737065
0.3799257837
0.4746224445
0.553499773
0.4838864271
0.3385483235
0.2637554032
0.2388377644
0.2673260016
0.3324757845
0.4589081353
0.6236880543
0.7913149428
0.09858090414
0.0873648418
0.1027383694
0.1170537853
0.127282987
0.1360446528
0.1447583541
0.1588753639
0.1849684307
0.2241034681
0.2707322841
0.3168641612
0.3633711822
0.42939307
0.5561377844
0.7771367483
0.9665248321
0.8790064307
0.5902925093
0.381195027
0.2829603141
0.2817503731
0.327507006
0.4868541917
0.7666716951
1.116673434
0.1091187581
0.0971289856
0.1111549787
0.1251740196
0.1368135024
0.1471082317
0.1603584978
0.1786966886
0.2115424566
0.260857407
0.3204152221
0.3838176999
0.4585278786
0.5784057866
0.810905687
1.177611917
1.465153503
1.406419234
1.018550206
0.6001270247
0.3780986989
0.3376181469
0.3720229438
0.6395012851
1.304766229
2.072942047
0.1176492999
0.1028029509
0.1131141574
0.1266219297
0.1419474792
0.1573011451
0.1778340786
0.2034756112
0.2360635608
0.2911660665
0.3613862362
0.4419627167
0.5480701989
0.7266785749
1.045881509
1.480924369
1.804615607
1.803054206
1.467487017
0.9326299551
0.5531257377
0.4554281613
0.5267755551
1.112193428
2.767540465
3.856923802
0.1254443561
0.1061740391
0.1112980482
0.1224599517
0.1413540179
0.1681419979
0.2151557338
0.2691282528
0.2603774233
0.3094465823
0.3822024943
0.4707499011
0.5919964784
0.7897532561
1.110196921
1.522682818
1.845157346
1.905126715
1.709104301
1.283644963
0.8240252475
0.6531073427
0.6860718207
1.617320793
4.02939213
5.025733337
0.134503246
0.110954309
0.1131185881
0.1210951711
0.1448542351
0.2214562083
0.4823063518
0.6730525011
0.2998016329
0.3123284356
0.3729094274
0.4454210678
0.5368319088
0.6847300722
0.9391082639
1.294398006
1.610270138
1.716837391
1.61201716
1.28309453
1.05378035
0.9763013507
0.7407132151
1.120265962
3.496875197
4.932922511
0.1440502625
0.1176127918
0.1221658692
0.1361878792
0.2086376846
0.6255794992
2.229998874
2.756519395
0.4652052255
0.3126036637
0.3481763322
0.392724676
0.443017359
0.5035161537
0.6006347968
0.758470258
0.9518651408
1.087263092
1.101092175
1.085002531
1.1660927
1.194444501
0.8885795898
0.6611277944
1.536049937
3.246019612
0.1503490003
0.1262925857
0.139574592
0.1971280833
0.5878851184
2.690229684
5.925381908
8.853384652
0.9927701417
0.3495725312
0.2908685564
0.3227209106
0.3539875785
0.3847252939
0.4214871365
0.4776515031
0.5559908668
0.6386926764
0.7104281742
0.8245179957
0.9620753602
0.9819055059
0.6906792848
0.3891678047
0.5680820939
1.284896509
0.1460176073
0.1306026165
0.1420202688
0.1550839147
0.1789335123
0.262363891
0.9386076671
0.726081878
0.2272381778
0.2211501979
0.2400786391
0.265769983
0.2878448972
0.3105122156
0.3334088811
0.3608858815
0.3944248105
0.4302000806
0.4691768222
0.5449334543
0.6214825577
0.5928453754
0.3925963807
0.2210826097
0.2076461216
0.4204358427
0.1277252564
0.1276674998
0.1439558373
0.1581175864
0.1663194526
0.168169019
0.1783436166
0.1713564224
0.1190619674
0.1545836495
0.201476175
0.2320456164
0.2472422046
0.2612268452
0.2783413615
0.2974364092
0.3153784522
0.3277239877
0.3351555457
0.3546749104
0.3726707193
0.3374969096
0.2292708054
0.1355171094
0.09330573708
0.1369435825
0.1035811031
0.1074248681
0.1312819063
0.1564752507
0.1709188685
0.1676347083
0.1489932617
0.1161857353
0.09453231841
0.1003023578
0.1266738851
0.1791592455
0.215934587
0.2276579063
0.2343743665
0.2448907057
0.2546278583
0.2573439551
0.2506235103
0.2435933681
0.2394533765
0.1840015534
0.1455087784
0.0930225881
0.05833715768
0.06212842301
0.09084526366
0.08651541439
0.1021164982
0.1231929745
0.1423257766
0.1433495619
0.1260443345
0.1016816913
0.08045389736
0.0785109302
0.08654749456
0.1044393583
0.1479366895
0.1894136881
0.2000833695
0.1994020488
0.2007946997
0.1969600447
0.1860805965
0.1728819074
0.1575119876
0.1256151155
0.09649338322
0.06725222579
0.04520301022
0.04275594935
0.08899618573
0.08205390584
0.08916936301
0.09607818815
0.1044406755
0.1074813127
0.09901556967
0.08654066298
0.07671941392
0.0726981375
0.08231710386
0.1773577846
0.08938388415
0.1118104962
0.1535513083
0.1692262968
0.1634007137
0.1511733292
0.1377974267
0.1268063629
0.1180174645
0.1181035104
0.06949865456
0.05199258913
0.04271295492
0.04752363439
0.08915870914
0.0865736332
0.0885575484
0.08608351517
0.08710410253
0.08683519479
0.08794565909
0.08553228663
0.08784215365
0.1012674818
0.2454978702
1.376531837
0.1779802732
0.07887096709
0.08294897962
0.1109419351
0.1335150734
0.1279376815
0.1133302455
0.1065327483
0.1403959164
0.323185794
0.07506876741
0.0470853827
0.05504627848
0.05969510084
0.08306541322
0.1080628175
0.1012100191
0.08488187097
0.08932949072
0.09055461701
0.09338687359
0.09861776061
0.1184026884
0.3349636474
2.26095124
9.50732103
1.585912134
0.2021934237
0.07486796271
0.0815006509
0.08751893151
0.09802651753
0.09443066122
0.1018270179
0.2942452709
0.3743817104
0.1613100969
0.04132286379
0.03401034434
0.07602369501
0.08353792149
0.1479171565
0.0890710405
0.09152440294
0.1530639709
0.1273983594
0.1138122927
0.1126684437
0.1141100428
0.2185781609
1.074200418
0.2162207794
0.08126496556
0.078806248
0.1042570134
0.07089562535
0.06163085161
0.06850590472
0.06423734058
0.08333400479
0.1515337999
0.04956986484
0.03232275922
0.0279193923
0.07752715869
0.09138029067
0.08971395276
0.09297767982
0.09822402679
0.104876485
0.1083826246
0.1104601221
0.1044462457
0.09476044524
0.08913045402
0.1364480794
0.07233085368
0.06470569761
0.09792261153
0.1084668409
0.07923366182
0.06637428747
0.06181780238
0.06337665251
0.05457826103
0.05829073822
0.0430214108
0.03093129223
0.02326076701
0.08479561519
0.07475686363
0.0841523682
0.09310068084
0.1006051559
0.1002551909
0.1038935236
0.1042932052
0.1008298481
0.0893769755
0.07244590888
0.05869922067
0.04952151586
0.05576218415
0.08617280418
0.09909275688
0.08501605324
0.08630144155
0.08152259032
0.09223203553
0.0730919041
0.08309264747
0.07730701904
0.05218939917
0.03114639782
0.1029084075
0.08054359954
0.0814188602
0.08634032851
0.09458155925
0.1006855232
0.1011542308
0.1003291165
0.1056463195
0.1086857213
0.09674621388
0.07845225345
0.05834856168
0.05426919656
0.05859209686
0.07518993814
0.07733787466
0.09425187382
0.1117045238
0.1546733648
0.1465610821
0.1530048959
0.1342509659
0.08647998689
0.04268072275
0.02816745533
0.1292725426
0.09464479228
0.09006235387
0.08826236598
0.09220233711
0.1014291651
0.114780142
0.1345713696
0.1648185529
0.1935683225
0.1740715645
0.1546764604
0.1089109103
0.0718481369
0.05249390237
0.04442121148
0.05227872523
0.07930902278
0.1457343534
0.2182686856
0.2362825127
0.2839204199
0.1980616904
0.119966762
0.06128711406
0.03321873975
0.002059647818
0.002788119943
0.004926069446
0.03178351387
0.04285499342
0.0508870658
0.05738076438
0.06351887206
0.06952168433
0.07499771036
0.0794740375
0.08281549218
0.08526996769
0.08692988362
0.08692532197
0.08363516745
0.07726560888
0.0723092537
0.07444920903
0.08321917005
0.09349580883
0.103338384
0.1090089503
0.107662849
0.1034956835
0.1051592044
0.005167191948
0.0150984716
0.02367062913
0.03325412164
0.04011058926
0.04421763537
0.04730662016
0.05076294341
0.05508050926
0.06011819758
0.06573096542
0.07210788323
0.07949153192
0.08732670343
0.09333281275
0.09397093676
0.08772518699
0.07858398441
0.07450305311
0.08109468165
0.09384020365
0.1094935396
0.121103361
0.1196930766
0.1077022527
0.1001433912
0.007576770712
0.02531764452
0.03331079329
0.04072704214
0.04530152373
0.04700202677
0.04779502281
0.04939463777
0.05259685824
0.05747243262
0.06413765291
0.07311458257
0.08492582958
0.09900482333
0.1122887993
0.1193479339
0.1158394687
0.1041412545
0.09545214309
0.1048682955
0.1316711579
0.173871377
0.215721911
0.2232195175
0.1912900494
0.1479366975
0.03935189731
0.03304846191
0.03924317206
0.0451708701
0.04827253467
0.04855600956
0.04810066257
0.04883461249
0.05169715217
0.05682414049
0.06449714813
0.07555835843
0.090780593
0.109474842
0.1280576103
0.1408701815
0.1418106684
0.1295931865
0.1184570237
0.1387086273
0.2042709802
0.3156400834
0.4263727311
0.4456448677
0.3618721795
0.236487506
0.04575781281
0.03621949812
0.0415061582
0.04676951078
0.04954225348
0.04964245342
0.04906014897
0.04977708555
0.05291562064
0.05886420608
0.06808342602
0.08137331969
0.0990509998
0.1195755282
0.1387193048
0.153693013
0.1597794762
0.1507359267
0.1417751143
0.1826458489
0.3100138644
0.5143574679
0.6904803807
0.7188184705
0.5957640526
0.3788356116
0.05008055842
0.03724831637
0.04143351851
0.04626533784
0.04932674917
0.04994963787
0.04976466051
0.05077823034
0.05451683214
0.06178776845
0.07295772808
0.08820158413
0.1070406621
0.1272302774
0.1464113276
0.1615853799
0.1686641151
0.1622834492
0.1576921496
0.2193935647
0.3956529958
0.6510809839
0.8635176523
0.9096950068
0.7943487615
0.548093792
0.05439504937
0.03817828536
0.04107328008
0.04534157041
0.0487361903
0.04994840805
0.05013953764
0.0515911943
0.05642692116
0.0656662907
0.0790771982
0.09575544809
0.1149002114
0.1358474383
0.1568192275
0.1723778878
0.1754069561
0.1648216648
0.1631229609
0.2339648824
0.4193802978
0.6862166025
0.9180659788
0.9867974968
0.8986218864
0.678727425
0.05969837295
0.04020078957
0.04206017557
0.04564631209
0.0488512441
0.05004950772
0.05039253556
0.05290154707
0.06008625337
0.0723309223
0.08835152913
0.1055735923
0.1232628807
0.142706436
0.1637330797
0.1814878938
0.1768229789
0.1622241743
0.1632923536
0.2292348106
0.3914944169
0.6348508173
0.8643990783
0.9523462946
0.8907963221
0.7266820356
0.06646081358
0.04396521094
0.0453677583
0.04837822749
0.05065227149
0.05088477557
0.05144078708
0.05644506121
0.06626544518
0.08247971674
0.1028878062
0.1223390428
0.1381269082
0.1525320637
0.1680624771
0.1807473047
0.1802903402
0.1697289554
0.1701075788
0.2143550967
0.3305500421
0.520276547
0.7226765368
0.8270958704
0.8029243233
0.7106153777
0.07475493793
0.04974963426
0.05123135497
0.05382431301
0.05465893078
0.05326287367
0.05466759163
0.06108512078
0.07480989938
0.09780968575
0.1263853263
0.1522406794
0.17026184
0.1839574185
0.2018353574
0.2235718884
0.2365228297
0.2274112426
0.2091571212
0.210396854
0.2691543862
0.3888782816
0.5440149136
0.6621567264
0.7002912784
0.695797411
0.08430605624
0.05745080871
0.05920998211
0.0614969563
0.06101078498
0.05789629943
0.05947045607
0.06808808172
0.0875632349
0.119971134
0.1597608994
0.1958426937
0.2222425589
0.2467384128
0.2870922202
0.3501049946
0.4029060004
0.3939155747
0.3283146189
0.2552671951
0.2547727528
0.318095038
0.4248194731
0.5537212781
0.670637717
0.7658740987
0.09446278448
0.06636157075
0.06815386251
0.07046851184
0.06986265722
0.06624454768
0.06761610087
0.07860144723
0.1047426546
0.1480771731
0.2004966392
0.2490944869
0.290323157
0.341608027
0.4376124934
0.5921841192
0.7315192528
0.7313837089
0.5887788235
0.3854165932
0.2942388878
0.3144089709
0.3995402576
0.5671632315
0.816195937
1.060712325
0.1043054503
0.07522665235
0.07641725806
0.07938870007
0.08089726421
0.07960745593
0.08123808683
0.09448054393
0.1251746376
0.1781799298
0.2425127892
0.3046561968
0.3670222662
0.4619133236
0.6448467722
0.9273474392
1.170592453
1.197462453
1.001210261
0.6437197902
0.4018622731
0.3634155564
0.4534800075
0.7525835003
1.319329034
1.836344467
0.1131814074
0.08300693785
0.08269191132
0.08652526275
0.0919917434
0.09662695653
0.103579321
0.1230438552
0.1484310737
0.2049122521
0.2771049028
0.3512252365
0.4348258147
0.5726088927
0.8288086289
1.191665129
1.48341587
1.553010153
1.398239743
0.9939301245
0.606376067
0.4884840325
0.6050181421
1.186055488
2.375371251
3.14912401
0.1213759375
0.09003969733
0.08772930449
0.09169275742
0.1012332173
0.1169187403
0.1522276687
0.2178685126
0.1790230343
0.226702293
0.2972313936
0.3764654536
0.4685076713
0.6182447511
0.8844868197
1.247886499
1.544071101
1.64862994
1.566301808
1.253796958
0.8716673137
0.7014557822
0.770682368
1.503312093
3.259552995
4.002306244
0.1298551658
0.09835473569
0.09570793137
0.09995937934
0.1162955585
0.1754820557
0.3802678089
0.7368720379
0.2495787326
0.2451959994
0.3009697518
0.3726849707
0.4527241101
0.5769798202
0.8001418076
1.123194049
1.414098493
1.533520584
1.471931269
1.25870295
1.03955256
0.9264466159
0.9004838246
1.472176889
3.346531515
4.165702954
0.1384693377
0.1102607684
0.111550531
0.1219643786
0.1794601059
0.5488167323
2.000889581
3.214717352
0.7242615767
0.2704150266
0.2902503113
0.3436921112
0.3964765668
0.4614667351
0.5743286755
0.7648881247
0.9911469091
1.138695414
1.14746421
1.083073347
1.031643044
1.003048112
0.9193840858
0.9780480246
2.046956691
3.557307356
0.1440623146
0.1262510874
0.1362880293
0.1677449985
0.3531169464
1.813446157
6.109095509
5.425695286
3.381017861
0.3479534729
0.2513253188
0.2822578734
0.3148909446
0.3470770654
0.3872844225
0.4524142611
0.5457921624
0.6463347788
0.7303126451
0.8105773161
0.881104849
0.8896246052
0.7532185952
0.5300699526
0.7598984686
1.642237666
0.1389634895
0.1360773196
0.1489347512
0.1582241199
0.1793686621
0.2980811474
1.184978056
2.456429254
1.612395444
0.2235347011
0.2000514998
0.2251929074
0.2494412222
0.27080873
0.2923598529
0.319405963
0.3553619858
0.3992953757
0.4514499974
0.5226516082
0.593753253
0.5897591499
0.462210915
0.2621220112
0.2567666488
0.5317981323
0.1210920383
0.1262105995
0.1487655968
0.157392333
0.1636651127
0.1733392417
0.1935038964
0.2061656693
0.1412032938
0.1240907067
0.1583607463
0.1909020342
0.2108003583
0.2230403098
0.236154363
0.2523743722
0.2697373915
0.2853916077
0.2996076607
0.3182295172
0.3337533526
0.3121047183
0.2362978884
0.1314414039
0.101886105
0.1660743002
0.1010664918
0.09881146621
0.1279423819
0.1496123969
0.1556194078
0.1521137163
0.1492630797
0.1360291257
0.1066500545
0.09580271017
0.1054738462
0.1399185261
0.1761667596
0.1902175315
0.1943275648
0.2012314196
0.2095332633
0.2142508223
0.2111119548
0.2033044756
0.192501617
0.1591507781
0.1298274364
0.07663865075
0.05557277603
0.06636488022
0.08951981223
0.07629805822
0.09145193265
0.1118795719
0.1262615129
0.1243799773
0.1117028972
0.09727240117
0.0831596888
0.08158093299
0.08723944834
0.09907488584
0.1163880452
0.150632574
0.1606192081
0.159551849
0.1574648401
0.1542928594
0.1459764566
0.1333395454
0.1177730386
0.09402538667
0.07505541078
0.05080538412
0.03925565779
0.039299926
0.08470463048
0.06866398553
0.07282230285
0.07903890942
0.0860966259
0.08839026486
0.08212273289
0.07270805939
0.06912475853
0.07484581321
0.1145177709
0.3206191738
0.09747643363
0.08935064285
0.116379962
0.1304067711
0.125452547
0.1168232405
0.1072830705
0.1014357578
0.1037563922
0.1105022447
0.05614343789
0.04019201014
0.0432680016
0.05202538651
0.08188221713
0.07158125171
0.06781984159
0.06684050979
0.06819089365
0.06697536464
0.06838464679
0.0707384554
0.08057702608
0.1315345075
0.5707074449
3.207122407
0.3513850699
0.0917807011
0.07152713176
0.08599096725
0.100162271
0.09872588498
0.09509368777
0.1048034775
0.1601082212
0.3360475056
0.08341901005
0.03970154481
0.05838654571
0.05695304561
0.07966517445
0.09938488764
0.06958891742
0.06429211465
0.08040358966
0.07914971544
0.08485823235
0.09276826623
0.1569192458
0.7900125525
5.17827121
6.350207641
7.004896883
0.5073159388
0.1014903982
0.07280916972
0.06831154512
0.07536992213
0.07997028984
0.1121029247
0.4231734246
0.3959046395
0.2874552759
0.0368715496
0.03411199658
0.08244803859
0.08654302512
0.08329640079
0.07289340231
0.08440957453
0.1437435483
0.1071251897
0.1105963857
0.1057677413
0.1245600113
0.4132437737
2.345596111
0.4069018121
0.1141417693
0.1468796761
0.1144790458
0.06855574167
0.06755634263
0.0624896908
0.06419251657
0.09698296887
0.198824835
0.06675961506
0.02604896267
0.02726496579
0.07773949942
0.08817936139
0.06916181728
0.07431889013
0.09456400671
0.1059886867
0.1149508454
0.1075308568
0.09826524151
0.09022158303
0.09926374183