/*--------------------------------*- C++ -*----------------------------------*\
  =========                 |
  \\      /  F ield         | OpenFOAM: The Open Source CFD Toolbox
   \\    /   O peration     | Website:  https://openfoam.org
    \\  /    A nd           | Version:  8
     \\/     M anipulation  |
\*---------------------------------------------------------------------------*/
FoamFile
{
    version     2.0;
    format      ascii;
    class       volScalarField;
    location    "0.8";
    object      htcConv;
}
// * * * * * * * * * * * * * * * * * * * * * * * * * * * * * * * * * * * * * //

dimensions      [1 0 -1 1 0 0 0];

internalField   uniform 0;

boundaryField
{
    walls
    {
        type            calculated;
        value           uniform 0;
    }
    region0_to_wallFilmRegion_wallFilmFace
    {
        type            convectiveHeatTransfer;
        L               1;
        value           nonuniform List<scalar> 
776
(
1.175431203
1.434038335
1.666284052
1.804634129
1.915922616
2.027200132
2.144485959
2.265478187
2.379546994
2.46708344
2.507706354
2.487858084
2.408045957
2.289939225
2.177864551
2.094780727
2.006639334
1.865844781
1.687961504
1.657202054
1.859776883
2.088639762
2.232984821
2.347383239
2.272951471
2.421627607
1.824641263
2.167586103
2.176809195
2.547033896
1.514984825
1.579418724
1.782273925
1.918841236
2.037388624
2.129918666
2.213405215
2.295534911
2.3815467
2.468453369
2.541511426
2.576810112
2.551551826
2.459590237
2.336958906
2.245008162
2.184963275
2.114058151
1.842489979
1.804447568
1.80374687
2.042269298
2.192077137
2.186046582
2.285215988
2.708095699
1.800495139
2.113533247
2.128772731
2.470581137
1.889614404
1.868365614
2.021698365
2.144775987
2.24764287
2.33049423
2.409663016
2.493407239
2.58643407
2.684203246
2.77148976
2.825565932
2.822491109
2.748081525
2.624959058
2.521565571
2.484761163
2.489917017
1.964476248
2.054649975
1.976675635
2.174044887
2.311034406
2.297688127
2.381234833
2.261435853
2.13465262
2.072477688
2.122267076
2.451601187
2.133038681
2.090809532
2.222488198
2.324015451
2.421103134
2.508014463
2.596788603
2.69018406
2.786341148
2.877980905
2.953769772
3.000499735
3.003935846
2.953632232
2.867131876
2.795432504
2.821671397
2.999760481
1.891169455
2.143744358
1.968343349
2.212671379
2.340733551
2.336891079
2.365657523
1.732033315
2.291310311
2.140334474
2.12817005
2.423359535
2.292885047
2.266012475
2.386125735
2.479452229
2.579684059
2.675751213
2.773062015
2.867346088
2.953772362
3.026840098
3.080540579
3.111555071
3.117045227
3.096279474
3.075593726
3.105876409
3.3555379
4.024041488
1.908338599
2.22631104
1.882141146
2.200747828
2.357665582
2.425169828
2.541879253
2.588694412
2.455806512
2.281493763
2.17791921
2.431909049
2.411380704
2.400075032
2.518780754
2.613717834
2.720334408
2.822120253
2.917853099
3.00024128
3.065514206
3.109896232
3.134221933
3.145826441
3.151272269
3.15736331
3.206540929
3.384385617
4.157956676
5.114834065
2.790059281
2.292370092
1.748634583
2.108850481
2.292309877
2.397162907
2.705678689
3.543832777
2.554262826
2.257105888
2.226633496
2.448757772
2.50504552
2.509613313
2.635628137
2.735826951
2.845259801
2.943599811
3.026874465
3.086172077
3.118899312
3.135236515
3.137604291
3.129663171
3.118318774
3.114651587
3.170289911
3.449946416
4.83315995
8.668276614
4.375044456
2.021908756
1.597795605
1.991947029
2.171381468
2.268975154
2.364741611
1.380687606
2.274813042
2.121003782
2.217954707
2.491569203
2.574224274
2.600632137
2.739599565
2.843285503
2.948106067
3.03455042
3.098914622
3.129225138
3.140901806
3.137397861
3.120616929
3.092000145
3.05173193
2.990677994
2.89419682
2.652796248
2.911096729
4.129098144
2.84403751
1.785020742
1.629725962
2.004157148
2.155769409
2.28101801
2.400475336
1.67688977
2.179305826
1.996445778
2.143182345
2.540407748
2.620654475
2.675139454
2.828583252
2.930509391
3.023065411
3.092616566
3.136399239
3.148199235
3.142739593
3.123049423
3.090240624
3.043815669
2.981421696
2.891822162
2.755032174
2.449439496
2.156347648
2.452719649
2.438024765
1.939674328
1.891232989
2.09850767
2.229729747
2.382142967
2.515795944
1.764177349
2.013698538
1.775193284
1.97437955
2.571378449
2.650783335
2.735343449
2.901178854
2.995060303
3.068515405
3.117767087
3.145438233
3.146135149
3.129540915
3.09801121
3.052248368
2.992202217
2.918937374
2.832509436
2.742882494
2.5871761
2.526557213
2.194256852
2.610675753
2.189385388
1.917989154
2.129788338
2.283603858
2.560054821
2.662289985
1.816148639
1.748625594
1.442708115
1.826753022
2.699040394
2.67192547
2.783097582
2.958184157
3.039149059
3.087561298
3.11164702
3.12622736
3.124170997
3.104864418
3.067833696
3.013672897
2.942719567
2.858239648
2.766824844
2.681324623
2.551456878
2.597514209
2.266356888
2.608377527
2.314417029
2.040850903
2.073824549
2.320250992
2.871037395
3.54047
2.184797706
1.639160155
1.327935389
1.775070762
2.601615968
2.683637191
2.815905125
2.999104362
3.065526136
3.085895914
3.079371145
3.079293177
3.083926485
3.075137853
3.045472188
2.995310281
2.923853044
2.834637243
2.737240998
2.633791295
2.526810592
2.605270171
2.607731813
2.667984735
2.461084764
2.134696236
2.084367972
2.518145299
3.770863217
4.113285376
3.350641995
1.951421386
1.831448315
1.919470405
2.412408062
2.674750042
2.827048012
3.019523692
3.071086232
3.065803299
3.029469085
3.012442409
3.032944084
3.055128609
3.056759803
3.03701484
2.991233998
2.918265109
2.81873559
2.655588094
2.469621252
2.56363798
2.598076223
2.64893347
2.540818015
2.217508133
1.795632013
2.119664191
2.665405869
3.756629574
3.025873334
2.146987454
1.922640316
2.03490902
2.259060653
2.631604518
2.80967999
3.010818175
3.042869902
3.022257849
2.971200325
2.948522328
2.992794986
3.069728487
3.136349672
3.181735655
3.187111627
3.139749538
3.03138085
2.794515223
2.472949644
2.537124365
2.570064676
2.60306486
2.553995222
2.358351534
1.919744596
1.777659369
2.164160778
2.37709941
2.018298515
1.203654705
1.580307567
1.918661242
2.199913847
2.550341028
2.760269531
2.968370635
2.988728026
2.964188435
2.916473738
2.912373932
3.001320937
3.141863889
3.277376702
3.38543038
3.427733745
3.372246463
3.228210847
2.954658769
2.557015693
2.54387159
2.511955707
2.526824006
2.516666898
2.418931787
2.134714661
1.791067157
1.828603675
2.020016645
1.572326601
1.5446737
1.282917959
1.558804618
1.92846795
2.445017968
2.679641631
2.899276446
2.925867669
2.909153198
2.881020617
2.911119441
3.047338596
3.241860087
3.419398115
3.551016467
3.56814973
3.469347473
3.286199053
3.022070929
2.622043513
2.550078331
2.439362451
2.418518423
2.438389198
2.409190073
2.282506577
1.952814252
1.774638305
1.694717793
1.67984689
1.665870089
1.079874805
1.24593052
1.341346438
2.361060803
2.587551178
2.827438875
2.890707523
2.900203095
2.89645445
2.933528625
3.065014537
3.263741879
3.448009162
3.553009689
3.536741191
3.40872765
3.207049121
2.963897115
2.570850028
2.495734999
2.360311973
2.28946262
2.327983747
2.356829562
2.316212661
2.152111207
1.967477089
1.801861458
1.322575808
1.496626108
1.131586304
1.342243844
1.387475336
2.402116794
2.576235434
2.833959413
2.953183909
3.001013928
2.991456046
2.958211738
2.982006526
3.09276171
3.217745528
3.309582264
3.348372828
3.286397402
3.096679347
2.812885224
2.271575831
2.306151764
2.252329634
2.162601914
2.204480836
2.267816829
2.272858189
2.20274252
2.065977276
1.987377173
1.581097153
1.175526469
1.249748254
1.2282638
1.37059769
2.569067269
2.717987426
2.989899392
3.134101012
3.188605281
3.143412363
3.011551772
2.879263083
2.840735598
2.820092502
2.78050002
2.768730332
2.764068859
2.613889077
2.138232561
1.666361326
2.201838712
2.154012996
2.099050006
2.148616809
2.213858471
2.210563872
2.157896151
2.161729237
2.18476968
1.917578289
1.100027545
1.008467206
1.145801182
1.400581749
2.696871541
2.867125481
3.161085827
3.317744427
3.366445509
3.291475231
3.109480338
2.899526993
2.835563299
2.849845303
2.812384359
2.72299742
2.524109136
2.188886398
1.463519993
1.812693495
2.365676235
2.265640506
2.19726725
2.157082482
2.162933345
2.103783843
1.92814563
2.06669736
2.266916821
1.956562272
0.8913647326
1.188689066
1.291868312
1.346493169
2.729976722
2.931710165
3.260167398
3.410178209
3.422048867
3.323933246
3.128165856
2.869941773
2.732180737
2.741464064
2.657452634
2.604647694
2.520702925
2.346050899
2.061708266
2.09359706
2.569283212
2.435940364
2.375502682
2.318547719
2.252705602
2.107516635
1.89268783
2.577885672
2.88465027
2.016660886
1.398322851
0.9296009202
1.156608202
1.231868847
2.677753356
2.944873097
3.298663286
3.397676312
3.380920267
3.263020419
3.071009694
2.824843556
2.673385701
2.741958233
2.669275178
2.632872957
2.622967204
2.546369348
2.172708872
2.290834263
2.681591646
2.628754738
2.51909075
2.305945779
2.038150368
1.80371385
2.043489248
3.95787173
4.100634831
2.994834221
1.886454104
1.419375554
1.70835937
2.12154018
2.520399521
2.869191423
3.239855606
3.319686863
3.283564138
3.150225697
2.9522896
2.73125956
2.603681332
2.735266567
2.729542152
2.701268875
2.710350907
2.768863254
2.714357935
1.248604199
2.194529882
2.466217523
2.549659488
2.504469663
2.421092361
2.272977252
2.00687191
2.367341146
2.842725211
2.027220391
1.874478731
1.682578294
1.66659293
1.955038993
2.268293217
2.627976792
3.078246769
3.226133634
3.219945239
3.082688889
2.859146524
2.636223501
2.601292083
2.786176547
2.914103936
3.026138183
3.165937243
3.348815624
3.464832418
2.395765613
2.256538299
2.593423604
2.620014199
2.53183564
2.402866773
2.263737083
1.896362548
1.9254155
2.343209211
2.256541839
1.974389477
1.58655292
1.557807533
1.776024775
2.170520733
2.316046745
2.721767782
3.018152055
3.106075497
3.031264317
2.837796608
2.674813485
2.708376969
2.848221315
3.038696943
3.270521726
3.497501432
3.594933333
3.715981453
3.166825014
3.138830829
3.176834811
3.001951498
2.714043408
2.431916866
2.29585676
1.813797499
2.302029971
2.293456721
2.173733115
1.916251483
1.526589031
1.486385648
1.603436104
2.244528304
2.476954655
2.790057615
2.979084822
3.060182988
3.008485364
2.884577211
2.803154282
2.801410948
2.856052539
3.022627501
3.302647176
3.593569258
3.732160688
3.817978783
3.351866216
3.347835283
3.383986952
3.136966332
2.755464815
2.352566162
2.163603224
1.350375903
3.576084078
1.35867168
1.367634152
)
;
    }
    region0_to_wallFilmRegion_mirrorFace
    {
        type            convectiveHeatTransfer;
        L               1;
        value           nonuniform List<scalar> 
703
(
3.722076498
3.850551511
3.976625327
4.096005358
4.214849883
4.35373593
4.545076996
4.745310697
4.819647922
5.018482073
3.719769015
3.75446761
3.868479994
3.995019194
4.134490657
4.302992246
4.492335644
4.640469643
4.684364873
4.708966631
3.912895506
3.815668939
3.83463397
3.923222738
4.025197563
4.118299378
4.184253722
4.212228994
4.197435062
4.163609059
4.181212825
3.189695094
2.975267115
1.515604952
1.984170892
1.468966225
1.668404414
1.509275055
1.440989915
1.526384312
1.362481931
1.377031537
1.790938436
1.511760039
1.690769928
2.167921049
1.868353675
2.017209073
2.717398713
3.1768993
2.755097479
2.90320182
3.148783283
3.405272777
2.430148635
3.329694233
2.868997562
3.403290282
2.378133449
3.564346137
3.27316678
4.231858927
3.976754458
3.73209377
1.23410269
1.235908923
1.283068327
1.177309944
1.187705153
1.091164567
1.196910901
1.013322462
0.9917432407
1.192789185
0.9891231005
0.9766999434
1.154042401
0.9488576784
0.9273738881
1.132121984
0.9237058096
0.9243604023
1.13598902
0.9342843751
0.9565034542
1.147508242
0.9855045249
1.010696603
1.134728551
1.028909832
1.040688661
1.102157121
1.050756556
1.063562885
1.140558855
1.087349223
1.125935159
1.450228581
1.685045833
1.555140311
1.280974954
1.522865965
1.509168845
1.230574697
1.519492157
1.528484632
1.186099758
1.506463568
1.447722476
0.9995918938
1.338851465
1.19785686
0.827913566
1.071345943
0.9861692751
0.7577377293
0.922119956
0.8712641508
0.7439980733
0.8257618301
0.7840228914
0.7141182114
0.7425757036
0.7085493901
0.6834072571
0.6782942349
0.6519398785
1.706739886
1.856378827
1.860614414
1.773346022
1.926471445
1.97665155
1.7849115
1.969117479
1.944991414
1.671435186
1.887500093
1.80035465
1.405489832
1.650573886
1.497690032
1.224810315
1.391994604
1.318174438
1.107047978
1.252890424
1.191107575
1.004823976
1.13209625
1.079705224
0.9333363217
1.037334976
1.980508177
2.239424905
2.212020293
2.122185174
2.135832323
2.05006173
2.02390076
2.091772996
2.040295183
1.853933741
1.963498396
1.861243762
1.545990219
1.702037456
1.571970428
1.386026593
1.492843843
1.428980136
1.260733359
1.365094104
1.301042697
1.152186414
1.240687717
1.19203107
1.997932027
2.213586038
2.291013668
2.274957604
2.474011906
2.555055437
1.909030658
1.938871314
2.17722611
1.842249299
1.850430859
1.869971809
1.5982794
1.726626943
1.639384701
1.46876252
1.576882949
1.514039653
1.337297367
1.44683563
1.377983267
3.680101971
3.698688573
3.774482142
3.774548472
3.836253273
3.889278569
3.860435962
3.940099149
3.988205282
3.932495832
4.033252916
4.073934481
3.986929719
4.110480104
4.145286726
4.043570674
4.181628936
4.22406703
4.123485123
4.275932996
4.335588398
4.192400805
4.392474706
4.424896227
4.296126485
4.440390288
4.549258343
5.030486112
4.841786956
5.210751956
4.62146167
5.093998367
4.874445953
1.774103382
2.243863354
1.846201047
1.468168143
1.674063239
1.512826634
1.34847353
1.405116814
1.367214327
1.629237254
1.44346442
1.587545296
1.945563112
1.743791503
1.889158396
3.794151245
3.916435376
4.023151664
4.117483362
4.203139492
4.303466562
4.442747222
4.552842107
4.688166744
5.222741002
3.70628914
3.979126681
4.032916795
4.085558869
4.138158283
4.527385465
4.620036349
4.67417049
4.69509205
1.918264221
2.56780418
2.110559926
1.538934634
1.778715062
1.56273769
1.382517813
1.450866699
1.393502588
1.542976153
1.39490685
1.485190787
1.837348501
1.629902689
1.779596746
3.776880333
3.702851058
3.710046585
3.914715608
3.777200595
3.836115534
4.036522595
4.154782708
4.279531232
4.442036872
4.317002269
4.418592406
4.653406675
4.528566187
4.798830458
4.892482161
4.785370785
4.819745173
5.11753785
4.879736538
4.92311657
1.639172939
2.409419781
1.919421076
1.42936152
1.590139659
1.554876077
1.422289382
1.393960581
1.280367566
1.716878794
1.426345199
1.63079816
3.775224808
3.718775399
3.808655871
3.759594444
3.79552452
3.929938389
3.846901204
4.062211189
4.293670615
4.576644561
4.356906694
4.458884068
4.450035109
4.720332321
4.443169192
4.436822423
2.006657257
2.983313479
2.972027056
1.424752025
3.102665519
2.08943429
1.826818315
2.08418794
2.370926363
2.782750244
3.919632043
4.001700286
4.024474132
3.872031296
3.017274651
1.714261196
3.29763001
1.575119852
3.36943499
1.650460254
3.429165514
1.694676669
3.485469987
1.699915572
3.519747909
1.702906835
3.541588116
1.716868218
3.573647417
1.72108995
3.620053831
1.730136558
3.660313272
1.759742016
3.866060417
1.729722666
4.077214188
2.095362237
0.8357356855
1.200705588
1.185156963
1.202267021
1.172762144
1.140931612
1.131193804
1.143445148
1.145177263
1.121534511
1.111847952
1.666325888
1.546054789
1.367264341
1.234702013
1.222625215
1.108066192
0.8992043692
0.7789729033
0.7495096446
0.7313394772
0.6945131626
1.579082427
1.776261968
1.734171216
1.787314415
1.744280134
1.54974621
1.297813738
1.163119409
1.053594046
0.9624302405
1.613583652
1.901606208
2.098852214
2.073908802
1.953790112
1.692663211
1.453780039
1.322627435
1.20200752
1.995535973
1.728466764
2.416724854
2.067270805
1.930860889
1.704265126
1.530327704
1.403725697
3.038447295
3.616857385
3.729841295
3.818375763
3.898907658
3.961227469
4.013351041
4.080547722
4.165928349
4.207004936
4.576126251
4.859082022
2.164496454
1.614511297
1.363179735
1.462830506
1.796952045
3.482163578
3.722966386
3.859416806
3.808224471
3.971261018
3.924359941
4.072034977
4.16034026
4.249218671
4.256979003
4.368633972
4.424835317
4.512272514
4.572495424
4.949164555
4.979986141
2.370814122
1.704656685
1.435061053
1.422257144
1.691762577
2.914153942
2.017909068
1.474403437
1.383844199
1.562367577
2.974615146
1.983684257
1.875469015
1.571934208
2.151620209
3.944949869
4.095442607
4.249616659
3.835908939
3.658611193
3.890183336
3.756698281
3.845157979
3.836190712
3.755065122
3.970466571
3.646938776
3.906567721
3.556884366
3.502240831
4.59033852
4.585572296
3.496090674
3.082789599
3.482906846
3.627191126
3.489859509
3.229868104
2.918371464
2.696711267
3.750548424
4.201433173
3.44410618
3.306062236
3.473833626
3.301272669
2.77874466
2.372635023
1.99544526
1.994219274
3.800319328
3.998890574
1.656962774
3.343371203
1.509010743
1.446507955
3.475304088
3.520605159
1.628178349
3.397777858
1.530902688
1.585629029
3.553540709
3.587916052
1.680285592
3.459349745
1.636121598
1.660210647
3.62420237
3.659457951
1.700599623
3.505530872
1.67370227
1.677804832
3.691154088
3.717498526
1.700436691
3.530540755
1.680479784
1.685325728
3.738364237
3.755553929
1.712916003
3.555493213
1.689122553
1.690377645
3.772723608
3.792623303
1.720241438
3.595962478
1.693282678
1.698170275
3.817555926
3.847249352
1.722647208
3.641820418
1.701500101
1.702043564
3.877522927
3.899233434
1.751173337
3.715369569
1.701332292
1.701326865
3.912915283
3.980387843
1.787489872
4.273713924
1.704132012
1.71025758
4.203094673
4.690931959
1.713274909
3.923129332
1.693277473
1.687737628
4.477265968
4.260244922
3.744357576
3.86659083
4.193791164
4.333177603
4.796205996
5.13399476
3.896960134
3.957608876
4.019753522
4.084027516
4.152371873
4.22872841
4.63386024
4.718662686
4.768707115
3.694084079
4.214465926
4.398142744
4.675714047
4.692056533
3.901057782
3.959767882
4.021051107
4.085963019
4.153827578
4.224070814
4.408312537
4.443160692
4.460015586
3.844166616
3.799387053
3.827995233
3.780994199
3.874039234
3.816771585
3.847330184
3.974199758
3.932635744
4.073789918
3.971445
4.155666215
4.019882825
4.203528941
4.016272482
3.99780734
4.20976235
3.938569073
4.178684376
4.153566129
3.843273331
3.823120494
4.067970161
4.467298385
4.076971969
3.643521393
3.696985534
3.354131095
3.6947589
3.423861272
3.527539174
3.809986249
3.643128168
3.726073619
3.852366115
3.766735479
3.752317216
3.802351536
3.702563991
3.626215365
3.701807379
3.5280439
3.421733828
3.598366039
3.312914547
3.220814985
3.522296087
3.149836674
3.102775066
3.501983561
3.084546044
3.100091718
4.017214242
4.329669836
3.780910627
2.912525372
3.294600636
2.96737884
3.301180258
3.087803178
3.256308364
3.593115843
3.404854488
3.487412048
3.573963123
3.463284644
3.314586252
3.37484388
3.186969943
3.036644688
3.078179466
2.851364376
2.672193801
2.785519408
2.469931822
2.316813927
2.656307622
2.251626699
2.272318855
3.769681753
4.097805494
3.792172187
3.27630971
3.608752549
3.514083616
3.383161643
3.520295406
3.56396159
3.490353592
3.610594466
3.589751061
2.951288279
3.403662811
3.042046397
2.595957103
2.708755906
2.360156026
2.195430581
2.003153888
1.814433133
1.930393024
1.883376161
2.069074927
2.134162788
2.272046026
2.43917586
3.774267749
)
;
    }
    procBoundary2to0
    {
        type            processor;
        value           uniform 0;
    }
    procBoundary2to1
    {
        type            processor;
        value           uniform 0;
    }
    procBoundary2to3
    {
        type            processor;
        value           uniform 0;
    }
}


// ************************************************************************* //
