/*--------------------------------*- C++ -*----------------------------------*\
  =========                 |
  \\      /  F ield         | OpenFOAM: The Open Source CFD Toolbox
   \\    /   O peration     | Website:  https://openfoam.org
    \\  /    A nd           | Version:  8
     \\/     M anipulation  |
\*---------------------------------------------------------------------------*/
FoamFile
{
    version     2.0;
    format      ascii;
    class       volScalarField;
    location    "0.8";
    object      k;
}
// * * * * * * * * * * * * * * * * * * * * * * * * * * * * * * * * * * * * * //

dimensions      [0 2 -2 0 0 0 0];

internalField   nonuniform List<scalar> 
67410
(
0.001933312307
0.003124083856
0.004842881983
0.006264348628
0.007198021286
0.007843097459
0.00841678989
0.00900492618
0.009612834825
0.01023328465
0.01089675001
0.01166332815
0.01254773269
0.01343149847
0.01403835772
0.01396748072
0.01284947884
0.01117252139
0.01110056443
0.01330063798
0.01628788247
0.01930883347
0.02097556594
0.01902586575
0.01325291865
0.01259108589
0.003998584423
0.004828487574
0.006321220489
0.007475971916
0.00821625493
0.008783553987
0.009375579067
0.01007789798
0.01089206584
0.01180989215
0.01287310927
0.01413415133
0.01554103511
0.01687912012
0.01781514125
0.01793726251
0.01688528037
0.01519394001
0.01567814639
0.02007644296
0.02569503248
0.03087017616
0.03393596313
0.03217308825
0.02199181686
0.01891322702
0.005412525202
0.006447613528
0.007625286995
0.008473679568
0.009080927763
0.009649633579
0.01034832801
0.01123142296
0.01225166632
0.01336006728
0.01458861078
0.01599352126
0.01751830301
0.01895142524
0.01999854505
0.02029128692
0.01955014431
0.01866019195
0.02109453213
0.02799373382
0.03532634973
0.0413892182
0.04533337397
0.04525168748
0.03485050136
0.02772709206
0.006270152546
0.007377460486
0.008405254787
0.009170405106
0.009825063587
0.01056095399
0.01150513831
0.01263209493
0.0138043274
0.01492034509
0.01601555214
0.01720202161
0.01851138995
0.01981228306
0.02087662376
0.02131285768
0.02095250047
0.0213871255
0.02629910264
0.03500073596
0.04296647875
0.04960199397
0.0552063905
0.05685373753
0.04773289372
0.03715312882
0.006788899392
0.007906980904
0.008942552792
0.009815388307
0.01070986089
0.01178393968
0.013068771
0.0144245574
0.01565016068
0.01663419621
0.01741424691
0.01813715297
0.0189560428
0.01990954989
0.0208304647
0.02131890558
0.02140531397
0.02329725273
0.03016301351
0.03984098969
0.04849423717
0.05721762167
0.06512366311
0.06801009175
0.05838460503
0.04436996591
0.007129112848
0.008279903031
0.009449143632
0.01060208162
0.0119039686
0.01340480109
0.01499277907
0.0164605208
0.01764777547
0.0185015491
0.01902805532
0.01927989986
0.019402261
0.0196152108
0.02000893382
0.02038456923
0.02096161104
0.02383285301
0.03128692858
0.04137489676
0.05139934665
0.06228392781
0.07203328476
0.07546751985
0.0656481163
0.04797046249
0.007445528965
0.008671647001
0.01010763762
0.01169288764
0.01347798546
0.01533623502
0.01705242421
0.01847005551
0.0195700343
0.02041721255
0.02097225068
0.02109414492
0.02068825635
0.01995050249
0.01938653976
0.01949180953
0.02051804061
0.02300964103
0.02873817375
0.03834818321
0.04941834296
0.06157450352
0.07218522845
0.07548638185
0.06621623344
0.04900781525
0.007861390533
0.009236329756
0.01106992786
0.01315907363
0.01534602701
0.01735661938
0.01899473463
0.02025583203
0.02133570261
0.02233979731
0.02318339528
0.02360548483
0.02329015127
0.02220379404
0.02118022316
0.02161519521
0.02334396915
0.0238568786
0.02407443177
0.03059444884
0.04056059718
0.05241581483
0.06272229505
0.06564994996
0.0591814816
0.05068267095
0.008478691857
0.01010832125
0.01241367975
0.01493538594
0.01731535494
0.01927115001
0.0207443113
0.02195245118
0.02315442459
0.02444491957
0.0256937738
0.02656704491
0.02670105667
0.02617839995
0.02641112767
0.02941833975
0.0332999856
0.03132416008
0.02252733236
0.02366493857
0.02775657445
0.03478688421
0.04285140242
0.04865821586
0.05135253985
0.05417194
0.009336153105
0.01132792953
0.01406442538
0.01682653872
0.0191894235
0.02099561526
0.02237704163
0.02367892143
0.02515014993
0.02685089534
0.02858204843
0.02992049483
0.03056260686
0.03130862666
0.03504543305
0.04318069105
0.05022923264
0.04622947401
0.02696410638
0.02401236704
0.02418766355
0.02686898179
0.03215489627
0.0398627225
0.04978772074
0.0595821338
0.01035609765
0.01273539756
0.01575308862
0.01856566408
0.02082016411
0.02251520714
0.02393858719
0.025471139
0.02734154008
0.02956215938
0.03184337564
0.03368938838
0.03509035302
0.03827394623
0.04757444082
0.06141587701
0.07104575688
0.066747367
0.0377876836
0.02794610611
0.02542382138
0.02657815247
0.03100583599
0.04156784734
0.05770948135
0.07429139503
0.01133777546
0.01395929782
0.01706739861
0.01986797892
0.02209621166
0.02383144328
0.0254305852
0.0272941106
0.02964386813
0.03244284939
0.03531503841
0.0378018229
0.04063806331
0.04789963716
0.06338332387
0.08176568597
0.09442885443
0.09252569486
0.05815289408
0.03580541692
0.02822803739
0.02860834167
0.0325101316
0.05154575512
0.08225577933
0.1087908588
0.01206337407
0.01460648824
0.01758736897
0.02042125938
0.02284613357
0.02487128996
0.02678612898
0.02902763332
0.03185576651
0.03521743529
0.03870348993
0.04209730658
0.0472624117
0.05944438894
0.08014095531
0.1024136471
0.1184375548
0.119588764
0.08517956127
0.04968414623
0.03281666521
0.03465643771
0.04161778583
0.07746900951
0.1261817174
0.164350671
0.01249852543
0.01460291682
0.01711737796
0.01989888993
0.02271388362
0.02533506406
0.02777323291
0.03042200674
0.03365689633
0.03748191826
0.0415574517
0.0460204192
0.05359679182
0.06946812709
0.09328409497
0.1178744454
0.1353971132
0.1379190518
0.1073086169
0.06407718218
0.04025899832
0.04677921621
0.06395572786
0.1187403392
0.1832931948
0.2318281609
0.01287809498
0.0144620363
0.01613169521
0.01834169695
0.02125981762
0.02455212344
0.02779199378
0.03098657309
0.03460690935
0.03869258444
0.04303574206
0.0477473833
0.05527167741
0.07061894749
0.09429316503
0.1191175639
0.1367614828
0.1394560907
0.1112847161
0.06100759117
0.0530137209
0.06598256081
0.0924388206
0.156059123
0.2307589348
0.2767056208
0.01339118444
0.01484859546
0.01583361942
0.0169259605
0.01894300408
0.02229089481
0.02731125589
0.03091187984
0.03354391184
0.03739775666
0.04107380342
0.04391947967
0.04598735576
0.05010628307
0.06249734469
0.08462122178
0.1042214151
0.1038590832
0.07506078051
0.06371678327
0.07974314839
0.08901936945
0.0546788786
0.08274610301
0.1700313529
0.2350998399
0.0139036166
0.01564376319
0.01661883282
0.01698845188
0.01779449293
0.02291228176
0.04245067956
0.04457135854
0.03064156419
0.03380769779
0.03690696247
0.0388951981
0.03958831724
0.04008500945
0.04380842669
0.05393669308
0.06606477009
0.06790542488
0.06285281775
0.08136471221
0.1021472311
0.1094954992
0.07814961726
0.05735711519
0.1056351298
0.1632235852
0.0142183262
0.01642249957
0.01779875391
0.01830903342
0.02203853826
0.04914946265
0.1290529844
0.1427326741
0.03825123219
0.02899156354
0.03172964981
0.03398522428
0.03565215198
0.0369374119
0.03866572643
0.04183001043
0.04629178475
0.04839112662
0.04834538983
0.06166156772
0.08142010609
0.09094001608
0.06633593489
0.04242700682
0.05847605885
0.0975621318
0.01408221951
0.01682444771
0.01876375327
0.01944704728
0.01856549351
0.01756273979
0.02722458193
0.02806302049
0.02059210945
0.02469889693
0.02762327557
0.03014550062
0.03255442454
0.03489647526
0.03693851321
0.03873197107
0.04029143903
0.04102875098
0.0406902789
0.04402348298
0.05560622355
0.06553980046
0.04816133744
0.03030233961
0.02915307577
0.05003179404
0.01303187674
0.01632386169
0.01862512921
0.01974369755
0.01926370565
0.01718877671
0.01516889823
0.01390579381
0.01419978222
0.01824004284
0.02291952861
0.02626402887
0.02915153415
0.03192585028
0.03435430882
0.03618699489
0.03732572196
0.03753474255
0.03664921223
0.03500427719
0.0376074127
0.04316984854
0.03317158555
0.02168826754
0.0155477678
0.02315135439
0.01108226955
0.01381433343
0.01580213794
0.01703398743
0.01752492759
0.01685764771
0.01527709939
0.01354408866
0.01266399207
0.0127696247
0.01532191375
0.02052559378
0.02470825509
0.02783436665
0.03037826432
0.03230538093
0.03340388177
0.03347157691
0.03231867696
0.02947415335
0.02777708233
0.02816360929
0.02300632505
0.01635705828
0.01067924099
0.01273247208
0.01017166084
0.01166436777
0.01285240913
0.01378705978
0.01463151121
0.01531602386
0.01525744081
0.014418869
0.01354929846
0.01284810096
0.01205085243
0.01253711816
0.0174030005
0.02251102118
0.02563418201
0.02765659095
0.02878093709
0.02876605041
0.02747787507
0.02467584042
0.02143309238
0.01873165488
0.01622840464
0.01247417918
0.008716600035
0.009531145446
0.0104305935
0.01182888969
0.01290714898
0.01369965774
0.014352631
0.0148484475
0.0150605158
0.01491441679
0.01459689686
0.01408318454
0.0131516276
0.0123233465
0.0109958599
0.01423600346
0.01957380689
0.02253733086
0.02411151719
0.02404402945
0.02234164886
0.01924627422
0.01617410105
0.01425422596
0.01227020134
0.01003391658
0.007582416813
0.008277255019
0.01073602862
0.01222380266
0.01330859504
0.01406026458
0.01467458874
0.01518523697
0.01550688831
0.01572273376
0.01577798935
0.01543075462
0.0149218712
0.01940935704
0.01199240565
0.01017756983
0.01076204173
0.01509350776
0.01908076938
0.01949879776
0.01771674613
0.01533014937
0.01557201586
0.02184015342
0.01173369091
0.008680356342
0.007517125395
0.008978946177
0.01062382732
0.01233517736
0.01355390837
0.01441716208
0.01528675415
0.01620496048
0.01647649463
0.01690422209
0.01711008145
0.0172227459
0.0236664993
0.08478834909
0.01881494322
0.01088266055
0.01035690111
0.01107617058
0.01297492886
0.01484146592
0.01424123737
0.01262785799
0.01571442269
0.03015228453
0.0123870392
0.008273988281
0.006842303952
0.009966827136
0.01208518
0.01345892176
0.01453203598
0.0160874161
0.01901940037
0.01754678107
0.01760495121
0.0177102575
0.01686209415
0.01554556412
0.0175852419
0.01453994982
0.01077293622
0.01199659969
0.01350593235
0.01059916112
0.009781231682
0.01066393536
0.009603303991
0.0100726659
0.01393978342
0.00862861385
0.006950140359
0.006041757533
0.009475234633
0.01156692223
0.01331952551
0.01462549254
0.01571232212
0.01677158527
0.0172684595
0.01750155331
0.01701857382
0.01586004409
0.01418733387
0.01223997777
0.01057110949
0.01138818502
0.01461723715
0.01547433959
0.01168163698
0.009508281399
0.008916666735
0.01019422813
0.008581346431
0.009212005318
0.0079151937
0.006673548458
0.005449102065
0.009705447756
0.01089424066
0.01232416359
0.01377321177
0.0149445128
0.01573741176
0.01622696741
0.01633356426
0.01584347028
0.01477963871
0.01329305583
0.01163503741
0.01030012861
0.009551623781
0.01056972163
0.01202607186
0.01129192435
0.01240911759
0.01107877664
0.01517031601
0.01216425677
0.01412363694
0.01330295707
0.01067345029
0.007826257842
0.01113815062
0.01148033798
0.01177450178
0.01236125445
0.01342309545
0.01443037825
0.01493035594
0.01537720881
0.01677518185
0.02006720822
0.02141395285
0.01805533614
0.01266416773
0.009598146557
0.008671384972
0.009442432744
0.01077166924
0.01201996725
0.01534971035
0.02283406496
0.02072910172
0.02431283026
0.02076160403
0.0171130878
0.01316334607
0.009011311449
0.01333437122
0.0136483802
0.01338467472
0.01276227968
0.01289935899
0.01421228163
0.01703131078
0.0225125442
0.03071307493
0.03907951617
0.04076128363
0.03458809872
0.02546519904
0.01596879839
0.009180093666
0.00753908703
0.008467147205
0.01235767907
0.0197201114
0.02803257602
0.02772975068
0.03599286133
0.02741192152
0.02011030734
0.01484785876
0.009914087739
0.00166935311
0.002720078886
0.004424083317
0.005890524413
0.006991909238
0.007724233101
0.008318778105
0.008885984102
0.009440310153
0.009958027437
0.01043121413
0.01089064234
0.01137729711
0.01186103299
0.01215227034
0.01193341259
0.01107247049
0.01010087856
0.0100821981
0.01116450812
0.01252651526
0.01386263786
0.01449173373
0.01367893858
0.01205802257
0.01204745029
0.003778655499
0.004869717331
0.006263024619
0.007715744674
0.00871053974
0.009299781364
0.009739085948
0.01023152213
0.01085114762
0.01159089919
0.01245074092
0.01347407082
0.0146953447
0.01600171658
0.01697352063
0.01698368921
0.01578374666
0.01411662016
0.01348542093
0.01479954369
0.01682910654
0.01902276264
0.02043372259
0.01960229254
0.01727192128
0.01668070477
0.005299822232
0.006493420464
0.007974950509
0.009294933209
0.01011787579
0.01043907571
0.01057901679
0.01085052179
0.01139733274
0.01222564585
0.01333681374
0.01478592
0.01660378453
0.01861298254
0.02027341351
0.02086142162
0.01990127489
0.01790176316
0.01698219718
0.01884680727
0.02210728384
0.02671745121
0.03106771386
0.03070568355
0.02661354055
0.02331716692
0.006056289136
0.007590555171
0.009127910665
0.01042518596
0.01116415049
0.01132631296
0.0113054374
0.01148916389
0.01203129947
0.01290572063
0.01408922294
0.01563629765
0.01757511838
0.01970594513
0.02154141928
0.02259954406
0.02239863819
0.02085285582
0.02012616088
0.02288049456
0.02928156164
0.03979028109
0.0488994247
0.04993497555
0.04199592018
0.03289297518
0.006628693221
0.008171603878
0.009803270473
0.01120769853
0.0120363459
0.01226036895
0.01229133092
0.01252073307
0.01309822184
0.01399438557
0.01517427521
0.01667803273
0.01853282729
0.02054618242
0.02237623242
0.02367874288
0.02403182696
0.02310272351
0.02294142401
0.02710095965
0.03810094566
0.05400273457
0.06784539354
0.0709726466
0.06140733312
0.04575092393
0.006995709522
0.008472289949
0.01017552251
0.01175175657
0.01283715142
0.0133302868
0.01355237745
0.01385749379
0.01444126631
0.01533473898
0.01649549175
0.01790113229
0.01954864786
0.02133085254
0.02304475414
0.02438735642
0.02494590029
0.02442278126
0.02493522605
0.03047736479
0.04442758434
0.06447257717
0.08208406109
0.08767235621
0.07904217609
0.06076144689
0.007347123532
0.008737512804
0.01048981306
0.01227829564
0.01374543575
0.01463131947
0.01508592532
0.0154385363
0.01601293074
0.01693712349
0.01813868646
0.01944528608
0.02074546199
0.0220315204
0.02335491718
0.02453169982
0.02506481965
0.02487325058
0.02592865376
0.03178904099
0.04577849081
0.06686269008
0.08682141811
0.09555494991
0.09052787049
0.07492164128
0.007784207642
0.009123666153
0.01093999314
0.01296038098
0.01483913124
0.01613605518
0.0168136817
0.0171989235
0.01774684381
0.01883334961
0.02031851041
0.02173202673
0.02269774205
0.0232416806
0.02374210656
0.02457122028
0.02537616264
0.02569986004
0.02669472603
0.03153054742
0.0426257194
0.06111614398
0.08135872797
0.09344935604
0.09363682837
0.08434607413
0.008366321158
0.009733206116
0.01165039237
0.01388310514
0.0160979549
0.01773079469
0.01855364039
0.01887890732
0.01963818783
0.02124475589
0.02343122786
0.02541583982
0.02651774284
0.02670716575
0.02669904904
0.02750555369
0.02893121006
0.02927681286
0.02890876508
0.03125666504
0.03770145965
0.05036617752
0.06820701054
0.0831250818
0.08953190648
0.08871694749
0.009107272626
0.01061565369
0.01264620708
0.01501389985
0.01741941947
0.01924946885
0.02009862125
0.02066894094
0.02198400973
0.02449017641
0.02777392779
0.03077364457
0.03262326551
0.03331192898
0.03377192574
0.03580279636
0.03854527888
0.03777502793
0.03461948585
0.03368814945
0.03541547852
0.04089116463
0.05248048213
0.06921132918
0.08351133401
0.09220997963
0.009964428765
0.01172988527
0.01382303583
0.01620701604
0.01865520112
0.02058374375
0.02156916479
0.02265692207
0.02487526113
0.02862752061
0.03331035644
0.03765095553
0.04078915919
0.04299793253
0.04565988829
0.05164093986
0.05829678121
0.05533232624
0.04663045745
0.0405247492
0.03846211895
0.03961917278
0.04594745876
0.06083988489
0.0820477492
0.09937046177
0.01083455616
0.01290567897
0.01492700642
0.01720317381
0.01961984322
0.02168244647
0.02307147056
0.02490018231
0.02825344858
0.03344254872
0.03968746619
0.04562846621
0.05062361626
0.05556044932
0.06333099912
0.0779298699
0.09128978061
0.08677691722
0.06897010454
0.05302248985
0.04527887504
0.042687679
0.04521591616
0.05921362926
0.08831983624
0.1177199308
0.01159199874
0.01391059727
0.01563635006
0.01766624238
0.02007017524
0.02248135568
0.02468227539
0.02736099122
0.0317871515
0.03832270223
0.04608434746
0.05375524576
0.06110115069
0.07006097338
0.08566477555
0.110399703
0.1297239317
0.1268658938
0.1032979947
0.07432845416
0.05666205537
0.04956839488
0.0487591481
0.06676686302
0.1193071893
0.1701672228
0.01218676028
0.0146720569
0.01585064808
0.01743213506
0.01977419869
0.02272661247
0.02617278047
0.03004848542
0.0350091752
0.04236507227
0.05128755409
0.06051273729
0.07026831091
0.08345415783
0.1053204847
0.1348126267
0.1565465896
0.1575493357
0.1379698198
0.1044435415
0.07562053979
0.06264020611
0.06129892288
0.09891000219
0.2000403597
0.2603004013
0.01271798847
0.01550296979
0.01608901733
0.01699215829
0.01899034504
0.02232042791
0.02761197368
0.03391723416
0.03784107766
0.04485256935
0.05408206276
0.06405918418
0.0751437838
0.09007662587
0.1125493494
0.1409675231
0.1630362084
0.1684276434
0.1583344608
0.134407851
0.1039731793
0.08549384067
0.07467808004
0.1260197762
0.2566160938
0.3135681614
0.0133225539
0.0168708998
0.01735527797
0.0175877204
0.01906937794
0.02370971342
0.0367956018
0.04824381653
0.0409720372
0.04538023283
0.05375550869
0.06291567693
0.07281516573
0.08574214387
0.104858234
0.1295544804
0.1510587773
0.1603375113
0.1580549658
0.1413099507
0.1244013
0.1125782982
0.0886180254
0.09497235848
0.227036454
0.3077412666
0.01394560327
0.01866496768
0.01993292346
0.0204800871
0.02321483648
0.03927966905
0.09855690789
0.1174848273
0.05037643666
0.04480739848
0.05119196602
0.05790096732
0.06483992177
0.0721035113
0.0815569604
0.09478786036
0.1100300854
0.1217564898
0.1263131528
0.1265638225
0.1294647527
0.1255900105
0.09806575292
0.06385854918
0.1112993906
0.2199540707
0.01434980831
0.02041838826
0.02301877607
0.02615879832
0.03945764513
0.1113803426
0.2183550617
0.287005331
0.06522315895
0.04395773793
0.04360419494
0.04983741985
0.05502048056
0.05972884998
0.06452608095
0.07056666751
0.07821959964
0.08653578291
0.09465607977
0.104704488
0.1128499043
0.1090817079
0.08165334476
0.04377626169
0.04741595576
0.09684772383
0.01407107595
0.02106573922
0.02416852941
0.0261882691
0.0281431613
0.03190490815
0.06349840918
0.04419091608
0.02595276637
0.02894224973
0.03475381389
0.0411871116
0.04620576135
0.05016898304
0.0536939925
0.05730935264
0.06124585627
0.06537079466
0.07000475155
0.07719596118
0.08185753007
0.07470935372
0.05285002779
0.02812981427
0.02241787927
0.03677283949
0.01287077194
0.02008384233
0.02441175264
0.02710832471
0.02823439298
0.02745275802
0.0254778973
0.02127586538
0.01666949422
0.02000253701
0.02632177273
0.03309464632
0.03848757111
0.04232083719
0.04535059833
0.04811225145
0.05046224077
0.05207478557
0.05314215262
0.0549969806
0.0553630017
0.04836200279
0.03336428003
0.0191339467
0.0134240163
0.01635772937
0.01119317521
0.01657613891
0.02182258446
0.02657550217
0.02907217069
0.02877736632
0.02583798267
0.02049012274
0.01608741871
0.01513298218
0.01712215858
0.02305071767
0.02979171635
0.03463919156
0.03766781043
0.03972422784
0.04119632397
0.04165361802
0.04097277205
0.04007478329
0.03897402963
0.03118351711
0.022794724
0.01431714363
0.01006289725
0.01027430093
0.01025606759
0.01328490108
0.0165006324
0.02067043493
0.02462231129
0.02573440329
0.02362335895
0.02005559279
0.01647058274
0.01500521114
0.01435633289
0.01490219733
0.01904268917
0.02508268623
0.029291567
0.0318241569
0.03273319175
0.03255817625
0.03135704203
0.02957493842
0.02691263563
0.02145767333
0.01604962314
0.01126824237
0.008529482505
0.008327613327
0.01011674582
0.01257675171
0.01459062808
0.0168311794
0.01932520217
0.02069894402
0.01983799044
0.0181022192
0.01652854261
0.0155783604
0.01578928067
0.01896292237
0.01351764287
0.01507744117
0.01996614538
0.02360107569
0.02526088277
0.0252177389
0.02401377791
0.02256359179
0.02164250371
0.02098825103
0.01288604844
0.009445687615
0.008322767827
0.009105624485
0.01012803364
0.01308925202
0.01475835316
0.01582526141
0.01698120484
0.01752991949
0.0179840397
0.01786223111
0.01819933057
0.01911715563
0.02585010502
0.05878225688
0.02031263793
0.01230394271
0.01225300587
0.01519756064
0.01856807591
0.01937421221
0.01895989658
0.01919449152
0.02421771591
0.0418099928
0.01421265095
0.009045889778
0.01062972484
0.01126486782
0.009659583243
0.01517071865
0.01632436332
0.01577903687
0.01718114494
0.01784114037
0.01856361805
0.0195261056
0.02121727514
0.02970420609
0.08725523939
0.267053759
0.06500915195
0.01832716408
0.0123000412
0.01251563418
0.01275100774
0.01422309058
0.01487436762
0.01698862993
0.03877129733
0.04760415842
0.0239143478
0.008104732878
0.007351217309
0.009105866133
0.0127477397
0.02054328371
0.01550524069
0.01720017136
0.02528549439
0.02266778734
0.02122136053
0.02115793783
0.02083790022
0.02603177864
0.05302983824
0.02550347891
0.01520454408
0.01451243224
0.01684277826
0.01170999475
0.01018075419
0.01118719449
0.01122188617
0.01473548463
0.02239384281
0.009475849113
0.006577193153
0.006034438293
0.009228983917
0.01315638279
0.01402244301
0.01575000067
0.01757983636
0.01912672182
0.02002436842
0.02045750766
0.01962962884
0.01796170648
0.0164139827
0.01758865955
0.01343650793
0.01243613205
0.01697822598
0.01868750271
0.0146306526
0.01253313493
0.01159145209
0.01158231939
0.01077692752
0.01073957144
0.008251759024
0.006251757854
0.005210800769
0.009797965315
0.01141723569
0.01291607533
0.01463057638
0.01664535803
0.01784014276
0.01916821729
0.01951049966
0.01898420049
0.01712757086
0.01426112029
0.01163120626
0.009942850746
0.01088247031
0.01568190041
0.01839155751
0.01734606701
0.01782981915
0.01670045167
0.0174290834
0.01491407258
0.01481061224
0.01406266989
0.009782482915
0.006463121632
0.01114831229
0.01257743084
0.01311146402
0.01375551672
0.01488558157
0.0161667266
0.01723112658
0.01804844737
0.01874530603
0.01843488927
0.01611449806
0.01295981711
0.01028694528
0.009580420415
0.01089361
0.01490281264
0.01653557438
0.01924415103
0.02177824205
0.02723360105
0.02680993839
0.02689255098
0.02446292732
0.0165019113
0.008513003742
0.005833452238
0.01297934048
0.01493109806
0.01517908172
0.0148788421
0.01491520505
0.01543493822
0.01646692155
0.01817806032
0.02073928239
0.02268242143
0.02079170491
0.01791869413
0.0139362028
0.01080701595
0.009369122684
0.009295581898
0.0114363558
0.0152761037
0.02483663115
0.03478697817
0.03810449852
0.0423351275
0.03288598449
0.0214289019
0.01085199846
0.006395368127
0.001353502686
0.002181304951
0.003851419917
0.005401520722
0.006590763141
0.007389525302
0.008005181876
0.00856613179
0.009097352888
0.009568716349
0.009945822206
0.01022338091
0.01042573545
0.01056203479
0.01056234429
0.01029375458
0.009763679139
0.009341707697
0.009525646337
0.01026018093
0.01108908174
0.01185429586
0.01228222575
0.01217735048
0.01185831084
0.01198391591
0.003392614567
0.004149084909
0.005336905341
0.006813754381
0.007963823285
0.008685620963
0.0091835713
0.009678207034
0.01026814276
0.01093780106
0.01164571053
0.01238401731
0.01315917833
0.01389918142
0.01436485934
0.0142250715
0.01338925368
0.01230129755
0.01173850954
0.01222391765
0.01333346432
0.01471523669
0.01582134911
0.01596734443
0.01536109007
0.01505402997
0.004972918397
0.005684795633
0.006876260548
0.008285725799
0.009329269276
0.009819172458
0.009998264599
0.01018659673
0.01058301843
0.01123015691
0.01211745081
0.01325538038
0.01464017587
0.01614356744
0.01742402035
0.01797744943
0.01740942681
0.01590762851
0.01454280418
0.01490914289
0.01703147734
0.02052183494
0.02409741765
0.02509384651
0.02307481421
0.02005251873
0.005872706983
0.006859967558
0.008119159066
0.009491669598
0.01045554759
0.01076662808
0.01069170459
0.01063851109
0.01089062429
0.01152741117
0.01254417368
0.01395114489
0.01572573764
0.01770173608
0.01953735269
0.02078221852
0.02085870789
0.01943014727
0.01762109117
0.0185636192
0.02368975536
0.03273113144
0.04201899296
0.04447117879
0.03896316641
0.02986168134
0.006493376634
0.007566014243
0.008882140502
0.0102877475
0.01127677854
0.01155318975
0.01138628359
0.01122895556
0.01143396037
0.01212991499
0.01331203896
0.01494991335
0.0169452485
0.01904042456
0.02088276876
0.02241269853
0.02322136749
0.02238550088
0.020856594
0.02338674713
0.03348949333
0.05027725002
0.06548709226
0.0696127745
0.06171034973
0.04610887549
0.006896085292
0.007952650046
0.009266419842
0.01067719902
0.01173280354
0.01208664254
0.01196287719
0.01181051646
0.01204757365
0.01287981479
0.01428973657
0.01615306559
0.0182704939
0.02029529852
0.02213776452
0.02370288515
0.02472211109
0.02446044996
0.02362672312
0.0280602101
0.04240641323
0.06415855992
0.0835119161
0.09021485721
0.08352133223
0.06619304714
0.007286961388
0.008284901545
0.00952752281
0.01087146526
0.01197391832
0.0124519227
0.01243945176
0.01235660326
0.01269872181
0.0137668966
0.01550563245
0.01764150538
0.01991033511
0.02215347715
0.02427891416
0.02591646971
0.02657319373
0.02604025315
0.02583394459
0.03145047776
0.04715654104
0.07086962212
0.09295490113
0.1025405598
0.09888583594
0.08433865932
0.007753717305
0.00870880894
0.00986379574
0.01109675186
0.01217939607
0.01274250701
0.01284471337
0.01289776641
0.01347478992
0.01492697083
0.01713466784
0.01959513362
0.02199946715
0.02435438387
0.02667957655
0.0286531303
0.02861920168
0.02776501301
0.0281438316
0.03386798117
0.04836828952
0.07099328232
0.09369790596
0.1056972438
0.1054356463
0.09624671774
0.008329291961
0.009289384232
0.01038924101
0.0115298907
0.01252884643
0.01307689187
0.01327831472
0.01359475442
0.01445246041
0.01643337403
0.01938336871
0.02247244814
0.02507447684
0.02720577373
0.02903929496
0.03051909356
0.03101523785
0.03084923367
0.03164957188
0.03608947257
0.04731581654
0.06609677281
0.08713638339
0.1010544502
0.1048683819
0.1021719798
0.009009060879
0.0100476132
0.01112983495
0.01222108429
0.0131134923
0.01356348651
0.01388897433
0.01438010909
0.01573493501
0.01864211384
0.02281262841
0.02698966507
0.03017737204
0.03243501489
0.03437152453
0.03637030166
0.03815517254
0.03857703847
0.03835809655
0.03974535509
0.04641338183
0.05955726962
0.07716769014
0.09254637587
0.1017305462
0.1061696841
0.009761108815
0.01097694653
0.01203987024
0.0130983211
0.01391037877
0.01424858309
0.01463450963
0.01547993739
0.01766070731
0.02192153212
0.02772032833
0.03336544905
0.03765679208
0.041006837
0.04492074094
0.05027167126
0.05517140762
0.05566084383
0.05202363159
0.04781598276
0.04923931877
0.05698451672
0.07022930667
0.08669344776
0.1021859691
0.114024719
0.01052981969
0.01202805315
0.01301101227
0.01402333581
0.01484986353
0.01522715457
0.01574324711
0.01706915853
0.02030729294
0.02620208411
0.03382786524
0.04114436081
0.04707074369
0.05282197101
0.06132344194
0.0739456726
0.08532698746
0.08648699625
0.07729041083
0.063450924
0.05684231435
0.05953268665
0.06940143648
0.08827296481
0.1134812792
0.1349345462
0.01124832714
0.01311680611
0.01390561627
0.01482962168
0.01580775384
0.01652839479
0.01737460975
0.01931566109
0.02348082243
0.03087471641
0.04019600096
0.04921194031
0.05726549253
0.066744478
0.08218286643
0.1045821295
0.1235410352
0.126747263
0.1139909803
0.08973040269
0.07117269981
0.06734788941
0.07525096896
0.1020425742
0.1470737905
0.1833598381
0.01187674899
0.01420575419
0.01467523751
0.01540243085
0.01656035399
0.01788939639
0.01957141986
0.022542543
0.0269505453
0.03507556807
0.04549680992
0.05593784406
0.06605465003
0.07915783933
0.1003986866
0.128873706
0.1514932135
0.1580029707
0.1484542209
0.1222471086
0.09419599867
0.08272711459
0.08943029175
0.1313103182
0.2086730283
0.257012028
0.01244261245
0.01542352795
0.01559340895
0.01599051454
0.01714418307
0.01912353603
0.02272711019
0.02840074987
0.03076655317
0.03838258006
0.04870695402
0.0597999905
0.07092299548
0.08533041816
0.1076898671
0.1365056723
0.159823229
0.169331686
0.1655754862
0.1468220799
0.1210911873
0.1055317583
0.1057554462
0.1508846231
0.2523462632
0.3011963165
0.01301537724
0.01704664802
0.01732971695
0.01750118002
0.0185806431
0.02207099399
0.03294297142
0.05025364521
0.03608354414
0.04075350921
0.04962024987
0.06013793825
0.07072948568
0.08380269184
0.1033880338
0.1293258694
0.1522555753
0.163533397
0.1630191291
0.1520784904
0.1369878454
0.1247428736
0.1158516181
0.1425035877
0.2475388575
0.3043541509
0.01358487587
0.019190478
0.02035328646
0.02100439486
0.02349873227
0.03943794032
0.09864176441
0.1440081795
0.05858866733
0.04253302277
0.04831815912
0.05689982302
0.06522236976
0.07415171642
0.08638475968
0.1039518252
0.1233019883
0.1367309797
0.1409569199
0.1390403637
0.134540569
0.1286518308
0.1158121394
0.1085253861
0.1693841165
0.2619649139
0.01394833525
0.02154830587
0.0242147352
0.02649452881
0.03400279007
0.09163624349
0.2322411358
0.2173271143
0.151171624
0.04430373332
0.04295890562
0.04936847598
0.05536702455
0.06111907041
0.0673157057
0.07538902176
0.08556207407
0.09615943466
0.1054536264
0.113491993
0.1177440172
0.1146954356
0.09838822278
0.0703192605
0.07637106963
0.1414509577
0.01361622285
0.02263885173
0.02629309121
0.02806830399
0.02988484225
0.03608923439
0.07897963272
0.1166833147
0.08088437341
0.03071559265
0.03419026803
0.0405974565
0.04593705158
0.05026546617
0.0542713295
0.05852597855
0.06338549807
0.06885312451
0.07498950239
0.08211529047
0.08698105771
0.08321709129
0.06751837888
0.04162739569
0.03347513799
0.05486791295
0.01242262337
0.02098805341
0.02624586645
0.02853998304
0.02968832792
0.03013255573
0.02987472168
0.02639893407
0.0196996029
0.0192950837
0.02508124391
0.03239496489
0.03813411566
0.04172497755
0.04449791112
0.04720331582
0.04977214048
0.05198310486
0.05387411628
0.05569469873
0.05591667504
0.0510940256
0.04010016867
0.02445700956
0.01781421541
0.02272958042
0.01101210255
0.01689649687
0.02306747844
0.02741765306
0.0290475723
0.02875250489
0.02765309781
0.02457912471
0.01940984687
0.01650533624
0.01690288551
0.02175478944
0.02899591175
0.03381529514
0.03616523794
0.03770685128
0.03899632302
0.03968617401
0.03937425773
0.03831068263
0.03627810975
0.03078463901
0.02519267446
0.01593372559
0.01190819495
0.01253811273
0.01015616562
0.01327277251
0.0171010779
0.02164735296
0.02487138081
0.02513440466
0.0233582742
0.02079659875
0.01803139646
0.01677541536