/*--------------------------------*- C++ -*----------------------------------*\
  =========                 |
  \\      /  F ield         | OpenFOAM: The Open Source CFD Toolbox
   \\    /   O peration     | Website:  https://openfoam.org
    \\  /    A nd           | Version:  8
     \\/     M anipulation  |
\*---------------------------------------------------------------------------*/
FoamFile
{
    version     2.0;
    format      ascii;
    class       volScalarField;
    location    "0.8";
    object      nut;
}
// * * * * * * * * * * * * * * * * * * * * * * * * * * * * * * * * * * * * * //

dimensions      [0 2 -1 0 0 0 0];

internalField   nonuniform List<scalar> 
67410
(
0.000125224048
0.0002340108586
8.074381301e-05
9.178936438e-05
9.836412011e-05
0.00010267079
0.0001063618215
0.0001100185719
0.0001136751916
0.000117294487
0.0001210527837
0.0001252560972
0.0001299235814
0.0001344025665
0.000137364903
0.0001369700579
0.000131355802
0.000122582726
0.0001223802796
0.0001340673298
0.0001483885533
0.0001614881673
0.0001681759686
0.0001600500119
0.0001336031864
0.0001301637283
0.0001147340538
8.328711421e-05
9.526815485e-05
0.0001035701316
0.0001085651445
0.0001122567896
0.0001159931494
0.0001202742136
0.0001250498268
0.0001302218397
0.0001359639263
0.0001424605961
0.0001493509208
0.0001555944109
0.00015978852
0.0001602821191
0.0001555111761
0.0001476998517
0.0001503954655
0.000170261589
0.0001924729988
0.0002107389642
0.0002207511425
0.0002148640807
0.0001779622768
0.0001649590619
8.145405783e-05
9.618892464e-05
0.0001045864573
0.0001102402919
0.0001141286928
0.0001176703595
0.0001218832872
0.0001269964428
0.0001326438717
0.0001385076164
0.0001447191457
0.0001514937799
0.0001584978188
0.0001647899793
0.0001692198278
0.0001704075497
0.0001672924151
0.0001637069308
0.0001744438661
0.0002008556571
0.0002253552229
0.0002436810254
0.0002548640712
0.0002545822119
0.0002237990015
0.00019963483
8.765765757e-05
0.0001028634563
0.0001097889539
0.0001146833876
0.000118730385
0.0001231318845
0.0001285470909
0.0001347018888
0.000140797054
0.0001463506167
0.0001515936867
0.0001570644134
0.0001628745797
0.0001684380708
0.0001728446166
0.0001746023479
0.0001731821515
0.0001752998522
0.0001946479998
0.0002243053216
0.0002482266744
0.0002665608529
0.0002811006063
0.0002851818577
0.0002615577383
0.0002308388582
9.120450283e-05
0.0001064845729
0.0001132490035
0.000118669798
0.0001239964799
0.0001301004688
0.0001370196156
0.0001439310558
0.0001498840903
0.0001544874721
0.0001580350069
0.0001612437823
0.0001647918724
0.0001688236201
0.0001726219443
0.0001746053643
0.000175063236
0.0001829618132
0.0002082590346
0.0002390645012
0.0002635372846
0.0002861479438
0.0003051325677
0.0003116980174
0.0002889782069
0.0002519883419
9.346460753e-05
0.0001089756713
0.0001164365311
0.000123371769
0.0001307632351
0.0001387731512
0.0001467393083
0.0001537092066
0.000159111014
0.0001628819068
0.000165161456
0.0001662299014
0.0001667233569
0.0001675838336
0.0001692011015
0.0001707746551
0.0001733065274
0.0001850080951
0.000211916786
0.000243447041
0.0002711855726
0.0002983906751
0.0003207191974
0.0003281320001
0.0003061781486
0.0002618827535
9.55287428e-05
0.0001115485342
0.0001204649694
0.0001296033518
0.0001391556506
0.0001484113518
0.0001564422815
0.000162760979
0.0001674992683
0.0001710669774
0.0001733677543
0.0001738662449
0.000172181551
0.0001690821815
0.0001666932108
0.0001672189833
0.0001716701076
0.0001817897124
0.0002030053094
0.0002343049726
0.0002658241795
0.0002965638253
0.0003209070089
0.0003280228812
0.0003073335365
0.000264823725
9.818252088e-05
0.0001151621379
0.0001261128634
0.0001375104981
0.000148467216
0.0001578334065
0.0001650500318
0.0001703977265
0.0001748602627
0.0001789201454
0.0001822642138
0.0001839150349
0.0001826949776
0.0001784530295
0.0001744842449
0.0001765268686
0.0001834956468
0.0001852429808
0.0001858407761
0.0002093445017
0.0002408526642
0.0002735846311
0.0002990596866
0.0003058878803
0.0002906848579
0.0002695169745
0.0001019914502
0.0001205177329
0.0001335751476
0.0001464859324
0.0001576595023
0.0001662531344
0.0001724368358
0.0001773614211
0.0001821448662
0.0001871517367
0.0001918715635
0.0001951030578
0.0001956184448
0.000193841747
0.0001950945929
0.000206250397
0.0002192763036
0.0002122663804
0.0001798793916
0.0001842406065
0.0001994722884
0.0002231582885
0.0002474914727
0.0002637254858
0.0002711810169
0.000278726354
0.0001070445746
0.0001276041716
0.0001421718743
0.000155441537
0.0001659161306
0.0001734833335
0.0001790642055
0.0001841877251
0.0001898242138
0.0001961400439
0.0002023617108
0.000207046856
0.0002093183644
0.0002121397692
0.0002249377301
0.000249757046
0.0002689030691
0.0002575643831
0.0001969512905
0.0001855931325
0.0001862210231
0.0001963103096
0.000214782737
0.0002392107909
0.0002674463507
0.0002925439389
0.0001127401347
0.0001352856051
0.0001504234505
0.0001632210708
0.0001727724257
0.0001796189218
0.0001851894676
0.0001910224596
0.0001979154662
0.0002057967091
0.0002135856001
0.0002197061532
0.000224370641
0.0002347555517
0.0002620425681
0.0002973500534
0.0003192103866
0.0003091035757
0.0002332649036
0.0002003096603
0.0001909021444
0.0001952644833
0.0002111175966
0.0002448045668
0.0002886070381
0.0003269641117
0.0001179378922
0.0001415911295
0.000156515994
0.0001687974141
0.000177952728
0.0001847765716
0.0001908657054
0.0001977352639
0.0002060726236
0.0002155793866
0.0002249195742
0.0002327584419
0.0002415845486
0.0002627098954
0.0003021117808
0.0003425236577
0.0003675305114
0.0003635461745
0.0002890969257
0.0002268156341
0.0002011955981
0.0002026902556
0.0002167860851
0.0002735030849
0.0003447872057
0.0003952253388
0.0001216119922
0.0001447790084
0.0001588323529
0.0001710971697
0.0001809283605
0.000188758134
0.0001958847989
0.0002039132111
0.0002136116429
0.0002245954222
0.0002354622276
0.0002456765123
0.0002606253274
0.0002925166062
0.0003392395115
0.0003828462074
0.0004111556823
0.0004128703995
0.0003492269313
0.0002669713874
0.0002170382165
0.0002232792232
0.000246061663
0.0003352545237
0.0004260140765
0.0004846721466
0.0001237425545
0.0001447106839
0.0001566663149
0.0001688859386
0.0001804026847
0.0001905034489
0.0001994530666
0.0002087414927
0.0002195507684
0.0002316878673
0.0002439895076
0.0002568981564
0.0002775146875
0.0003159509959
0.0003656063977
0.0004103528076
0.0004392995688
0.0004431335568
0.0003914074125
0.0003027678057
0.0002405017124
0.0002595420722
0.0003048141997
0.0004135961425
0.0005120300581
0.0005743215441
0.0001255738762
0.0001439708747
0.0001520757716
0.0001621661557
0.0001745643482
0.0001875432199
0.0001995268998
0.0002106560252
0.0002225949268
0.0002353711891
0.0002482660727
0.0002616355443
0.0002817445506
0.0003184981903
0.0003675561073
0.0004125122998
0.0004415577155
0.00044568202
0.0003985010316
0.0002956773906
0.0002760531005
0.0003078728519
0.0003649431234
0.0004724982884
0.0005731835743
0.0006266110745
0.0001280302443
0.000145849426
0.0001506352403
0.0001558018
0.0001648930582
0.0001790944982
0.0001994775285
0.0002110073542
0.000219103655
0.000231339435
0.000242455489
0.0002507573461
0.0002567583087
0.0002683820389
0.0002999750029
0.0003485765867
0.0003861104987
0.0003851769625
0.0003283600222
0.0003029253044
0.0003380166979
0.0003564708737
0.0002801160859
0.0003462558782
0.0004940334877
0.0005789680644
0.0001304457571
0.0001496856316
0.000154283767
0.000156062094
0.0001604005872
0.0001853947766
0.0002580353536
0.000256400884
0.0002095515844
0.0002199627778
0.0002298241125
0.0002359471606
0.0002381173852
0.0002398327362
0.0002510825128
0.0002786899751
0.0003080642296
0.000312163972
0.0003008198283
0.0003415659871
0.0003819116653
0.0003949565895
0.0003338875339
0.0002876611291
0.0003908739814
0.0004840263035
0.0001319115322
0.0001533662145
0.0001596477155
0.0001623775577
0.0001828892601
0.0002810136252
0.0004460919403
0.0004582344694
0.0002395528257
0.0002038085727
0.0002131321755
0.0002205688933
0.0002259456902
0.0002300386782
0.0002354671929
0.0002450661574
0.0002578646417
0.0002636216579
0.00026377651
0.0002977899323
0.0003415083447
0.0003603740647
0.000308114133
0.0002471501502
0.0002919966407
0.0003754870513
0.0001312630058
0.0001552022889
0.0001638635463
0.0001667660862
0.0001629595707
0.0001602896192
0.0002053585187
0.0002032504519
0.0001722548136
0.0001881837439
0.0001989469345
0.0002078087045
0.0002159243833
0.0002235453439
0.000229991827
0.0002355347209
0.0002402773586
0.0002425046026
0.0002416259098
0.0002516395876
0.0002826963517
0.0003063484378
0.0002629648513
0.0002089442961
0.0002065871384
0.0002699693088
0.0001262832544
0.0001528821558
0.0001632666007
0.0001680388791
0.0001659070264
0.0001567729705
0.0001482822077
0.0001414933285
0.0001427182639
0.0001617812932
0.0001812545413
0.0001939897476
0.0002043468449
0.0002138152655
0.0002217740781
0.0002275955789
0.0002311446649
0.0002318002041
0.0002290903706
0.0002240868624
0.0002325516041
0.0002489398854
0.000218466728
0.0001767694075
0.0001504215964
0.0001838584572
0.0001164818466
0.0001406495946
0.0001504004377
0.00015612245
0.0001583175252
0.0001552588516
0.0001478308766
0.0001392418444
0.0001346841957
0.0001353071585
0.0001482216033
0.0001714372057
0.0001881502876
0.0001996637688
0.0002085545978
0.0002150462487
0.000218653643
0.0002188664191
0.0002150752224
0.0002054694719
0.0001997110175
0.0002011124897
0.0001819409713
0.0001534240715
0.0001241010103
0.0001357694506
0.0001116181703
0.0001292882515
0.0001357023522
0.0001405471434
0.0001447744121
0.0001480674491
0.0001477521958
0.0001436587162
0.0001392973482
0.0001356707732
0.0001314308781
0.0001340579041
0.0001578672471
0.0001795846451
0.000191606661
0.0001989950709
0.0002029799048
0.0002029161037
0.0001983254822
0.0001879769236
0.0001753362424
0.000163947173
0.0001527441796
0.0001338984052
0.0001119028313
0.0001170330815
0.0001130336512
0.0001302000129
0.0001359890957
0.0001400901041
0.0001433795621
0.0001458159076
0.0001468393963
0.0001461341584
0.0001445880463
0.0001420404165
0.0001373433921
0.0001336156348
0.0001255964509
0.0001427301354
0.0001674721796
0.0001796781632
0.0001858167335
0.0001855395561
0.000178857419
0.0001660404564
0.0001522763565
0.0001432661163
0.0001327305909
0.0001200234112
0.0001042998031
0.0001089195718
0.000114654228
0.0001323338056
0.0001380717847
0.0001419105778
0.0001449804717
0.0001474849663
0.0001490202604
0.0001500565417
0.0001503295309
0.0001487256452
0.0001471858139
0.0001744938133
0.0001318779288
0.0001208564433
0.000124174316
0.0001470917606
0.0001653561278
0.0001671188982
0.0001592964179
0.0001482572153
0.0001497498371
0.0001786140377
0.0001300075383
0.000111608302
0.0001039119452
0.0001137462604
0.0001139855556
0.000132921507
0.0001393261137
0.0001436985643
0.0001480037925
0.0001524242741
0.0001536133021
0.0001555814134
0.0001565615765
0.0001578754482
0.0001928086246
0.0003758721037
0.0001716281279
0.0001256991976
0.0001218590392
0.00012595686
0.0001364197861
0.0001458758507
0.0001428547192
0.0001347549088
0.0001512753656
0.0002098496819
0.0001342349796
0.00010912164
9.908444719e-05
0.0001104194994
0.0001315926156
0.000138844832
0.000144267992
0.0001519036985
0.0001654371514
0.0001585285025
0.0001587183421
0.0001591835642
0.0001553364572
0.0001494717463
0.0001639444123
0.0001451430797
0.0001244748994
0.0001310167816
0.0001389994905
0.0001232780958
0.0001184888615
0.0001236940843
0.000117426558
0.0001204394615
0.0001424337905
0.0001114576432
9.991665792e-05
9.312295314e-05
0.0001077298547
0.0001287457932
0.0001381390248
0.0001447401683
0.0001500282546
0.0001550200231
0.0001572337627
0.0001582635203
0.0001560458321
0.0001506387697
0.0001425233259
0.0001327740834
0.0001232243861
0.000127648659
0.000144607333
0.0001488052342
0.0001293751924
0.0001167298569
0.0001130481908
0.0001207703431
0.0001109270054
0.0001152072052
0.000106554101
9.783992431e-05
8.843384887e-05
0.0001090641687
0.0001249698396
0.0001328812493
0.0001404531254
0.0001462971607
0.0001501158141
0.0001523991259
0.0001528804968
0.0001505627623
0.0001454458602
0.0001379881448
0.0001291102214
0.000121491061
0.0001170001549
0.0001230615013
0.0001312721953
0.0001272166154
0.0001333107101
0.0001259541587
0.0001472713966
0.0001319516869
0.0001421777958
0.0001380233069
0.0001236092938
0.000105893541
0.0001168638466
0.0001283318628
0.0001299344605
0.0001330959223
0.0001386610147
0.0001437519129
0.0001462378107
0.0001485412171
0.0001554159421
0.0001701714263
0.0001757185069
0.0001612282306
0.0001350133254
0.0001173720934
0.0001115081741
0.0001163329662
0.0001242655973
0.0001312300529
0.0001482116894
0.0001806689966
0.0001722197924
0.0001865851169
0.0001724422133
0.0001565115618
0.0001372827743
0.0001136104378
0.0001278830402
0.0001399482657
0.0001385795253
0.0001353482535
0.0001361647968
0.0001430930554
0.0001569197373
0.000180574799
0.0002106036814
0.0002371368762
0.0002419707004
0.0002229069914
0.000191527432
0.0001518663746
0.0001149275576
0.0001039941215
0.0001101650026
0.000133010272
0.0001679368829
0.0002001551582
0.0001992003678
0.000226922219
0.0001982292638
0.000169803242
0.0001458946085
0.0001192407388
9.871861753e-05
0.0001914611976
0.0003112355985
8.625097046e-05
9.393804433e-05
9.872163279e-05
0.0001024470237
0.0001058797662
0.0001091292793
0.0001120817514
0.0001147227379
0.0001172422689
0.0001198587031
0.0001223962251
0.0001238835762
0.0001227394506
0.0001182168278
0.0001129430874
0.000112898155
0.0001188490954
0.0001259302465
0.0001324766033
0.0001353927738
0.0001314512329
0.0001233619977
0.0001232795827
0.0002232639847
0.0001035926139
0.0001117849569
0.0001272068661
0.0001400953341
0.0001476231262
0.0001518250616
0.0001554614187
0.0001600228846
0.0001656974654
0.0001723967931
0.0001804708559
0.0001902935793
0.000200551287
0.0002067967865
0.0002033738792
0.0001891456641
0.0001714668114
0.0001614065563
0.00016402479
0.0001726407877
0.0001839519263
0.0001928191766
0.000190628422
0.0001843941333
0.0001842821247
0.0003130443335
0.0001159425558
0.0001321927662
0.0001521521598
0.0001669145282
0.0001728371755
0.000172756661
0.0001719235975
0.0001740006626
0.0001801355594
0.0001906459134
0.0002061479165
0.0002262273088
0.0002464102923
0.0002595558162
0.0002601017978
0.0002435247803
0.0002135338408
0.0001904735276
0.0001919426773
0.0002117160323
0.0002435641253
0.000272096562
0.0002727107203
0.0002489774228
0.0002292296109
8.009774353e-05
0.000127186511
0.0001510566355
0.0001747361301
0.0001909352105
0.0001946913428
0.0001902460923
0.000185508092
0.0001857759762
0.0001923198691
0.0002051058565
0.0002242663559
0.0002476324849
0.0002665308955
0.0002797559299
0.0002864063815
0.0002804994195
0.0002506062729
0.0002199546187
0.0002260173496
0.0002694540912
0.000335092527
0.0003958852545
0.0004098361868
0.0003724187634
0.0003134061579
8.378894039e-05
0.0001366331693
0.0001651614759
0.0001926662183
0.0002105328998
0.0002135771464
0.0002076766854
0.000202122103
0.0002024529663
0.0002094382216
0.0002223024851
0.0002404085098
0.0002612973457
0.0002781462308
0.0002922999999
0.000302728486
0.000303948413
0.000280604718
0.0002523269916
0.0002690922192
0.0003378382827
0.0004438973872
0.000542653965
0.0005759577435
0.0005321369554
0.0004488884479
8.607752233e-05
0.000142555632
0.0001742393468
0.0002043923555
0.0002243814748
0.0002298235072
0.0002270178835
0.0002241899406
0.0002258027149
0.0002326588089
0.000243717581
0.0002576259406
0.0002730053461
0.0002877893187
0.0003016015726
0.0003138014687
0.000318765784
0.0003027696128
0.0002845766231
0.0003098017697
0.0003964874261
0.0005357215586
0.000666831417
0.0007240494538
0.0006932831643
0.0006139524161
8.822027456e-05
0.0001468302672
0.0001796030209
0.000210987966
0.0002344301325
0.0002462885202
0.0002506890581
0.0002517148576
0.0002527120948
0.0002588246721
0.0002694290769
0.0002803507436
0.0002875371642
0.0002937341221
0.000303123686
0.0003149360076
0.0003225152567
0.0003189799737
0.0003150623145
0.0003413578282
0.0004283576247
0.0005787692839
0.0007331838625
0.000820057219
0.0008230589102
0.0007784114646
9.081926036e-05
0.0001504776249
0.0001824722748
0.0002144376741
0.0002432142452
0.0002645869121
0.0002756638856
0.0002740453976
0.0002736150586
0.0002819725253
0.000297336734
0.0003114703649
0.0003156441945
0.0003064254093
0.0002997722671
0.0003056290422
0.0003216138476
0.0003389178397
0.0003512838003
0.0003672657353
0.0004360143545
0.000569959643
0.0007341052334
0.0008544377621
0.0009085414209
0.0009208536739
9.416895489e-05
0.0001541436254
0.0001843618047
0.0002171664766
0.0002525598032
0.0002832982574
0.000294081934
0.000291600076
0.0002936842225
0.0003090757594
0.0003347260799
0.0003585024642
0.000366953516
0.0003504409127
0.0003234630733
0.000317882841
0.0003413343685
0.0003779489215
0.0004050940016
0.0004068549228
0.0004332367982
0.0005242527104
0.0006828929471
0.0008389854457
0.0009575595997
0.001032020146
9.826279069e-05
0.0001585896839
0.0001868871001
0.0002208272735
0.0002623118045
0.0002982032805
0.000307892635
0.0003086076732
0.0003180670166
0.0003453215934
0.0003854561217
0.0004229754642
0.0004414226951
0.0004274065958
0.0003858419452
0.0003763396579
0.0004122397236
0.0004526895704
0.0004771771136
0.0004750598393
0.000472851808
0.0004925280583
0.0005995073463
0.0007927420977
0.0009841931155
0.001103554232
0.0001027861201
0.0001644527583
0.0001908261261
0.0002251551213
0.0002700247598
0.0003069858476
0.0003195625667
0.0003279852317
0.0003496950806
0.0003928022487
0.000449851505
0.000502485012
0.0005330311034
0.0005296242007
0.0004938708925
0.0005056878432
0.0005526042428
0.0005694517433
0.0005780443943
0.0005603789532
0.0005574500072
0.0005284599919
0.000571485852
0.0007259279534
0.0009714231003
0.001123072411
0.000107169687
0.0001715803423
0.0001951889736
0.0002275486177
0.0002721843913
0.000311012324
0.0003309401254
0.0003512295155
0.0003884076965
0.0004491513081
0.0005236115374
0.0005913452722
0.0006347436408
0.0006470218944
0.0006490718678
0.0007033199977
0.000776021618
0.0007710080142
0.0007252654778
0.0006637667881
0.0006520910462
0.000582080558
0.0005618295588
0.00064816706
0.0009156923584
0.001116905223
0.0001108306156
0.0001793020319
0.0001979631515
0.0002243968106
0.0002649816974
0.0003092078618
0.0003419171756
0.0003770419373
0.0004298809398
0.0005067007953
0.0005965354457
0.0006775778716
0.0007327832639
0.0007637693285
0.0008144730638
0.0009314855617
0.001033712071
0.001029953173
0.0009428527019
0.000828532458
0.0007642262919
0.0006549775876
0.0005751551366
0.0006273689656
0.0009818452214
0.001257208101
0.0001136134372
0.0001884598902
0.000199903129
0.0002159905477
0.0002479205989
0.0002955153459
0.0003466787685
0.0003993698917
0.0004672801297
0.0005547759852
0.0006550808102
0.0007456765272
0.0008108216749
0.0008625734994
0.0009545215172
0.001104512846
0.001222207719
0.001238987369
0.001167445017
0.001052679895
0.0009304610297
0.0007754056906
0.0006419816028
0.0007916671202
0.001301319038
0.0015810701
0.0001160454821
0.0002037295247
0.0002093215779
0.0002122000665
0.0002296148982
0.000266668267
0.0003189220058
0.0003847016748
0.000494955525
0.0005851018505
0.0006887402884
0.0007845399779
0.00085843913
0.0009246455928
0.001026900743
0.001174549164
0.001296514077
0.00134012524
0.001320154734
0.001266621522
0.0011807138
0.001007227554
0.0007315756054
0.0008837384426
0.001470858029
0.001760787664
0.0001187639726
0.0002308738942
0.0002396468261
0.0002298977864
0.0002259354429
0.0002284584674
0.0002526453729
0.000311226724
0.0005039455705
0.000593423066
0.0006974050673
0.0007998149213
0.0008888896965
0.0009662995654
0.001053736261
0.001167023356
0.001275368542
0.001347670193
0.001394726778
0.001400649096
0.001321728489
0.00116833659
0.0009541937202
0.0007246291743
0.001326641464
0.001727864532
0.000121507495
0.0002665891284
0.0002927080173
0.0002771836767
0.0002324775462
0.0002219706948
0.0003920234124
0.0004506558598
0.0004909675791
0.0005780267068
0.0006774026344
0.0007682913754
0.0008540960828
0.000929270029
0.0009966761903
0.00106612811
0.00114469553
0.001227134318
0.001304115282
0.001328712205
0.001293637288
0.001188465907
0.000974049236
0.0005551306275
0.0007258096654
0.001341390968
0.000123263406
0.0002971033646
0.0003416650837
0.0003124133541
0.0002383484697
0.0004150211677
0.0007241902773
0.0008373617204
0.0003856536631
0.0004974802927
0.0005883046473
0.0006926701996
0.0007696676716
0.000834564823
0.0008890552726
0.0009382759351
0.0009903895045
0.001055217603
0.001135061416
0.001196666038
0.00119134023
0.001090628074
0.0008687884481
0.0004431828527
0.0003561889376
0.0006569815851
0.000122037105
0.0003058046176
0.0003701626795
0.000398005748
0.000398379133
0.0003491832828
0.0003866198092
0.0002420599399
0.0002667648016
0.0003408943082
0.0004527869809
0.0005744592856
0.0006675383729
0.000729515317
0.0007782457201
0.0008190749101
0.0008559171048
0.0008940041828
0.0009400717399
0.0009842109599
0.0009703554237
0.0008473269741
0.0006403046531
0.0003221229415
0.0002178250075
0.0002894656992
0.0001167279656
0.0002843516566
0.0003725728046
0.00041828057
0.0004313763912
0.0004033373892
0.0003275760227
0.0002377478458
0.0002100459445
0.0002329427073
0.0003094917539
0.0004248001184
0.0005392136909
0.0006170682546
0.0006650140253
0.0007004219393
0.0007266805812
0.0007447135562
0.0007583581949
0.0007675200606
0.0007402126378
0.0006237079281
0.0004369756814
0.0002431406088
0.0001738197427
0.0001758518178
0.000108860063
0.0002301995313
0.000326475053
0.0004062186071
0.0004450485804
0.0004446114641
0.0004032673737
0.0003252211779
0.0002463967251
0.0002054851343
0.0002082919322
0.0002669145125
0.0003699230114
0.0004743460266
0.0005448452267
0.0005799374237
0.0005998649984
0.0006067838292
0.0006028529578
0.0005933615687
0.0005709159366
0.0004756321615
0.0003213823271
0.0001983201557
0.0001562224053
0.0001529173429
0.0001042082178
0.0001835970367
0.0002399649292
0.0003121445796
0.0003833686384
0.0004157902915
0.0003984762834
0.0003560170148
0.0003034683145
0.0002581051131
0.000214326094
0.0001913722374
0.0002206089718
0.0002989367028
0.0003859372768
0.0004571162992
0.0004802495581
0.0004843781174
0.0004755668744
0.0004553450941
0.0004138484763
0.0003298875051
0.0002402562277
0.0001699214504
0.0001448506732
0.0001459778822
0.0001035029656
0.0001734923081
0.0002148695231
0.0002653669318
0.0003218258534
0.0003587615794
0.0003577127105
0.0003407892842
0.0003204840028
0.0003004434351
0.0002725694116
0.0001824747546
0.0001839861888
0.0001829848859
0.0002336562737
0.0002962362858
0.0003514678518
0.000378599137
0.0003766364795
0.0003613415735
0.0003571998197
0.000335685207
0.0002150332563
0.0001544429974
0.0001459548233
0.0001570190464
0.0001035449704
0.0001781092706
0.0002213567253
0.000261832952
0.0002979482924
0.0003184978972
0.0003309806516
0.0003357251181
0.0003393519598
0.0003248022659
0.0002449736675
0.0002259169216
0.0002086427486
0.0001727483644
0.0001628983722
0.0001873676208
0.0002324052938
0.0002640536275
0.0002854753459
0.0003112523235
0.0003759710404
0.0004867998462
0.0002421772843
0.0001564080092
0.0001847390015
0.0001913180826
0.0001010971839
0.0001916807638
0.000236968984
0.0002639906515
0.0002974074577
0.0003163567691
0.0003321099761
0.0003479514419
0.0003421843655
0.0002370722553
0.0003030639936
0.0006751211932
0.0002398349046
0.0001495085465
0.0001818693969
0.0001729765192
0.0001671974007
0.0001857320648
0.0002108659713
0.0002550916227
0.0004597838201
0.0005447756267
0.0003190788658
0.0001430637185
0.0001430045984
9.816034095e-05
0.0001750754365
0.0002567814743
0.0002429198522
0.0002909183744
0.0003759347155
0.0003629918993
0.0003561228044
0.0003575912534
0.0003424731665
0.0002790251994
0.0002356122123
0.0002707347067
0.0002560271124
0.0002405261327
0.0002448864142
0.0001740750276
0.0001513576039
0.0001644208465
0.0001764357853
0.0002345033784
0.0002978449536
0.0001630275673
0.0001204523491
0.0001173843636
9.887725931e-05
0.0001704758938
0.0001972558467
0.000240118133
0.0002831746884
0.0003139391436
0.0003329664686
0.0003409906223
0.0003320273441
0.0003064154132
0.0002720472459
0.0002040518646
0.000224642407
0.0002151149704
0.0002649379316
0.00028976642
0.0002431421083
0.0002129914
0.0001956161184
0.0001905040823
0.0001915193853
0.000178080701
0.0001424462219
0.0001137231137
0.0001050575855
0.000101892193
0.0001569326721
0.0001784174407
0.0002069247905
0.000247861203
0.0002857145069
0.0003182859599
0.0003284908509
0.0003216903403
0.0002953985787
0.0002526596735
0.0002074243267
0.0001796678703
0.0001911426993
0.000256844143
0.0003072116051
0.0003185250623
0.0003315265665
0.0003079080001
0.0002964215761
0.0002738834174
0.000237588785
0.0002302285331
0.0001650282934
0.0001207033549
0.0001086950842
0.0001767646228
0.0001900289926
0.0001972343854
0.0002108471105
0.0002336251892
0.0002641714031
0.0002922100956
0.0002993458265
0.0002814174895
0.0002415694977
0.0001926791989
0.0001632244498
0.0001522152805
0.0001822833976
0.0002658393491
0.0003181917
0.0003536307561
0.0003821355033
0.0004315559593
0.0004413828741
0.0004254036215
0.0004011824633
0.0002833970929
0.000152818662
0.0001087291988
0.000117284729
0.0002119967887
0.0002302450034
0.0002257382814
0.0002171496014
0.0002113924391
0.0002126182724
0.0002209962568
0.0002348680073
0.0002392142535
0.0002235089315
0.0001868232817
0.0001604944566
0.0001462980655
0.000150498268
0.0001750673967
0.0002251608281
0.0002648165396
0.0003809482178
0.0004989815474
0.0005530487683
0.0005681298722
0.0004914323293
0.0003444937964
0.000172938937
0.0001108129339
8.005118904e-05
0.0001535903135
0.0002710090059
8.261762248e-05
9.122470868e-05
9.657577028e-05
0.0001005121556
0.0001039702852
0.000107140164
0.0001098757534
0.0001120207859
0.000113584745
0.0001147254612
0.0001154964402
0.0001155092704
0.0001140252934
0.0001110409774
0.0001086178441
0.0001096910839
0.0001138489862
0.0001183699695
0.0001223861768
0.0001245473532
0.0001239601956
0.0001222829572
0.0001229115579
0.000200473494
0.0001026157841
0.0001082958236
0.0001256521653
0.0001423071419
0.0001535496184
0.0001604515042
0.0001660678373
0.0001722774199
0.0001791004175
0.0001856968258
0.0001914180392
0.000196055571
0.000199101206
0.00019898068
0.000193801828
0.0001839208422
0.0001733046882
0.0001664540451
0.0001658330039
0.0001705059639
0.0001779870964
0.0001860258684
0.0001917073952
0.0001971795147
0.0002036693926
0.0002937521339
0.0001148811898
0.0001277503746
0.0001517122864
0.0001729119293
0.0001846187046
0.0001882387751
0.0001890692631
0.0001916469054
0.0001974943057
0.000206040207
0.0002162832539
0.0002271408774
0.0002369109755
0.0002433340086
0.0002437158396
0.000235480472
0.0002186908362
0.0001994128492
0.0001907671776
0.0001982697674
0.0002179951323
0.0002422642101
0.0002538895459
0.000250510859
0.0002446270349
7.887756549e-05
0.0001281549487
0.0001511821457
0.0001795019941
0.0002038149198
0.0002148616682
0.0002138874743
0.0002085818259
0.00020648164
0.0002104617621
0.0002195766296
0.0002318353694
0.0002451723816
0.0002576083318
0.000268267801
0.0002759352916
0.0002761267045
0.000262187828
0.0002359105099
0.0002235961586
0.0002472617784
0.0003054726949
0.0003726871061
0.0003994025955
0.0003775685394
0.0003393616961
8.293129364e-05
0.0001422441421
0.0001710666103
0.0002036668166
0.0002310132319
0.0002419875848
0.0002378360261
0.0002279773866
0.0002223576012
0.0002249607403
0.0002342557541
0.0002471939439
0.0002609032747
0.0002728685338
0.0002829318013
0.0002941553042
0.0003037365804
0.0002991984687
0.0002761399727
0.000269508423
0.0003255956145
0.0004423036165
0.000558988124
0.0006067379617
0.0005752865621
0.0005050807
8.54630908e-05
0.0001528127551
0.0001865153764
0.0002217693112
0.0002511675978
0.000263221598
0.0002588169725
0.0002472308868
0.0002396133864
0.0002416346632
0.0002518950616
0.0002662416753
0.0002806689035
0.0002913687177
0.000301255759
0.0003129268799
0.0003261301308
0.0003318158776
0.0003185953403
0.0003229984675
0.0004090638797
0.000569005826
0.0007268891494
0.0008051982655
0.0007903621114
0.0007194694774
8.785693955e-05
0.0001618082993
0.0001989038169
0.0002345968174
0.0002647667925
0.0002793789562
0.0002777567775
0.0002663576248
0.0002572030852
0.0002597599104
0.0002736340927
0.0002925164534
0.0003105123094
0.0003251433375
0.0003382997826
0.0003506813255
0.0003623124058
0.0003702700773
0.0003682212612
0.0003804926991
0.0004772197066
0.0006587210204
0.0008470581047
0.000958971804
0.0009793404575
0.0009431928452
9.063583506e-05
0.0001697952169
0.0002081898579
0.0002427887522
0.000273286632
0.0002919795679
0.0002946626794
0.0002830108927
0.0002719639814
0.0002772438203
0.0002990747985
0.0003273283859
0.0003533739409
0.0003740703135
0.0003912586422
0.0004071355244
0.000416887465
0.0004276837012
0.0004365591626
0.0004503400382
0.000537821792
0.0007145051084
0.0009140879511
0.001055783666
0.001123153262
0.001147281369
9.394918714e-05
0.0001766473805
0.0002141227592
0.0002473107176
0.0002789110725
0.0003024570494
0.0003084756022
0.000294685858
0.0002836866942
0.0002946787567
0.0003286526333
0.0003715165839
0.0004096641684
0.0004367204478
0.0004515895516
0.0004637820551
0.0004801979298
0.0005046326329
0.0005299739531
0.0005468519504
0.0006095621205
0.0007557336692
0.0009455785585
0.00111121359
0.001232698959
0.001322121981
9.771509703e-05
0.0001826326551
0.0002176126388
0.0002497373466
0.0002831510058
0.0003108569595
0.0003175798349
0.0003046712216
0.0002978607961
0.0003197797491
0.0003705923995
0.0004306324835
0.0004813799763
0.0005146990969
0.0005267964653
0.0005324993976
0.0005539572962
0.0005889634534
0.0006331169632
0.0006757344034
0.0007203233204
0.0008209153556
0.0009851507793
0.001164127496
0.001330045641
0.001458010836
0.0001017143069
0.0001887597791
0.0002203389077
0.0002510846446
0.0002854393266
0.0003155985958
0.0003241138503
0.000316745031
0.0003205803495
0.0003605018964
0.0004328812277
0.0005115982895
0.0005742512132
0.000613364006
0.0006325791999
0.0006496670636
0.0006799342262
0.0007078462394
0.0007419140908
0.0008061088248
0.0008564728517
0.0009187542346
0.001044900304
0.001221585437
0.001401319193
0.00152785855
0.0001056388429
0.0001962079179
0.0002235497602
0.0002511597705
0.0002840810957
0.0003150140199
0.0003298990089
0.0003336077958
0.0003543423003
0.0004172785567