/*--------------------------------*- C++ -*----------------------------------*\
  =========                 |
  \\      /  F ield         | OpenFOAM: The Open Source CFD Toolbox
   \\    /   O peration     | Website:  https://openfoam.org
    \\  /    A nd           | Version:  8
     \\/     M anipulation  |
\*---------------------------------------------------------------------------*/
FoamFile
{
    version     2.0;
    format      ascii;
    class       surfaceScalarField;
    location    "0.8";
    object      phi;
}
// * * * * * * * * * * * * * * * * * * * * * * * * * * * * * * * * * * * * * //

dimensions      [1 0 -1 0 0 0 0];

internalField   nonuniform List<scalar> 
197783
(
-8.368430389e-06
-4.83077424e-06
1.31987291e-05
-1.814443836e-05
-5.156839309e-06
1.493237857e-05
-2.714366134e-05
-8.141196612e-06
1.713995624e-05
-3.379718343e-05
-1.130190372e-05
1.795496352e-05
-3.872298021e-05
-1.344785412e-05
1.837318707e-05
-4.258129794e-05
-1.508179951e-05
1.893965379e-05
-4.548981395e-05
-1.669134855e-05
1.959940509e-05
-4.741934872e-05
-1.832627029e-05
2.025535338e-05
-4.847633499e-05
-1.986080313e-05
2.091734908e-05
-4.890240907e-05
-2.128223841e-05
2.170788684e-05
-4.885206833e-05
-2.278474596e-05
2.273399774e-05
-4.806125395e-05
-2.458171257e-05
2.379051268e-05
-4.600068886e-05
-2.664441798e-05
2.458349267e-05
-4.229459157e-05
-2.860655494e-05
2.490012387e-05
-3.732816518e-05
-2.988979088e-05
2.492305513e-05
-3.282921497e-05
-2.97698412e-05
2.527060071e-05
-3.186292589e-05
-2.763978577e-05
2.667321958e-05
-3.634891802e-05
-2.441480897e-05
2.890053452e-05
-4.235851034e-05
-2.436710834e-05
3.0376447e-05
-4.489423809e-05
-2.84887735e-05
3.102426284e-05
-4.314635024e-05
-3.296669116e-05
3.121858096e-05
-3.672970802e-05
-3.698091275e-05
3.056406612e-05
-2.756457865e-05
-3.821682852e-05
2.905151029e-05
-2.2571394e-05
-3.283325756e-05
2.783989284e-05
-2.625241036e-05
-2.288879471e-05
2.656962265e-05
-2.442335258e-05
2.47717894e-05
-8.929400621e-06
-1.100376457e-05
1.510192003e-05
-1.722174317e-05
-1.15981397e-05
1.473318031e-05
-2.478215094e-05
-1.50469079e-05
1.44656607e-05
-3.121359761e-05
-1.853599897e-05
1.366508118e-05
-3.630930202e-05
-2.138628133e-05
1.303366807e-05
-4.027162585e-05
-2.401821869e-05
1.28982796e-05
-4.340385307e-05
-2.670197501e-05
1.314239443e-05
-4.591029297e-05
-2.935355321e-05
1.353327208e-05
-4.792028453e-05
-3.175358403e-05
1.390233465e-05
-4.946997394e-05
-3.383913543e-05
1.410616614e-05
-5.037281815e-05
-3.580796538e-05
1.39256656e-05
-5.017449006e-05
-3.789631805e-05
1.311590558e-05
-4.837258924e-05
-4.006960802e-05
1.162294492e-05
-4.482882931e-05
-4.200568132e-05
9.855047434e-06
-4.013867364e-05
-4.329258406e-05
8.712339075e-06
-3.57995441e-05
-4.352207526e-05
9.412820847e-06
-3.394441535e-05
-4.251113501e-05
1.301594809e-05
-3.64063889e-05
-4.099191751e-05
1.903882241e-05
-4.194044551e-05
-4.210634531e-05
2.32730556e-05
-4.521180432e-05
-4.705230119e-05
2.183466844e-05
-4.33549768e-05
-5.245570724e-05
1.763198727e-05
-3.665819048e-05
-5.686344096e-05
1.318555456e-05
-2.715659721e-05
-5.798458779e-05
1.026598756e-05
-1.852813435e-05
-5.293432501e-05
1.147243049e-05
-1.770799064e-05
-4.315153231e-05
1.944241492e-05
-4.462377798e-05
2.251462788e-05
-1.08805981e-05
-1.627174356e-05
1.614811267e-05
-1.927066457e-05
-1.72520241e-05
1.404349194e-05
-2.627108515e-05
-2.055053059e-05
1.250358497e-05
-3.202456779e-05
-2.38120844e-05
1.102910737e-05
-3.651159287e-05
-2.692884427e-05
1.00291258e-05
-4.009306267e-05
-3.014843214e-05
9.711222697e-06
-4.311895877e-05
-3.356118405e-05
9.884650726e-06
-4.579945496e-05
-3.690363999e-05
1.023013975e-05
-4.820444747e-05
-3.977669889e-05
1.042768042e-05
-5.025552414e-05
-4.196696151e-05
1.017849695e-05
-5.162372837e-05
-4.359379166e-05
9.15365026e-06
-5.170815644e-05
-4.493409562e-05
7.121853533e-06
-4.991205333e-05
-4.613091655e-05
4.264880612e-06
-4.609576854e-05
-4.71079896e-05
1.2857222e-06
-4.08705285e-05
-4.794033912e-05
-5.777676943e-07
-3.594269794e-05
-4.856952994e-05
1.193512496e-07
-3.424567603e-05
-4.91420834e-05
4.933665015e-06
-3.830933328e-05
-4.971573983e-05
1.278723102e-05
-4.617174887e-05
-5.186300723e-05
1.76188569e-05
-5.027615292e-05
-5.643831621e-05
1.34902179e-05
-4.731491447e-05
-6.09913481e-05
5.574210796e-06
-3.879618353e-05
-6.428744918e-05
-1.094911317e-06
-2.65938725e-05
-6.560277613e-05
-4.584307773e-06
-1.254165157e-05
-6.319012678e-05
-3.796604416e-06
-5.748417166e-06
-5.758810851e-05
7.643164045e-06
-5.820860563e-05
1.740256645e-05
-1.207067404e-05
-2.012751588e-05
1.592598698e-05
-2.067771915e-05
-2.175933151e-05
1.311389671e-05
-2.761653366e-05
-2.464785271e-05
1.103568103e-05
-3.313433679e-05
-2.762022165e-05
9.325483535e-06
-3.747557895e-05
-3.085184336e-05
8.263784862e-06
-4.097412641e-05
-3.450402186e-05
7.853685225e-06
-4.390094454e-05
-3.847464359e-05
7.839835416e-06
-4.642029192e-05
-4.229616951e-05
7.911449642e-06
-4.861426491e-05
-4.538972547e-05
7.806591829e-06
-5.047691284e-05
-4.739493138e-05
7.290233588e-06
-5.178164798e-05
-4.832713074e-05
6.03771712e-06
-5.197252877e-05
-4.849218957e-05
3.748646512e-06
-5.031146796e-05
-4.826092078e-05
4.686425422e-07
-4.658963039e-05
-4.791891166e-05
-2.911192402e-06
-4.131301675e-05
-4.800495104e-05
-5.212258834e-06
-3.654995302e-05
-4.879551369e-05
-4.537324067e-06
-3.59436338e-05
-5.037518345e-05
6.265417127e-07
-4.239127713e-05
-5.224847655e-05
8.980155665e-06
-5.200398755e-05
-5.449817836e-05
1.22476852e-05
-5.604915211e-05
-5.801282703e-05
5.619491034e-06
-5.197662455e-05
-6.117516047e-05
-3.888903008e-06
-4.146257339e-05
-6.330143089e-05
-1.150026233e-05
-2.643379637e-05
-6.464163166e-05
-1.599010794e-05
-8.253377967e-06
-6.554250956e-05
-1.582823182e-05
3.099122253e-06
-6.455345059e-05
-4.387340192e-06
-6.466892322e-05
9.593709473e-06
-1.254960246e-05
-2.361401187e-05
1.603564465e-05
-2.174681987e-05
-2.515903477e-05
1.259647022e-05
-2.912655801e-05
-2.748681056e-05
1.021824612e-05
-3.501981087e-05
-3.021071501e-05
8.483296693e-06
-3.966285729e-05
-3.355231642e-05
7.343073376e-06
-4.327814127e-05
-3.756020977e-05
6.671034361e-06
-4.59781375e-05
-4.192557448e-05
6.15050364e-06
-4.787508471e-05
-4.602352378e-05
5.623896214e-06
-4.915609865e-05
-4.920771685e-05
5.098621212e-06
-5.003914459e-05
-5.107972034e-05
4.567474961e-06
-5.06035618e-05
-5.152903311e-05
3.765987342e-06
-5.058841284e-05
-5.073346005e-05
2.225819199e-06
-4.935914367e-05
-4.913509032e-05
-3.553731491e-07
-4.638335822e-05
-4.744181387e-05
-3.453132172e-06
-4.188576055e-05
-4.66518681e-05
-5.850909921e-06
-3.802709205e-05
-4.729653896e-05
-5.357856932e-06
-3.88915804e-05
-4.90965657e-05
-4.143373405e-07
-4.68733541e-05
-5.10097236e-05
6.742829171e-06
-5.676812192e-05
-5.222100398e-05
7.617420595e-06
-6.026004582e-05
-5.414986316e-05
-3.712157316e-07
-5.571534061e-05
-5.552051828e-05
-1.019953402e-05
-4.380362342e-05
-5.631531304e-05
-1.889802146e-05
-2.660118577e-05
-5.770844718e-05
-2.413579597e-05
-7.131600629e-06
-6.086002489e-05
-2.415225798e-05
5.829913665e-06
-6.439536883e-05
-1.311978621e-05
-6.544776634e-05
2.037958168e-06
-1.293667583e-05
-2.715198643e-05
1.647420311e-05
-2.297317438e-05
-2.774633086e-05
1.262335113e-05
-3.119501671e-05
-2.937599252e-05
1.01105824e-05
-3.786804596e-05
-3.183283536e-05
8.294710666e-06
-4.307538278e-05
-3.525317792e-05
6.907767118e-06
-4.681200478e-05
-3.946073469e-05
5.636729115e-06
-4.903226608e-05
-4.394308048e-05
4.237366972e-06
-4.989500002e-05
-4.804171429e-05
2.880543535e-06
-4.978454333e-05
-5.122618212e-05
1.907648538e-06
-4.912631476e-05
-5.323631952e-05
1.49803454e-06
-4.8304955e-05
-5.382625992e-05
1.475559231e-06
-4.749753288e-05
-5.292261968e-05
1.381460925e-06
-4.650737075e-05
-5.075897983e-05
6.334806335e-07
-4.473886535e-05
-4.824264745e-05
-9.678962142e-07
-4.197284627e-05
-4.681959331e-05
-2.598503862e-06
-3.962536095e-05
-4.726661094e-05
-2.377600435e-06
-4.118803186e-05
-4.882636904e-05
1.29230119e-06
-4.863454422e-05
-4.955126464e-05
5.987891717e-06
-5.759551749e-05
-4.820838552e-05
4.948198711e-06
-6.105936494e-05
-4.794711849e-05
-2.739063081e-06
-5.708638831e-05
-4.664833483e-05
-1.284533894e-05
-4.556760477e-05
-4.564082368e-05
-2.219344818e-05
-2.832022311e-05
-4.677499715e-05
-2.818099528e-05
-9.491095403e-06
-5.139206668e-05
-2.829726593e-05
2.757298071e-06
-5.85544174e-05
-1.808954043e-05
-6.213025127e-05
-3.020678663e-06
-1.364143361e-05
-3.076217827e-05
1.725118514e-05
-2.480992886e-05
-2.975200083e-05
1.317372971e-05
-3.418805108e-05
-3.051860957e-05
1.052030735e-05
-4.18330301e-05
-3.265698607e-05
8.468704875e-06
-4.755078207e-05
-3.602714834e-05
6.491310403e-06
-5.112795854e-05
-4.014491955e-05
4.260966609e-06
-5.252846869e-05
-4.435408889e-05
1.811142495e-06
-5.211494354e-05
-4.815161462e-05
-3.039825072e-07
-5.047675883e-05
-5.137024154e-05
-1.494462929e-06
-4.814676517e-05
-5.375813375e-05
-1.808492987e-06
-4.562978635e-05
-5.504001946e-05
-1.303504072e-06
-4.340406277e-05
-5.501264709e-05
-1.359494044e-07
-4.188674226e-05
-5.377484423e-05
1.498320618e-06
-4.103731203e-05
-5.188420641e-05
2.791924147e-06
-4.031151111e-05
-5.086728951e-05
3.321698e-06
-3.94634036e-05
-5.177470643e-05
3.659822892e-06
-4.038688807e-05
-5.314027738e-05
5.237245571e-06
-4.539976045e-05
-5.141596757e-05
6.87743138e-06
-5.3193761e-05
-4.552271242e-05
5.108177051e-06
-5.736568464e-05
-4.260313017e-05
-1.172228115e-06
-5.570374455e-05
-3.788242568e-05
-1.042802677e-05
-4.683778512e-05
-3.459822101e-05
-1.99087413e-05
-3.216738543e-05
-3.488949315e-05
-2.655607764e-05
-1.60408504e-05
-4.05940736e-05
-2.692471698e-05
-6.009311655e-06
-5.022834449e-05
-1.835781707e-05
-5.694930426e-05
-6.239447375e-06
-1.497662226e-05
-3.423310959e-05
1.844712047e-05
-2.757254534e-05
-3.130204904e-05
1.414554458e-05
-3.824863739e-05
-3.111700569e-05
1.127406825e-05
-4.674319793e-05
-3.283880722e-05
8.675973865e-06
-5.259859029e-05
-3.591777493e-05
5.74562834e-06
-5.555405552e-05
-3.960370029e-05
2.413874225e-06
-5.58555585e-05
-4.322808226e-05
-8.248574466e-07
-5.421532812e-05
-4.665667027e-05
-3.13551104e-06
-5.128785346e-05
-4.98400868e-05
-4.457944792e-06
-4.754406368e-05
-5.26127618e-05
-4.889452074e-06
-4.346900394e-05
-5.474137907e-05
-4.373961671e-06
-3.974462674e-05
-5.607710646e-05
-2.660148354e-06
-3.714445737e-05
-5.677077998e-05
3.955658035e-07
-3.641247837e-05
-5.719948532e-05
4.583123513e-06
-3.722341325e-05
-5.81926413e-05
8.136127301e-06
-3.751717098e-05
-6.068344971e-05
9.202358577e-06
-3.701944909e-05
-6.239467002e-05
8.756539413e-06
-3.867015568e-05
-5.759144472e-05
7.826047351e-06
-4.495709073e-05
-4.613577802e-05
6.899845457e-06
-4.992794961e-05
-4.164426468e-05
4.011823661e-06
-5.145709237e-05
-3.373249026e-05
-2.620979309e-06
-4.756889013e-05
-2.758200142e-05
-1.090462316e-05
-3.817801377e-05
-2.639719349e-05
-1.788338573e-05
-2.633379072e-05
-3.341329252e-05
-1.902521979e-05
-1.804083865e-05
-4.438931401e-05
-1.413220614e-05
-5.26394762e-05
-8.755028738e-06
-1.715789683e-05
-3.704176822e-05
1.996612935e-05
-3.138162025e-05
-3.245401852e-05
1.537527562e-05
-4.320934015e-05
-3.137311595e-05
1.208342371e-05
-5.212788348e-05
-3.25446958e-05
8.624041959e-06
-5.761677696e-05
-3.502814022e-05
4.598888226e-06
-5.961802649e-05
-3.795897841e-05
3.561758404e-07
-5.895380484e-05
-4.08422804e-05
-3.050356525e-06
-5.640349607e-05
-4.385035711e-05
-5.356934176e-06
-5.256295833e-05
-4.692528729e-05
-6.755625924e-06
-4.778100796e-05
-4.99424181e-05
-7.452557433e-06
-4.25234642e-05
-5.273490105e-05
-7.264258863e-06
-3.764109858e-05
-5.531800107e-05
-5.64168274e-06
-3.432153875e-05
-5.809754124e-05
-1.992989635e-06
-3.37000238e-05
-6.160704455e-05
3.785869126e-06
-3.565456849e-05
-6.567985044e-05
9.441595319e-06
-3.677326863e-05
-7.050413026e-05
1.093924292e-05
-3.451456421e-05
-7.239733624e-05
7.743825898e-06
-3.307073449e-05
-6.464319516e-05
5.607785095e-06
-3.764756345e-05
-4.891799602e-05
7.358877951e-06
-4.232814605e-05
-4.509030179e-05
8.126435896e-06
-4.631388596e-05
-3.680989975e-05
7.062951026e-06
-4.739911011e-05
-3.038408842e-05
3.887102022e-06
-4.385250798e-05
-2.774760073e-05
-2.196415669e-06
-3.654744725e-05
-3.401828021e-05
-6.700307398e-06
-2.825916373e-05
-4.396595337e-05
-8.711896832e-06
-5.166781276e-05
-1.000552887e-05
-2.008917231e-05
-3.849026205e-05
2.153724623e-05
-3.593821025e-05
-3.316468329e-05
1.655929459e-05
-4.85056527e-05
-3.146057793e-05
1.265451071e-05
-5.730543349e-05
-3.197763284e-05
8.232342999e-06
-6.20405172e-05
-3.359023319e-05
3.296822103e-06
-6.318319332e-05
-3.550184323e-05
-1.314793107e-06
-6.175041003e-05
-3.75285306e-05
-4.746843337e-06
-5.863646252e-05
-3.996784086e-05
-6.996746017e-06
-5.427691797e-05
-4.275319211e-05
-8.531894559e-06
-4.888972018e-05
-4.578478624e-05
-9.545059458e-06
-4.297117371e-05
-4.896078957e-05
-9.692865954e-06
-3.763054178e-05
-5.248595436e-05
-8.172870435e-06
-3.452368329e-05
-5.706432246e-05
-4.140262341e-06
-3.500726397e-05
-6.335103096e-05
2.227384238e-06
-3.802448975e-05
-7.020355841e-05
7.54076645e-06
-3.850988948e-05
-7.63905368e-05
6.371657633e-06
-3.357889436e-05
-7.740646256e-05
7.791887978e-08
-2.846378939e-05
-6.80902667e-05
-1.668182704e-06
-3.117978223e-05
-5.171998015e-05
5.517791733e-06
-3.558159538e-05
-4.868130191e-05
7.992616462e-06
-3.957518325e-05
-4.124692999e-05
8.430407112e-06
-4.333885239e-05
-3.687239016e-05
1.02517491e-05
-4.539948886e-05
-3.357686331e-05
7.889660276e-06
-4.26953716e-05
-3.890915754e-05
2.186497058e-06
-3.414009738e-05
-4.852087244e-05
-4.000642917e-06
-5.549180452e-05
-8.894379238e-06
-2.313881158e-05
-3.806487875e-05
2.271301271e-05
-4.034364817e-05
-3.329511137e-05
1.733486298e-05
-5.320630985e-05
-3.146645024e-05
1.286814825e-05
-6.15642332e-05
-3.13564985e-05
7.736422215e-06
-6.553451518e-05
-3.192995223e-05
2.309654943e-06
-6.602483865e-05
-3.263392894e-05
-2.377911839e-06
-6.411179406e-05
-3.361807528e-05
-5.823785948e-06
-6.071402934e-05
-3.518981061e-05
-8.176040007e-06
-5.619449659e-05
-3.731968487e-05
-9.953250854e-06
-5.065881188e-05
-4.003703216e-05
-1.128362427e-05
-4.471400345e-05
-4.325993411e-05
-1.164583296e-05
-3.985605828e-05
-4.734423259e-05
-9.999830615e-06
-3.829277972e-05
-5.30968701e-05
-5.53090062e-06
-4.092519776e-05
-6.097808369e-05
2.592979763e-07
-4.444464684e-05
-6.926282983e-05
2.57857129e-06
-4.255131557e-05
-7.519277889e-05
-3.091213447e-06
-3.342783708e-05
-7.549192244e-05
-1.103815139e-05
-2.201109943e-05
-6.693019557e-05
-1.257695272e-05
-2.116525021e-05
-5.337563358e-05
8.096121391e-07
-2.694538135e-05
-5.028245257e-05
7.381073127e-06
-3.131520029e-05
-4.32953296e-05
6.417990715e-06
-3.748997158e-05
-4.02886335e-05
9.590771681e-06
-4.457366508e-05
-3.66175255e-05
1.012408409e-05
-4.623645642e-05
-4.43472986e-05
7.100627654e-06
-3.714178863e-05
-5.646833203e-05
-1.147530086e-06
-6.250860215e-05
-9.22682019e-06
-2.521037008e-05
-3.586493175e-05
2.301000797e-05
-4.321642322e-05
-3.275600756e-05
1.74665474e-05
-5.621118954e-05
-3.139014488e-05
1.291807337e-05
-6.432859496e-05
-3.091232054e-05
7.672856306e-06
-6.797850018e-05
-3.051909524e-05
2.23869655e-06
-6.812099933e-05
-3.004558195e-05
-2.44617047e-06
-6.586350195e-05
-2.982158776e-05
-6.054255728e-06
-6.23225262e-05
-2.996044165e-05
-8.770546195e-06
-5.798025523e-05
-3.070747602e-05
-1.095463355e-05
-5.276420829e-05
-3.260738858e-05
-1.264581636e-05
-4.748741047e-05
-3.537353932e-05
-1.316330838e-05
-4.413723698e-05
-3.935153849e-05
-1.134298952e-05
-4.517739134e-05
-4.516115603e-05
-6.895695661e-06
-5.01069337e-05
-5.293565233e-05
-3.113024261e-06
-5.287906565e-05
-6.073582554e-05
-5.754988452e-06
-4.726879647e-05
-6.558318817e-05
-1.521997383e-05
-3.272389794e-05
-6.575764191e-05
-2.427929434e-05
-1.320226951e-05
-6.066146593e-05
-2.579050631e-05
-7.642874871e-06
-5.109984914e-05
-7.83536581e-06
-1.667699365e-05
-4.795879305e-05
6.710247335e-06
-2.293505433e-05
-4.334418413e-05
6.3066727e-06
-3.07598568e-05
-4.254156254e-05
1.007746771e-05
-4.213910699e-05
-3.821740691e-05
1.297882311e-05
-4.852814371e-05
-4.82463139e-05
1.028770048e-05
-3.905156781e-05
-6.162872892e-05
-4.31651717e-06
-6.618974156e-05
-1.780112348e-05
-2.521311906e-05
-3.276039494e-05
2.210816018e-05
-4.313573141e-05
-3.173024125e-05
1.689643242e-05
-5.638372247e-05
-3.132293338e-05
1.31803738e-05
-6.501176555e-05
-3.09867553e-05
8.70207945e-06
-6.922987575e-05
-3.010697081e-05
3.805595612e-06
-6.949421504e-05
-2.891737309e-05
-8.642415358e-07
-6.672014206e-05
-2.784808886e-05
-4.747872218e-06
-6.292988188e-05
-2.552573524e-05
-8.225122187e-06
-5.915779953e-05
-2.334482665e-05
-1.113481293e-05
-5.471469071e-05
-2.367503774e-05
-1.337550607e-05
-5.071148052e-05
-2.520934535e-05
-1.416744805e-05
-4.947173444e-05
-2.808733194e-05
-1.250401466e-05
-5.304959656e-05
-3.249403061e-05
-9.089345954e-06
-5.898780155e-05
-3.837876346e-05
-8.618770635e-06
-5.990149582e-05
-4.411605435e-05
-1.570616477e-05
-5.036168363e-05
-4.735844853e-05
-2.776464305e-05
-3.14425533e-05
-4.770802474e-05
-3.696882517e-05
-6.827819298e-06
-4.682401381e-05
-3.845232134e-05
4.785189631e-06
-4.284786394e-05
-1.986517314e-05
-6.13732786e-06
-3.919965749e-05
2.163173917e-06
-1.740597733e-05
-3.919376999e-05
7.117985715e-06
-2.887888302e-05
-4.159260559e-05
1.05236751e-05
-4.512323251e-05
-3.602314665e-05
1.404975752e-05
-5.473017996e-05
-4.466518389e-05
6.02541428e-06
-4.289246725e-05
-5.520803998e-05
-1.825873315e-05
-6.005154624e-05
-3.764333771e-05
-2.279501899e-05
-3.005473021e-05
2.008891375e-05
-3.937948672e-05
-3.065351658e-05
1.550730117e-05
-5.283809048e-05
-3.150706128e-05
1.364228106e-05
-6.293029693e-05
-3.204303054e-05
1.114801272e-05
-6.899521127e-05
-3.171825561e-05
7.675699403e-06
-7.025410528e-05
-3.132249176e-05
3.663484857e-06
-6.597680887e-05
-3.144339615e-05
-6.824783093e-07
-6.150596798e-05
-2.462386203e-05
-5.372821536e-06
-5.901827341e-05
-1.611687175e-05
-9.715641959e-06
-5.566023039e-05
-1.397214131e-05
-1.306088106e-05
-5.308960576e-05
-1.319168815e-05
-1.458823154e-05
-5.340964002e-05
-1.401484968e-05
-1.375243061e-05
-5.804500431e-05
-1.575475146e-05
-1.210393154e-05
-6.358356165e-05
-1.835305167e-05
-1.448719285e-05
-6.280651633e-05
-2.094735709e-05
-2.394579989e-05
-5.11921546e-05
-2.225529914e-05
-3.671757422e-05
-3.068347646e-05
-2.266659347e-05
-4.555016274e-05
-5.929350957e-06
-2.528120456e-05
-4.629705975e-05
8.032415291e-06
-2.787953823e-05
-2.893027149e-05
-2.949583705e-06
-2.369541732e-05
-4.522444072e-06
-1.870013107e-05
-2.93436073e-05
5.900148269e-06
-3.568124102e-05
-3.23993926e-05
7.787664754e-06
-5.727483897e-05
-2.241693078e-05
7.987157295e-06
-6.532969466e-05
-2.570825291e-05
-1.090233692e-05
-4.67810597e-05
-3.190952096e-05
-4.184735909e-05
-3.807241012e-05
-6.235902157e-05
-1.940273352e-05
-2.819225256e-05
1.753978368e-05
-3.337893271e-05
-2.968378801e-05
1.300597837e-05
-4.625378717e-05
-3.187273004e-05
1.323998131e-05
-5.816311088e-05
-3.422019276e-05
1.408585865e-05
-6.740657645e-05
-3.632568184e-05
1.385012475e-05
-7.059172704e-05
-4.036442236e-05
1.222612367e-05
-6.153331713e-05
-4.965207311e-05
9.149316693e-06
-5.628382045e-05
-3.064833842e-05
7.750090116e-07
-5.67097723e-05
-9.966621537e-06
-5.724179373e-06
-5.484055283e-05
-4.69395064e-06
-1.114721138e-05
-5.294916934e-05
-1.04920405e-06
-1.40336938e-05
-5.272082089e-05
7.364201562e-08
-1.431672401e-05
-5.570284516e-05
6.280349274e-07
-1.340070632e-05
-5.970022814e-05
1.241705175e-06
-1.559736523e-05
-5.887975235e-05
2.599339781e-06
-2.436720396e-05
-4.903049548e-05
4.530497565e-06
-3.663511617e-05
-3.126011734e-05
4.891557709e-06
-4.532861359e-05
-1.091944112e-05
-1.024714509e-07
-4.551960362e-05
-2.36947347e-06
-7.855244914e-06
-2.857445003e-05
-1.363052535e-05
-8.137550274e-06
-4.29701529e-06
-2.541654206e-05
-1.591066736e-05
-1.647130107e-06
-4.045551403e-05
-1.639368843e-05
-9.668496493e-07
-6.03379103e-05
-2.28786905e-06
-2.464588066e-07
-6.565719412e-05
5.750887445e-06
-2.614001454e-05
-4.752104449e-05
9.99213448e-06
-6.003797401e-05
4.048933421e-06
-7.835148802e-05
-1.768032907e-05
-2.597911557e-05
1.546667978e-05
-2.927936719e-05
-2.779582832e-05
9.710514879e-06
-4.086675303e-05
-3.098853477e-05
1.070248514e-05
-5.470157893e-05
-3.556226941e-05
1.51759339e-05
-6.91670977e-05
-4.275112769e-05
2.088959748e-05
-7.405504127e-05
-6.051803197e-05
2.503978562e-05
-4.881842903e-05
-9.750294334e-05
2.261250906e-05
-4.354322483e-05
-4.588555492e-05
9.963075275e-06
-5.026435071e-05
-7.51817426e-06
4.273005756e-06
-4.953008177e-05
-9.940183328e-07
-4.433734085e-06
-4.917948757e-05
8.47052912e-06
-9.869984756e-06
-4.723912635e-05
1.006681986e-05
-1.193330026e-05
-4.625504421e-05
1.062461411e-05
-1.098052752e-05
-4.729619753e-05
1.152084315e-05
-9.237941331e-06
-4.802487805e-05
1.456870601e-05
-1.124070892e-05
-4.355062928e-05
1.937991931e-05
-1.932373741e-05
-3.296675818e-05
2.214897823e-05
-2.784138179e-05
-2.348562436e-05
1.83397029e-05
-2.792338744e-05
-2.305490044e-05
8.465746601e-06
-1.675189639e-05
-2.255559031e-05
3.859478481e-06
-1.249654684e-05
-1.342691287e-05
-2.678888749e-06
-2.236066326e-05
7.853259237e-07
-4.359180588e-06
-2.624693942e-05
-1.168979707e-05
1.198298477e-05
-1.7959054e-06
-4.13488714e-05
3.136821078e-05
4.04149429e-06
-4.868546666e-05
4.889798754e-05
-3.156952235e-05
4.860016341e-05
-5.83077833e-05
-1.825526564e-05
-2.210003331e-05
1.437563769e-05
-2.879288203e-05
-2.397270556e-05
6.71387366e-06
-3.849992216e-05
-2.796914379e-05
6.686832307e-06
-5.279272281e-05
-3.377843697e-05
1.250770932e-05
-7.582822965e-05
-4.125531874e-05
2.153748247e-05
-9.159182643e-05
-6.327932799e-05
1.851965781e-05
-3.137399203e-05
-0.0001242238128
-3.350957694e-05
-2.420378624e-05
-3.085794272e-05
-2.219417349e-05
-4.198788896e-05
-2.915323629e-06
1.318104535e-05
-5.028417379e-05
4.421177759e-06
2.881549686e-06
-5.17048362e-05
1.287371687e-05
-2.982067141e-06
-5.019506707e-05
1.427255049e-05
-5.715115824e-06
-4.862341986e-05
1.496910025e-05
-5.915904371e-06
-4.7770682e-05
1.505371016e-05
-4.385505711e-06
-4.631853116e-05
1.647898214e-05
-3.362424487e-06
-4.213740983e-05
2.03755958e-05
-5.176864041e-06
-3.589041993e-05
2.486120676e-05
-8.959329525e-06
-3.266474607e-05
2.538121685e-05
-1.02673263e-05
-3.360561274e-05
2.06448088e-05
-1.123838118e-05
-2.834702881e-05
2.047629971e-05
-2.187560843e-05
-1.271400018e-05
1.798282958e-05
-3.629494718e-05
6.181413542e-06
1.609575907e-05
-3.935056505e-05
7.244928501e-06
2.708857664e-05
-1.616936502e-05
-1.798318828e-05
4.188871223e-05
1.470735433e-05
-3.889678777e-05
6.440373628e-05
5.407583638e-06
7.014606436e-05
-2.405733727e-05
-2.110074528e-05
-1.523424537e-05
1.423433256e-05
-3.539704061e-05
-1.450802539e-05
4.830787434e-06
-5.490737734e-05
-1.288483337e-05
4.424626828e-06
-9.328038673e-05
-9.531090589e-06
1.412330531e-05
-0.0001560393109
-1.866105749e-06
2.336537971e-05
-0.0001987668376
2.605428801e-05
-4.66239947e-05
-7.58058257e-06
6.628424317e-05
-0.0003817478919
5.59014325e-05
2.270483941e-05
-0.0001170349257
5.885765363e-06
1.569581528e-05
3.14045833e-05
-3.227358059e-05
2.060457619e-05
2.197800455e-05
-4.433483846e-05
1.755427622e-05
7.381437469e-06
-4.89023545e-05
1.884009e-05
7.027268789e-10
-4.895556222e-05
1.848432442e-05
-3.461678279e-06
-4.695317415e-05
1.818518328e-05
-5.133712754e-06
-4.34222672e-05
1.859706859e-05
-5.648967903e-06
-3.778800637e-05
2.04918083e-05
-5.750535758e-06
-3.046066159e-05
2.365524513e-05
-6.121508264e-06
-2.476434599e-05
2.62066945e-05
-6.521962979e-06
-2.252733278e-05
2.659820605e-05
-8.19062285e-06
-1.846786966e-05
3.084098526e-05
-1.442437706e-05
-6.645338021e-06
3.338850579e-05
-2.722844289e-05
8.667036387e-06
3.307162618e-05
-3.228848843e-05
1.109030401e-05
3.834292566e-05
-1.36778995e-05
-7.993247899e-06
4.608758411e-05
1.488437912e-05
-2.744352314e-05
6.227749191e-05
2.1576234e-05
7.03026649e-05
2.374717825e-06
-1.827463268e-05
-1.189488343e-05
1.493489039e-05
-2.573341965e-05
-1.042623937e-05
3.376657538e-06
-2.729127122e-05
-9.59384112e-06
-1.733398617e-06
-2.696224322e-05
-8.594929435e-06
-1.265192589e-06
-3.072687014e-05
-3.671657744e-06
5.570873679e-06
-3.486378375e-05
1.290200206e-05
1.728987783e-05
-2.719654173e-05
5.196152493e-05
6.657847792e-06
-3.420836135e-05
1.721036599e-05
1.251030107e-05
-4.047800941e-05
2.739399601e-06
1.922761099e-05
-4.746424301e-05
9.682565195e-06
1.790930536e-05
-5.087947636e-05
1.104629093e-05
9.923774216e-06
-5.099147541e-05
1.494038435e-05
4.012164997e-06
-4.944629302e-05
1.831422049e-05
-1.374773228e-06
-4.632930661e-05
2.032291864e-05
-5.254563531e-06
-4.154739576e-05
2.167091301e-05
-7.855719361e-06
-3.493592881e-05
2.29961254e-05
-9.115845019e-06
-2.677613471e-05
2.476046009e-05
-9.26514306e-06
-1.877358753e-05
2.682393361e-05
-8.619973401e-06
-1.299095108e-05
2.882560836e-05
-8.010269481e-06
-8.854829417e-06
3.32482757e-05
-6.543662005e-06
-1.049538907e-06
3.789745417e-05
-1.23145009e-05
1.236621544e-05
3.45854166e-05
-1.492981056e-05
1.197677089e-05
4.121291665e-05
-2.480835084e-06
-4.184443664e-06
4.407240749e-05
1.817609052e-05
-1.922742444e-05
5.238112844e-05
2.493904129e-05
5.779606126e-05
1.486086927e-05
-1.789166746e-05
-1.1866801e-05
1.786320564e-05
-2.809236959e-05
-6.152826121e-06
5.926847361e-06
-3.29884599e-05
-3.767581675e-06
-9.307641586e-07
-3.571720089e-05
-3.807632387e-06
-2.05939899e-06
-3.706141456e-05
-4.923767786e-06
2.595050035e-06
-3.296934229e-05
-5.436041695e-06
1.424434282e-05
-9.903085753e-06
-1.624152735e-06
3.051692721e-05
-1.14111781e-05
-9.753019429e-06
2.847316891e-05
-2.419066589e-05
-1.313076925e-05
2.864974569e-05
-3.399006069e-05
-6.808515188e-06
2.629085931e-05
-4.225542639e-05
-9.818223397e-08
1.940955179e-05
-4.55510851e-05
7.255841037e-06
1.098040629e-05
-4.574094628e-05
1.493627445e-05
3.568061606e-06
-4.339593538e-05
2.050641792e-05
-2.52835761e-06
-3.8921507e-05
2.419833564e-05
-7.001812865e-06
-3.252098429e-05
2.649218723e-05
-9.896648074e-06
-2.463546938e-05
2.804461898e-05
-1.116981746e-05
-1.629319091e-05
2.925599075e-05
-1.077453788e-05
-8.635332115e-06
3.043596619e-05
-9.268465405e-06
-4.494028777e-06
3.294669972e-05
-3.840001797e-06
1.276703513e-06
3.594480852e-05
-3.818376987e-06
1.542950885e-05
2.790251037e-05
-7.470176239e-06
1.32094537e-05
3.833690712e-05
5.095761406e-06
-1.794376043e-06
3.926241183e-05
1.981351866e-05
-1.454490301e-05
4.229572653e-05
2.283562098e-05
4.329974661e-05
1.620673926e-05
-1.677077923e-05
-1.743139007e-05
2.233506325e-05
-2.660199901e-05
-9.836748947e-06
1.351484903e-05
-2.995206396e-05
-6.953525791e-06
6.535732773e-06
-2.889363544e-05
-6.647694799e-06
1.781323309e-06
-2.549574607e-05
-7.991410743e-06
-3.307372333e-07
-2.179357973e-05
-9.817354734e-06
6.784322585e-07
-1.722104962e-05
-1.115919571e-05
4.96185484e-06
-1.743565644e-05
-1.839852115e-05
8.860137105e-06
-1.862238691e-05
-2.493868534e-05
1.299454467e-05
-2.188648054e-05
-2.350601716e-05
1.996122358e-05
-2.880238758e-05
-1.778544477e-05
2.460287673e-05
-3.226111026e-05
-1.108197687e-05
2.179653581e-05
-3.627493857e-05
5.898130013e-06
1.305215324e-05
-3.686751332e-05
1.639634952e-05
4.702766759e-06
-3.435154788e-05
2.355979724e-05
-1.877389501e-06
-2.963911319e-05
2.816459153e-05
-6.384906022e-06
-2.324170106e-05
3.057749232e-05
-8.930440024e-06
-1.632361306e-05
3.157979105e-05
-9.242107655e-06
-9.666298539e-06
3.158069022e-05
-7.802305727e-06
-7.295780273e-06
3.244345291e-05
-1.867564808e-06
-1.842228783e-06
3.267717709e-05
-2.186237167e-06
1.716211808e-05
2.225181267e-05
-1.335394001e-05
1.532370711e-05
3.235184578e-05
7.82314472e-06
8.073956769e-07
3.370223399e-05
2.007617635e-05
-1.14974575e-05
3.465372197e-05
1.994654293e-05
3.11982454e-05
1.408249004e-05
-1.815618181e-05
-2.364571968e-05
2.437022303e-05
-2.865902937e-05
-1.815125787e-05
1.8817071e-05
-3.382293644e-05
-1.581832234e-05
1.402841776e-05
-3.534739928e-05
-1.436611476e-05
9.242591804e-06
-3.290702276e-05
-1.499220117e-05
4.560106309e-06
-2.689720868e-05
-1.7077708e-05
1.250182565e-06
-1.922146551e-05
-1.903829831e-05
2.02974473e-07
-1.480047408e-05
-2.394957564e-05
1.129721456e-06
-1.320350086e-05
-3.009523831e-05
3.558201799e-06
-1.06401508e-05
-3.396212019e-05
7.889143893e-06
-9.736864106e-06
-3.434572177e-05
1.565078482e-05
-8.719653368e-06
-3.715885464e-05
2.505793023e-05
-1.841734265e-05
-1.152789691e-05
2.71232834e-05
-2.421321987e-05
4.993747686e-06
1.719838812e-05
-2.629535976e-05
1.768803498e-05
7.953926743e-06
-2.463584986e-05
2.553332282e-05
9.716923695e-07
-2.09012914e-05
3.01981983e-05
-3.355427485e-06
-1.612639741e-05
3.154679762e-05
-4.74213935e-06
-1.091646616e-05
3.009238696e-05
-3.721918088e-06
-7.5293047e-06
2.681805686e-05
2.237917871e-06
-1.363769103e-06
2.163190356e-05
4.879377386e-06
1.547020888e-05
-3.5231626e-06
8.940659963e-06
1.127654956e-05
2.3021413e-05
1.352373091e-05
-1.311208766e-06
2.565832203e-05
2.063134872e-05
-1.11799982e-05
2.581904738e-05
1.870312914e-05
1.533660413e-05
1.401559602e-05
-1.897084602e-05
-2.935109812e-05
2.467594976e-05
-2.977713287e-05
-2.495016736e-05
1.760493718e-05
-3.510618164e-05
-2.301439087e-05
1.252490067e-05
-3.767405408e-05
-2.010271992e-05
8.304328466e-06
-3.649135319e-05
-2.052083035e-05
4.345843984e-06
-3.126228446e-05
-2.342846048e-05
1.121662931e-06
-2.59347517e-05
-2.292419939e-05
-1.441864503e-06
-2.114947017e-05
-2.591304654e-05
-2.823063124e-06
-1.70154931e-05
-3.077139243e-05
-3.462605648e-06
-1.158899859e-05
-3.747145157e-05
-1.931173985e-06
-2.163823561e-06
-4.632633197e-05
2.522757951e-06
1.562709835e-05
-6.578254607e-05
1.082582958e-05
7.501891815e-06
-2.84648084e-05
2.505972694e-05
-4.429400128e-06
-1.235860342e-05
2.928300759e-05
-1.163908412e-05
2.531453538e-06
2.236632493e-05
-1.508723223e-05
1.642701997e-05
1.255440253e-05
-1.674071965e-05
2.680248175e-05
5.049044916e-06
-1.651353355e-05
2.932767671e-05
1.991683239e-06
-1.624677666e-05
2.769096074e-05
2.134358279e-06
-1.695494351e-05
2.092856156e-05
6.597336308e-06
-1.130271257e-05
9.917432431e-06
6.061834881e-06
1.593995752e-05
-3.437625422e-05
3.610122156e-06
1.408786974e-05
1.330339682e-05
1.15697063e-05
8.419179906e-07
1.892611484e-05