/*--------------------------------*- C++ -*----------------------------------*\
  =========                 |
  \\      /  F ield         | OpenFOAM: The Open Source CFD Toolbox
   \\    /   O peration     | Website:  https://openfoam.org
    \\  /    A nd           | Version:  8
     \\/     M anipulation  |
\*---------------------------------------------------------------------------*/
FoamFile
{
    version     2.0;
    format      ascii;
    class       scalarField;
    location    "0.2/lagrangian/reactingCloud1";
    object      mass0;
}
// * * * * * * * * * * * * * * * * * * * * * * * * * * * * * * * * * * * * * //


37
(
3.971281711e-07
4.018548144e-07
5.22036249e-07
1.595016663e-07
2.179783001e-07
1.713104931e-07
8.254308035e-08
4.841458683e-07
7.296333848e-08
6.122457546e-07
1.213154605e-07
1.111811827e-07
1.066561166e-07
7.788432806e-08
7.555649612e-08
7.940865153e-08
6.681279355e-08
1.352719727e-07
2.154711391e-07
1.850639014e-07
1.039809538e-07
1.484784027e-07
3.404693887e-07
7.479127023e-08
8.154944539e-08
5.560488443e-07
5.470884194e-07
7.831415779e-08
3.596454339e-07
2.628682065e-07
1.321007062e-07
7.377482885e-08
1.497535067e-07
1.788402238e-07
2.171282574e-07
5.180208148e-07
1.380372868e-07
)


// ************************************************************************* //
