/*--------------------------------*- C++ -*----------------------------------*\
  =========                 |
  \\      /  F ield         | OpenFOAM: The Open Source CFD Toolbox
   \\    /   O peration     | Website:  https://openfoam.org
    \\  /    A nd           | Version:  8
     \\/     M anipulation  |
\*---------------------------------------------------------------------------*/
FoamFile
{
    version     2.0;
    format      ascii;
    class       scalarField;
    location    "0.2/lagrangian/reactingCloud1";
    object      nParticle;
}
// * * * * * * * * * * * * * * * * * * * * * * * * * * * * * * * * * * * * * //


37
(
1392.843217
1240.219038
954.6999702
3124.656958
2286.411038
2491.432599
7507.512154
823.5407552
102.7452224
753.5900412
101.4886936
102.6527652
102.5729419
103.8450528
102.1023052
100.661777
101.4612875
100.3017
2313.015067
101.5539985
4891.706922
101.4454629
1449.653631
6943.454911
6111.482291
100.7922693
101.3693248
6569.607413
1287.946569
100.3417416
3809.630918
6677.692922
100.3520725
115.3800714
2367.907962
955.972667
3610.53164
)


// ************************************************************************* //
