/*--------------------------------*- C++ -*----------------------------------*\
  =========                 |
  \\      /  F ield         | OpenFOAM: The Open Source CFD Toolbox
   \\    /   O peration     | Website:  https://openfoam.org
    \\  /    A nd           | Version:  8
     \\/     M anipulation  |
\*---------------------------------------------------------------------------*/
FoamFile
{
    version     2.0;
    format      ascii;
    class       scalarField;
    location    "0.2/lagrangian/reactingCloud1";
    object      T;
}
// * * * * * * * * * * * * * * * * * * * * * * * * * * * * * * * * * * * * * //


37
(
300
300
300
300
300
300
300
300
300.0000004
300
300.0000008
300.0000001
299.9999987
300.0000001
300
299.9999996
299.9999976
299.9999999
300
299.9999996
300
299.9999996
300
300
300
299.9999953
299.9999984
300
300
299.9999978
300
300
299.9999954
299.9999955
300
300
300
)


// ************************************************************************* //
