/*--------------------------------*- C++ -*----------------------------------*\
  =========                 |
  \\      /  F ield         | OpenFOAM: The Open Source CFD Toolbox
   \\    /   O peration     | Website:  https://openfoam.org
    \\  /    A nd           | Version:  8
     \\/     M anipulation  |
\*---------------------------------------------------------------------------*/
FoamFile
{
    version     2.0;
    format      ascii;
    class       vectorField;
    location    "0.2/lagrangian/reactingCloud1";
    object      U;
}
// * * * * * * * * * * * * * * * * * * * * * * * * * * * * * * * * * * * * * //


37
(
(-0.6791916434 0.6446991125 -3.141888784)
(-0.3874835269 0.7358732131 -3.096053383)
(-0.09179731373 0.956903232 -2.863963522)
(-0.1183775239 0.4617043746 -3.075427855)
(-1.022468888 0.1757968598 -2.873109378)
(0.007206559623 0.9478862153 -2.545984837)
(-0.3764371996 0.9632272367 -2.412375905)
(0.08850408531 0.9555611089 -2.679276739)
(-0.006462205668 1.217183507 -0.7791286131)
(-1.010314398 0.539823119 -2.497990737)
(-0.003147955588 1.372026016 -0.8045138831)
(-0.007911208195 1.328825609 -0.7542984517)
(-0.3937989145 0.003771162475 -0.7562658989)
(-0.007094775483 1.37364203 -0.7228717785)
(-0.008739445793 1.276158325 -0.725546732)
(-0.006612115963 1.149340545 -0.7016756137)
(-0.9173900052 0.01012058425 -0.6742280571)
(-0.004815143637 1.424716873 -0.6880165405)
(-1.044499995 0.2362791061 -2.661722175)
(0.0008649808665 1.437500616 -0.6587973587)
(-0.6582109162 0.5933840819 -2.403674738)
(0.003107082682 1.442206214 -0.6364715167)
(-0.9883634649 0.66225999 -2.234556806)
(-0.2969660753 1.077858918 -2.052958939)
(-0.9708073824 0.1509970736 -2.577824634)
(0.5219729897 0.1888128269 -0.3974655923)
(-0.2272567399 -0.7502341337 -0.3846016855)
(-0.9124045192 0.2329278665 -2.506681723)
(-0.3448151475 0.3111521561 -2.415393211)
(-0.2887322162 -0.416593118 -0.2115446077)
(-1.019431059 0.7209200814 -1.832182462)
(-0.2250159277 1.04735886 -1.915824156)
(-1.042316647 0.001817159381 -0.1001677451)
(-1.22316329 0.000708903323 -0.09809242211)
(-0.4298025665 0.99182602 -1.914819837)
(-0.01020872226 1.078379932 -1.888316815)
(0.07885931373 0.4926295009 -3.174226651)
)


// ************************************************************************* //
