/*--------------------------------*- C++ -*----------------------------------*\
  =========                 |
  \\      /  F ield         | OpenFOAM: The Open Source CFD Toolbox
   \\    /   O peration     | Website:  https://openfoam.org
    \\  /    A nd           | Version:  8
     \\/     M anipulation  |
\*---------------------------------------------------------------------------*/
FoamFile
{
    version     2.0;
    format      ascii;
    class       volScalarField;
    location    "1";
    object      O2;
}
// * * * * * * * * * * * * * * * * * * * * * * * * * * * * * * * * * * * * * //

dimensions      [0 0 0 0 0 0 0];

internalField   nonuniform List<scalar> 
67410
(
0.2100047406
0.2100042566
0.2100039884
0.2100038509
0.2100037919
0.2100037701
0.2100037506
0.2100037096
0.2100036448
0.2100035801
0.2100035444
0.2100035412
0.2100035463
0.2100035462
0.2100035746
0.2100036267
0.2100035484
0.2100034279
0.210003324
0.2100032673
0.2100032824
0.2100033629
0.2100034463
0.2100034435
0.2100033355
0.2100031643
0.2100046538
0.2100041571
0.2100038913
0.2100037611
0.2100036894
0.2100036216
0.210003526
0.2100034051
0.210003298
0.210003247
0.2100032491
0.2100032482
0.2100031903
0.210003089
0.2100030493
0.2100031197
0.2100030058
0.2100028318
0.2100027019
0.2100026344
0.2100026467
0.2100027399
0.2100028715
0.2100029513
0.2100029259
0.2100028133
0.2100044364
0.2100040333
0.2100038085
0.2100036736
0.2100035533
0.2100034107
0.2100032518
0.2100031231
0.2100030762
0.2100031082
0.2100031436
0.2100030914
0.2100029226
0.2100026973
0.2100025726
0.210002644
0.2100026171
0.2100024018
0.2100022407
0.2100021525
0.210002142
0.2100022188
0.2100023623
0.2100024927
0.2100025282
0.2100024471
0.2100042063
0.2100039135
0.2100037329
0.2100035789
0.2100033983
0.2100031951
0.2100030222
0.210002946
0.2100029831
0.2100030643
0.2100030744
0.2100029402
0.2100026624
0.2100023215
0.2100020761
0.2100020652
0.2100023495
0.210002122
0.210001912
0.2100017927
0.2100017571
0.2100018142
0.2100019491
0.2100020813
0.2100021106
0.2100019965
0.2100040006
0.2100038049
0.2100036559
0.2100034794
0.2100032544
0.2100030243
0.2100028706
0.210002851
0.2100029403
0.2100030295
0.210003002
0.2100027774
0.2100023628
0.2100018647
0.2100014803
0.2100014212
0.2100020663
0.2100019318
0.2100016778
0.2100015189
0.210001462
0.2100015049
0.2100016212
0.2100017087
0.2100016607
0.2100014612
0.2100038456
0.2100037072
0.2100035734
0.210003384
0.2100031413
0.2100029079
0.2100027713
0.2100027818
0.2100029006
0.2100029984
0.210002917
0.2100025578
0.2100019637
0.2100013026
0.2100008325
0.2100008313
0.2100016311
0.2100017675
0.2100015126
0.2100013148
0.2100012422
0.2100012718
0.2100013498
0.2100013497
0.2100011889
0.2100009087
0.2100037247
0.2100036101
0.2100034835
0.2100032958
0.2100030582
0.2100028312
0.2100026976
0.2100027135
0.2100028475
0.2100029374
0.210002769
0.2100022526
0.2100015078
0.2100007702
0.2100003208
0.2100004443
0.2100011965
0.2100015963
0.2100013886
0.2100011748
0.2100010906
0.210001094
0.2100011027
0.2100009916
0.2100007317
0.2100004049
0.2100036171
0.2100035098
0.2100033881
0.2100032117
0.2100029916
0.210002776
0.2100026303
0.2100026048
0.2100026797
0.2100027163
0.210002518
0.2100020148
0.2100013208
0.21000067
0.2100003273
0.2100005205
0.2100011269
0.2100014331
0.2100012798
0.2100010812
0.2100009853
0.2100009442
0.2100008643
0.2100006551
0.2100003364
0.2099999931
0.210003526
0.2100034201
0.2100032972
0.2100031289
0.2100029244
0.2100027162
0.2100025411
0.2100024256
0.2100023807
0.2100024012
0.2100024398
0.2100023593
0.2100020335
0.2100015454
0.2100011667
0.2100011808
0.2100015447
0.210001406
0.2100012064
0.210001017
0.2100009004
0.2100008074
0.2100006525
0.2100003843
0.2100000438
0.2099996994
0.2100034693
0.2100033646
0.2100032315
0.2100030591
0.2100028614
0.2100026654
0.2100024977
0.2100023758
0.2100023058
0.2100022827
0.2100022836
0.2100022518
0.210002087
0.2100017743
0.2100014836
0.2100014215
0.2100014836
0.2100012814
0.2100010938
0.2100009371
0.2100008201
0.2100007017
0.2100005151
0.2100002319
0.2099998927
0.2099995579
0.2100034615
0.2100033617
0.2100032114
0.2100030203
0.2100028105
0.2100026088
0.2100024329
0.2100022909
0.2100021862
0.2100021201
0.2100020869
0.210002067
0.2100020224
0.2100018926
0.210001687
0.2100014798
0.2100012959
0.2100011108
0.2100009625
0.2100008506
0.2100007636
0.2100006558
0.2100004805
0.2100002387
0.2099999173
0.2099995933
0.2100035057
0.210003414
0.2100032455
0.2100030287
0.2100027942
0.2100025757
0.2100023912
0.2100022397
0.2100021149
0.2100020137
0.2100019297
0.2100018471
0.2100017426
0.2100015994
0.2100014241
0.2100012408
0.2100010746
0.2100009379
0.2100008484
0.2100007998
0.2100007385
0.2100006001
0.2100004225
0.2100003808
0.210000113
0.2099997922
0.2100035924
0.2100035027
0.2100033175
0.2100030801
0.2100028194
0.2100025728
0.2100023697
0.2100022108
0.2100020767
0.2100019528
0.2100018327
0.2100017087
0.2100015624
0.2100013922
0.210001217
0.2100010509
0.2100009179
0.2100008391
0.2100008199
0.210000795
0.2100006217
0.2100002806
0.210000026
0.2100004623
0.2100003627
0.2100001438
0.2100037014
0.2100035912
0.2100033887
0.2100031474
0.2100028823
0.2100026149
0.2100023847
0.2100022172
0.2100020898
0.2100019709
0.2100018364
0.2100016908
0.2100014998
0.2100012879
0.2100011112
0.2100009663
0.210000881
0.2100008659
0.2100008624
0.2100006906
0.2100002224
0.2099996596
0.2099993807
0.2100003353
0.2100005296
0.2100004904
0.2100038044
0.2100036417
0.2100034232
0.2100032008
0.2100029668
0.2100027117
0.2100024568
0.210002271
0.210002145
0.2100020411
0.2100018994
0.2100017621
0.2100015271
0.21000128
0.2100011277
0.2100010261
0.2100010004
0.2100009959
0.2100008372
0.2100003439
0.2099996308
0.2099990499
0.2099989759
0.2099997127
0.210000425
0.2100007278
0.2100038743
0.2100036435
0.2100034297
0.2100032527
0.2100030795
0.210002878
0.2100026203
0.210002449
0.2100024136
0.2100024823
0.2100024038
0.2100024679
0.2100019569
0.2100015286
0.2100013976
0.2100012694
0.2100012059
0.2100010545
0.2100006772
0.2100000941
0.2099994928
0.2099991325
0.2099993325
0.2099994716
0.2099999745
0.2100006323
0.2100039054
0.2100036325
0.2100034627
0.2100033566
0.2100032646
0.2100031434
0.2100028486
0.2100025807
0.2100023571
0.2100024018
0.2100022571
0.2100027203
0.210002105
0.2100016018
0.2100014878
0.2100013137
0.2100011956
0.2100011114
0.2100010904
0.21000102
0.210000678
0.2100002107
0.2100001354
0.2100003076
0.2100005867
0.2100009565
0.2100039289
0.2100036716
0.2100035751
0.2100035669
0.2100036159
0.2100036269
0.2100033266
0.2100034262
0.2100036158
0.2100050872
0.2100040536
0.2100083899
0.2100027991
0.2100024599
0.2100019043
0.2100013898
0.2100012398
0.2100011085
0.2100010586
0.2100010927
0.2100010754
0.210000719
0.210000549
0.2100007893
0.2100009467
0.2100011498
0.2100039992
0.2100038211
0.2100038192
0.2100039756
0.2100042264
0.210004092
0.2100033882
0.2100032443
0.2100028337
0.2100024216
0.2100020032
0.2100020913
0.2100018932
0.2100016727
0.2100015787
0.2100014585
0.2100014381
0.2100014174
0.2100013951
0.2100013451
0.2100012528
0.2100010815
0.2100008844
0.2100011081
0.2100011938
0.2100013373
0.2100040691
0.2100040855
0.2100042348
0.2100046331
0.2100046506
0.2100037569
0.2100037351
0.2100036928
0.2100037665
0.2100036317
0.2100029455
0.2100027054
0.2100021988
0.2100018606
0.2100018111
0.2100017616
0.2100018175
0.2100018828
0.2100018929
0.2100018059
0.2100014992
0.2100013909
0.210001265
0.2100014027
0.2100014713
0.2100016037
0.2100039562
0.2100044488
0.2100049269
0.2100048003
0.2100029511
0.2100012876
0.2100038377
0.2100037941
0.2100038422
0.2100036863
0.2100033738
0.2100027475
0.2100022185
0.2100019625
0.2100019058
0.2100018964
0.2100019682
0.2100020481
0.2100020753
0.2100020351
0.2100017394
0.210001653
0.210001644
0.2100017261
0.2100018165
0.2100019619
0.2100038697
0.2100048678
0.2100046263
0.210001949
0.2099990603
0.209998495
0.2100026065
0.2100030678
0.2100040106
0.210004058
0.2100039689
0.210003815
0.2100031434
0.2100023597
0.2100020763
0.2100019824
0.2100019853
0.2100020402
0.2100020767
0.2100020783
0.2100019498
0.2100019378
0.2100020131
0.2100021034
0.2100022334
0.2100024024
0.2100031425
0.2100036822
0.2100041188
0.2100045979
0.2100038981
0.2100028618
0.2100040767
0.2100039795
0.210004029
0.2100039784
0.2100039735
0.2100040267
0.2100040617
0.2100036208
0.2100026687
0.2100022378
0.2100021227
0.2100020975
0.2100021123
0.2100021744
0.2100022847
0.2100023124
0.2100024187
0.2100025575
0.210002733
0.2100029238
0.2100029923
0.2100034078
0.2100037706
0.2100040935
0.2100044281
0.2100042049
0.210004029
0.2100041692
0.2100042811
0.2100041163
0.210004084
0.2100041351
0.2100042158
0.2100042983
0.2100038781
0.2100028521
0.2100025351
0.2100025107
0.2100025768
0.2100027746
0.2100030767
0.210003002
0.2100029478
0.2100031139
0.2100033395
0.2100035506
0.2100028147
0.2100031392
0.2100034445
0.2100037508
0.2100039849
0.2100041157
0.2100039964
0.2100040761
0.2100042006
0.2100040015
0.2100040525
0.2100041546
0.2100043065
0.2100044532
0.2100044684
0.2100037733
0.210003179
0.2100032507
0.2100035253
0.2100039519
0.2100043638
0.2100042104
0.2100036882
0.2100037209
0.2100039914
0.2100026923
0.2100030144
0.2100032274
0.2100035538
0.2100038062
0.2100040674
0.2100044051
0.2100049169
0.2100061947
0.210004472
0.2100046303
0.2100045274
0.2100045396
0.2100046318
0.21000469
0.2100044546
0.2100038628
0.2100038054
0.2100040974
0.2100044016
0.2100045189
0.210004528
0.2100045344
0.2100043525
0.2100045949
0.2100025855
0.2100029114
0.2100030294
0.2100033402
0.2100036354
0.2100038063
0.2100039389
0.2100040631
0.210004183
0.2100041177
0.2100042486
0.2100043087
0.2100043682
0.2100044515
0.2100046277
0.2100047514
0.2100044611
0.2100042922
0.2100044827
0.2100046551
0.2100047918
0.2100048647
0.2100049197
0.2100049228
0.2100050317
0.2100024641
0.2100028188
0.2100029036
0.2100031312
0.2100035178
0.210003804
0.2100040242
0.2100042851
0.2100045774
0.210004449
0.2100044813
0.21000445
0.2100043891
0.2100043707
0.2100044101
0.2100046228
0.2100048318
0.2100048144
0.2100048914
0.2100049926
0.2100051217
0.2100052346
0.2100052356
0.2100052498
0.2100052536
0.2100023151
0.2100026982
0.2100028087
0.2100029576
0.2100033159
0.2100037128
0.2100039387
0.2100041346
0.2100043123
0.2100043821
0.2100044849
0.2100045033
0.2100044898
0.2100044881
0.2100045218
0.2100046741
0.2100049614
0.2100052326
0.2100053428
0.2100054049
0.2100054844
0.2100055853
0.2100056137
0.2100056068
0.2100056391
0.2100056601
0.2100021549
0.2100025604
0.2100027064
0.2100028477
0.2100031385
0.2100036308
0.210003924
0.210004122
0.2100042722
0.2100043768
0.2100044862
0.2100045322
0.2100045502
0.2100045763
0.2100046298
0.2100047364
0.2100048969
0.2100052345
0.2100054836
0.2100055875
0.2100056555
0.2100057613
0.2100058173
0.2100058315
0.210005839
0.2100058932
0.2100048192
0.2100043587
0.2100040888
0.2100039501
0.2100038922
0.2100038774
0.210003871
0.2100038463
0.210003792
0.2100037182
0.2100036532
0.2100036253
0.2100036418
0.2100036894
0.2100037445
0.2100037741
0.2100037423
0.2100036805
0.2100036179
0.2100035721
0.2100035587
0.2100035712
0.2100035763
0.2100035316
0.210003427
0.2100032786
0.2100047961
0.2100043206
0.2100040533
0.2100039222
0.2100038639
0.2100038271
0.2100037749
0.210003689
0.210003575
0.210003461
0.2100033809
0.2100033512
0.2100033587
0.2100033759
0.2100033764
0.2100033475
0.2100032805
0.2100031882
0.2100031038
0.2100030338
0.2100029948
0.2100029888
0.210002998
0.2100029879
0.210002931
0.210002823
0.2100046227
0.2100042349
0.2100040102
0.2100038829
0.2100037912
0.2100036954
0.2100035813
0.2100034556
0.2100033381
0.2100032511
0.2100032077
0.2100031972
0.2100031823
0.2100031392
0.2100030562
0.2100029404
0.2100028471
0.2100027237
0.2100026085
0.2100025059
0.2100024383
0.2100024159
0.2100024293
0.2100024483
0.2100024325
0.2100023549
0.210004374
0.2100041238
0.2100039599
0.2100038309
0.2100036902
0.2100035275
0.2100033628
0.2100032262
0.210003137
0.2100030987
0.2100030982
0.2100030915
0.2100030339
0.2100029111
0.2100027633
0.2100026108
0.2100024902
0.2100023298
0.2100021647
0.21000202
0.2100019247
0.2100018912
0.2100019088
0.2100019431
0.2100019442
0.2100018732
0.2100041383
0.2100040031
0.2100039008
0.2100037704
0.2100035888
0.2100033775
0.2100031844
0.2100030502
0.2100029878
0.2100029878
0.2100030118
0.2100029985
0.2100028793
0.2100026644
0.2100024553
0.2100023035
0.2100021853
0.2100020163
0.2100018007
0.2100016084
0.2100014851
0.2100014399
0.2100014549
0.2100014851
0.2100014717
0.2100013798
0.2100039606
0.2100038934
0.2100038335
0.2100037087
0.2100035096
0.2100032762
0.2100030688
0.210002931
0.2100028737
0.2100028832
0.2100029165
0.2100028728
0.2100026654
0.2100023513
0.2100020983
0.2100019696
0.2100018845
0.2100017629
0.2100015146
0.2100012808
0.210001131
0.2100010675
0.2100010676
0.2100010714
0.2100010194
0.2100008854
0.210003834
0.2100037951
0.2100037571
0.210003646
0.2100034527
0.2100032177
0.2100030006
0.2100028453
0.2100027667
0.2100027552
0.2100027626
0.2100026685
0.2100023888
0.2100020203
0.2100017635
0.2100016583
0.2100015898
0.2100015299
0.210001281
0.2100010246
0.2100008564
0.2100007701
0.2100007367
0.210000698
0.210000595
0.2100004095
0.210003734
0.210003703
0.2100036714
0.210003575
0.2100034001
0.210003176
0.210002953
0.2100027737
0.2100026587
0.2100026073
0.2100025805
0.210002465
0.2100021792
0.210001822
0.2100015756
0.2100014588
0.2100013646
0.2100012991
0.2100010722
0.2100008199
0.2100006436
0.210000535
0.2100004614
0.2100003713
0.2100002194
0.2099999979
0.2100036568
0.210003625
0.2100035854
0.2100034943
0.2100033375
0.210003131
0.2100029111
0.2100027164
0.2100025686
0.2100024638
0.2100023713
0.2100022315
0.2100019929
0.2100016917
0.2100014505
0.2100013063
0.210001187
0.2100010933
0.2100008823
0.2100006526
0.2100004785
0.2100003549
0.2100002501
0.2100001228
0.209999939
0.2099997046
0.2100036138
0.2100035789
0.2100035183
0.2100034169
0.210003268
0.2100030784
0.2100028683
0.2100026667
0.2100024977
0.2100023679
0.2100022616
0.2100021377
0.2100019453
0.2100016851
0.2100014366
0.2100012615
0.2100011252
0.210000957
0.2100007309
0.2100005202
0.2100003577
0.2100002327
0.2100001143
0.2099999713
0.2099997791
0.209999552
0.2100036157
0.2100035789
0.2100034891
0.2100033621
0.2100032044
0.2100030212
0.2100028194
0.2100026138
0.2100024242
0.2100022634
0.2100021298
0.2100020081
0.2100018731
0.2100017002
0.2100014845
0.2100012566
0.2100010368
0.210000815
0.2100006017
0.2100004224
0.2100002842
0.2100001732
0.2100000611
0.2099999259
0.2099997444
0.2099995364
0.210003664
0.2100036271
0.210003506
0.2100033453
0.2100031646
0.2100029743
0.2100027763
0.2100025718
0.2100023708
0.2100021845
0.2100020156
0.2100018594
0.2100017021
0.2100015262
0.2100013272
0.2100011093
0.2100008893
0.210000684
0.2100005051
0.2100003607
0.2100002502
0.2100001587
0.2100000677
0.2099999735
0.2099998158
0.209999633
0.2100037506
0.2100037107
0.2100035599
0.2100033662
0.2100031569
0.2100029482
0.2100027464
0.2100025451
0.2100023406
0.2100021391
0.2100019389
0.2100017459
0.2100015548
0.2100013554
0.2100011587
0.2100009593
0.2100007698
0.2100005978
0.2100004506
0.2100003336
0.2100002459
0.2100001609
0.2100000782
0.2100000749
0.2099999711
0.2099998267
0.2100038602
0.2100038071
0.2100036292
0.2100034106
0.2100031795
0.2100029512
0.2100027408
0.2100025485
0.2100023591
0.2100021678
0.2100019475
0.2100017306
0.2100015121
0.2100012786
0.2100010853
0.2100009001
0.2100007348
0.210000592
0.2100004885
0.2100004289
0.2100003705
0.2100002487
0.2100001417
0.2100001837
0.2100002002
0.2100001163
0.2100039744
0.2100038922
0.2100036927
0.2100034607
0.2100032217
0.2100029842
0.2100027644
0.210002583
0.2100024263
0.2100022843
0.2100020468
0.2100018264
0.2100015875
0.2100012977
0.2100011201
0.2100009449
0.2100008025
0.2100006856
0.2100006115
0.2100005639
0.2100004424
0.2100002752
0.2100001957
0.2100001827
0.2100003313
0.2100004056
0.2100040736
0.2100039507
0.2100037426
0.2100035083
0.2100032769
0.2100030508
0.2100028385
0.2100026991
0.2100026591
0.210002733
0.2100023623
0.2100021665
0.2100017984
0.2100014282
0.210001294
0.210001099
0.2100009853
0.2100009123
0.2100009109
0.2100009298
0.2100008147
0.2100007082
0.2100006789
0.2100004856
0.210000545
0.2100006506
0.2100041405
0.2100039832
0.2100037872
0.2100035605
0.2100033517
0.2100031526
0.2100029425
0.2100027308
0.2100026738
0.2100032072
0.2100026052
0.2100030038
0.2100020417
0.2100016258
0.2100014493
0.2100012783
0.2100012293
0.2100011759
0.2100011215
0.2100010594
0.210000975
0.2100008755
0.2100008413
0.2100006993
0.2100007641
0.210000903
0.2100041683
0.2100040055
0.2100038417
0.2100036283
0.2100034565
0.2100033478
0.2100033647
0.2100035581
0.2100041706
0.210005561
0.2100033135
0.2100038608
0.2099990689
0.2100018255
0.2100015694
0.2100014814
0.2100015255
0.2100015077
0.210001481
0.2100014024
0.2100012759
0.2100011522
0.2100010587
0.2100009844
0.2100010259
0.2100011362
0.2100041594
0.2100040316
0.2100039037
0.2100037211
0.2100035327
0.2100033612
0.210003273
0.210002987
0.2100026536
0.2100023474
0.2100019552
0.2100013122
0.2100015389
0.2100016918
0.2100017147
0.2100017457
0.2100018726
0.210001941
0.2100019252
0.210001775
0.2100015261
0.2100013396
0.2100012537
0.2100012523
0.2100013121
0.2100014199
0.2100040602
0.2100040403
0.2100038807
0.2100037205
0.2100036896
0.2100039451
0.210003678
0.2100036061
0.2100034838
0.2100033027
0.2100026978
0.2100023076
0.2100019987
0.2100018745
0.2100019592
0.2100020142
0.2100022215
0.210002388
0.2100023976
0.2100021865
0.2100018421
0.210001602
0.2100015261
0.2100015824
0.2100016702
0.2100017901
0.2100037445
0.210003979
0.2100038723
0.2100038921
0.2100041753
0.2100043037
0.2100035715
0.2100037218
0.2100035123
0.2100033047
0.2100029696
0.210002518
0.210002225
0.2100020662
0.2100020957
0.2100021651
0.2100023508
0.2100025195
0.2100025499
0.2100023863
0.2100020876
0.2100018951
0.2100018742
0.2100019717
0.2100021006
0.210002248
0.2100033897
0.2100038401
0.210003767
0.210004444
0.2100044821
0.2100047212
0.2100038687
0.2100039936
0.2100039393
0.2100038738
0.2100036218
0.2100033615
0.2100029643
0.2100024875
0.2100022822
0.2100022532
0.2100023604
0.2100024789
0.2100025321
0.2100024615
0.2100022984
0.2100022036
0.210002262
0.210002411
0.2100025935
0.2100027762
0.2100031017
0.2100035426
0.2100037904
0.2100038676
0.2100039812
0.2100045815
0.2100042195
0.2100041528
0.2100040745
0.2100039248
0.2100038604
0.2100038128
0.2100037066
0.2100033958
0.210002838
0.2100025045
0.21000248
0.2100025664
0.2100026511
0.2100026559
0.2100025935
0.210002574
0.2100026943
0.2100029106
0.2100031517
0.2100033506
0.2100030823
0.2100033764
0.2100036593
0.2100038287
0.2100039137
0.2100041401
0.2100041076
0.2100042026
0.2100043279
0.2100040163
0.2100040083
0.2100040423
0.2100040865
0.2100040351
0.2100036664
0.2100030427
0.210002839
0.2100029556
0.2100031262
0.2100032103
0.2100032309
0.210003151
0.2100031939
0.2100034577
0.2100037592
0.2100039425
0.2100031047
0.2100032335
0.2100034731
0.2100037003
0.2100038544
0.210003988
0.2100040544
0.210004109
0.2100043935
0.210003951
0.2100040607
0.2100041541
0.2100042971
0.2100043797
0.2100042188
0.2100037204
0.2100033187
0.2100034137
0.2100036935
0.2100039143
0.2100039914
0.2100038732
0.2100037912
0.2100039821
0.2100043188
0.2100031771
0.2100032098
0.2100033566
0.2100035815
0.2100037985
0.2100040805
0.2100045609
0.2100052584
0.2100079087
0.2100045981
0.2100047219
0.2100045157
0.2100045701
0.2100046556
0.2100046105
0.2100043029
0.2100038571
0.2100037616
0.2100039801
0.2100042587
0.2100045002
0.2100044504
0.2100043709
0.2100044536
0.2100047444
0.2100031948
0.2100032133
0.2100032858
0.2100034578
0.2100036377
0.2100037741
0.210003892
0.2100040186
0.2100042597
0.2100040545
0.2100042326
0.2100043251
0.2100044324
0.2100045806
0.2100047519
0.2100047649
0.2100044509
0.2100041857
0.2100042993
0.2100046184
0.2100049429
0.210005006
0.2100048217
0.2100048891
0.2100050738
0.2100031371
0.21000318
0.2100032656
0.2100034103
0.2100036128
0.2100038078
0.2100040171
0.2100042571
0.2100046416
0.2100042923
0.210004382
0.2100043609
0.2100043319
0.2100043691
0.2100045334
0.2100047579
0.210004875
0.2100047284
0.2100047674
0.2100050262
0.2100053241
0.2100054397
0.2100052778
0.2100052183
0.210005324
0.2100030134
0.2100030808
0.2100031956
0.2100033596
0.2100035489
0.2100037407
0.2100038908
0.2100040336
0.2100041852
0.2100042361
0.2100043553
0.210004409
0.2100044414
0.2100045037
0.2100046469
0.2100048184
0.2100050138
0.2100051818
0.2100052904
0.210005461
0.2100056653
0.2100058129
0.210005777
0.2100056866
0.2100056781
0.210005654
0.2100028527
0.2100029465
0.2100030838
0.2100032843
0.2100034996
0.2100037065
0.210003861
0.2100040084
0.2100041538
0.2100042532
0.2100043776
0.2100044712
0.2100045541
0.2100046576
0.2100047828
0.2100048753
0.2100049874
0.2100052131
0.2100054562
0.2100056572
0.2100058234
0.2100059913
0.2100060306
0.2100060216
0.210005976
0.2100059863
0.2100048959
0.2100044503
0.2100041842
0.2100040432
0.2100039804
0.2100039648
0.2100039648
0.2100039528
0.2100039128
0.2100038476
0.2100037797
0.2100037385
0.2100037407
0.2100037793
0.2100038288
0.2100038592
0.2100038529
0.2100038189
0.2100037727
0.2100037266
0.2100036929
0.2100036697
0.2100036403
0.2100035829
0.2100034885
0.2100033593
0.2100049117
0.2100044552
0.2100041893
0.2100040541
0.2100039986
0.2100039808
0.210003964
0.210003921
0.2100038409
0.2100037361
0.2100036372
0.2100035727
0.2100035479
0.2100035439
0.2100035354
0.2100035036
0.2100034444
0.2100033587
0.2100032638
0.2100031709
0.2100030959
0.2100030428
0.2100030015
0.2100029524
0.2100028771
0.2100027653
0.210004789
0.2100044055
0.2100041778
0.2100040515
0.2100039789
0.210003925
0.2100038676
0.2100037929
0.210003698
0.2100035931
0.2100034971
0.2100034206
0.210003353
0.2100032773
0.210003192
0.2100030949
0.2100029923
0.2100028629
0.2100027207
0.2100025826
0.2100024713
0.2100023964
0.2100023516
0.2100023166
0.210002264
0.2100021714
0.2100045325
0.2100043102
0.2100041506
0.2100040358
0.2100039313
0.2100038236
0.2100037159
0.2100036154
0.2100035258
0.2100034465
0.2100033721
0.2100032841
0.2100031578
0.2100029992
0.2100028438
0.2100027014
0.2100025619
0.2100023976
0.210002206
0.210002022
0.2100018776
0.210001785
0.2100017383
0.2100017137
0.2100016758
0.2100015939
0.2100042748
0.2100041787
0.2100041024
0.2100040053
0.2100038704
0.2100037118
0.2100035593
0.2100034403
0.2100033628
0.210003312
0.2100032519
0.2100031435
0.210002953
0.2100027071
0.2100024837
0.2100023087
0.2100021538
0.2100019878
0.2100017619
0.2100015373
0.2100013626
0.2100012524
0.2100011987
0.2100011728
0.2100011323
0.2100010432
0.2100040764
0.2100040501
0.2100040373
0.2100039635
0.2100038148
0.2100036237
0.2100034392
0.2100033021
0.2100032238
0.2100031766
0.2100031115
0.2100029611
0.2100026825
0.2100023461
0.2100020726
0.2100018882
0.2100017402
0.2100016102
0.2100013864
0.2100011381
0.2100009405
0.2100008122
0.2100007425
0.2100006998
0.210000637
0.2100005227
0.2100039434
0.2100039425
0.2100039602
0.21000391
0.210003768
0.2100035668
0.2100033614
0.210003199
0.2100030939
0.210003016
0.2100029143
0.2100027044
0.2100023568
0.2100019686
0.2100016744
0.2100014863
0.2100013436
0.2100012479
0.2100010589
0.210000812
0.2100006036
0.21000046
0.2100003681
0.2100002929
0.2100001957
0.2100000528
0.2100038495
0.2100038519
0.2100038738
0.2100038392
0.2100037152
0.2100035209
0.2100033035
0.2100031096
0.210002959
0.2100028321
0.2100026847
0.210002443
0.2100020836
0.2100016938
0.2100013931
0.2100011884
0.2100010313
0.2100009408
0.2100007793
0.2100005485
0.2100003421
0.2100001897
0.210000078
0.2099999744
0.2099998451
0.2099996763
0.2100037837
0.2100037811
0.2100037881
0.2100037528
0.2100036439
0.2100034648
0.2100032458
0.2100030269
0.210002834
0.2100026633
0.2100024812
0.210002235
0.2100018938
0.2100015179
0.2100012093
0.2100009903
0.2100008242
0.2100007178
0.2100005575
0.2100003432
0.2100001476
0.2099999944
0.2099998703
0.2099997469
0.2099995969
0.2099994162
0.210003751
0.2100037413
0.2100037207
0.2100036674
0.2100035609
0.2100033953
0.2100031827
0.2100029502
0.2100027244
0.2100025156
0.2100023109
0.2100020763
0.2100017732
0.2100014281
0.2100011207
0.2100008945
0.2100007243
0.2100005815
0.2100003997
0.2100001974
0.2100000182
0.209999873
0.2099997474
0.2099996179
0.2099994627
0.2099992853
0.2100037587
0.210003743
0.2100036882
0.2100036045
0.2100034857
0.2100033245
0.2100031193
0.2100028831
0.2100026376
0.2100024004
0.2100021764
0.2100019562
0.2100017163
0.2100014387
0.2100011529
0.2100009039
0.210000694
0.2100004992
0.2100003002
0.2100001136
0.2099999559
0.2099998256
0.2099997092
0.2099995893
0.2099994434
0.2099992798
0.210003808
0.2100037869
0.2100036958
0.2100035767
0.2100034366
0.21000327
0.2100030689
0.2100028339
0.2100025782
0.2100023195
0.2100020691
0.2100018307
0.2100015995
0.2100013618
0.2100011162
0.2100008729
0.2100006475
0.210000441
0.2100002539
0.2100000927
0.2099999577
0.2099998421
0.2099997412
0.2099996473
0.2099995242
0.2099993816
0.2100038919
0.2100038622
0.210003734
0.21000358
0.2100034168
0.2100032401
0.2100030397
0.2100028082
0.2100025489
0.2100022755
0.2100020002
0.2100017358
0.2100014915
0.2100012558
0.2100010327
0.210000816
0.2100006134
0.2100004314
0.2100002729
0.2100001367
0.2100000148
0.2099999018
0.2099998169
0.2099997638
0.2099996824
0.2099995729
0.2100039987
0.2100039518
0.2100037861
0.2100036006
0.2100034183
0.210003233
0.2100030332
0.2100028105
0.2100025601
0.2100022857
0.2100019884
0.2100016947
0.2100014485
0.210001214
0.2100010144
0.210000822
0.2100006511
0.2100005019
0.2100003739
0.2100002584
0.2100001372
0.2100000148
0.2099999458
0.2099999152
0.2099998941
0.2099998366
0.2100041147
0.2100040402
0.2100038399
0.2100036277
0.2100034316
0.2100032417
0.2100030426
0.2100028293
0.2100025986
0.2100023451
0.2100020207
0.2100016908
0.2100014705
0.2100012593
0.2100010842
0.2100009157
0.2100007797
0.2100006611
0.2100005539
0.2100004406
0.2100003056
0.2100001932
0.2100001535
0.2100000751
0.210000115
0.210000143
0.2100042259
0.210004117
0.2100038937
0.2100036621
0.2100034566
0.2100032668
0.210003071
0.2100028701
0.2100026616
0.2100024124
0.2100020048
0.2100014112
0.2100014226
0.2100013274
0.2100012016
0.2100010741
0.2100009894
0.210000908
0.2100008357
0.2100007587
0.2100006662
0.2100006167
0.2100005934
0.2100004214
0.2100004161
0.2100004796
0.2100043147
0.2100041773
0.2100039547
0.2100037164
0.2100035063
0.2100033151
0.2100031071
0.2100028893
0.2100028195
0.2100028018
0.2100022316
0.2100019801
0.210001477
0.2100015957
0.2100014057
0.2100013225
0.2100012864
0.2100012469
0.2100011954
0.2100011051
0.2100009884
0.2100009134
0.2100008739
0.2100007304
0.2100007462
0.2100008443
0.2100043555
0.2100042195
0.2100040326
0.21000381
0.2100036131
0.2100034507
0.2100033073
0.2100031143
0.2100028647
0.2100006681
0.2100004071
0.2099974294
0.2099990124
0.2100019278
0.2100014023
0.2100015615
0.2100016226
0.2100016501
0.2100016316
0.2100015326
0.2100013728
0.2100012226
0.2100011505
0.2100010713
0.2100010753
0.2100011273
0.2100043186
0.2100042405
0.2100041196
0.2100039372
0.2100037479
0.2100035542
0.2100033037
0.2100029436
0.2100025245
0.2100018444
0.2100020837
0.2100019687
0.2100009724
0.2100020085
0.2100017825
0.2100019098
0.2100020524
0.2100021662
0.2100021572
0.2100019879
0.2100017387
0.2100015442
0.2100014495
0.2100014112
0.2100014241
0.2100014734
0.2100041604
0.2100042236
0.2100041745
0.2100040813
0.2100040148
0.2100039399
0.2100037635
0.2100035016
0.2100031568
0.210002687
0.2100022923
0.210001803
0.2100018148
0.2100020148
0.210002071
0.2100021988
0.2100024437
0.2100026446
0.2100026535
0.2100024333
0.2100020981
0.2100018543
0.2100017709
0.2100017876
0.2100018402
0.2100019122
0.2100038399
0.2100041266
0.2100041876
0.2100042512
0.2100042363
0.2100038254
0.2100034796
0.2100035631
0.2100033325
0.2100030173
0.2100027344
0.2100024143
0.2100022263
0.2100022443
0.2100022735
0.2100023748
0.2100025728
0.2100027648
0.2100027945
0.2100026302
0.210002356
0.2100021666
0.2100021463
0.2100022271
0.2100023355
0.2100024444
0.2100034621
0.2100039208
0.2100041012
0.2100042732
0.2100041226
0.210003945
0.2100038517
0.210003599
0.2100038608
0.2100036282
0.2100033514
0.210003096
0.2100028332
0.2100025982
0.210002495
0.2100025075
0.2100026177
0.2100027491
0.2100027943
0.2100027319
0.2100025872
0.2100025033
0.2100025663
0.2100027227
0.210002898
0.2100030482
0.2100031815
0.2100036285
0.2100039675
0.2100041438
0.2100043228
0.2100044077
0.2100043207
0.2100041128
0.2100040401
0.2100037872
0.2100036669
0.2100035601
0.2100034337
0.2100032243
0.2100029222
0.2100027549
0.2100027954
0.2100029091
0.2100029951
0.210002991
0.2100029171
0.2100028964
0.2100030292
0.2100032724
0.2100035156
0.210003683
0.2100031184
0.2100034388
0.2100037766
0.2100039854
0.210004113
0.2100042526
0.210004314
0.2100043202
0.2100044813
0.2100037376
0.2100039103
0.2100038539
0.2100038509
0.2100037865
0.2100035077
0.2100031682
0.2100031181
0.2100033039
0.2100034923
0.2100035555
0.2100034943
0.2100034207
0.2100035124
0.2100038188
0.2100041307
0.2100042863
0.2100031066
0.2100032881
0.2100035546
0.210003787
0.210003944
0.2100040275
0.210004079
0.2100041715
0.210004901
0.2100037848
0.2100039776
0.2100039946
0.2100041414
0.2100041896
0.210004028
0.2100036811
0.2100034823
0.2100036631
0.2100039442
0.2100041416
0.2100041818
0.2100040891
0.2100040188
0.2100042795
0.2100046296
0.2100031273
0.2100032197
0.2100034092
0.2100036388
0.2100039022
0.2100042959
0.2100050708
0.2100067132
0.2100084976
0.2100035969
0.2100047111
0.2100043723
0.2100045032
0.210004574
0.2100044977
0.2100042161
0.2100039065
0.2100038908
0.2100041392
0.2100044791
0.2100046725
0.2100046047
0.2100044717
0.2100046314
0.210004969
0.2100031322
0.2100031712
0.2100032886
0.2100034477
0.2100035914
0.2100037042
0.2100038192
0.2100040202
0.2100046178
0.2100039461
0.2100042386
0.2100043298
0.2100045169
0.2100046958
0.2100048063
0.2100047272
0.2100044455
0.210004264
0.2100044304
0.2100048248
0.2100051381
0.2100052332
0.2100049292
0.2100049905
0.2100052298
0.2100031047
0.2100031255
0.2100032235
0.2100033714
0.2100035421
0.2100037325
0.2100039617
0.2100041917
0.2100045993
0.2100040116
0.2100042454
0.2100042522
0.2100043107
0.2100044785
0.2100047313
0.2100049022
0.2100049004
0.2100047579
0.2100048252
0.2100051239
0.2100054377