/*--------------------------------*- C++ -*----------------------------------*\
  =========                 |
  \\      /  F ield         | OpenFOAM: The Open Source CFD Toolbox
   \\    /   O peration     | Website:  https://openfoam.org
    \\  /    A nd           | Version:  8
     \\/     M anipulation  |
\*---------------------------------------------------------------------------*/
FoamFile
{
    version     2.0;
    format      ascii;
    class       volScalarField;
    location    "1";
    object      p;
}
// * * * * * * * * * * * * * * * * * * * * * * * * * * * * * * * * * * * * * //

dimensions      [1 -1 -2 0 0 0 0];

internalField   nonuniform List<scalar> 
67410
(
100003.9322
100003.9027
100003.8886
100003.8744
100003.8644
100003.8585
100003.8571
100003.8611
100003.8712
100003.8882
100003.912
100003.9403
100003.9664
100003.9801
100003.9769
100003.9638
100003.9512
100003.948
100003.9501
100003.9569
100003.9668
100003.9799
100003.9957
100004.0143
100004.0349
100004.0569
100003.9112
100003.8875
100003.8726
100003.8554
100003.8415
100003.8305
100003.8222
100003.8165
100003.8134
100003.813
100003.816
100003.8227
100003.8324
100003.8429
100003.8557
100003.8738
100003.8786
100003.8831
100003.8888
100003.8987
100003.9121
100003.929
100003.9482
100003.9679
100003.9871
100004.0057
100003.9002
100003.8785
100003.8631
100003.8454
100003.8298
100003.8157
100003.8029
100003.7909
100003.7794
100003.7685
100003.7591
100003.7544
100003.7582
100003.7649
100003.776
100003.8119
100003.8346
100003.8489
100003.8571
100003.8685
100003.8822
100003.899
100003.9183
100003.9385
100003.9576
100003.975
100003.8826
100003.8616
100003.8468
100003.8285
100003.8112
100003.7942
100003.777
100003.7591
100003.7406
100003.7216
100003.7052
100003.708
100003.7276
100003.7449
100003.7398
100003.7559
100003.7923
100003.8203
100003.8283
100003.8408
100003.8542
100003.8707
100003.8895
100003.9089
100003.9262
100003.9411
100003.8683
100003.8466
100003.832
100003.8132
100003.7949
100003.7762
100003.7563
100003.7351
100003.7123
100003.6895
100003.6847
100003.7153
100003.7705
100003.812
100003.8033
100003.747
100003.7718
100003.8121
100003.815
100003.8268
100003.8392
100003.8549
100003.8728
100003.8906
100003.9053
100003.9178
100003.8538
100003.8307
100003.8161
100003.797
100003.7788
100003.7599
100003.7397
100003.7175
100003.693
100003.6727
100003.6834
100003.7439
100003.8378
100003.9128
100003.9149
100003.7908
100003.7726
100003.8123
100003.8133
100003.8217
100003.8335
100003.8494
100003.8663
100003.882
100003.8949
100003.909
100003.8406
100003.8159
100003.8013
100003.782
100003.7644
100003.7467
100003.7281
100003.7072
100003.6833
100003.6656
100003.6877
100003.7698
100003.8901
100003.9876
100003.9976
100003.8548
100003.7816
100003.8107
100003.8175
100003.8224
100003.8339
100003.8502
100003.8666
100003.8811
100003.8947
100003.9155
100003.8291
100003.8028
100003.7881
100003.7689
100003.7523
100003.7368
100003.7216
100003.7043
100003.6813
100003.6576
100003.6606
100003.7205
100003.8253
100003.9248
100003.9513
100003.8473
100003.7841
100003.8053
100003.8182
100003.8236
100003.8358
100003.8529
100003.8701
100003.8863
100003.9077
100003.9431
100003.8196
100003.7919
100003.7772
100003.7579
100003.7415
100003.7262
100003.7117
100003.697
100003.6815
100003.6671
100003.6607
100003.6755
100003.7181
100003.7758
100003.8061
100003.7872
100003.7791
100003.7994
100003.8076
100003.82
100003.8365
100003.8561
100003.8761
100003.8977
100003.93
100003.9787
100003.8121
100003.7836
100003.7692
100003.7506
100003.7358
100003.7231
100003.7126
100003.7038
100003.6963
100003.6906
100003.6883
100003.6907
100003.7009
100003.7177
100003.7376
100003.7545
100003.7728
100003.79
100003.8029
100003.8192
100003.8395
100003.8634
100003.8889
100003.9144
100003.9529
100004.0089
100003.8062
100003.7775
100003.7637
100003.7462
100003.7328
100003.7219
100003.7134
100003.7073
100003.7034
100003.7021
100003.7042
100003.7104
100003.7181
100003.726
100003.7386
100003.7514
100003.7637
100003.7791
100003.7973
100003.8198
100003.8457
100003.8757
100003.9106
100003.9356
100003.9716
100004.0249
100003.8024
100003.7736
100003.7607
100003.7448
100003.7338
100003.7256
100003.7205
100003.7186
100003.7194
100003.7219
100003.7249
100003.7282
100003.7316
100003.7343
100003.7385
100003.7448
100003.7562
100003.7731
100003.7955
100003.8224
100003.8505
100003.8837
100003.9331
100003.9611
100003.9903
100004.0282
100003.8014
100003.7721
100003.7601
100003.7462
100003.7384
100003.734
100003.7331
100003.7364
100003.743
100003.7508
100003.7552
100003.7558
100003.7497
100003.74
100003.7376
100003.7411
100003.752
100003.7702
100003.7941
100003.8222
100003.8527
100003.8905
100003.9476
100003.9845
100004.0126
100004.0329
100003.8042
100003.7736
100003.7624
100003.7507
100003.7469
100003.7482
100003.7536
100003.7655
100003.7835
100003.8055
100003.8167
100003.8207
100003.8007
100003.7672
100003.7541
100003.749
100003.7549
100003.7682
100003.7859
100003.8215
100003.8822
100003.9465
100003.9709
100003.9979
100004.0464
100004.0519
100003.8115
100003.7786
100003.7679
100003.7584
100003.7596
100003.7692
100003.7831
100003.8086
100003.8382
100003.8728
100003.8854
100003.9011
100003.8602
100003.7973
100003.7735
100003.7561
100003.7537
100003.7598
100003.7845
100003.8574
100003.9817
100004.0926
100004.0627
100003.9846
100004.0411
100004.0708
100003.8238
100003.7872
100003.7768
100003.7695
100003.776
100003.7977
100003.8246
100003.8967
100004.0112
100004.1666
100004.2072
100004.3447
100004.1277
100003.9008
100003.8511
100003.78
100003.76
100003.7597
100003.7891
100003.8789
100004.032
100004.1594
100004.1317
100003.9922
100003.9781
100004.0391
100003.8399
100003.7993
100003.789
100003.7837
100003.7941
100003.8258
100003.8376
100003.8734
100003.9198
100004.0641
100004.0517
100004.3509
100004.0976
100003.8566
100003.8166
100003.7572
100003.7551
100003.7698
100003.8028
100003.8515
100003.9208
100004.0063
100003.9877
100003.9005
100003.9196
100003.9724
100003.859
100003.8151
100003.8042
100003.8018
100003.8178
100003.8763
100003.9479
100004.1981
100004.5317
100005.722
100004.9589
100008.2322
100004.6691
100004.3436
100004.0728
100003.7929
100003.7782
100003.7756
100003.8047
100003.8333
100003.8387
100003.8522
100003.8367
100003.8225
100003.8658
100003.9061
100003.8814
100003.8346
100003.822
100003.8134
100003.8045
100003.7845
100003.7851
100003.8258
100003.7924
100003.8182
100003.7112
100003.6421
100003.729
100003.7538
100003.7429
100003.7137
100003.7401
100003.7673
100003.7918
100003.8022
100003.7861
100003.7723
100003.7599
100003.7827
100003.8212
100003.8517
100003.9194
100003.881
100003.8432
100003.7874
100003.747
100003.684
100003.7564
100003.8868
100004.0383
100004.2157
100004.1524
100004.2001
100003.9534
100003.7645
100003.7398
100003.7007
100003.722
100003.7511
100003.7667
100003.7522
100003.7398
100003.7426
100003.7461
100003.7664
100003.7926
100003.8145
100003.9072
100003.8726
100003.8252
100003.7416
100003.9129
100003.9826
100003.8563
100003.7961
100003.8151
100003.8075
100003.8005
100003.8089
100003.7914
100003.7278
100003.7089
100003.6821
100003.6881
100003.7087
100003.7225
100003.7053
100003.705
100003.7254
100003.7432
100003.7599
100003.7784
100003.7943
100004.1693
100004.061
100003.8149
100003.6143
100004.188
100004.4213
100003.99
100003.8095
100003.8663
100003.9029
100003.8556
100003.8304
100003.7846
100003.7392
100003.7122
100003.685
100003.6739
100003.6768
100003.6881
100003.6855
100003.701
100003.7261
100003.7478
100003.7622
100003.7765
100003.7891
100003.9052
100003.867
100003.8414
100003.7815
100003.7471
100003.7333
100003.79
100003.8168
100003.8428
100003.8147
100003.7918
100003.7784
100003.7685
100003.7535
100003.738
100003.7122
100003.6954
100003.6896
100003.6959
100003.7054
100003.726
100003.7477
100003.7639
100003.774
100003.7847
100003.7952
100003.8981
100003.9072
100003.9142
100003.9026
100003.8958
100003.8359
100003.8994
100004.003
100004.0664
100003.9461
100003.8721
100003.82
100003.7658
100003.7533
100003.7484
100003.7333
100003.7209
100003.7186
100003.7266
100003.7403
100003.7613
100003.7817
100003.7868
100003.7912
100003.7986
100003.8096
100003.8369
100003.8447
100003.8726
100003.9101
100003.9493
100003.9576
100003.9146
100003.9447
100003.991
100003.8489
100003.818
100003.7769
100003.7511
100003.7405
100003.7413
100003.7421
100003.7368
100003.7379
100003.7477
100003.7619
100003.78
100003.7992
100003.8062
100003.8105
100003.8119
100003.803
100003.8147
100003.8563
100003.8993
100003.972
100004.0957
100004.2282
100004.487
100005.2435
100004.1089
100004.1044
100003.9173
100003.8143
100003.7738
100003.7487
100003.75
100003.7447
100003.7447
100003.7488
100003.7578
100003.7737
100003.789
100003.8079
100003.8178
100003.8192
100003.7813
100003.7811
100003.8093
100003.8369
100003.8708
100003.9007
100003.9096
100003.9113
100003.9076
100003.8012
100003.8211
100003.7793
100003.7585
100003.7489
100003.7446
100003.7489
100003.7532
100003.7573
100003.762
100003.7749
100003.8003
100003.817
100003.8102
100003.8479
100003.8444
100003.784
100003.7711
100003.783
100003.8049
100003.8368
100003.8739
100003.9224
100003.9972
100004.0974
100003.9175
100003.8691
100003.8155
100003.7673
100003.7512
100003.7436
100003.7493
100003.7546
100003.7544
100003.7561
100003.7696
100003.794
100003.8078
100003.8
100003.8244
100003.8402
100003.8073
100003.7866
100003.7781
100003.7828
100003.8042
100003.8214
100003.8369
100003.8504
100003.8549
100003.7952
100003.778
100003.7563
100003.7419
100003.7354
100003.7369
100003.7478
100003.7595
100003.764
100003.7661
100003.778
100003.801
100003.8216
100003.8135
100003.8492
100003.8557
100003.8819
100003.8456
100003.8195
100003.798
100003.7821
100003.7934
100003.8016
100003.8077
100003.8117
100003.802
100003.7803
100003.7636
100003.7489
100003.7415
100003.7374
100003.7397
100003.7495
100003.7653
100003.7739
100003.7779
100003.7862
100003.8026
100003.8315
100003.8248
100003.847
100003.8616
100003.8876
100003.8103
100003.7819
100003.7653
100003.7482
100003.735
100003.7248
100003.7172
100003.7116
100003.7072
100003.7036
100003.7
100003.6977
100003.6994
100003.7104
100003.7342
100003.7663
100003.7851
100003.7934
100003.8012
100003.8123
100003.8275
100003.8465
100003.8681
100003.8895
100003.9084
100003.9248
100003.7881
100003.764
100003.7476
100003.7284
100003.712
100003.6973
100003.6835
100003.6691
100003.6524
100003.6329
100003.6119
100003.5938
100003.585
100003.592
100003.6208
100003.6791
100003.7212
100003.7365
100003.7472
100003.7602
100003.7771
100003.7982
100003.8215
100003.8438
100003.8616
100003.8751
100003.7741
100003.7536
100003.7369
100003.717
100003.6984
100003.6802
100003.6606
100003.6383
100003.6123
100003.5833
100003.5561
100003.539
100003.5341
100003.5395
100003.5512
100003.6011
100003.6758
100003.7028
100003.7165
100003.7305
100003.7467
100003.7665
100003.7893
100003.8118
100003.8295
100003.8418
100003.7566
100003.7356
100003.7193
100003.6983
100003.6777
100003.6553
100003.6299
100003.6009
100003.5684
100003.5368
100003.517
100003.508
100003.5123
100003.5168
100003.5173
100003.5325
100003.6276
100003.6722
100003.6875
100003.7022
100003.7178
100003.7365
100003.7582
100003.7795
100003.7945
100003.8027
100003.741
100003.7197
100003.7035
100003.6818
100003.6598
100003.6348
100003.6064
100003.5741
100003.5401
100003.5139
100003.5001
100003.4956
100003.5022
100003.5093
100003.5072
100003.503
100003.5928
100003.655
100003.6715
100003.6852
100003.7003
100003.7185
100003.7387
100003.7563
100003.7655
100003.7687
100003.7254
100003.7028
100003.6868
100003.665
100003.6429
100003.6178
100003.5889
100003.5559
100003.5223
100003.4981
100003.4855
100003.4883
100003.5044
100003.5201
100003.5187
100003.499
100003.5685
100003.647
100003.6656
100003.6773
100003.6917
100003.7093
100003.7278
100003.7401
100003.7438
100003.7445
100003.7117
100003.6876
100003.6717
100003.6503
100003.6293
100003.6059
100003.579
100003.5469
100003.5129
100003.4886
100003.4779
100003.4845
100003.5063
100003.5291
100003.5319
100003.5106
100003.5625
100003.647
100003.6667
100003.6764
100003.6905
100003.7078
100003.7235
100003.7316
100003.7357
100003.7433
100003.6999
100003.6744
100003.6587
100003.638
100003.6189
100003.5985
100003.5753
100003.5464
100003.512
100003.4827
100003.4654
100003.4639
100003.4801
100003.5047
100003.519
100003.5211
100003.5771
100003.6505
100003.6679
100003.6781
100003.6928
100003.7097
100003.7231
100003.7308
100003.7382
100003.7514
100003.6903
100003.6635
100003.6482
100003.6283
100003.6111
100003.5941
100003.5768
100003.5578
100003.5365
100003.5147
100003.4971
100003.4883
100003.4927
100003.508
100003.5289
100003.5624
100003.623
100003.6539
100003.6653
100003.679
100003.6957
100003.7128
100003.7262
100003.7355
100003.7471
100003.7666
100003.6828
100003.655
100003.6402
100003.6214
100003.6061
100003.5926
100003.5806
100003.5697
100003.5594
100003.5496
100003.5402
100003.5306
100003.5275
100003.5379
100003.5629
100003.5998
100003.6316
100003.6492
100003.6627
100003.6796
100003.6986
100003.7172
100003.7329
100003.7451
100003.7601
100003.7837
100003.6769
100003.6485
100003.6343
100003.6167
100003.6031
100003.5917
100003.5826
100003.5756
100003.5704
100003.5672
100003.566
100003.566
100003.5669
100003.5724
100003.5862
100003.6043
100003.6211
100003.6381
100003.6564
100003.6769
100003.6981
100003.7197
100003.7424
100003.7603
100003.7762
100003.7995
100003.6724
100003.6436
100003.6303
100003.6143
100003.6028
100003.5937
100003.5875
100003.5841
100003.5832
100003.5836
100003.5839
100003.5845
100003.586
100003.5874
100003.5923
100003.6002
100003.6124
100003.6284
100003.6464
100003.6637
100003.6801
100003.7021
100003.7405
100003.78
100003.7976
100003.8171
100003.6694
100003.6405
100003.6279
100003.6137
100003.6048
100003.5987
100003.596
100003.5971
100003.6016
100003.6068
100003.6069
100003.6045
100003.6009
100003.593
100003.5928
100003.5966
100003.6063
100003.6189
100003.6294
100003.6345
100003.6447
100003.6653
100003.7128
100003.7973
100003.8229
100003.8411
100003.6685
100003.6388
100003.6267
100003.614
100003.6083
100003.6069
100003.6097
100003.618
100003.6327
100003.6507
100003.6496
100003.6442
100003.6353
100003.6075
100003.6018
100003.5977
100003.5992
100003.5986
100003.5938
100003.5924
100003.6095
100003.6373
100003.6724
100003.788
100003.8442
100003.8618
100003.6696
100003.638
100003.6257
100003.6141
100003.6121
100003.6175
100003.6296
100003.6502
100003.6776
100003.7205
100003.7094
100003.7021
100003.6863
100003.6225
100003.6149
100003.5973
100003.5884
100003.5765
100003.5679
100003.5751
100003.601
100003.6347
100003.6527
100003.728
100003.8173
100003.8742
100003.6721
100003.6371
100003.6243
100003.6129
100003.6142
100003.6283
100003.659
100003.7238
100003.8244
100004.0031
100003.8921
100003.8565
100003.77
100003.6375
100003.6564
100003.5941
100003.5701
100003.545
100003.5343
100003.5484
100003.5827
100003.6156
100003.6244
100003.6586
100003.7309
100003.841
100003.6748
100003.6354
100003.6215
100003.6089
100003.6133
100003.632
100003.6618
100003.6963
100003.7709
100004.1321
100003.9265
100004.2206
100003.7714
100003.6529
100003.6438
100003.5717
100003.5775
100003.5811
100003.5884
100003.5835
100003.5799
100003.5893
100003.5922
100003.6417
100003.7199
100003.8191
100003.6768
100003.6316
100003.6113
100003.5842
100003.5874
100003.6236
100003.7824
100004.0643
100004.4362
100006.202
100004.3797
100004.0787
100002.8756
100003.5387
100003.6287
100003.5225
100003.568
100003.5634
100003.5782
100003.5874
100003.5734
100003.5597
100003.559
100003.6222
100003.6949
100003.7641
100003.6794
100003.6261
100003.5926
100003.5504
100003.5032
100003.4691
100003.564
100003.5553
100003.5419
100003.4183
100003.4039
100002.8978
100003.2332
100003.4297
100003.4972
100003.4942
100003.5318
100003.5422
100003.5543
100003.5644
100003.5707
100003.5539
100003.5524
100003.6158
100003.6704
100003.7148
100003.6802
100003.6044
100003.5073
100003.3407
100003.3403
100003.4107
100003.5552
100003.6862
100003.8085
100003.9451
100003.8042
100003.6695
100003.507
100003.4692
100003.5213
100003.492
100003.5117
100003.5225
100003.5297
100003.5288
100003.5438
100003.5549
100003.5684
100003.6181
100003.6533
100003.6805
100003.6465
100003.5507
100003.3969
100003.3001
100003.412
100003.4723
100003.5211
100003.5642
100003.5792
100003.5794
100003.5659
100003.5176
100003.5352
100003.5052
100003.5181
100003.4973
100003.5056
100003.51
100003.5143
100003.5122
100003.5286
100003.561
100003.5904
100003.6213
100003.6434
100003.6609
100003.6246
100003.4148
100003.0898
100003.3293
100003.5042
100003.5789
100003.526
100003.5648
100003.6116
100003.6708
100003.6281
100003.5958
100003.5824
100003.5483
100003.5296
100003.505
100003.5022
100003.508
100003.5157
100003.5181
100003.5402
100003.5783
100003.6093
100003.6285
100003.6431
100003.6551
100003.6164
100003.5786
100003.5079
100003.3596
100003.3565
100003.4997
100003.5958
100003.65
100003.6721
100003.6215
100003.6058
100003.5882
100003.5858
100003.5822
100003.5744
100003.5473
100003.5311
100003.5296
100003.5364
100003.5478
100003.5779
100003.6096
100003.6302
100003.6415
100003.651
100003.6595
100003.6288
100003.6229
100003.599
100003.5116
100003.45
100003.4613
100003.6831
100003.7783
100003.9177
100003.7224
100003.6804
100003.6322
100003.5943
100003.5836
100003.5887
100003.5826
100003.57
100003.5659
100003.5724
100003.5907
100003.619
100003.6399
100003.6509
100003.6564
100003.6607
100003.6667
100003.616
100003.615
100003.6433
100003.6464
100003.6603
100003.6631
100003.7279
100003.7409
100003.871
100003.6214
100003.6495
100003.6038
100003.5908
100003.5894
100003.5881
100003.5998
100003.5966
100003.5942
100003.6015
100003.6148
100003.6275
100003.6412
100003.6589
100003.6701
100003.6687
100003.6164
100003.6086
100003.6479
100003.6886
100003.7582
100003.8769
100004.1476
100004.4862
100005.9203
100003.9328
100003.9742
100003.7234
100003.6438
100003.6177
100003.5995
100003.6053
100003.6082
100003.6059
100003.6056
100003.6116
100003.6275
100003.6433
100003.6536
100003.6746
100003.6635
100003.6166
100003.5984
100003.6162
100003.6472
100003.6837
100003.7085
100003.7282
100003.7423
100003.8202
100003.6225
100003.6522
100003.6151
100003.6085
100003.6067
100003.6044
100003.6137
100003.6188
100003.6172
100003.6187
100003.6366
100003.6539
100003.6855
100003.658
100003.6797
100003.6782
100003.6215
100003.602
100003.6058
100003.6267
100003.6686
100003.7127
100003.7801
100003.8649
100004.056
100003.7379
100003.7212
100003.6612
100003.616
100003.6055
100003.6008
100003.6124
100003.6204
100003.6149
100003.6132
100003.6232
100003.6345
100003.6478
100003.6535
100003.659
100003.6779
100003.6349
100003.6114
100003.608
100003.6102
100003.6361
100003.6562
100003.6688
100003.6739
100003.6812
100003.6197
100003.6146
100003.5995
100003.5903
100003.5891
100003.5931
100003.6056
100003.6218
100003.6243
100003.6245
100003.6352
100003.6468
100003.6638
100003.6658
100003.6783
100003.6946
100003.6787
100003.6579
100003.6291
100003.6191
100003.6105
100003.6222
100003.6334
100003.6361
100003.6387
100003.6409
100003.6168
100003.605
100003.5966
100003.5922
100003.5928
100003.5974
100003.6066
100003.6243
100003.6349
100003.6327
100003.6373
100003.6477
100003.677
100003.6721
100003.6897
100003.7056
100003.7399
100003.6468
100003.6237
100003.609
100003.5932
100003.5804
100003.5693
100003.5597
100003.5516
100003.5452
100003.5411
100003.5407
100003.5448
100003.5532
100003.5649
100003.5792
100003.5962
100003.6132
100003.6281
100003.6426
100003.6578
100003.6745
100003.6927
100003.712
100003.7313
100003.7497
100003.7666
100003.6278
100003.6099
100003.5962
100003.5795
100003.5645
100003.5507
100003.5382
100003.5269
100003.5173
100003.5103
100003.5071
100003.5088
100003.5158
100003.5267
100003.54
100003.5572
100003.5758
100003.5923
100003.6078
100003.6234
100003.6401
100003.6581
100003.6771
100003.6954
100003.7121
100003.7267
100003.6142
100003.6007
100003.5871
100003.57
100003.5536
100003.5379
100003.5233
100003.5101
100003.4987
100003.4899
100003.485
100003.4852
100003.4916
100003.5013
100003.5133
100003.5295
100003.5506
100003.5686
100003.5844
100003.5997
100003.6153
100003.6322
100003.6502
100003.6684
100003.6848
100003.6988
100003.599
100003.5847
100003.5719
100003.5537
100003.5361
100003.5186
100003.5022
100003.487
100003.4734
100003.4628
100003.457
100003.4564
100003.4604
100003.4673
100003.4813
100003.5021
100003.5256
100003.5453
100003.5604
100003.5753
100003.5903
100003.6066
100003.6241
100003.6418
100003.6575
100003.6707
100003.5834
100003.5702
100003.5576
100003.5392
100003.5209
100003.5027
100003.4852
100003.4686
100003.4537
100003.4423
100003.4351
100003.4341
100003.4413
100003.4518
100003.4637
100003.4815
100003.5127
100003.5346
100003.5469
100003.5604
100003.5745
100003.5903
100003.6073
100003.6241
100003.6389
100003.6514
100003.5678
100003.554
100003.5421
100003.5239
100003.5061
100003.488
100003.4703
100003.4533
100003.4379
100003.4253
100003.4187
100003.4227
100003.4356
100003.4503
100003.4618
100003.4739
100003.505
100003.5324
100003.5421
100003.553
100003.5662
100003.5819
100003.5988
100003.6149
100003.6289
100003.6412
100003.5544
100003.5396
100003.5281
100003.5106
100003.4936
100003.4765
100003.4595
100003.4429
100003.4279
100003.4151
100003.4098
100003.4167
100003.4328
100003.451
100003.4639
100003.4739
100003.5014
100003.5319
100003.5413
100003.5505
100003.5631
100003.5787
100003.5956
100003.611
100003.6238
100003.6355
100003.5436
100003.5272
100003.516
100003.4992
100003.4836
100003.4679
100003.4524
100003.4371
100003.4229
100003.4103
100003.4034
100003.4069
100003.4202
100003.4387
100003.4556
100003.4711
100003.4989
100003.5284
100003.5397
100003.5498
100003.5631
100003.5792
100003.596
100003.6111
100003.6243
100003.6379
100003.5355
100003.5175
100003.5062
100003.4901
100003.4758
100003.4619
100003.4484
100003.4352
100003.4229
100003.4127
100003.4051
100003.4043
100003.4122
100003.4275
100003.4469
100003.4697
100003.4982
100003.5223
100003.5355
100003.5487
100003.5643
100003.5819
100003.5995
100003.6151
100003.6298
100003.6462
100003.5298
100003.5101
100003.4988
100003.4835
100003.4707
100003.4588
100003.4481
100003.4383
100003.4296
100003.4224
100003.4179
100003.4182
100003.4222
100003.4331
100003.4505
100003.4726
100003.4963
100003.5162
100003.5316
100003.5481
100003.5668
100003.5871
100003.6066
100003.6233
100003.6393
100003.6577
100003.5254
100003.5044
100003.4933
100003.4788
100003.4673
100003.4573
100003.4487
100003.4413
100003.435
100003.4301
100003.4272
100003.4277
100003.4329
100003.4429
100003.457
100003.4729
100003.4901
100003.508
100003.5265
100003.5473
100003.5705
100003.5949
100003.6181
100003.6363
100003.6525
100003.6707
100003.5217
100003.5001
100003.4893
100003.4758
100003.4658
100003.4576
100003.4512
100003.4462
100003.4424
100003.4393
100003.4365
100003.4354
100003.4382
100003.4435
100003.4537
100003.4666
100003.4822
100003.5004
100003.5216
100003.5463
100003.5737
100003.6025
100003.6314
100003.654
100003.6705
100003.6865
100003.5186
100003.4971
100003.4869
100003.4746
100003.4664
100003.4601
100003.4556
100003.4526
100003.4506
100003.4484
100003.4435
100003.438
100003.4396
100003.4415
100003.4504
100003.4613
100003.4758
100003.4945
100003.5174
100003.5442
100003.5741
100003.6062
100003.6405
100003.6724
100003.6926
100003.7076
100003.5166
100003.4956
100003.4861
100003.4754
100003.4691
100003.4648
100003.4622
100003.4609
100003.4604
100003.4588
100003.4466
100003.4282
100003.4346
100003.4336
100003.4475
100003.4564
100003.4702
100003.488
100003.51
100003.536
100003.5658
100003.5983
100003.6345
100003.6789
100003.7127
100003.732
100003.516
100003.4958
100003.4875
100003.4782
100003.474
100003.4721
100003.4713
100003.4705
100003.4676
100003.4646
100003.4351
100003.3889
100003.4142
100003.4241
100003.4434
100003.4484
100003.4631
100003.4797
100003.4995
100003.5232
100003.5513
100003.5819
100003.6121
100003.6569
100003.7111
100003.7524
100003.5169
100003.4979
100003.4909
100003.4828
100003.4805
100003.4811
100003.4837
100003.4913
100003.4866
100003.4401
100003.3627
100003.075
100003.238
100003.3401
100003.4173
100003.4235
100003.4529
100003.4708
100003.489
100003.5085
100003.5316
100003.5576
100003.5826
100003.6231
100003.6869
100003.7536
100003.5191
100003.5017
100003.4958
100003.4884
100003.4872
100003.4865
100003.4753
100003.4587
100003.4632
100003.4896
100003.3974
100003.3408
100003.2427
100003.3615
100003.4138
100003.4139
100003.4453
100003.4623
100003.4805
100003.4942
100003.5026
100003.5171
100003.539
100003.5849
100003.6562
100003.7428
100003.5224
100003.5068
100003.5014
100003.4931
100003.4955
100003.5072
100003.521
100003.4763
100003.3339
100002.2425
100002.6957
99999.6403
100002.2222
100003.1444
100003.2643
100003.3474
100003.4245
100003.4428
100003.4657
100003.4818
100003.4902
100003.4973
100003.5133
100003.5461
100003.5988
100003.6552
100003.5268
100003.5136
100003.5087
100003.4999
100003.4945
100003.4845
100003.4294
100003.3569
100003.2402
100002.7393
100003.1639
100003.1675
100003.1061
100003.3426
100003.3171
100003.3725
100003.4119
100003.4309
100003.4472
100003.4582
100003.466
100003.4734
100003.4866
100003.5152
100003.5526
100003.5899
100003.5302
100003.5189
100003.5132
100003.5066
100003.5119
100003.5208
100003.5146
100003.5292
100003.4948
100003.4091
100003.2942
100002.9967
100003.0544
100003.2484
100003.3339
100003.3621
100003.3945
100003.4117
100003.4238
100003.432
100003.4427
100003.4569
100003.4728
100003.4959
100003.5226
100003.5481
100003.5274
100003.5218
100003.5245
100003.5241
100003.5086
100003.5049
100003.4516
100003.4706
100003.3949
100003.3525
100003.3406
100003.2863
100003.2928
100003.3519
100003.3765
100003.3828
100003.3965
100003.4064
100003.4138
100003.4203
100003.4325
100003.449
100003.4677
100003.4877
100003.5075
100003.525
100003.5341
100003.5251
100003.5301
100003.5298
100003.5081
100003.6053
100003.5281
100003.5524
100003.5463
100003.4909
100003.4376
100003.3946
100003.3787
100003.3829
100003.3936
100003.3966
100003.4043
100003.4121
100003.4202
100003.4297
100003.4412
100003.4577
100003.4749
100003.4912
100003.5062
100003.5187
100003.51
100003.5058
100003.5206
100003.5386
100003.5502
100003.5594
100003.5352
100003.5378
100003.5446
100003.4551
100003.4366
100003.4213
100003.419
100003.4224
100003.4259
100003.4251
100003.4284
100003.435
100003.4446
100003.4548
100003.4673
100003.4817
100003.4929
100003.504
100003.5146
100003.5236
100003.5157
100003.5071
100003.5168
100003.5275
100003.5516
100003.6074
100003.6524
100003.7405
100003.9209
100003.4821
100003.5565
100003.4723
100003.4331
100003.4353
100003.4371
100003.4409
100003.4456
100003.4536
100003.4649
100003.4801
100003.4971
100003.5123
100003.5149
100003.5201
100003.526
100003.5327
100003.513
100003.5015
100003.5128
100003.5256
100003.5494
100003.56
100003.5734
100003.6064
100003.8312
100003.3732
100003.5169
100003.4299
100003.4356
100003.4395
100003.4451
100003.4541
100003.46
100003.4696
100003.4857
100003.5083
100003.5306
100003.5581
100003.5426
100003.5409
100003.5406
100003.511
100003.5025
100003.52
100003.553
100003.6435
100003.8277
100004.2277
100004.9492
100006.8247
100003.3638
100003.8199
100003.5137
100003.4812
100003.4631
100003.4524
100003.4628
100003.469
100003.4769
100003.4884
100003.5063
100003.5194
100003.5509
100003.5459
100003.549
100003.5458
100003.5025
100003.4911
100003.4965
100003.5044
100003.5174
100003.522
100003.529
100003.5646
100003.6726
100003.3617
100003.4793
100003.4268
100003.447
100003.4522
100003.4577
100003.4689
100003.4804
100003.4951
100003.5161
100003.5451
100003.5679
100003.6578
100003.5858
100003.5893
100003.5693
100003.5026
100003.4878
100003.4899
100003.4968
100003.5221
100003.5707
100003.6511
100003.7348
100003.9476
100003.4762
100003.5417
100003.4825
100003.4572
100003.4625
100003.4622
100003.4724
100003.4827
100003.4924
100003.5022
100003.5134
100003.5245
100003.5493
100003.5509
100003.5644
100003.5591
100003.5135
100003.4924
100003.4895
100003.4875
100003.4932
100003.498
100003.4967
100003.4904
100003.497
100003.4335
100003.4423
100003.4391
100003.4431
100003.4527
100003.4632
100003.475
100003.4878
100003.5004
100003.5134
100003.5271
100003.541
100003.5704
100003.5663
100003.5801
100003.5776
100003.5718
100003.5339
100003.5057
100003.4984
100003.492
100003.4945
100003.4984
100003.5048
100003.51
100003.506
100003.4719
100003.4596
100003.4559
100003.4556
100003.4623
100003.4709
100003.4814
100003.4934
100003.5052
100003.5152
100003.5257
100003.5313
100003.5548
100003.5579
100003.5763
100003.5805
100003.5999
100003.4864
100003.4676
100003.4537
100003.4381
100003.4252
100003.4135
100003.4027
100003.3925
100003.3835
100003.3761
100003.3715
100003.371
100003.376
100003.387
100003.4035
100003.4237
100003.4441
100003.4632
100003.4815
100003.4998
100003.5184
100003.5374
100003.5566
100003.5751
100003.5924
100003.6081
100003.47
100003.4558
100003.4426
100003.427
100003.4125
100003.3988
100003.3858
100003.3733
100003.3613
100003.3504
100003.3418
100003.3377
100003.3399
100003.3497
100003.3668
100003.39
100003.4138
100003.4347
100003.4535
100003.4715
100003.4895
100003.5078
100003.5259
100003.5433
100003.5591
100003.573
100003.4556
100003.4468
100003.4341
100003.4184
100003.4028
100003.3874
100003.3722
100003.3569
100003.3414
100003.3269
100003.315
100003.3085
100003.309
100003.3178
100003.334
100003.3587
100003.3878
100003.412
100003.4318
100003.4496
100003.4668
100003.4842
100003.5016
100003.5185
100003.5339
100003.5474
100003.4435
100003.4319
100003.4204
100003.4037
100003.3871
100003.3698
100003.352
100003.3335
100003.3148
100003.2975
100003.2843
100003.2778
100003.277
100003.2878
100003.3024
100003.3262
100003.3601
100003.3883
100003.4095
100003.4276
100003.4445
100003.4615
100003.4786
100003.495
100003.5098
100003.5226
100003.4285
100003.4185
100003.4075
100003.3907
100003.3734
100003.3548
100003.3353
100003.3148
100003.2946
100003.2772
100003.2662
100003.2659
100003.2712
100003.2817
100003.2953
100003.3147
100003.3443
100003.3738
100003.3949
100003.4127
100003.4292
100003.4458
100003.4624
100003.478
100003.4917
100003.5035
100003.4129
100003.4028
100003.3929
100003.3765
100003.3598