/*--------------------------------*- C++ -*----------------------------------*\
  =========                 |
  \\      /  F ield         | OpenFOAM: The Open Source CFD Toolbox
   \\    /   O peration     | Website:  https://openfoam.org
    \\  /    A nd           | Version:  8
     \\/     M anipulation  |
\*---------------------------------------------------------------------------*/
FoamFile
{
    version     2.0;
    format      ascii;
    class       surfaceScalarField;
    location    "1";
    object      phi;
}
// * * * * * * * * * * * * * * * * * * * * * * * * * * * * * * * * * * * * * //

dimensions      [1 0 -1 0 0 0 0];

internalField   nonuniform List<scalar> 
197783
(
-1.92583005e-05
2.110529847e-06
1.714776647e-05
-3.166673163e-05
-3.83378681e-06
1.624221139e-05
-4.031853099e-05
-7.111988631e-06
1.576377616e-05
-4.652612368e-05
-9.21953747e-06
1.542711033e-05
-5.113227553e-05
-1.084282296e-05
1.544894399e-05
-5.487679371e-05
-1.244023748e-05
1.61847122e-05
-5.827588685e-05
-1.441681714e-05
1.781585437e-05
-6.146941707e-05
-1.704061846e-05
2.023408209e-05
-6.414203469e-05
-2.043570171e-05
2.310824398e-05
-6.560865886e-05
-2.463318121e-05
2.609972082e-05
-6.487439834e-05
-2.952169807e-05
2.878733897e-05
-6.093986631e-05
-3.46217584e-05
3.068710514e-05
-5.359663259e-05
-3.876163173e-05
3.141825311e-05
-4.470600236e-05
-3.986228194e-05
3.097148551e-05
-3.871727511e-05
-3.57444716e-05
2.975555363e-05
-3.829542774e-05
-2.812796987e-05
2.770590446e-05
-3.967382261e-05
-2.273256801e-05
2.411072287e-05
-3.918156784e-05
-2.164410476e-05
2.115158524e-05
-3.759015919e-05
-2.087870799e-05
1.928700867e-05
-3.544545952e-05
-2.033606977e-05
1.819105267e-05
-3.386210163e-05
-1.931048182e-05
1.772677982e-05
-3.376255869e-05
-1.786320139e-05
1.776328941e-05
-3.5259555e-05
-1.651413925e-05
1.801074606e-05
-3.725730109e-05
-1.611180222e-05
1.810914297e-05
-3.829884736e-05
-1.679502052e-05
1.783614953e-05
-1.814255132e-05
1.739523381e-05
-1.395112632e-05
-4.7341292e-07
1.653506083e-05
-2.618934174e-05
-6.179216096e-06
1.458363382e-05
-3.593691664e-05
-1.049878012e-05
1.313434921e-05
-4.363260528e-05
-1.379745164e-05
1.227357663e-05
-4.991797825e-05
-1.666083455e-05
1.210334764e-05
-5.54252156e-05
-1.963133052e-05
1.269828352e-05
-6.054133546e-05
-2.319782785e-05
1.389707677e-05
-6.523615762e-05
-2.767594434e-05
1.533009074e-05
-6.913181234e-05
-3.328101788e-05
1.674091186e-05
-7.144063352e-05
-4.013881533e-05
1.781439427e-05
-7.099090402e-05
-4.808740741e-05
1.811591208e-05
-6.664055343e-05
-5.629829193e-05
1.732608413e-05
-5.815512904e-05
-6.311250354e-05
1.586531805e-05
-4.721085662e-05
-6.591787962e-05
1.511117123e-05
-3.766646125e-05
-6.21674238e-05
1.687837303e-05
-3.524961622e-05
-5.165700327e-05
2.1111973e-05
-3.86404464e-05
-3.856388486e-05
1.922190571e-05
-3.925744204e-05
-3.540334062e-05
1.437596397e-05
-3.831010719e-05
-3.304830919e-05
1.12219711e-05
-3.639445121e-05
-3.206202848e-05
9.809979035e-06
-3.451101876e-05
-3.101194228e-05
9.817676789e-06
-3.343038787e-05
-2.993398224e-05
1.09897738e-05
-3.361848395e-05
-2.901784363e-05
1.269140419e-05
-3.483670738e-05
-2.895556025e-05
1.406156999e-05
-3.58103553e-05
-3.014510913e-05
1.432331288e-05
-3.244687155e-05
1.376990862e-05
-1.207865971e-05
-4.93500813e-06
1.654024028e-05
-2.359160136e-05
-8.374894643e-06
1.370860235e-05
-3.347992779e-05
-1.25967804e-05
1.198630218e-05
-4.202295977e-05
-1.639840694e-05
1.114395399e-05
-4.97294995e-05
-2.00331253e-05
1.107878883e-05
-5.704363158e-05
-2.385995469e-05
1.154270915e-05
-6.402365387e-05
-2.82464261e-05
1.202857136e-05
-7.044728961e-05
-3.35469522e-05
1.229459415e-05
-7.575450255e-05
-4.012990138e-05
1.215604995e-05
-7.887104619e-05
-4.822854285e-05
1.12062418e-05
-7.822951938e-05
-5.757649728e-05
8.847574067e-06
-7.260749385e-05
-6.695191984e-05
5.031534123e-06
-6.168568799e-05
-7.493380248e-05
8.993703616e-07
-4.693453365e-05
-7.953816845e-05
-1.131014192e-06
-3.224376116e-05
-7.828676442e-05
1.42838361e-06
-2.7602396e-05
-6.842191304e-05
1.212333675e-05
-3.43390278e-05
-4.912636758e-05
1.729886888e-05
-3.727759927e-05
-4.392404542e-05
1.145900341e-05
-3.71782544e-05
-3.980958455e-05
6.661630625e-06
-3.52801089e-05
-3.852309433e-05
4.562592035e-06
-3.303085202e-05
-3.773477877e-05
4.473223457e-06
-3.154122131e-05
-3.750536081e-05
6.081366053e-06
-3.167326887e-05
-3.766200074e-05
8.775802137e-06
-3.335579785e-05
-3.862377135e-05
1.135032351e-05
-3.506244737e-05
-4.097387236e-05
1.253498573e-05
-4.47170179e-05
1.220873049e-05
-1.170421037e-05
-9.981052459e-06
1.675023244e-05
-2.242090104e-05
-1.09594947e-05
1.330126372e-05
-3.214638609e-05
-1.424976231e-05
1.137843271e-05
-4.13058397e-05
-1.789339372e-05
1.065439828e-05
-5.031746637e-05
-2.169673138e-05
1.067518508e-05
-5.930531918e-05
-2.565908143e-05
1.078692978e-05
-6.808100887e-05
-2.997921998e-05
1.0508433e-05
-7.62588068e-05
-3.505373089e-05
9.684525347e-06
-8.308115894e-05
-4.141490725e-05
8.107317894e-06
-8.706084757e-05
-4.936548018e-05
5.11666097e-06
-8.6078189e-05
-5.84705129e-05
-8.827537372e-08
-7.897121225e-05
-6.792840337e-05
-6.130498088e-06
-6.533223812e-05
-7.616190257e-05
-1.241098435e-05
-4.665409329e-05
-8.185543242e-05
-1.636102183e-05
-2.694952056e-05
-8.327545493e-05
-1.471605999e-05
-1.827391659e-05
-7.474204033e-05
-2.355668786e-06
-2.666018365e-05
-5.525992883e-05
1.4519577e-05
-3.363116136e-05
-4.789301633e-05
1.093966853e-05
-3.528021354e-05
-4.246113548e-05
4.300297159e-06
-3.406740936e-05
-4.100328965e-05
1.26705758e-06
-3.198864045e-05
-4.061014255e-05
7.962330632e-07
-3.06598639e-05
-4.138714609e-05
2.552620479e-06
-3.121712449e-05
-4.289311105e-05
5.78796173e-06
-3.358935551e-05
-4.5368539e-05
9.116577378e-06
-3.586833611e-05
-4.938067333e-05
1.06853537e-05
-5.470802788e-05
1.000650258e-05
-1.217433575e-05
-1.500111184e-05
1.719436167e-05
-2.232913397e-05
-1.381302401e-05
1.300828831e-05
-3.177076165e-05
-1.569492484e-05
1.088674382e-05
-4.120430791e-05
-1.861140893e-05
1.015150812e-05
-5.102263635e-05
-2.196376257e-05
1.008530216e-05
-6.117920902e-05
-2.536593626e-05
9.863368295e-06
-7.137541589e-05
-2.882390958e-05
9.040833871e-06
-8.116348736e-05
-3.274375266e-05
7.478023907e-06
-8.954637396e-05
-3.779588528e-05
4.763793475e-06
-9.434437117e-05
-4.440945761e-05
-1.580827107e-07
-9.359577617e-05
-5.230521225e-05
-6.913913869e-06
-8.546992213e-05
-6.060850862e-05
-1.544584192e-05
-6.942985285e-05
-6.82615186e-05
-2.39405748e-05
-4.719188131e-05
-7.420973329e-05
-2.988378608e-05
-2.379498971e-05
-7.68810274e-05
-2.979145631e-05
-8.775007122e-06
-7.087454545e-05
-1.888765794e-05
-1.520896419e-05
-5.600395613e-05
7.177735349e-06
-2.827393819e-05
-4.644692947e-05
1.161860458e-05
-3.281760715e-05
-4.15698079e-05
3.652029541e-06
-3.317120969e-05
-4.031351265e-05
-3.365125871e-07
-3.196928397e-05
-4.061762461e-05
-1.194810617e-06
-3.144444414e-05
-4.241662999e-05
5.042500507e-07
-3.295217278e-05
-4.53077707e-05
3.921974391e-06
-3.609969178e-05
-4.939443472e-05
7.172991226e-06
-3.856040003e-05
-5.49688799e-05
8.048486377e-06
-6.126216002e-05
5.990194352e-06
-1.288234833e-05
-1.955432091e-05
1.743550948e-05
-2.274692093e-05
-1.677931836e-05
1.283081266e-05
-3.177222954e-05
-1.709832659e-05
1.042864915e-05
-4.09771721e-05
-1.889257298e-05
9.486038643e-06
-5.081858529e-05
-2.130719654e-05
9.184774646e-06
-6.131930928e-05
-2.365483358e-05
8.789545514e-06
-7.229552336e-05
-2.568156718e-05
7.833789866e-06
-8.343069073e-05
-2.767494914e-05
6.066271838e-06
-9.351851448e-05
-3.044537738e-05
2.737214769e-06
-0.0001000218152
-3.475608237e-05
-3.150181631e-06
-0.0001000189083
-4.051794929e-05
-1.179029064e-05
-9.141610657e-05
-4.695025547e-05
-2.226118961e-05
-7.381207325e-05
-5.314244634e-05
-3.272321912e-05
-4.932233848e-05
-5.826838381e-05
-4.043115043e-05
-2.321344597e-05
-6.123914432e-05
-4.175084148e-05
-1.065817639e-06
-5.954091419e-05
-3.348141996e-05
-3.354540511e-06
-4.841948951e-05
-5.295974502e-06
-2.215748206e-05
-3.877789778e-05
1.113363294e-05
-3.054035246e-05
-3.712559289e-05
3.938339734e-06
-3.3020014e-05
-3.708144294e-05
-7.527497283e-07
-3.320867229e-05
-3.85194847e-05
-1.909852477e-06
-3.402549319e-05
-4.131039958e-05
-2.898068555e-07
-3.680418935e-05
-4.535355932e-05
2.824070507e-06
-4.060433456e-05
-5.060490704e-05
5.010195418e-06
-4.274381813e-05
-5.690971637e-05
4.079886396e-06
-6.303293969e-05
5.190009313e-08
-1.355661198e-05
-2.337251887e-05
1.737474425e-05
-2.322854802e-05
-1.967466769e-05
1.256721287e-05
-3.166112136e-05
-1.856963643e-05
9.903803905e-06
-4.009617117e-05
-1.90938453e-05
8.636235563e-06
-4.91541679e-05
-2.034900798e-05
8.099715472e-06
-5.911566357e-05
-2.143077453e-05
7.737338511e-06
-7.014358635e-05
-2.172243393e-05
7.068683894e-06
-8.226525161e-05
-2.119853297e-05
5.645132466e-06
-9.414558864e-05
-2.082413505e-05
2.258966719e-06
-0.0001024038798
-2.206228735e-05
-4.435643522e-06
-0.0001031913703
-2.520715792e-05
-1.452345924e-05
-9.454711842e-05
-2.907051616e-05
-2.652413762e-05
-7.665125365e-05
-3.263178833e-05
-3.840661349e-05
-5.185264796e-05
-3.587028513e-05
-4.719671994e-05
-2.513987268e-05
-3.880834131e-05
-4.914358331e-05
-1.66625917e-06
-4.114747937e-05
-4.186717686e-05
6.935705908e-07
-3.496250112e-05
-1.581702823e-05
-1.807834996e-05
-2.71560064e-05
7.149741417e-06
-2.994576169e-05
-2.937771344e-05
4.119215124e-06
-3.426993914e-05
-3.210860333e-05
-6.490067927e-07
-3.592394942e-05
-3.504994164e-05
-1.815905425e-06
-3.819038e-05
-3.867564775e-05
-3.687169847e-07
-4.2067479e-05
-4.331379939e-05
1.836929939e-06
-4.602647831e-05
-4.877767527e-05
2.131351788e-06
-4.727212353e-05
-5.469178046e-05
-9.727168151e-07
-6.00123299e-05
-6.027533147e-06
-1.411070638e-05
-2.622077591e-05
1.69588767e-05
-2.362049292e-05
-2.231787472e-05
1.215289952e-05
-3.139150799e-05
-2.01694986e-05
9.370776427e-06
-3.879074539e-05
-1.949847408e-05
7.803757361e-06
-4.661772485e-05
-1.957785373e-05
7.055708485e-06
-5.539157255e-05
-1.946821465e-05
6.811163618e-06
-6.537801586e-05
-1.83537732e-05
6.617650675e-06
-7.646325979e-05
-1.587596995e-05
5.762541672e-06
-8.720923574e-05
-1.264624999e-05
2.567946558e-06
-9.464427297e-05
-9.939760001e-06
-4.687643809e-06
-9.598652265e-05
-8.021417907e-06
-1.584366766e-05
-8.990058673e-05
-6.405862695e-06
-2.8750774e-05
-7.579002727e-05
-5.780188555e-06
-4.096230861e-05
-5.503451877e-05
-7.24155751e-06
-4.938432504e-05
-3.187916447e-05
-1.153181298e-05
-5.043195816e-05
-1.192826725e-05
-1.910445354e-05
-4.19941076e-05
-9.058170497e-06
-1.999900319e-05
-1.783383726e-05
-2.332983666e-05
-1.669994962e-05
3.815329233e-06
-3.340045316e-05
-2.249080256e-05
3.183388394e-06
-3.76741054e-05
-2.730046578e-05
-5.348308012e-07
-4.002838369e-05
-3.134596491e-05
-1.350070019e-06
-4.311580329e-05
-3.53029412e-05
-2.85677772e-07
-4.730660224e-05
-3.96112e-05
4.877972548e-07
-5.073685467e-05
-4.407439213e-05
-1.273442399e-06
-5.096233935e-05
-4.874484962e-05
-5.721870874e-06
-5.275013826e-05
-1.137684113e-05
-1.449177106e-05
-2.793784114e-05
1.620872519e-05
-2.385051346e-05
-2.450334448e-05
1.154409324e-05
-3.098540409e-05
-2.185837989e-05
8.823646268e-06
-3.719783084e-05
-2.033415553e-05
7.047974208e-06
-4.31362252e-05
-1.962875828e-05
5.989155789e-06
-4.903927117e-05
-1.91087188e-05
5.543397409e-06
-5.477737766e-05
-1.806132298e-05
5.445493497e-06
-6.010295069e-05
-1.587611467e-05
5.325544033e-06
-6.50922437e-05
-1.231189396e-05
4.654750575e-06
-7.006021934e-05
-7.443524814e-06
2.471538792e-06
-7.424383142e-05
-1.253181761e-06
-2.5848434e-06
-7.499032619e-05
5.511689974e-06
-1.117128957e-05
-6.96915956e-05
1.129954587e-05
-2.237869067e-05
-5.793305873e-05
1.289004272e-05
-3.189034227e-05
-4.33511204e-05
7.999281286e-06
-3.411323136e-05
-3.429253143e-05
-3.097367169e-06
-2.50659234e-05
-3.658449101e-05
-1.221251105e-05
-5.494818229e-06
-4.04950858e-05
-1.506444134e-05
2.274784709e-06
-4.223839748e-05
-2.147381545e-05
7.259950401e-07
-4.3222571e-05
-2.562618661e-05
-6.90455076e-07
-4.452013924e-05
-2.926155746e-05
-7.872089767e-07
-4.707178559e-05
-3.25500271e-05
-2.016532213e-07
-5.057237634e-05
-3.532787226e-05
-7.831340136e-07
-5.335384246e-05
-3.729236262e-05
-4.000972637e-06
-5.29398515e-05
-3.991902938e-05
-9.24023109e-06
-4.221029571e-05
-1.515830347e-05
-1.464851812e-05
-2.857352729e-05
1.528406575e-05
-2.390317605e-05
-2.606058906e-05
1.081175574e-05
-3.06806235e-05
-2.338514379e-05
8.304057964e-06
-3.628387e-05
-2.124715749e-05
6.516086759e-06
-4.138888433e-05
-1.975858541e-05
5.23467026e-06
-4.633850491e-05
-1.871696504e-05
4.557685053e-06
-5.125412985e-05
-1.773043818e-05
4.584547217e-06
-5.610633961e-05
-1.6332635e-05
5.308525884e-06
-6.082553069e-05
-1.418164403e-05
6.588724996e-06
-6.528549524e-05
-1.10748527e-05
8.091062847e-06
-6.873805516e-05
-6.712651385e-06
8.911786913e-06
-6.961608646e-05
-6.905992126e-07
7.080068614e-06
-6.568608483e-05
6.073472272e-06
1.295818792e-06
-5.715380687e-05
9.865046358e-06
-5.50753158e-06
-4.790676918e-05
6.941264395e-06
-8.189279251e-06
-4.463137238e-05
-2.768700295e-06
-3.60434187e-06
-4.570762747e-05
-1.316026108e-05
2.023700316e-06
-4.61039045e-05
-1.722706253e-05
2.558582425e-06
-4.651730726e-05
-2.198991378e-05
9.291671759e-07
-4.653804286e-05
-2.573080066e-05
1.249984289e-07
-4.675133865e-05
-2.933602069e-05
2.873907773e-07
-4.778802181e-05
-3.201807471e-05
5.043482388e-07
-4.999780733e-05
-3.225309576e-05
-8.653843095e-07
-5.272690071e-05
-2.954582565e-05
-5.017848021e-06
-5.258822394e-05
-2.92994685e-05
-1.075864834e-05
-2.936446405e-05
-1.701783922e-05
-1.45486988e-05
-2.844039727e-05
1.441540103e-05
-2.362848834e-05
-2.705021565e-05
1.006923993e-05
-3.010266642e-05
-2.472230443e-05
7.811156371e-06
-3.526905185e-05
-2.225453177e-05
6.173569835e-06
-3.977008478e-05
-2.002923826e-05
4.771487522e-06
-4.383036098e-05
-1.830453563e-05
3.64763928e-06
-4.749143679e-05
-1.712550114e-05
3.05592148e-06
-5.078602818e-05
-1.622653966e-05
3.188268662e-06
-5.381448682e-05
-1.518625576e-05
4.032832056e-06
-5.669559889e-05
-1.36314511e-05
5.4374596e-06
-5.930644591e-05
-1.130418838e-05
7.202118556e-06
-6.080139488e-05
-8.141750434e-06
8.945819801e-06
-5.981261267e-05
-4.647471919e-06
9.731867522e-06
-5.620307244e-05
-2.491418743e-06
8.746621734e-06
-5.210482533e-05
-4.005995281e-06
6.848702119e-06
-5.044072047e-05
-9.444702848e-06
5.011577448e-06
-5.116474204e-05
-1.53347382e-05
2.898165201e-06
-5.081532082e-05
-1.923203784e-05
1.655214377e-06
-5.011809989e-05
-2.364037738e-05
9.528940691e-07
-4.863813516e-05
-2.841494262e-05
1.203818465e-06
-4.633808564e-05
-3.350210912e-05
1.865668821e-06
-4.398866453e-05
-3.64817695e-05
2.113892215e-06
-4.402286974e-05
-3.332409666e-05
1.104818023e-06
-4.793847652e-05
-2.224859704e-05
-3.3820193e-06
-4.936810569e-05
-1.821320021e-05
-9.657039916e-06
-1.522942933e-05
-1.660637561e-05
-1.433661511e-05
-2.795135561e-05
1.384737657e-05
-2.317918454e-05
-2.764992874e-05
9.442077436e-06
-2.930692964e-05
-2.593904059e-05
7.344270939e-06
-3.407023216e-05
-2.346654372e-05
5.975098169e-06
-3.820248506e-05
-2.062905459e-05
4.731846798e-06
-4.189495635e-05
-1.799827592e-05
3.385982955e-06
-4.508857575e-05
-1.613049002e-05
2.19837375e-06
-4.776263832e-05
-1.513342364e-05
1.580706474e-06
-5.004133631e-05
-1.463311141e-05
1.725307336e-06
-5.205365434e-05
-1.417299778e-05
2.553610065e-06
-5.381707485e-05
-1.339356192e-05
3.852527397e-06
-5.50567417e-05
-1.221340109e-05
5.311032875e-06
-5.523474226e-05
-1.090350017e-05
6.433722071e-06
-5.44070761e-05
-9.972334701e-06
6.652919538e-06
-5.332570197e-05
-1.062991504e-05
5.54219683e-06
-5.32087835e-05
-1.30496198e-05
3.487636745e-06
-5.375302636e-05
-1.646537965e-05
1.674516301e-06
-5.37733194e-05
-2.028951629e-05
1.077402787e-06
-5.319863478e-05
-2.574549071e-05
1.530059315e-06
-5.076441713e-05
-3.322496425e-05
2.375433606e-06
-4.51083941e-05
-4.138524541e-05
2.2267432e-06
-3.719393831e-05
-4.566176579e-05
1.265164884e-06
-3.33399862e-05
-3.971687664e-05
2.538454118e-06
-3.913864776e-05
-1.757386523e-05
1.123540418e-06
-4.327144753e-05
-9.01904556e-06
-5.06174247e-06
-1.695534748e-06
-1.29887111e-05
-1.431486863e-05
-2.742720089e-05
1.379049045e-05
-2.299367519e-05
-2.80309629e-05
9.059610169e-06
-2.871085935e-05
-2.70915806e-05
6.869490294e-06
-3.29365422e-05
-2.499548603e-05
5.754387847e-06
-3.665727823e-05
-2.186644407e-05
4.957885853e-06
-4.018775441e-05
-1.828397295e-05
3.815932921e-06
-4.335628748e-05
-1.527687224e-05
2.31467656e-06
-4.580682259e-05
-1.369438736e-05
1.011263501e-06
-4.755480486e-05
-1.324811893e-05
3.627564046e-07
-4.883383241e-05
-1.331621221e-05
4.220077139e-07
-4.994889875e-05
-1.327340767e-05
9.94671571e-07
-5.095056127e-05
-1.296280056e-05
1.750798044e-06
-5.169551274e-05
-1.236531325e-05
2.206462926e-06
-5.28004483e-05
-1.113169872e-05
2.263946734e-06
-5.377346235e-05
-1.136961123e-05
1.712319081e-06
-5.489844286e-05
-1.287120365e-05
9.461536438e-07
-5.638620224e-05
-1.564998792e-05
6.719534055e-07
-5.794788487e-05
-2.007879491e-05
1.350554161e-06
-5.862693492e-05
-2.720501791e-05
2.138182319e-06
-5.562572344e-05
-3.685649811e-05
6.299412471e-07
-4.624801069e-05
-4.65724572e-05
-4.190861702e-06
-3.166589589e-05
-5.138459808e-05
-8.859637346e-06
-2.192549028e-05
-4.440191812e-05
-5.055707998e-06
-2.777245588e-05
-1.673303437e-05
5.005748285e-06
-3.516053987e-05
-3.104874e-06
1.473527375e-06
8.445011932e-06
-6.050386064e-06
-1.484449784e-05
-2.700303645e-05
1.442008887e-05
-2.3608635e-05
-2.825054946e-05
8.983474736e-06
-2.891320023e-05
-2.81413974e-05
6.354132807e-06
-3.236283415e-05
-2.683873186e-05
5.292630842e-06
-3.528071316e-05
-2.40290428e-05
5.080231778e-06
-3.838656753e-05
-1.983947282e-05
4.661115958e-06
-4.177261866e-05
-1.524169867e-05
3.350652889e-06
-4.449893313e-05
-1.255691194e-05
1.588633626e-06
-4.615639969e-05
-1.177210841e-05
1.812639893e-07
-4.688111988e-05
-1.215269931e-05
-4.38974839e-07
-4.744782598e-05
-1.238037906e-05
-3.264883021e-07
-4.80360569e-05
-1.258921523e-05
2.144432391e-07
-4.823622915e-05
-1.253615514e-05
3.707645395e-07
-5.059828369e-05
-9.436642999e-06
6.666402394e-07
-5.305846742e-05
-9.434361474e-06
5.245048243e-07
-5.609715219e-05
-1.053966511e-05
7.066834932e-07
-5.993023006e-05
-1.332433049e-05
1.506953734e-06
-6.431067187e-05
-1.789068642e-05
2.191885342e-06
-6.67417553e-05
-2.448789642e-05
-2.864623414e-07
-6.27512525e-05
-3.285045326e-05
-7.996931128e-06
-4.909636577e-05
-4.052324779e-05
-1.970445004e-05
-2.707785846e-05
-4.4588732e-05
-2.881469633e-05
-8.12246284e-06
-3.869727112e-05
-2.466035784e-05
-1.020776687e-05
-1.571419555e-05
1.066090921e-06
-2.230990932e-05
8.833903202e-07
8.113495855e-06
1.570410625e-05
1.45494219e-06
-1.615661968e-05
-2.656090031e-05
1.571422663e-05
-2.535218539e-05
-2.823619553e-05
9.180954644e-06
-3.035811774e-05
-2.892936946e-05
5.79365131e-06
-3.292874394e-05
-2.874883464e-05
4.48048123e-06
-3.46256965e-05
-2.707503201e-05
4.742703653e-06
-3.665155081e-05
-2.327906379e-05
5.465225257e-06
-4.03181009e-05
-1.66707994e-05
5.095462216e-06
-4.371704015e-05
-1.257416799e-05
3.41606835e-06
-4.567306987e-05
-1.107712706e-05
1.261022396e-06
-4.569254623e-05
-1.181243638e-05
-3.207087596e-07
-4.555231213e-05
-1.193759929e-05
-5.828203473e-07
-4.513644041e-05
-1.325464409e-05
2.496850203e-07
-4.377264607e-05
-1.366693215e-05
-2.330397845e-07
-4.806394668e-05
-6.04637643e-06
9.007360287e-07
-5.24294518e-05
-6.127165604e-06
1.057878595e-06
-5.837606222e-05
-6.456824233e-06
1.863260034e-06
-6.592269549e-05
-8.005108084e-06
2.226888904e-06
-7.329286458e-05
-1.005082952e-05
-4.701778074e-07
-7.599209404e-05
-1.294414809e-05
-8.844958978e-06
-6.931956961e-05
-1.668906787e-05
-2.283429575e-05
-5.076621602e-05
-2.029088758e-05
-3.878601836e-05
-2.204645114e-05
-2.255065416e-05
-5.075805371e-05
6.23079917e-06
-1.830414095e-05
-4.86706346e-05
1.38830376e-05
-2.478641805e-06
-2.088809839e-05
-1.872668255e-06
1.327712993e-05
3.361590476e-06
2.65426944e-05
7.07035027e-06
-1.815310247e-05
-2.580982731e-05
1.740177129e-05
-2.800787063e-05
-2.793130142e-05
9.549620547e-06
-3.280716722e-05
-2.940195497e-05
5.271637575e-06
-3.449451044e-05
-3.05889113e-05
3.527187394e-06
-3.463908567e-05
-3.091007666e-05
3.979405227e-06
-3.469499664e-05
-2.904107416e-05
5.817731405e-06
-3.904565975e-05
-1.915709562e-05
6.836782731e-06
-4.419163735e-05
-1.378194037e-05
6.353549733e-06
-4.769558143e-05
-1.120014228e-05
3.626827135e-06
-4.616811236e-05
-1.419476768e-05
8.547231821e-07
-4.638577666e-05
-1.294749027e-05
1.227923581e-06
-4.166188122e-05
-2.223372011e-05
4.255466755e-06
-3.710519532e-05
-2.00264476e-05
1.803181449e-06
-4.692926741e-05
-1.657355954e-06
5.434672645e-06
-5.418471393e-05
-3.393888603e-06
4.521690332e-06
-6.342618832e-05
-2.752414165e-06
5.536491818e-06
-7.178686087e-05
-3.471228472e-06
3.826226483e-06
-7.640259392e-05
-2.186218071e-06
-3.249381124e-06
-7.46454011e-05
1.856698397e-06
-1.655848042e-05
-6.581522346e-05
8.168810017e-06
-3.36884397e-05
-4.736659324e-05
1.272266064e-05
-5.14624634e-05
-1.9259518e-05
1.347039897e-05
-6.412830986e-05
9.378546295e-06
1.527385527e-05
-6.221630163e-05
2.324385861e-05
2.383157907e-05
-4.017583662e-05
1.487888879e-05
3.342308262e-05
-1.178134812e-05
4.111637104e-05
6.303886275e-06
-2.036772227e-05
-2.472831355e-05
1.928596015e-05
-3.096351802e-05
-2.753408143e-05
1.019833605e-05
-3.568468989e-05
-2.99405138e-05
5.259505867e-06
-3.645188337e-05
-3.301788527e-05
3.195964347e-06
-3.419085311e-05
-3.673284286e-05
3.561567248e-06
-3.058093105e-05
-3.857042519e-05
5.919329844e-06
-3.487775183e-05
-2.200356972e-05
7.143261164e-06
-3.999991945e-05
-1.785789297e-05
9.19820967e-06
-4.578850278e-05
-1.167733014e-05
6.265852632e-06
-4.502861117e-05
-1.371972521e-05
-1.235028456e-06
-4.875147244e-05
-8.937581545e-06
-2.865302655e-07
-4.034138063e-05
-2.626062493e-05
-4.38354395e-06
-3.220901562e-05
-1.752242777e-05
-1.063657877e-05
-4.243478906e-05
1.984959716e-06
6.582911799e-06
-4.765387448e-05
-1.800503626e-06
3.625236064e-06
-5.047188049e-05
-2.521892476e-06
2.586913298e-06
-4.93025776e-05
-4.371647424e-06
-2.694721745e-07
-4.712946024e-05
-2.672736468e-06
-1.687147099e-06
-4.614538384e-05
5.083469457e-06
-4.211323141e-06
-4.434520677e-05
2.097459045e-05
-1.460636472e-05
-3.61128475e-05
3.86680709e-05
-3.417812052e-05
-1.838695499e-05
4.56216442e-05
-4.987741275e-05
2.163862172e-06
4.500967574e-05
-5.028694338e-05
1.234635713e-05
4.198757287e-05
-2.833882611e-05
4.364944378e-06
4.684482916e-05
-5.440719739e-06
4.945580698e-05
6.149932582e-06
-2.193499893e-05
-2.430713098e-05
2.151358501e-05
-3.367528543e-05
-2.772264581e-05
1.192863093e-05
-3.917837294e-05
-3.144629951e-05
7.008674334e-06
-3.951152142e-05
-3.794230211e-05
5.257390125e-06
-3.322271444e-05
-4.831362299e-05
5.291818914e-06
-2.514049528e-05
-5.308344919e-05
6.430685222e-06
-3.402188771e-05
-1.804257652e-05
4.920231805e-06
-4.713579605e-05
-1.245583532e-05
7.711840959e-06
-6.208154919e-05
1.709269489e-06
1.559678455e-06
-5.416728189e-05
1.969914313e-05
-4.133486777e-05
-7.901249743e-05
2.57874682e-05
-9.875852203e-06
-1.770871374e-05
4.446868044e-05
-0.0001320286578
4.331709784e-06
3.287580485e-05
-7.243590322e-05
-2.425072585e-05
1.708815103e-05
1.347829913e-05
-4.08954442e-05
1.280836931e-05
2.036022239e-06
-4.64349978e-05
5.434761174e-06
-2.41768225e-06
-4.463245515e-05
1.71375797e-06
-7.888563076e-06
-3.84705487e-05
6.246563389e-07
-9.459840598e-06
-3.136217064e-05
5.169381495e-06
-7.19476246e-06
-2.696378666e-05
2.021631573e-05
-3.640504956e-06
-2.381573916e-05
4.503968823e-05
-9.520005136e-06
-1.425199455e-05
5.824691151e-05
-2.218931191e-05
-1.968907495e-06
5.897501207e-05
-2.624874187e-05
3.538262663e-07
4.908524522e-05
-9.420737728e-06
-7.48766292e-06
5.184190803e-05
2.844046826e-06
5.109292222e-05
5.354205897e-06
-2.125691941e-05
-2.80036416e-05
2.495321719e-05
-3.606785599e-05
-2.924093283e-05
1.632902024e-05
-4.515021935e-05
-3.467774536e-05
1.231363105e-05
-4.654690087e-05
-4.721813172e-05
1.067236073e-05
-3.403920658e-05
-6.68993722e-05
6.077921588e-06
-1.400460631e-05
-7.144194423e-05
-1.676095658e-06
-1.325226646e-05
-2.08587894e-05
2.064010916e-06
-1.912993303e-05
-1.836110454e-05
1.178325425e-05
-2.864424925e-05
-4.094984277e-06
1.53189341e-05
-3.587073711e-05
1.064114673e-05
1.628486562e-05
-4.238624083e-05
2.086648265e-05
1.143733983e-05
-4.13762124e-05
3.634368542e-05
7.116446379e-06
-3.311620332e-05
3.956899451e-05
-1.495296737e-05
-4.115977472e-05
2.247466006e-05
2.65692913e-06
-4.46218653e-05
2.150814258e-05
-5.237948651e-06
-4.527037322e-05
1.676856894e-05
-1.068579554e-05
-4.023980482e-05
1.398713833e-05
-1.730446489e-05
-3.069983095e-05
1.243686767e-05
-2.135265587e-05
-1.933737494e-05
1.449642173e-05
-2.068991588e-05
-1.024544382e-05
2.375170401e-05
-1.262770209e-05
-8.475968934e-06
4.424195308e-05
-9.720662149e-07
-6.954320782e-06
5.885904117e-05
-2.134058412e-06
-4.360298671e-06
6.239291001e-05
-6.012201896e-06
-8.55903658e-06
5.021862374e-05
3.065050048e-06
-1.404735999e-05
5.122654655e-05
6.10335349e-06
4.92443718e-05
4.658643295e-06
-1.844369106e-05
-3.990761104e-05
3.034748693e-05
-3.985797528e-05
-3.339341622e-05
2.55666065e-05
-5.737400886e-05
-3.978183556e-05
2.26199793e-05
-6.398404289e-05
-5.644608485e-05
1.583782517e-05
-4.780514805e-05
-7.679579542e-05
-6.28262231e-06
-1.462606504e-05
-7.486974932e-05
-2.97512347e-05
-2.838270544e-06
-2.795905938e-05
-4.687616301e-06
-1.184471579e-05
-2.326750127e-05
1.391285838e-05
-1.675078827e-05
-1.35671199e-05
1.437838474e-05
-2.128429473e-05
-3.984874312e-06
1.91597436e-05
-2.869446992e-05
8.467055126e-06
1.981026071e-05
-3.212103043e-05
2.008620012e-05
1.968448271e-05
-3.298253704e-05
2.926937864e-05
1.11615933e-05
-4.325243494e-05
2.468982347e-05
8.054451363e-06
-4.595582691e-05
2.651397109e-05
-2.30280678e-06
-4.528971348e-05
2.653157831e-05
-1.042954242e-05
-3.911850482e-05
2.647617116e-05
-1.866067534e-05
-2.833481942e-05
2.609990105e-05
-2.444711627e-05
-1.530467582e-05
2.66805532e-05
-2.521462932e-05
-3.22534632e-06
3.078777031e-05
-1.911573238e-05
6.908494646e-07
4.335337397e-05
-3.027924628e-06
-2.243905821e-06
5.501558958e-05
6.777931449e-06
-6.388253284e-06
5.985237771e-05
6.684623681e-06
-1.331525809e-05
4.909242916e-05
8.052915615e-06
-1.7215287e-05
4.846841802e-05
6.65786083e-06
4.603405016e-05
4.402546478e-06
-1.970247664e-05
-5.346103747e-05
3.325568774e-05
-5.501135237e-05
-2.964070499e-05
3.155594759e-05
-8.691857225e-05
-2.812490099e-05
2.025004247e-05
-9.821227673e-05
-3.558515009e-05
-9.56739495e-06
-7.556355246e-05
-4.747778652e-05
-5.196638903e-05
-1.571620847e-05
-4.529517673e-05
-8.942119691e-05
1.991292064e-05
-2.094780974e-05
-4.264030683e-05
8.34033535e-06
-1.587906374e-05
4.184319834e-06
-2.505156834e-06
-1.339443603e-05
1.067319028e-05
-1.081800123e-05
-1.060868722e-05
1.493721432e-05
-1.603556136e-05
-3.914629275e-06
1.759998024e-05
-2.174275421e-05
4.93621078e-06
2.085796612e-05
-2.588762676e-05
1.603435766e-05
1.738036587e-05
-3.558159949e-05
2.136257406e-05
1.302118952e-05
-4.058948679e-05
2.728761263e-05
4.234039837e-06
-4.11627565e-05
3.131008955e-05
-4.205537346e-06
-3.647272164e-05
3.425255763e-05
-1.246675272e-05
-2.724439158e-05
3.525967336e-05
-1.838842102e-05
-1.575366247e-05
3.511516979e-05
-1.992563616e-05
-3.818352525e-06
3.515815205e-05
-1.630597213e-05
1.21306353e-06
4.110510077e-05
-2.783405617e-06
-3.552909878e-06
5.013771526e-05
9.643598486e-06
-1.002557548e-05
5.404666191e-05
1.227814568e-05
-1.644942198e-05
4.588255249e-05
9.633474295e-06
-1.897996765e-05
4.395060193e-05
7.048105195e-06
4.152489714e-05
5.00055046e-06
-4.163664595e-05
-5.221696675e-05
4.039240045e-05
-9.439133199e-05
-1.487884651e-05
3.799263466e-05
-0.0001262176649
9.756625289e-07
2.725645319e-06
-0.0001259078747
1.157649403e-05
-4.747096244e-05
-9.311679371e-05
2.942573077e-05
-0.0001096932507
-1.92736731e-05
2.305805408e-05
-0.0001421947652
4.210401886e-05
4.482842774e-06
-8.680791863e-05
4.131066135e-05
2.092481523e-06
-1.717797515e-05
2.043445541e-05
-5.369990764e-06
1.285176509e-05
5.580849846e-06
-8.972676947e-06
1.321766918e-05
-1.146095488e-06
-8.726385419e-06
1.15387449e-05
-6.347926674e-06
-5.897786569e-06
1.603585924e-05
-1.280005129e-05
1.507414959e-06
2.097913489e-05
-2.236525023e-05
1.001954875e-05
2.09081712e-05
-3.02248392e-05
2.066168592e-05
1.448537159e-05
-3.410859812e-05
2.883186913e-05
6.361774954e-06
-3.238635438e-05
3.406877262e-05
-1.538696095e-06
-2.603358006e-05
3.618744956e-05
-7.280793591e-06
-1.730273749e-05
3.588085737e-05
-9.496761395e-06
-7.7791872e-06
3.302654396e-05
-7.392166305e-06
-4.137545094e-06
3.448345327e-05
2.979797627e-06
-9.20951562e-06
4.254103838e-05
1.266844381e-05
-1.441649902e-05
4.53216065e-05
1.393183676e-05
-1.86423502e-05
3.968843176e-05
1.041976589e-05
-1.982418294e-05
3.717742408e-05
7.954799996e-06
3.499002429e-05
6.565086113e-06
-4.931114361e-06
-7.199608956e-05
2.471004455e-05
-1.724448076e-05
-3.402806588e-05
3.146239174e-05
-3.962477177e-05
-6.325545178e-06
2.968134079e-05
-5.925399556e-05
1.897447222e-05
1.223107911e-05
-5.462286666e-05
4.982776047e-05
-2.503301358e-05
-2.87462594e-05
5.218188489e-05
-5.500006799e-05
-1.32882483e-05
3.064325301e-06
-1.40394988e-05
-1.371050803e-05
-8.519649825e-07
3.366826486e-06
-8.21286685e-06
-9.198903201e-06
-1.668611253e-06
-4.49123809e-06
-1.08617591e-05
-1.832387075e-06
-1.297194708e-06
-1.083111673e-05
-1.089213182e-06
2.689350637e-07
-1.027705569e-05
2.813214066e-06
-7.105215906e-07
-7.194614473e-06
9.681478304e-06
-7.142378627e-06
-1.726730386e-06
1.81780433e-05
-1.647667685e-05
9.301690398e-06
2.069416045e-05
-2.425733142e-05
2.113224573e-05
1.548012208e-05
-2.659327114e-05
2.735988758e-05
9.044655277e-06
-2.383471967e-05
2.946928091e-05
3.959443734e-06
-1.817554447e-05
2.840114483e-05
1.820367094e-06
-1.283488373e-05
2.380697981e-05
3.87873745e-06
-1.140753143e-05
2.155566375e-05
1.150027974e-05
-1.397485959e-05
2.914070792e-05
1.596750255e-05
-1.67289858e-05
3.355342814e-05
1.452214749e-05
-1.890182456e-05
3.093622713e-05
1.092488542e-05
-1.926538293e-05
2.858591999e-05
8.954902387e-06
2.630346728e-05
8.876219687e-06