/*--------------------------------*- C++ -*----------------------------------*\
  =========                 |
  \\      /  F ield         | OpenFOAM: The Open Source CFD Toolbox
   \\    /   O peration     | Website:  https://openfoam.org
    \\  /    A nd           | Version:  8
     \\/     M anipulation  |
\*---------------------------------------------------------------------------*/
FoamFile
{
    version     2.0;
    format      ascii;
    class       scalarField;
    location    "1/lagrangian/reactingCloud1";
    object      d;
}
// * * * * * * * * * * * * * * * * * * * * * * * * * * * * * * * * * * * * * //


108
(
0.0005657371147
0.000658261236
0.001197605459
0.001039585879
0.00118318123
0.0009225859207
0.0007687975909
0.0005943471814
0.0006378328629
0.0005313458964
0.0005866335842
0.0005830896061
0.0007464011349
0.0005983215956
0.0009976214452
0.0009252746334
0.0005950136855
0.0006644206041
0.0005241291418
0.0006533475907
0.0008230550389
0.0005129477127
0.0006002214242
0.001186826396
0.0005311737792
0.0005648964887
0.001179226945
0.0007358225514
0.0007783849126
0.0005082525549
0.0009053201006
0.0008011401
0.000846393237
0.0006572455116
0.0005249245551
0.0006479067889
0.0006972418204
0.0006816207331
0.0006907199204
0.0006859152697
0.0006583978233
0.000669165312
0.0006075738332
0.0007471933006
0.0005549332298
0.0007160579897
0.0006585863811
0.001175754344
0.0008946237925
0.0005668426117
0.0006085921533
0.0009742119247
0.0009715060132
0.0006085464193
0.0005599638421
0.0006779815465
0.0006681723103
0.000584509997
0.0006608564037
0.0006197620099
0.0005871171932
0.0006005436228
0.0006843667997
0.0007329407797
0.000723783244
0.0007616132827
0.0005321232545
0.0005583172327
0.000504801141
0.000519232985
0.0006326176124
0.0005505025934
0.0007294824224
0.0005152252702
0.0005456004634
0.0007487263237
0.0005008750167
0.001129194843
0.001093323996
0.0006907199204
0.000768546501
0.0005112041648
0.0006932016241
0.0006025920692
0.0005211753405
0.0005623007975
0.0008108943631
0.0005411952594
0.0005583172327
0.0006406262183
0.0005765683444
0.0006526722666
0.0006962502281
0.000746372763
0.0005733767496
0.0006085921533
0.0005380261727
0.0006779815465
0.0005525220775
0.0008695499603
0.000593830857
0.001096508479
0.000916239751
0.0005815243739
0.00103139407
0.001062560247
0.0005096979194
0.001116869212
)


// ************************************************************************* //
