/*--------------------------------*- C++ -*----------------------------------*\
  =========                 |
  \\      /  F ield         | OpenFOAM: The Open Source CFD Toolbox
   \\    /   O peration     | Website:  https://openfoam.org
    \\  /    A nd           | Version:  8
     \\/     M anipulation  |
\*---------------------------------------------------------------------------*/
FoamFile
{
    version     2.0;
    format      ascii;
    class       scalarField;
    location    "1/lagrangian/reactingCloud1";
    object      mass0;
}
// * * * * * * * * * * * * * * * * * * * * * * * * * * * * * * * * * * * * * //


108
(
9.480748717e-08
1.493459552e-07
8.993731616e-07
5.882741121e-07
8.672662309e-07
4.111677945e-07
2.379220338e-07
1.093274055e-07
1.351229427e-07
7.811607479e-08
1.051257692e-07
1.032319948e-07
2.165335985e-07
1.115353296e-07
5.170181016e-07
4.124966139e-07
1.096956192e-07
1.527346925e-07
7.497618555e-08
1.45224972e-07
2.90332099e-07
7.027934616e-08
1.126011688e-07
8.705024761e-07
7.804018762e-08
9.386745568e-08
8.538873938e-07
2.074568128e-07
2.469345454e-07
6.836709579e-08
3.863802407e-07
2.677526815e-07
3.174791258e-07
1.478397797e-07
7.531805296e-08
1.416269855e-07
1.765056878e-07
1.649061279e-07
1.715988455e-07
1.680427705e-07
1.486187407e-07
1.560302046e-07
1.16789985e-07
2.172237605e-07
8.947893713e-08
1.911846423e-07
1.495673708e-07
8.463659745e-07
3.728462263e-07
9.484094899e-08
1.17378205e-07
4.841266006e-07
4.774686908e-07
1.173517456e-07
9.142992718e-08
1.622788935e-07
1.561938912e-07
1.039882453e-07
1.502898766e-07
1.23960487e-07
1.053859743e-07
1.12782599e-07
1.669072562e-07
2.061604151e-07
1.974394778e-07
2.300445499e-07
7.845942758e-08
9.062572966e-08
6.698374163e-08
7.289458045e-08
1.318354652e-07
8.68733416e-08
2.032558795e-07
7.161270681e-08
8.457317035e-08
2.197697577e-07
6.543295426e-08
7.538853087e-07
6.805421965e-07
1.72545869e-07
2.3638443e-07
6.95651248e-08
1.744123915e-07
1.139406399e-07
7.371570042e-08
9.257943328e-08
2.791846052e-07
8.254112247e-08
9.112587691e-08
1.376615795e-07
9.980695436e-08
1.447751077e-07
1.767236504e-07
2.177037801e-07
9.815866729e-08
1.180259944e-07
8.154715809e-08
1.631744818e-07
8.783292113e-08
3.423671103e-07
1.096445136e-07
6.865061029e-07
4.027411551e-07
1.029680266e-07
5.71323793e-07
6.281441416e-07
6.89520213e-08
7.294668833e-07
)


// ************************************************************************* //
