/*--------------------------------*- C++ -*----------------------------------*\
  =========                 |
  \\      /  F ield         | OpenFOAM: The Open Source CFD Toolbox
   \\    /   O peration     | Website:  https://openfoam.org
    \\  /    A nd           | Version:  8
     \\/     M anipulation  |
\*---------------------------------------------------------------------------*/
FoamFile
{
    version     2.0;
    format      ascii;
    class       scalarField;
    location    "1/lagrangian/reactingCloud1";
    object      nParticle;
}
// * * * * * * * * * * * * * * * * * * * * * * * * * * * * * * * * * * * * * //


108
(
5398.551206
3287.435023
577.9011871
834.4305373
570.4012071
1206.19232
2161.63209
100.4565533
122.219348
109.014241
108.0425509
110.5864731
112.5066785
102.6151541
102.2481333
101.4826096
106.8682293
106.3621471
117.7507093
102.2950766
103.3746936
863.4104683
107.8554575
125.818189
104.4409005
108.9028185
100.7086326
101.5750895
2056.701532
103.7344191
100.5731131
127.4892837
1539.172453
100.286119
105.3679365
103.841686
101.9210999
100.7789476
100.819596
106.0077209
101.6274308
100.147503
101.8713548
103.8909271
5366.272643
100.8450961
3395.59795
100.8719957
100.0101426
121.0114347
169.9124926
1044.87735
134.681398
113.9392446
101.9702424
105.0585792
3251.539825
112.4395443
100.3952684
100.2679343
120.3023091
101.1712256
242.1422214
2463.473202
108.3170367
104.6537312
100.3941511
107.8117493
100.3168414
102.9955287
194.0133705
100.73458
2498.676343
7223.891765
100.0511587
2250.210703
102.276259
661.1831841
101.039067
2881.429009
107.8737483
141.1520589
2850.592599
100.7042765
106.4890674
100.025427
1780.824096
100.2503423
5739.757655
3563.037114
102.4118489
112.0405291
2932.63128
2329.552758
100.069356
4116.667062
6355.406089
3004.46973
101.8586999
100.7499807
4586.048882
100.1275351
1237.320231
4891.896153
100.1471074
783.9832266
100.0659975
675.0881804
)


// ************************************************************************* //
