/*--------------------------------*- C++ -*----------------------------------*\
  =========                 |
  \\      /  F ield         | OpenFOAM: The Open Source CFD Toolbox
   \\    /   O peration     | Website:  https://openfoam.org
    \\  /    A nd           | Version:  8
     \\/     M anipulation  |
\*---------------------------------------------------------------------------*/
FoamFile
{
    version     2.0;
    format      ascii;
    class       Cloud<basicReactingMultiphaseParcel>;
    location    "1/lagrangian/reactingCloud1";
    object      positions;
}
// * * * * * * * * * * * * * * * * * * * * * * * * * * * * * * * * * * * * * //

108
(
(0.01066090008 0.1510992298 0.1061676471 0.732072223) 5475 15954 1
(0.4339928311 0.1003323592 0.2868839584 0.1787908512) 5476 16058 2
(0.05323508454 0.4793458303 0.01095781679 0.4564612684) 15382 45025 2
(0.2401840029 0.05606106028 0.4431948066 0.2605601302) 13311 38858 2
(0.462261713 0.03878512684 0.0003067385884 0.4986464216) 17288 50519 1
(0.471508923 0.02660972881 0.2177913072 0.2840900411) 20763 60766 2
(0.2272002278 0.1782450042 0.07822404962 0.5163307183) 10200 29859 1
(0.4678641271 0.01759596519 0.5087531537 0.005786754045) 17090 50020 2
(0.06035081423 0.4748731054 0.183197737 0.2815783434) 19000 55609 1
(0.3681893575 0.5848462143 0.01347310243 0.03349132578) 19678 57588 2
(0.0653790178 0.06707917838 0.7255635624 0.1419782414) 20765 60768 1
(0.09839484385 0.2258800556 0.6448395775 0.03088552307) 20765 60772 1
(0.6592139636 0.232305852 0.04797004187 0.06051014258) 19029 55695 2
(0.001281398487 0.3084994815 0.5560331535 0.1341859665) 20765 60772 1
(0.1716187942 0.03906645 0.2826400871 0.5066746688) 20764 60770 1
(0.01759167587 0.358794095 0.4098647116 0.2137495176) 20765 60772 1
(0.4849399174 0.2376641635 0.1122779927 0.1651179264) 20794 60772 1
(0.6643528055 0.2061496669 0.01200720496 0.1174903226) 20794 60772 2
(0.7351548708 0.1406454897 0.042499633 0.08170000649) 20794 60772 1
(0.8010611583 0.05705507691 0.03416036644 0.1077233983) 20794 58238 1
(0.6736580953 0.01630756123 0.1848635788 0.1251707647) 20794 58238 1
(0.02818925203 0.3873242677 0.1932759325 0.3912105478) 19813 57986 2
(0.4727506426 0.007038704022 0.4882251082 0.03198554518) 20794 60855 1
(0.3577628188 0.01850966061 0.3963702518 0.2273572689) 19030 55696 1
(0.05990638577 0.003078230457 0.8068955975 0.1301197863) 19928 58320 2
(0.2153628082 0.2895368777 0.3477131406 0.1473871736) 13133 38427 2
(0.1087232817 0.01906444485 0.1097164573 0.7624958161) 20794 60856 2
(0.1789558288 0.7102111236 0.02267052454 0.08816252298) 19928 58325 2
(0.2616705718 0.1171431908 0.4363085899 0.1848776475) 65026 191454 2
(0.564627795 0.224449467 0.001036705682 0.2098860323) 13135 38437 1
(0.3514129674 0.3972667714 0.07779249658 0.1735277647) 19928 58325 2
(0.3556660568 0.2595759497 0.1041152328 0.2806427607) 60243 179703 1
(0.03094654178 0.02238633011 0.6262206757 0.3204464524) 11255 32953 1
(0.1083230008 0.1615893681 0.5063875069 0.2237001242) 19057 55694 1
(0.5804453125 0.249322739 0.04896046494 0.1212714836) 60229 179668 1
(0.5296050793 0.04387481869 0.09751906579 0.3290010362) 19928 58325 2
(0.5179843307 0.1362418301 0.09132864671 0.2544451925) 13133 38427 1
(0.1825976292 0.1792988698 0.5627950257 0.0753084753) 60781 75220 2
(0.05865974733 0.3088084988 0.125070871 0.5074608829) 60725 180888 2
(0.02004980185 0.3064140851 0.1864246691 0.4871114439) 19928 58324 1
(0.6590596222 0.003180422254 0.3281027837 0.009657171807) 25286 75201 2
(0.06678830504 0.1480783859 0.003876599773 0.7812567093) 60711 180852 2
(0.370538532 0.4322692952 0.1217776712 0.07541450162) 60715 180852 2
(0.2524629515 0.05675355252 0.09972368161 0.5910598144) 19057 55777 1
(0.4955183405 0.1191522651 0.3717545804 0.01357481396) 2486 7306 1
(0.07102507422 0.4477209331 0.3579013146 0.1233526781) 60714 180860 2
(0.4574828013 0.0631832124 0.06247727985 0.4168567064) 36074 110469 2
(0.107346826 0.06701402994 0.5046062248 0.3210329193) 19955 58404 2
(0.2046060716 0.3605006411 0.196583967 0.2383093203) 20761 60760 1
(0.08151164578 0.03597460664 0.7435241159 0.1389896317) 19085 55859 1
(0.5129930514 0.01725473971 0.1385227039 0.331229505) 61223 180861 1
(0.1205570608 0.2398700732 0.1341774065 0.5053954596) 16856 49328 1
(0.3224802009 0.1020722924 0.49514422 0.08030328667) 21679 60842 2
(0.01473862106 0.474599915 0.4705176844 0.04014377954) 19983 55862 2
(0.5684861149 0.1085806052 0.00604572331 0.3168875567) 58924 176435 1
(0.3918397157 0.06199511203 0.05329094276 0.4928742295) 61221 182100 2
(0.4262455713 0.2302384145 0.2422791567 0.1012368575) 38235 204098 2
(0.1461532584 0.2829949879 0.2571206763 0.3137310774) 19983 58483 1
(0.2911664051 0.3796461178 0.07553602079 0.2536514563) 20818 60924 2
(0.01382225689 0.4268077258 0.2098291222 0.3495408951) 59002 176637 1
(0.1317209219 0.1668819807 0.6480297648 0.05336733254) 19983 55862 2
(0.2462244761 0.0647879152 0.1608883782 0.5280992305) 19983 58483 1
(0.08427141172 0.05925852801 0.5084187536 0.3480513067) 58999 176627 2
(0.163086129 0.5175023675 0.1440103563 0.1754011472) 40196 122769 2
(0.07533954476 0.7428787591 0.0200116336 0.1617700625) 19983 58487 1
(0.04696684406 0.7580140266 0.105854375 0.08916475429) 19983 58487 2
(0.6248488984 0.2938367004 0.05178338554 0.02953101568) 20844 206067 2
(0.03061539311 0.5250510235 0.398280278 0.04605330547) 60775 181008 1
(0.5855194876 0.1965445303 0.04833695771 0.1695990244) 59585 178078 1
(0.1564840929 0.6748969842 0.0590363754 0.1095825475) 924 2745 2
(0.2365930708 0.4271917306 0.07847559799 0.2577396006) 17119 50106 2
(0.5623481532 0.1286060531 0.06095982954 0.2480859642) 958 2745 1
(0.1598499055 0.4252786165 0.2623414983 0.1525299797) 43354 132035 2
(0.07442599859 0.2974705102 0.3734471621 0.2546563292) 6593 19326 1
(0.7663624262 0.02745875803 0.01057581294 0.1956030028) 60099 72138 1
(0.2361061483 0.6994812567 0.001193542288 0.06321905276) 18767 54929 2
(0.4944599949 0.3037186018 0.1852401324 0.01658127097) 1977 5832 1
(0.2572194899 0.5807745799 0.1190356307 0.0429702995) 43482 132321 2
(0.1132814613 0.2246053896 0.3037161682 0.3583969808) 9929 29077 2
(0.2194491152 0.16245801 0.33362171 0.2844711649) 43512 204303 2
(0.2518958762 0.378810691 0.1749741827 0.1943192501) 10885 31874 1
(0.3436332406 0.2685498806 0.06211451045 0.3257023684) 10900 203160 2
(0.3246938302 0.002305188816 0.5595028511 0.1134981299) 44487 132227 2
(0.2456260067 0.6108848987 0.04282514818 0.1006639464) 59590 178091 2
(0.3898706391 0.05571905271 0.5508441004 0.003566207778) 14285 205793 1
(0.06482364069 0.01037637826 0.005665680212 0.9191343008) 60612 180610 2
(0.430977831 0.1048652087 0.2012440003 0.2629129599) 45589 138593 2
(0.1783133592 0.3410884214 0.4553196783 0.02527854106) 27007 80753 1
(0.1801273022 0.4087283338 0.3944804967 0.01666386734) 46594 138403 2
(0.4974917378 0.04560373863 0.2759236607 0.1809808628) 26751 76964 2
(0.2721344429 0.4793538615 0.1627806062 0.08573108944) 17149 50103 2
(0.2820508477 0.2935874488 0.3373761823 0.08698552127) 16271 47539 2
(0.1141593346 0.1933229711 0.07302237595 0.6194953183) 46654 207121 2
(0.1676338758 0.6516425888 0.07686229474 0.1038612407) 23286 68558 2
(0.2978548434 0.1803094997 0.08671664801 0.4351190089) 9917 26217 2
(0.07321496643 0.312166937 0.5826212846 0.03199681194) 47689 144657 2
(0.127299516 0.4811363196 0.1231899151 0.2683742492) 47720 207161 1
(0.04205031156 0.09240215564 0.5932883918 0.272259141) 47720 144749 1
(0.3846940619 0.2787239327 0.2089183617 0.1276636437) 10900 203161 1
(0.2285193202 0.07210180666 0.2296420248 0.4697368483) 9942 29107 2
(0.1929316689 0.5419655691 0.1727799635 0.09232279855) 48819 148061 2
(0.1484801717 0.5663120365 0.01379207925 0.2714157126) 18866 55222 2
(0.7578101733 0.02423010996 0.03025185093 0.1877078658) 48786 147966 2
(0.1810240731 0.535744286 0.09429634131 0.1889352997) 48818 148063 1
(0.2478403919 0.4254910199 0.2571653571 0.06950323119) 58559 175500 1
(0.1758616414 0.7159415353 0.04312329796 0.06507352527) 49886 151185 2
(0.07417860428 0.3804019773 0.1766965739 0.3687228445) 18082 205943 2
(0.004614481862 0.4630338926 0.00808698753 0.524264638) 49885 151185 2
)


// ************************************************************************* //
