/*--------------------------------*- C++ -*----------------------------------*\
  =========                 |
  \\      /  F ield         | OpenFOAM: The Open Source CFD Toolbox
   \\    /   O peration     | Website:  https://openfoam.org
    \\  /    A nd           | Version:  8
     \\/     M anipulation  |
\*---------------------------------------------------------------------------*/
FoamFile
{
    version     2.0;
    format      ascii;
    class       vectorField;
    location    "1/lagrangian/reactingCloud1";
    object      U;
}
// * * * * * * * * * * * * * * * * * * * * * * * * * * * * * * * * * * * * * //


108
(
(0.4102953156 -0.8221623461 -3.165181637)
(0.508996496 -0.7977926453 -3.223178017)
(0.9973090564 -0.3949128109 -3.005448076)
(0.360053075 -0.8463795752 -3.146690401)
(1.087992184 -0.2795305815 -2.908914284)
(0.5057639823 -0.5914668539 -2.980079131)
(-0.007091339381 -1.045470277 -2.984477859)
(-0.1817143607 -0.5857891467 -1.49237178)
(0.1598862582 -0.4141223719 -1.389949499)
(-0.1394772724 -0.9639784403 -1.355331998)
(0.09245545328 -0.5560336916 -1.227000749)
(0.09550234593 -0.5515154824 -1.229233329)
(0.1643288401 -0.3934141638 -1.378994458)
(0.09881374374 -0.5485516865 -1.23169493)
(0.0795169626 -0.6013224004 -1.213118048)
(0.1027052901 -0.5604292502 -1.235994023)
(0.1126201858 -0.5261300968 -1.244593043)
(0.1188112196 -0.5211338458 -1.250358874)
(0.1166290831 -0.5119772123 -1.245567221)
(0.1238627358 -0.5117217624 -1.253777933)
(0.1299928228 -0.5087552293 -1.259150864)
(0.2253648531 -0.7953379635 -1.275210372)
(0.1377260069 -0.481927669 -1.261977433)
(0.2513969308 -0.3691622412 -1.403251587)
(0.1530011776 -0.4403380359 -1.280258334)
(-0.3292924038 -0.9382514866 -1.700107412)
(0.1476816094 -0.4771376293 -1.271645044)
(0.1577237439 -0.4437612639 -1.289662836)
(0.6742501968 -0.2586639839 -2.585156558)
(-0.1992408729 -0.8763975636 -1.685313213)
(0.1663483581 -0.4282042952 -1.297400856)
(0.9130645026 0.06865277673 -0.8302749153)
(0.004731599667 -1.015687226 -3.050949816)
(0.1756751637 -0.3527867759 -1.364316042)
(0.6853424799 0.05129297455 -0.8278602764)
(0.1719788032 -0.4013246134 -1.299555819)
(-0.3483998038 -0.9872749765 -1.749468294)
(0.650216022 0.1287631697 -0.7877282806)
(0.5901436645 0.04472706305 -0.7911515241)
(0.180134664 -0.379726625 -1.303515228)
(0.3706841442 0.108013296 -0.7441294298)
(0.3319832366 0.08718828248 -0.723748231)
(0.3115746735 0.07344046469 -0.7096946564)
(0.1922096918 -0.3120376058 -1.360072293)
(0.1139171956 -0.7327617362 -3.310714163)
(0.3012596249 0.06173531417 -0.6777163993)
(0.4766840709 -0.7353487659 -2.288715862)
(0.2054966054 -0.31366231 -1.317440851)
(-0.1285819298 -0.6254994302 -1.239125542)
(0.1980515766 -0.2778989888 -1.343551069)
(0.2836404426 0.04618434574 -0.6295865539)
(-0.05727720479 -1.04699296 -2.973065937)
(-0.2199764379 -0.5567307928 -1.184172332)
(0.2063085551 -0.2559343895 -1.341433418)
(-0.2765429663 -0.5628421909 -1.052250746)
(0.2749200529 0.04484759107 -0.539046491)
(0.4231750151 -0.03453694555 -2.426026909)
(0.2115737555 -0.2522591113 -1.319560465)
(-0.1679298433 -0.4633034351 -1.185027559)
(-0.1605221472 -0.5111356913 -1.063932637)
(0.2110416023 -0.2391213672 -1.335047972)
(0.2143950497 -0.2402761855 -1.323176137)
(-0.279896883 -0.505168164 -1.055303083)
(-0.01620215682 -0.7528174356 -2.236232377)
(0.2193603403 -0.2302606492 -1.332362213)
(0.2196545725 -0.2282245164 -1.339422353)
(-0.1940310054 -0.3470466761 -1.146890874)
(0.4450995602 0.1437036669 -0.7295326402)
(-0.20394561 -0.3956891716 -0.9633013875)
(0.1305555185 -0.08916184449 -1.925274013)
(-0.2972202913 -0.5161999563 -1.506915329)
(0.1379647862 -0.08003131227 -1.927087744)
(0.4742538117 -0.9854002105 -1.945575693)
(-0.1351890558 -0.6727794328 -3.287373602)
(-0.2919910005 -0.3686715401 -0.8678195868)
(0.006167199741 -0.9126793816 -2.973750059)
(0.1272203619 -0.07746449579 -1.831904067)
(0.3635069835 0.04125333673 -2.268957047)
(0.828715389 -0.2912348017 -1.873980139)
(0.2660880611 0.4677815795 -2.196418691)
(0.8345422565 -0.2807730736 -1.746735027)
(0.7298842917 -0.2099712533 -1.640472292)
(0.4093281888 -0.4062658893 -2.16918625)
(-0.2887061635 -0.3786229767 -0.8956722641)
(-0.3755909135 -0.6535699394 -1.678295438)
(-0.3019500612 -0.3879360971 -0.7691322531)
(0.9972271422 -0.08561645024 -1.933129059)
(-0.03916345402 -0.3216936897 -0.4349467206)
(0.4534753331 -1.105516234 -1.769518308)
(0.1003739819 -1.053164415 -2.586102438)
(-0.3137940037 -0.4861221391 -1.488808134)
(-0.2877800322 -0.4525866577 -1.501301899)
(-0.47067413 -0.1365672951 -2.101895478)
(0.07539181696 -0.9575971266 -2.790863222)
(0.2325176104 -0.1900144024 -1.705078096)
(-0.1949323203 -1.198907167 -1.717989853)
(-0.7016638183 -0.5475546382 -1.902762851)
(-0.3489999326 -0.9617314288 -1.8113158)
(0.7390010083 -0.1938681672 -1.713417721)
(0.6744646622 -0.2296521152 -1.863708966)
(1.227171257 0.2289846552 -1.615214017)
(-0.4442395746 -0.9103465131 -1.366712229)
(-0.566485528 -0.9639286836 -1.713374974)
(0.8342070894 0.6791322321 -1.718998896)
(0.6865104806 0.1918462355 -0.02588170479)
(0.3786438013 0.7185671844 -1.847060243)
(-0.2815524867 -0.3818678354 -1.366390573)
(-0.1366050722 0.6595748456 -1.884587286)
)


// ************************************************************************* //
