/*--------------------------------*- C++ -*----------------------------------*\
  =========                 |
  \\      /  F ield         | OpenFOAM: The Open Source CFD Toolbox
   \\    /   O peration     | Website:  https://openfoam.org
    \\  /    A nd           | Version:  8
     \\/     M anipulation  |
\*---------------------------------------------------------------------------*/
FoamFile
{
    version     2.0;
    format      ascii;
    class       volScalarField;
    location    "1.6";
    object      alphat;
}
// * * * * * * * * * * * * * * * * * * * * * * * * * * * * * * * * * * * * * //

dimensions      [1 -1 -1 0 0 0 0];

internalField   nonuniform List<scalar> 
67193
(
0.0002363574761
0.0002534352145
0.0002620854481
0.0002529620994
0.0002418791738
0.0002304534165
0.0002197246353
0.0002099435444
0.0002006276116
0.0001913794624
0.000182929241
0.0001784024541
0.0001799452041
0.000184714647
0.0001889271225
0.0001910188326
0.0001907075407
0.0001880362066
0.0001830926042
0.0001759910747
0.0001669842216
0.0001567182224
0.0001464763916
0.0001379895638
0.000132712991
0.0001311090768
0.0001322432885
0.0001340541659
0.0001347323258
0.0001336238907
0.0001307440209
0.0001261061314
0.0001186746457
0.0001000058137
0.0002820210736
0.0003009636067
0.0003115144693
0.0003067002871
0.0002910765687
0.000274149072
0.000258460575
0.0002446034329
0.0002322892152
0.0002208997389
0.0002108889656
0.0002053486341
0.0002067399514
0.0002112735648
0.000214411302
0.0002149826694
0.000213124699
0.0002090492937
0.0002029590873
0.0001950938568
0.0001857467528
0.0001754300295
0.0001651727987
0.0001566053538
0.0001517290276
0.0001518180498
0.0001553737479
0.0001585861231
0.000158648069
0.0001550063366
0.0001482598544
0.0001390576739
0.0001267745808
0.0001014008183
0.0003054558909
0.0003268630253
0.0003399020631
0.0003382597013
0.0003206476323
0.0002996477813
0.0002805325809
0.0002636238425
0.0002490149182
0.0002360011747
0.0002247960323
0.0002189179748
0.0002213244431
0.00022635462
0.0002278657713
0.0002258349678
0.0002217827396
0.0002165634869
0.0002104330569
0.0002033569597
0.0001951757575
0.000185898927
0.0001761473958
0.0001675656725
0.0001632550313
0.0001655658684
0.0001717143546
0.0001759987743
0.0001751739053
0.0001690023883
0.0001585490155
0.0001451528973
0.000129277362
9.913978469e-05
0.000316667409
0.0003393930699
0.000353124501
0.0003539394238
0.0003377054588
0.000316249025
0.0002946734882
0.0002751019973
0.0002586440083
0.00024434446
0.0002325735607
0.0002301058266
0.0002367901552
0.0002445671108
0.0002446521906
0.0002388066445
0.0002307202421
0.0002228652936
0.00021619854
0.0002103090906
0.0002039696333
0.0001961671727
0.0001869743841
0.0001780837201
0.0001737653083
0.0001773203486
0.0001848502378
0.0001894362863
0.000187707773
0.0001796530621
0.0001665739813
0.0001502402144
0.000132793018
0.0001060686807
0.0003160350293
0.0003385816098
0.0003525887737
0.0003553812383
0.0003410731365
0.000320844982
0.0003001085296
0.0002806712755
0.0002627977772
0.0002477467893
0.0002366741125
0.0002474792491
0.0002578534993
0.000269013568
0.0002680946762
0.0002584057579
0.000245361057
0.0002334258224
0.0002252372325
0.0002203628711
0.0002159941336
0.0002096118579
0.0002006944163
0.0001905876684
0.0001842942503
0.000186304957
0.0001930848662
0.0001971106967
0.0001945791113
0.0001855000831
0.0001714581824
0.0001546635476
0.0001389342308
0.0001201920514
0.0003046425751
0.0003264135355
0.0003405791401
0.0003452180673
0.0003335289223
0.0003158332346
0.0002975288832
0.0002798469678
0.0002622300549
0.0002474184365
0.0002392401687
0.0002709768954
0.0002850333375
0.0002967634435
0.000294290091
0.0002811512943
0.0002636249994
0.0002477545317
0.0002381221514
0.0002344618994
0.0002320887223
0.0002268819887
0.0002184229744
0.0002063142575
0.00019593179
0.0001928485841
0.0001959732416
0.0001982043719
0.0001948450347
0.0001856046521
0.0001725896904
0.0001586674026
0.0001477177869
0.0001343170536
0.0002851058669
0.0003057909544
0.0003201966577
0.000326632561
0.0003189806526
0.0003050453004
0.0002903176664
0.0002750971543
0.0002585897165
0.0002448406652
0.000241482665
0.0002719842987
0.0003113376429
0.0003225936898
0.000317423063
0.0003017246734
0.0002803791568
0.00026205709
0.0002527112296
0.0002513862739
0.0002511863327
0.0002467213441
0.000241283904
0.0002258049486
0.0002103100465
0.0001996550871
0.0001959041658
0.0001944523626
0.000190011147
0.0001816825421
0.0001726336518
0.0001656053116
0.0001600578086
0.0001473477341
0.0002635019999
0.0002823434001
0.0002967196931
0.0003049601253
0.0003028147441
0.0002937605491
0.0002826383625
0.0002692865908
0.0002537580479
0.0002412110462
0.0002445331455
0.0002901668868
0.0003309953531
0.0003380073757
0.0003307396635
0.0003147624067
0.0002915970267
0.0002731500499
0.0002669769239
0.0002695808037
0.0002716077374
0.000267296392
0.0002800018542
0.0002518722215
0.0002283373627
0.0002096840533
0.0001974052748
0.0001904794423
0.0001846645811
0.0001788898356
0.000178438939
0.0001816563192
0.000178795519
0.0001621924336
0.0002487836026
0.0002648268369
0.0002780596846
0.0002873575027
0.0002906769055
0.0002873652531
0.0002784144644
0.000264932755
0.0002494338801
0.0002373863965
0.0002471274808
0.0003020136659
0.000338794119
0.0003425706357
0.0003336000658
0.0003227970425
0.0002965168877
0.0002802656434
0.0002803508999
0.0002878717388
0.0002913707997
0.000288467223
0.000368754755
0.000301897116
0.0002536259687
0.0002236168532
0.0002032132905
0.0001907424396
0.0001838679533
0.0001830621965
0.0001961306897
0.0002091429379
0.0002053673107
0.0001816138493
0.0002406563999
0.000255222462
0.0002676734214
0.0002778619885
0.0002858746133
0.0002895031563
0.000280897695
0.0002647514733
0.0002473107572
0.0002338321194
0.000246854188
0.0003003941664
0.0003377443618
0.0003434212052
0.0003298390806
0.0003411992344
0.0002996789894
0.0002850194388
0.0002928551036
0.0003051042748
0.0003081178013
0.0003191465538
0.0005271604731
0.0004046933146
0.0003016315925
0.0002434127593
0.0002119509231
0.0001951369061
0.0001887063194
0.0001962751932
0.0002249068864
0.0002434519583
0.0002372179142
0.0002055240754
0.0002336831547
0.0002483141193
0.0002623899333
0.0002758241965
0.0002896267301
0.0003015827627
0.0002926932032
0.0002726083243
0.0002503875678
0.0002320324558
0.0002414701217
0.0002906551854
0.0003393504412
0.0003534678293
0.0003268405511
0.0003374022984
0.0002986721508
0.0002887266291
0.0003033908313
0.00032399707
0.0003254136411
0.0003921329625
0.000734691546
0.0005542476081
0.0003884847788
0.0002767101909
0.0002216356371
0.0002003733433
0.0001970947724
0.000217201349
0.0002591075016
0.0002784807927
0.0002696522946
0.0002306560435
0.0002274470166
0.0002427860074
0.0002616217952
0.0002818922464
0.0003028982851
0.0003214225516
0.0003130734271
0.0002905268711
0.0002620257195
0.0002357222466
0.0002361186593
0.0002798561052
0.0003441935516
0.0003529533268
0.0003160160783
0.0002931428497
0.0002834950104
0.0002908208423
0.0003120769866
0.0003532480565
0.0003470463777
0.0004798084521
0.0008071244332
0.0006492443063
0.0004582351293
0.000307901931
0.00022837726
0.0002042069609
0.000207885106
0.0002432498613
0.0002930993658
0.0003107816365
0.0002990516732
0.0002530256317
0.0002236046102
0.0002418359743
0.0002677983367
0.0002970588673
0.0003238127464
0.000343821866
0.0003372677339
0.0003150583613
0.0002822129519
0.0002486992492
0.0002349485418
0.0002601419748
0.0003031104522
0.0003029059235
0.0002945912389
0.0002881912519
0.0002895196537
0.0002949630582
0.0003124973757
0.0003361660753
0.000329441408
0.0003725646633
0.0004338185122
0.0003327625238
0.000256227728
0.000224571856
0.0002302635055
0.0002095029782
0.0002211672385
0.0002696925727
0.0003216223586
0.0003369254137
0.000323274683
0.0002699628205
0.0002261885522
0.000247814159
0.0002820171419
0.0003175176433
0.0003462196732
0.0003644038482
0.0003603807029
0.0003403717873
0.000306489923
0.0002691661935
0.0002456042331
0.0002614468027
0.0002873631973
0.0002960793074
0.0002977219646
0.0002953920748
0.0002929673031
0.0002947296003
0.0003026793532
0.0003082344918
0.0003052768283
0.0002965149697
0.0003055309881
0.000259214257
0.0002293963612
0.0002202379368
0.0003294946058
0.0002523615289
0.000236269758
0.0002883408913
0.0003389525726
0.0003534613865
0.0003389214062
0.0002797176109
0.0002413713748
0.0002588420204
0.0002990203782
0.0003357100636
0.0003638226645
0.0003802816356
0.000378828832
0.0003619018649
0.0003299689682
0.0002909313708
0.0002604815211
0.0002700799258
0.0002947178443
0.0003043134012
0.0003063492771
0.0003040868946
0.0003028692548
0.0002944273874
0.0002908222769
0.0002886324124
0.0002829891404
0.0002697668268
0.0002496968264
0.0002240992523
0.0002154212105
0.0002750241329
0.0005492075738
0.0004159370211
0.0002713593126
0.0002931455573
0.0003424098977
0.000357769252
0.0003424158904
0.0002802459276
0.0002630419107
0.0002700143132
0.0003110462051
0.0003461016879
0.000373097506
0.0003889508134
0.0003897299007
0.000376058395
0.0003469637621
0.000307739572
0.0002740146679
0.0002812465843
0.0003041565896
0.0003124662384
0.0003134661639
0.0003100499581
0.0003043357885
0.0002924799479
0.000278347312
0.0002646613132
0.000251756807
0.0002351511634
0.0002144776642
0.0002030329258
0.0002353781676
0.0003856250611
0.0006767719751
0.0004766510713
0.0002926850607
0.0002880036538
0.0003328213092
0.0003482371626
0.0003301611399
0.0002678751192
0.0002749021195
0.0002733207949
0.0003112014837
0.000344863666
0.0003718252684
0.0003886191989
0.0003912763592
0.0003802305986
0.0003534947333
0.0003144638639
0.000280757838
0.0002920307529
0.0003119220197
0.0003178022353
0.0003170007846
0.0003115264166
0.0003017190413
0.0002871192077
0.0002678125102
0.0002486875724
0.0002290869674
0.0002084557338
0.0001952387705
0.0001979714626
0.0002042183066
0.0002128626582
0.0003186227705
0.0002191116174
0.000226152384
0.0002688773779
0.0003094338825
0.0003215120107
0.0002972046295
0.0002374707776
0.0002167159284
0.0002453724674
0.0002849552421
0.000322993931
0.0003538889765
0.000374165727
0.0003779202647
0.0003653811459
0.0003319136411
0.0002874655825
0.0002758495417
0.0003021818076
0.000316335404
0.0003189475822
0.00031582208
0.0003081953379
0.0002957358347
0.0002784401527
0.0002573504635
0.0002362638105
0.000213866068
0.0001945857181
0.0001941282149
0.0002043389145
0.0002085416793
0.0002079190573
0.0002118273455
0.0002032260948
0.000214210211
0.0002435988793
0.0002710665055
0.0002725291754
0.0002485942219
0.0002047117554
0.0001996832162
0.0002027485661
0.000252130998
0.0002816787476
0.0003183885497
0.0003435265332
0.0003488636559
0.0003334358985
0.0002989352567
0.0002674663015
0.0002801755659
0.000303454139
0.0003140941029
0.0003141374855
0.0003080985671
0.0002982930702
0.0002830744605
0.0002637137316
0.0002416073629
0.0002190307287
0.0001976020173
0.0001917988387
0.0002048858733
0.0002146117486
0.0002168263722
0.0002134505179
0.0002069336604
0.0002034985454
0.0002107809561
0.0002330642114
0.0002526473226
0.0002532526012
0.0002437746985
0.000208205075
0.0002098158968
0.0002101527523
0.0004341778604
0.0002408909985
0.0002690594652
0.0003023232685
0.0003094736722
0.0002946980898
0.0002662507952
0.0002564004875
0.0002772502493
0.0002965837496
0.0003034281683
0.0002999676734
0.0002897031738
0.0002781356518
0.0002608803161
0.0002401064912
0.0002163832844
0.0001955013652
0.0001900292309
0.0002052799351
0.000219706025
0.0002280301571
0.0002293579969
0.0002238662215
0.0002146542971
0.0002070853527
0.0002097500914
0.0002323764466
0.0002557456235
0.0002615385572
0.0002525700054
0.000213572104
0.0002303579388
0.0002237895134
0.0002130021576
0.0001954690349
0.0002146233464
0.0002529738041
0.000266975638
0.0002551599535
0.0002381855325
0.0002455530694
0.0002659777503
0.000282097105
0.0002847765966
0.0002775020391
0.00025970431
0.0002505503331
0.0002327775905
0.0002091548455
0.0001907496681
0.0001884786897
0.0002051722107
0.000222077432
0.0002353896359
0.0002432251904
0.0002430156091
0.0002363912946
0.0002251454394
0.000212684559
0.0002099750446
0.0002300918506
0.0002555174061
0.0002637095834
0.0002560223256
0.0002156827035
0.0002581706507
0.0002583685553
0.000242124978
0.0002175920694
0.0001931897138
0.0002137238979
0.000218498363
0.0002136869139
0.0002110227911
0.0002275131194
0.0002489593838
0.0002612591025
0.0002597758839
0.0002496211047
0.0002304690466
0.0002190604104
0.0001998622947
0.0001881223529
0.0002003322084
0.0002065978965
0.0002209949775
0.0002366966852
0.0002496119531
0.0002555448003
0.0002540618258
0.0002468020901
0.0002349554931
0.0002189444094
0.0002102598997
0.0002225751493
0.0002469743329
0.000257595874
0.0002507804114
0.0002118358633
0.0002878335371
0.0002971076422
0.0002845728532
0.0002601596808
0.0002309700442
0.0002018201784
0.0001846220317
0.000177471227
0.000181525443
0.0002011066862
0.0002262616415
0.0002386680405
0.0002315910348
0.0002132647684
0.000207598721
0.0001843056203
0.0001808991374
0.0002087402022
0.0002298653511
0.0002243217014
0.0002322690082
0.0002480594815
0.0002596209407
0.000264200343
0.000261562561
0.0002535037676
0.0002409235324
0.0002237968338
0.0002100780614
0.0002114223911
0.0002285439472
0.0002414434187
0.0002355596583
0.0001998312165
0.0003109418432
0.0003269208188
0.0003185206308
0.0002953450542
0.0002647595127
0.0002325305332
0.0002029406772
0.0001790028376
0.0001659826889
0.0001736077397
0.0001999549805
0.0002145892714
0.0002036044448
0.0001629816571
0.0001490348278
0.0001642309162
0.0002039034662
0.0002437031461
0.0002619998257
0.0002417044501
0.0002391093493
0.000253948241
0.0002652045559
0.0002688921556
0.0002649483027
0.0002554435135
0.0002413548781
0.0002234765043
0.0002082296072
0.0001997449768
0.0002063664483
0.000219605415
0.0002139318256
0.0001835297899
0.0003146408076
0.0003326531586
0.0003515026584
0.0003428928027
0.0003207508506
0.0002891735938
0.0002553873287
0.000223811581
0.0001978649389
0.0001802961637
0.0001681232942
0.0001729874796
0.0001787376906
0.0001589065667
0.0001431049475
0.0001394860281
0.0001718198575
0.0002284376288
0.0002732423734
0.0002927620969
0.0002604678327
0.0002426244844
0.0002542514978
0.0002661503032
0.0002693002622
0.0002634557277
0.0002513858305
0.0002350113862
0.0002184990073
0.0002081918064
0.0001954518029
0.000202257262
0.0002157926742
0.0002082877243
0.0001843308554
0.0003390982517
0.0003627133257
0.0003747754928
0.0003594648476
0.0003355151935
0.0003037469898
0.0002686813194
0.0002369951933
0.0002110756699
0.0001943165319
0.0001842006983
0.0001744965444
0.000162578861
0.0001500507297
0.0001450665717
0.0001436522324
0.0001681608609
0.0002339364479
0.0002851093599
0.0003069876119
0.0002711339589
0.0002431890738
0.0002494895747
0.00026314238
0.0002660590047
0.0002572919874
0.0002417387814
0.0002262827535
0.0002191384927
0.0002342051743
0.0002258453065
0.0002620662704
0.0002810027458
0.0002561868311
0.000215306076
0.0003753751929
0.0004021393308
0.0003719687328
0.0003484881084
0.0003251833808
0.0002970181629
0.0002667065834
0.0002391879215
0.0002154607196
0.0001966361998
0.0001823410728
0.0001707739702
0.0001607901127
0.000152334408
0.0001511635633
0.000153935609
0.0001590259869
0.0002114006234
0.0002658947751
0.0002885036028
0.0002547960542
0.000239512399
0.0002459525938
0.0002643333668
0.0002653411819
0.000252904049
0.0002379102798
0.0002329239322
0.0002591263106
0.0003118739405
0.0003202454895
0.0003865454608
0.0004023998103
0.0003551066851
0.0002821954466
0.0003522458016
0.0003639662703
0.0003537393002
0.0003422430015
0.0003251801725
0.0003011350718
0.0002725228397
0.0002458961464
0.0002226733773
0.0002036207868
0.0001886193921
0.0001769030171
0.0001677303939
0.0001605570427
0.0001565670825
0.0001534781592
0.0001585940432
0.000181699135
0.0002101521419
0.0002250957396
0.0002282892793
0.0002435957961
0.0002598395561
0.0002753739881
0.0002805262556
0.0002660478341
0.0002549408617
0.00028068165
0.0003480507851
0.0004147948439
0.000446245702
0.0005264905152
0.000534596735
0.0004814325362
0.0003811264575
0.0003509925325
0.0003481504733
0.000340996109
0.0003256108776
0.000302820376
0.0002757427413
0.0002501425964
0.0002281995341
0.0002102717869
0.0001962278621
0.0001852372027
0.0001763550842
0.0001688868565
0.000169936971
0.0001628866143
0.0001700226658
0.000187024237
0.0002033240018
0.0002215572019
0.0002460203335
0.0002707171147
0.000291579609
0.0003067850295
0.0003082250401
0.000290848238
0.0002941315019
0.000362207473
0.000450763212
0.0005167865536
0.0005750101874
0.0006548238859
0.0006625738772
0.0006071679897
0.0004893758615
0.0003207187231
0.0003201430595
0.0003140965817
0.0003028280187
0.0002870054541
0.0002666519194
0.0002460467342
0.0002276521777
0.0002128178358
0.000201870502
0.0001933707933
0.0001855251319
0.000336689234
0.0003183027023
0.0003486635461
0.0004504474253
0.000554535867
0.0006265499347
0.00070193288
0.0007787560292
0.000799288569
0.0007346407188
0.0005929298933
0.0002932825808
0.0002946938034
0.0002840960641
0.0002656732742
0.0002455505659
0.0002283589889
0.000216926369
0.0002395458322
0.0002541928238
0.0002529368349
0.0002460001435
0.0002354900546
0.0002249323659
0.0002147423214
0.0002047565216
0.0001955701445
0.0001892257791
0.000188957146
0.0001944170355
0.0002018554036
0.0002076378354
0.0002100776976
0.000208708024
0.00020363122
0.0001953385411
0.0001846991804
0.0001729523765
0.0001616362131
0.0001523703827
0.0001463501373
0.0001438526478
0.0001442170664
0.0001460817159
0.0001477543722
0.0001479132773
0.000146053761
0.000142041408
0.0001355598879
0.0001250989156
0.0001004390093
0.0005297862309
0.0006788462298
0.0007876377616
0.0008213159703
0.0007900129985
0.0007344413303
0.0006720826197
0.0006120014999
0.0005524272568
0.0004991168987
0.0004693669752
0.0004801005489
0.0005178086941
0.0005619727068
0.0005944782255
0.0006080512835
0.0006010675486
0.0005740337506
0.0005300812184
0.000476119466
0.0004221553617
0.0003781340457
0.0003504619954
0.0003406350376
0.0003463057203
0.0003623823082
0.0003806868351
0.0003907390656
0.000384481628
0.0003611813649
0.0003255406044
0.0002817628274
0.0002271051056
0.0001037744594
0.0007801973474
0.0009430883455
0.001036188745
0.001078157219
0.001064591355
0.00101498031
0.000927250471
0.0008413979203
0.0007508228703
0.000662331967
0.0006048661818
0.0006097282611
0.0006480338708
0.0006957035783
0.0007273414002
0.0007368501947
0.0007268728806
0.0006992372927
0.0006547818572
0.0005968896487
0.0005335507613
0.0004759648947
0.0004346310484
0.0004164223313
0.0004237813653
0.0004520018013
0.0004858158575
0.0005028974132
0.0004864210883
0.0004365990098
0.0003688107481
0.0002990213966
0.0002264986462
9.861096563e-05
0.0009153609317
0.001055444956
0.00114859883
0.00118850615
0.001177989647
0.001127155983
0.001057162327
0.0009852612286
0.0008855025565
0.0007738140065
0.0006981349513
0.0007179405854
0.000745342013
0.000788183545
0.0008090885547
0.0008024925089
0.0007806030981
0.0007515122631
0.000714573127
0.0006662214315
0.0006070705506
0.000545168004
0.0004938577489
0.0004675076785
0.0004766358768
0.0005181880502
0.0005683213593
0.0005916234101
0.0005627636726
0.0004833431175
0.0003816063416
0.0002893858212
0.0002045467158
0.0001000826452
0.0009705851893
0.001098308272
0.001182330774
0.001222074418
0.001218888502
0.001177782949
0.001115640604
0.001043604537
0.0009618061743
0.0008410660002
0.0007752905449
0.0008846180523
0.0008778142319
0.0009083691807
0.0009182175236
0.0008896817311
0.000842928984
0.0007994726819
0.0007629421433
0.0007229890232
0.0006697740047
0.000604669106
0.0005421828189
0.0005047680012
0.0005109961661
0.0005587123616
0.0006167186716
0.0006408775929
0.0006014919362
0.0005021202407
0.0003800776663
0.0002786975844
0.000198582087
0.0001132008811
0.000992584797
0.001096793674
0.001169734817
0.001210009918
0.001217467083
0.001190627986
0.001140570494
0.001076581733
0.0009997395896
0.0008786800221
0.000851556997
0.001055123975
0.001047957434
0.001056028505
0.00105556782
0.001015507139
0.0009427169553
0.0008737727546
0.0008270265972
0.0007888217906
0.0007380555645
0.0006667632995
0.0005876055765
0.0005310201632
0.0005218757528
0.0005598304113
0.0006107009847
0.0006281050422
0.0005828335761
0.0004817819555
0.0003655987689
0.0002773499716
0.0002163880399
0.0001275577428
0.0009980800484
0.001081841558
0.001142607907
0.001181506814
0.001198528074
0.001185854786
0.001148839105
0.001094060307
0.001016496957
0.0009011961973
0.0008886954043
0.001093428565
0.001146301594
0.001171773643
0.001167434708
0.00112877284
0.001057759754
0.0009705044858
0.0009124350613
0.0008722734035
0.0008203249789
0.0007408060662
0.0006387710751
0.0005554566542
0.0005163776374
0.0005281031218
0.0005592057811
0.0005653576399
0.0005203270794
0.0004349000139
0.0003477499223
0.0002891594119
0.0002453456414
0.0001401050202
0.001003636348
0.001072855127
0.00112292988
0.00115816245
0.001178900094
0.001174469014
0.001148089609
0.001100964467
0.00101554991
0.00091085259
0.0009277025856
0.001118501882
0.001215959846
0.001255898945
0.001255659507
0.001227914612
0.001156510268
0.001066185498
0.001006198106
0.0009641196048
0.0009070577024
0.0008230763262
0.0006957183072
0.0005878234677
0.0005122351769
0.0004895061569
0.0004966981699
0.0004932177421
0.0004551928198
0.0003955608312
0.0003469804626
0.0003199716968
0.000281477529
0.0001519942282
0.001012231457
0.00107152071
0.001115130907
0.001145897155
0.001162125895
0.001157648584
0.001139556488
0.001097969203
0.0009970888782
0.0009095497807
0.0009626242203
0.00116695985
0.001274126616
0.001318173791
0.001328045908
0.001335110493
0.001246313524
0.001146240808
0.001090016653
0.00104712541
0.0009791453918
0.0009084502731
0.0007845955432
0.0006402085507
0.0005240109191
0.0004692701621
0.000457749615
0.0004506878032
0.0004246807694
0.0003933562924
0.0003830765672
0.000381414427
0.0003329743699
0.0001655743655
0.001020328501
0.001073084155
0.001113156345
0.001138511476
0.001144146326
0.001134888656
0.00112400667
0.001085702358
0.0009644416776
0.0008933082937
0.0009732816954
0.001203878794
0.001337853197
0.001389183867
0.001422595085
0.001504594397
0.001352081557
0.001214033284
0.001157086084
0.001131092483
0.001051745343
0.001054272989
0.001075975522
0.0008150082816
0.0005792057604
0.0004757639195
0.0004564542726
0.0004527211195
0.0004405456677
0.0004382493404
0.0004684665824
0.0004880849964
0.0004139682017
0.0001827972221
0.001019699901
0.001075246846
0.001114239671
0.00113243363
0.001126020544
0.001112226359
0.001106579713
0.001067956185
0.0009253874916
0.0008620522669
0.0009596359165
0.001243140989
0.001423848054
0.001493414925
0.001524005512
0.001574403993
0.001443937182
0.001270869858
0.001223966999
0.001268093719
0.001184719602
0.001339764058
0.001983095039
0.0013329597
0.0006782978269
0.0005064478394
0.0004864067156
0.0004908181231
0.0004934815297
0.0005276829471
0.0006059351964
0.000642425084
0.0005362644786
0.000203988877
0.0009976303421
0.001068760428
0.001115814178
0.001128074327
0.001114097595
0.001101074044
0.001098655559
0.001055809533
0.0008957016379
0.0008253272488
0.0009375160107
0.001273036325
0.001477376123
0.001526411593
0.00150034853
0.001476511629
0.001364899703
0.001275905803
0.001318091395
0.001392068637
0.001276442238
0.001555792285
0.002001642259
0.001567510074
0.0007567940986
0.0005382783897
0.000534305599
0.0005505085669
0.0005709194516
0.0006536800211
0.0007681354806
0.0008006608169
0.000683820083
0.0002270812336
0.0009598035247
0.001026689581
0.001111078538
0.001124649282
0.00111424528
0.00111067716
0.00111228118
0.001065928891
0.0009008122285
0.0008028512557
0.0009152997272
0.001224024918
0.001423347762
0.001461858411
0.001414342126
0.001376816012
0.001343280861
0.001282998517
0.001286186826
0.001376355343
0.001233429828
0.001295963374
0.001336912368
0.0009108153865
0.0006204500067
0.0006052878019
0.0006013006057
0.0006203261294
0.0006643842282
0.0007935061972
0.0009127671086
0.000946260481
0.0008101874349
0.0002477619231
0.0009233508004
0.0009620596987
0.001095251992
0.001121451609
0.001126965318
0.001137790067
0.001145685948
0.001102865712
0.0009608547116
0.0008133561207
0.0008979725763
0.001151126591
0.001303446124
0.001339542601
0.001331454954
0.001318931005
0.001298052526
0.001253213064
0.001206479639
0.001147629477
0.001029219225
0.0009352339959
0.0007454020368
0.0005992518801
0.0005969147062
0.0006965817428
0.0009253159826
0.0007193047313
0.000761172656
0.000903589358
0.00101627132
0.001044365872
0.000897015781
0.0002607442648
0.0008986097853
0.00090074233
0.001070884765
0.001116499688
0.00114276529
0.001166249139
0.001180373059
0.001146736965
0.001028282932
0.0008637342354
0.0009193141189
0.001148804359
0.001250325343
0.001286053795
0.001295118974
0.001296011047
0.001293029615
0.001228812712
0.00114507178
0.00103136143
0.0008844470472
0.0007241770375
0.0005867449897
0.0005631452638
0.0006603156275
0.001154392861
0.001818813759
0.001508276603
0.0008591860473
0.0009750279964
0.001066951205
0.001082756887
0.0009248084814
0.0002616044807
0.0008820089024
0.0008595327324
0.001040791138
0.001099931609
0.001144231481
0.00117759453
0.001195342972
0.001169666519
0.001071702519
0.0009336511704
0.0009715728193
0.001165282455
0.00124082262
0.001268467592
0.001275596444
0.00127151634
0.001263031773
0.00118123796
0.001065473675
0.0008945288355
0.0006998372577
0.0005439083039
0.0004861810637
0.0005694108041
0.000715015425
0.001532771843
0.002063772121
0.001816077933
0.00100990504
0.0009991542264
0.001074516849
0.001070750654
0.0008985412085
0.0002490079187
0.0009056057008
0.0008410326355
0.0009967602009
0.001056369362
0.001113444057
0.001155966999
0.001175535581
0.001153045929
0.00106962454
0.00097781
0.001030048297
0.001176847657
0.001230877469
0.001248814728
0.001247390873
0.00122694613
0.001180215262
0.001086004682
0.0009385943235
0.0007189836361
0.0005269094541
0.0004352124363
0.0004786435567
0.0006180473971
0.0007685676065
0.0009131979874
0.001548946689
0.001009520504
0.000966997421
0.00101719441
0.001053015536
0.001028113921
0.0008372097969
0.0002277065427
0.0009636397815
0.0008604320875
0.0008935748308
0.0009788544006
0.001033730816
0.001083993567
0.001107880339
0.00108607608
0.001003681948
0.000913419106
0.001060964483
0.001160844587
0.001197789946
0.001206429918
0.001193205193
0.001155436916
0.001081151845
0.0009554099111
0.0007733246768
0.0005520821893
0.0004142408604
0.0004128343066
0.000538513425
0.0007003146512
0.000813029129
0.0008926236773
0.0009064916015
0.0009012738018
0.000919976596
0.0009923436224
0.001028476714
0.000987651147
0.0007682767359
0.0002113409595
0.0009710653999
0.0008540019772
0.0007189909203
0.0008271849506
0.0008873917632
0.0009384746767
0.0009700574597
0.0009446876035
0.0008172284697
0.000829790256
0.00101218622
0.001100989982
0.001129024774
0.001125937748
0.001094855912
0.001035600857
0.0009310465873
0.0007866242462
0.0005675116857
0.0003990275834
0.0003581416091
0.0004569351192
0.0006373290516
0.0007907715638
0.0008758370378
0.0009151954924
0.0009157625368
0.0009018262907
0.0009225633892
0.0009856544314
0.001008459046
0.00095532122
0.0007375161486
0.0002113970695
0.001007498564
0.0006998454564
0.00152473056
0.000577086003
0.0006198278693
0.0007118139137
0.000753859147
0.0006936620765
0.0006418798457
0.0007466136039
0.0009203220915
0.001002331661
0.001016923617
0.0009941410443
0.000937344792
0.0008528327222
0.0007194607538
0.0005357027259
0.000365181752
0.0003145997684
0.000387877728
0.0005674357904
0.000754799992
0.0008792487468
0.0009360612383
0.0009602395817
0.0009510838565
0.0009238860398
0.0009229162
0.0009712958773
0.0009806169836
0.0009321658997
0.0007428950797
0.0002145361028
0.001129460024
0.001029664355
0.000566538361
0.0005494202664
0.0004694594943
0.0004949139701
0.0005079663064
0.000492437529
0.0005096836962
0.0006279310388
0.0007914357135
0.0008625438379
0.0008549249682
0.00080398667
0.000731956326
0.0006158840052
0.0004633398755
0.0003299539051
0.0002819973069
0.0003420368243
0.0004981746734
0.0007038813938
0.0008591360971
0.0009428335696
0.0009828577311
0.0009949317522
0.0009866610474
0.0009500798537
0.0009128451372
0.0009388362967
0.0009410883239
0.0008963704386
0.0007200450856
0.000213948173
0.001308519195
0.001174907149
0.000900374393
0.0006289210358
0.0004895967408
0.0005739529725
0.0004562585506
0.0003938130443
0.0004004062071
0.0004751886002
0.0006062056687
0.0006890948422
0.0006555365383
0.0005805518064
0.0005581357172
0.0003992541218
0.0003074984667
0.0002857230248
0.0003274917008
0.0004475739596
0.000634520867
0.0008251243622
0.0009368394083
0.0009988836033
0.001024920209
0.00102453838
0.001003932616
0.0009628050891
0.0008826864729
0.0008740542939
0.0008765753933
0.00083547098
0.0006706267357
0.0002064105009
0.001511186361
0.001413264525
0.001238382516
0.0009517996543
0.0006678703162
0.0004974179067
0.0003789291347
0.0003239654976
0.0003104311357
0.0003336560765
0.0004008914931
0.0004571454082
0.0004173280838
0.0003719526741
0.0004725264932
0.0003195173942
0.0002925784424
0.0003668322939
0.000470427576
0.0005924344641
0.0007586049709
0.0009081734448
0.0009984460864
0.001045255491
0.001058789578
0.001044495138
0.001005688236
0.0009395370888
0.0008202447334
0.000762810772
0.0007625828237
0.0007341298928
0.0005824713287
0.0001909182177
0.001702405299
0.001624052799
0.001494171028
0.001280413426
0.000965974142
0.0006454928013
0.0004529407468
0.0003605884258
0.0003094504745
0.0002726301903
0.0002761012291
0.0002898826321
0.0002746530769
0.0002552673385
0.0003042946745
0.0002863226485
0.0003619578297
0.000541850099
0.0006733489297
0.0007476900002
0.0008542829956
0.0009702814212
0.001044029198
0.001079139032
0.001080079413
0.001048146286
0.0009832749263
0.0008795204058
0.0007229058012
0.0006227661425
0.0005964548206
0.0005811641506
0.0004576550681
0.0001733325468
0.001910536168
0.00191349973
0.001830783919
0.001700421561
0.001513241163
0.001246989789
0.0009098624502
0.0006492610235
0.0005204754576
0.0004582792706
0.0003801934134
0.0003025170913
0.0002679447996
0.000246115944
0.0002464393731
0.0002447649307
0.0002782138213
0.0004457546359
0.0006896485017
0.000811169036
0.0008492130035
0.0009104175408
0.001004417007
0.001070168866
0.001096387081
0.001082372463
0.001023725154
0.0009168862643
0.0007548198219
0.0005903323935