/*--------------------------------*- C++ -*----------------------------------*\
  =========                 |
  \\      /  F ield         | OpenFOAM: The Open Source CFD Toolbox
   \\    /   O peration     | Website:  https://openfoam.org
    \\  /    A nd           | Version:  8
     \\/     M anipulation  |
\*---------------------------------------------------------------------------*/
FoamFile
{
    version     2.0;
    format      ascii;
    class       volScalarField;
    location    "1.6";
    object      epsilon;
}
// * * * * * * * * * * * * * * * * * * * * * * * * * * * * * * * * * * * * * //

dimensions      [0 2 -3 0 0 0 0];

internalField   nonuniform List<scalar> 
67193
(
0.4286649585
0.5299736817
0.5870608556
0.5267131033
0.4603520024
0.398103182
0.3451106995
0.3011182185
0.2627975637
0.2280648255
0.1991696762
0.1849393255
0.1901408963
0.2059189498
0.2204253877
0.2278075704
0.2265906633
0.2170328766
0.2001491185
0.1775206147
0.1514228385
0.1250298269
0.1020440417
0.08537793485
0.07606767683
0.07344315713
0.07541057537
0.07854318241
0.0797159071
0.07774965132
0.07283010674
0.06535611902
0.05446890975
0.04324458161
0.641758653
0.7814303469
0.8673193247
0.8262360614
0.705357388
0.5888189026
0.4932442313
0.4181228029
0.3581517968
0.3080011956
0.2679890285
0.2475309398
0.252933473
0.2701361619
0.2824445653
0.2847502043
0.2773922313
0.2616513787
0.2392476548
0.2122745438
0.1829917216
0.1540071323
0.1284794972
0.1095461042
0.0997391342
0.1000319773
0.107274019
0.114028735
0.1140962626
0.1063762421
0.09307963372
0.07682227511
0.05822693185
0.04081043625
0.8178554756
1.003549764
1.129293641
1.11156038
0.9452760219
0.7704517763
0.631710843
0.5240738814
0.4416895952
0.3759942597
0.3249038836
0.2997842473
0.3099811548
0.3315564411
0.3382118766
0.3293733859
0.3121230659
0.2906648146
0.266592559
0.2404074009
0.2123219391
0.1832762254
0.1558237072
0.1341664894
0.124231025
0.1297947749
0.1449064668
0.1559757974
0.1536772471
0.1379058675
0.1138265322
0.08735246086
0.06173016988
0.0381228531
0.9133329534
1.126089749
1.269200767
1.276799602
1.107215687
0.9077534428
0.7334170043
0.5964169025
0.4955482995
0.4177815263
0.3601418294
0.3470981177
0.3790522227
0.4174216582
0.4174574992
0.3881650924
0.350292373
0.3160257996
0.2886623166
0.2656489209
0.2421377795
0.2151765535
0.1861709656
0.1608906137
0.1497528733
0.1595667116
0.1810164846
0.194791524
0.1893512576
0.1658547764
0.1320980235
0.09686782763
0.06685193528
0.0465446412
0.9094656702
1.120024088
1.265652673
1.295022384
1.142913946
0.9496602767
0.7760140329
0.6342718024
0.52044457
0.4359444604
0.3797315799
0.4277145374
0.4889808339
0.5557645843
0.5491942357
0.4911152038
0.4203398305
0.362231535
0.3257820652
0.3051977932
0.2872350073
0.2622445833
0.2298574585
0.1968669693
0.1784556234
0.185126231
0.2065820922
0.2198189938
0.2112905257
0.1828790026
0.1442307084
0.1056923345
0.07646514312
0.06762142452
0.815261176
1.004366441
1.141613052
1.188281616
1.069685423
0.9066354771
0.7568316962
0.6292495138
0.517525115
0.4344843784
0.3921796194
0.5654326734
0.6607944334
0.7476560474
0.72802854
0.63344724
0.5215344129
0.432863805
0.3846551324
0.367412027
0.356197972
0.3324531457
0.2956323258
0.2491504279
0.2139229506
0.2050459741
0.2160512657
0.2237589779
0.2124512588
0.1834109717
0.1471753535
0.1140006478
0.09173072677
0.09435457038
0.667802201
0.8252217903
0.9481344589
1.006218412
0.9352439104
0.8165621274
0.7030592922
0.5978620729
0.4963864077
0.4211018159
0.4034478763
0.5761098122
0.86572284
0.9633584755
0.9165688887
0.7852038706
0.6287082829
0.5128521273
0.4601300459
0.4531751777
0.4517970716
0.4279066305
0.3951883927
0.3252437821
0.2636343206
0.2267041129
0.2153543268
0.2111541507
0.197007955
0.1719533349
0.1469931711
0.1291098671
0.1162825858
0.1243573115
0.525970574
0.6479545612
0.7527468728
0.8172850619
0.7987841519
0.7281692663
0.6481169653
0.5605364587
0.4689288332
0.4025895205
0.419175589
0.7016482961
1.043667511
1.111444743
1.040116899
0.8931458717
0.7087930753
0.5818422795
0.5435194155
0.5598547169
0.5720045423
0.5448371234
0.5954133048
0.4431396081
0.3350991337
0.2612785727
0.2193105277
0.1978373016
0.1804178535
0.1636697198
0.1615269456
0.1694890042
0.1613773163
0.165264843
0.4419120932
0.5333575777
0.6177160135
0.6818414941
0.7049463529
0.6802055559
0.6184560672
0.5331613528
0.4449775495
0.3835954886
0.4329638239
0.7937118562
1.120687387
1.157587961
1.06882718
0.9569463116
0.7446980914
0.6294080116
0.6309181389
0.6833316758
0.7078326938
0.683154362
1.292947535
0.7223543325
0.4478855085
0.3141737039
0.2379930023
0.1978494455
0.1775089748
0.1746932812
0.2136287432
0.2582136059
0.244096634
0.2313094913
0.3999568938
0.4770341551
0.5501430984
0.6150167377
0.6690414169
0.6939905951
0.6337038938
0.5308285177
0.4329235683
0.3662892137
0.4315218125
0.781108007
1.107340813
1.159124044
1.029498368
1.108575999
0.7625927586
0.6624554985
0.7213723045
0.8140334159
0.8377644868
0.9065966078
3.826805235
1.670242841
0.7134211593
0.3952481317
0.2682251476
0.2113001505
0.1915078992
0.2147696718
0.3222918761
0.4085401809
0.3770835352
0.3353411887
0.3660528828
0.4390995292
0.5174407159
0.6002074135
0.6941655074
0.7836530423
0.7157126687
0.5778770746
0.4480238366
0.3571670025
0.4032042714
0.7046437175
1.116782384
1.255822113
0.9935588432
1.09540645
0.7570530007
0.6899327467
0.803837809
0.9663925897
0.9790768806
1.628577363
10.90693472
4.411665109
1.481911798
0.5558656167
0.3026499289
0.228447796
0.2180751089
0.2910731845
0.494833391
0.6145647676
0.5565503428
0.4758576367
0.3371516508
0.4098895723
0.5118258854
0.6392698784
0.7931550061
0.9494737979
0.8762066851
0.6987759267
0.5122906095
0.3733586157
0.3764266017
0.6270727936
1.168200019
1.255964015
0.8977873012
0.7184918797
0.649231202
0.7073709361
0.8736063575
1.230952129
1.186427056
3.096198637
15.32203754
7.551558941
2.542736744
0.7651859829
0.3281378272
0.2415100355
0.2559196524
0.4101054764
0.720276047
0.8584598862
0.7629906453
0.6314711597
0.3195972183
0.4039675723
0.5478016308
0.7478064722
0.9703205413
1.164517481
1.097723173
0.892496884
0.6401551834
0.4375887486
0.3705961145
0.5048560807
0.7973450903
0.7938415387
0.7312656299
0.6853665554
0.693490161
0.737974179
0.8795762117
1.088066776
1.023961231
1.472916777
2.270340105
1.001354267
0.4732502942
0.3231176268
0.3248220644
0.2552498156
0.3081905699
0.5625416134
0.957598007
1.099141746
0.9683305472
0.7707649245
0.3296815678
0.4340581352
0.6399924368
0.9153496457
1.18958595
1.389704832
1.342773696
1.128421484
0.8216393672
0.5552417742
0.4229716907
0.5128394506
0.6806419339
0.7441533173
0.7564554074
0.7387140631
0.7201426427
0.7359071693
0.7996193395
0.8454230894
0.821010993
0.7505985897
0.7988952383
0.4935696934
0.3454721165
0.2989320519
0.8580181719
0.3817171007
0.3704955841
0.6954637311
1.128391426
1.274747674
1.120627652
0.8609551751
0.3999327961
0.4951025773
0.7651630159
1.085596431
1.384718742
1.583074638
1.563835381
1.360313117
1.028092832
0.7029362126
0.5047697117
0.5658525986
0.7350502588
0.8086487994
0.8247202101
0.8061992368
0.7925003827
0.7315824822
0.7074481429
0.6931676194
0.6532972997
0.5654546459
0.4464471849
0.3231348268
0.2813349491
0.523901586
4.208491227
1.408919049
0.498166613
0.7352557319
1.1702389
1.326560693
1.15959563
0.8687635501
0.5195166958
0.5635971673
0.8644999359
1.193406197
1.497250522
1.697105012
1.706443815
1.530108014
1.198478359
0.8342382608
0.5884119728
0.6394131135
0.8084693894
0.8760002251
0.8841096348
0.8551251792
0.8079275802
0.7170591425
0.6185037781
0.5320320743
0.458295828
0.3734140144
0.2830862221
0.2394105218
0.3522145499
1.497858646
8.677003473
2.749507894
0.6548921007
0.6895815993
1.07347264
1.225198945
1.04174063
0.7606146888
0.5982063362
0.586496358
0.8696312745
1.183983701
1.484842337
1.695445082
1.729369152
1.584259546
1.269749598
0.8916152593
0.6339585468
0.7162775213
0.8724301389
0.9222443328
0.9149839359
0.8680424093
0.7881861102
0.6788413947
0.5506560689
0.4407647185
0.3445124726
0.2594936164
0.2132702902
0.2224791499
0.2440422357
0.2722514115
0.8358063131
0.2857710683
0.3317331691
0.5625289842
0.8594624608
0.9640233497
0.7600948542
0.5298484511
0.2908895299
0.4238777372
0.6687040415
0.9738487185
1.280633283
1.514752933
1.559080427
1.405871086
1.050064675
0.6799844058
0.6034827961
0.793743936
0.9103974912
0.9328776238
0.9055300665
0.8411580124
0.7428623919
0.6196835264
0.4890755096
0.3782578947
0.2804005554
0.2110333363
0.2095236271
0.2443251489
0.2597889267
0.2571447591
0.2659949139
0.2401297252
0.2820172408
0.4162815093
0.5745073875
0.5835509167
0.4412145404
0.3369360503
0.2272660104
0.2373006203
0.4280948238
0.6462452878
0.9343400835
1.173283753
1.226109158
1.066786429
0.7655635337
0.5483680968
0.6336262941
0.804336302
0.8917769997
0.8919972399
0.8415864856
0.7634102698
0.6521704846
0.526841028
0.4050089398
0.3016345822
0.2212195265
0.2019146628
0.2460862093
0.2828770843
0.2917158846
0.2782066585
0.2536410468
0.2412165047
0.2683752116
0.3632872087
0.4628620729
0.4659626812
0.4156289004
0.3548127003
0.2639281054
0.2456480824
1.243736842
0.3730529009
0.5648938998
0.8010482185
0.8550568826
0.7347166052
0.5399409733
0.4844027172
0.6140256374
0.7512604478
0.8045382325
0.7772927139
0.7006653162
0.6194234539
0.5110143018
0.3982399685
0.2913258196
0.2144412442
0.1962853065
0.2473715324
0.303433948
0.339350213
0.3452570922
0.320913213
0.2828645894
0.254013625
0.264370632
0.3604483803
0.4806226573
0.5140999224
0.4630724549
0.3834616216
0.3486743901
0.3190818903
0.2608633029
0.2118065676
0.2834151748
0.4679102809
0.5477287217
0.4756238439
0.3867005133
0.4260158563
0.5419441685
0.6466518408
0.6655697791
0.6159015861
0.5058151359
0.453497272
0.3632457039
0.263116931
0.1987316288
0.1912401102
0.24696173
0.3134367017
0.3734028191
0.4119483867
0.4107254065
0.3779036714
0.326474522
0.2751542751
0.2651946607
0.3503869445
0.4802712971
0.5280300074
0.48329715
0.3955821332
0.4907212648
0.4920638535
0.4049221013
0.2920546243
0.2044872737
0.2804561394
0.2990185734
0.2788604905
0.2691160703
0.3389086491
0.4443978366
0.5136930974
0.5054218048
0.4484988679
0.3528327504
0.3032872562
0.2295802016
0.1901500098
0.2292144929
0.2520048197
0.309009398
0.3799133995
0.4456064809
0.4780877782
0.4696323632
0.4303910287
0.3712459264
0.3003594248
0.2662936069
0.3173068619
0.4347025181
0.4932720467
0.4552972962
0.3755452623
0.680846679
0.7497146166
0.6575403322
0.5001867329
0.3487563021
0.2326178605
0.1787577595
0.1594128934
0.1713354488
0.2339357567
0.3336080377
0.3915377886
0.3583509644
0.2802739877
0.2572484801
0.1798549408
0.1689683344
0.2590659246
0.3470108752
0.3229167667
0.3591368131
0.4377353623
0.5017872587
0.5287044091
0.5128757974
0.4668849417
0.4007673536
0.3212338012
0.2657384952
0.2718679234
0.344791347
0.4069445906
0.3779643167
0.3157902263
0.8574033115
0.9990882377
0.9228141795
0.7331395523
0.5263145837
0.3555928397
0.2361538259
0.1624348684
0.1302703115
0.1501794477
0.2302292686
0.2844231757
0.243322027
0.124698319
0.09500458732
0.1263790468
0.2415779019
0.4138939935
0.5153082301
0.4044087785
0.3920961331
0.4700462511
0.5352388785
0.557730531
0.5334818856
0.4782565508
0.4036144779
0.3204256146
0.2588242192
0.2287791553
0.252694603
0.3049892219
0.2821270399
0.2431263235
0.8848273581
1.045386866
1.240017706
1.15139751
0.9397775427
0.6860323555
0.4713669477
0.3168910635
0.2194311042
0.1667640384
0.1355902262
0.1484921348
0.1640454731
0.1149843373
0.08368877776
0.07740479274
0.1455914677
0.3418499621
0.5863316374
0.7220694561
0.5073664479
0.4099198996
0.4720072147
0.5412348079
0.5605297808
0.5248682798
0.4564184009
0.3731990515
0.2992835106
0.256726031
0.2118861329
0.2317230069
0.2804501828
0.2533273425
0.2410106848
1.100677592
1.34547505
1.497319716
1.325610629
1.076368561
0.7958691696
0.5493833799
0.3765616097
0.2664951045
0.2089706828
0.1786754511
0.1519510392
0.1227158481
0.09633976039
0.08707444105
0.084257466
0.1371228169
0.3696793826
0.6696792766
0.8368730998
0.575029719
0.4132413489
0.4459117318
0.5224476913
0.5403993699
0.4887439447
0.4059898144
0.3322045362
0.2983816002
0.3566431866
0.31557295
0.4865346623
0.5973782254
0.454390622
0.371433728
1.489008877
1.831472485
1.453537096
1.201706329
0.9772773772
0.7431379438
0.5371988759
0.3872745277
0.2833506693
0.2158659591
0.1725188696
0.1418974389
0.1184702109
0.1007395249
0.09870751321
0.102800284
0.1152731572
0.2739686997
0.544769247
0.6976501903
0.4782556939
0.3944834149
0.4256575207
0.5229914753
0.535231026
0.4639356575
0.385579069
0.3577559441
0.4824882232
0.8370104005
0.8906352033
1.57619448
1.775149501
1.203250156
0.8161041169
1.245085118
1.373037123
1.262836406
1.144654635
0.9805845871
0.7764871885
0.5739807131
0.4211976928
0.3128664602
0.2395664813
0.1907293013
0.1575359753
0.1343701521
0.1179336828
0.1091094321
0.103107912
0.1139046604
0.1717646619
0.2664585506
0.3278518438
0.3399472811
0.4127233875
0.5011866039
0.5973400019
0.632835466
0.5396562496
0.4718593315
0.6177130177
1.174733772
2.000354515
2.460323608
4.095658662
4.282524718
3.067883156
2.032521617
1.240247047
1.209995775
1.136098436
0.9869112625
0.79139684
0.5958117266
0.4442908834
0.3373392909
0.2641596526
0.214916572
0.1809164609
0.156184654
0.1372572036
0.1389737747
0.1231299548
0.1405482342
0.1870596829
0.2401610975
0.310488423
0.4249800051
0.5668797448
0.7094417939
0.8278872042
0.84112301
0.7058723024
0.7203338324
1.334334463
2.592194486
3.920448285
5.368341343
8.049145223
8.331715283
6.325881124
4.424605891
0.945107656
0.9394863026
0.8865597517
0.793659493
0.6743988383
0.5397166042
0.4235223994
0.3354106752
0.2742097438
0.2342140335
0.2059118641
0.1818490377
1.098353177
0.9248073414
1.200392332
2.596990907
4.890642847
7.064507257
9.954475883
13.75685956
14.89939443
11.41096138
8.07722737
0.7260305187
0.7358759288
0.6575169055
0.536016846
0.4221457469
0.3392331653
0.3741922439
0.5049204947
0.6045511807
0.5955827102
0.5483501599
0.4813121336
0.4196605431
0.3652988776
0.316724464
0.2760485859
0.2502436028
0.2495749155
0.2723154277
0.3050466418
0.3320389028
0.3437017591
0.3366963031
0.3123141198
0.2752923804
0.2324027403
0.1906495004
0.1556122225
0.1304823458
0.1158136062
0.1101614429
0.1111012392
0.1154809017
0.1194533503
0.1197936231
0.1153088625
0.1060576053
0.09218156096
0.07242872968
0.0530755621
0.4444261393
0.5469867558
0.6097760282
0.6038984374
0.5426908446
0.4647218276
0.402962878
0.3534702513
0.3124470889
0.2782362446
0.2549999555
0.2507440714
0.2624995877
0.2794826424
0.2905349119
0.2915587877
0.2822279657
0.2636411586
0.2378716419
0.2078660788
0.177123003
0.1491931233
0.1270405663
0.1124537566
0.1061362481
0.1074449887
0.1131196916
0.1178402028
0.1174225556
0.1109445758
0.09958045872
0.08489312803
0.06718378132
0.05856181131
0.5305569975
0.6434589029
0.7087438071
0.6982981148
0.6214646012
0.5211708463
0.4452660994
0.3880429817
0.344667936
0.3102352158
0.2869470224
0.2826835945
0.2920666446
0.3050657882
0.309311684
0.3034132346
0.290061498
0.2714603767
0.2489069876
0.2234245419
0.1963410517
0.1697903054
0.14676086
0.1306274704
0.1249093278
0.130343908
0.1412360978
0.1484701967
0.1457752093
0.1324440971
0.1118972733
0.08924239857
0.06693273437
0.05029718966
0.5492517641
0.6638208103
0.734205113
0.7328528936
0.6585107082
0.5500234608
0.4594999436
0.3939784505
0.3499954814
0.3191617029
0.3032352591
0.3113329901
0.3237067842
0.3367846597
0.3344408324
0.3185359768
0.2968627081
0.2747292263
0.2537200662
0.232934374
0.2108358189
0.1872527707
0.1645813583
0.147683271
0.1432825251
0.1531664076
0.1687186152
0.17766973
0.1723305337
0.1519294947
0.1218038363
0.09126581112
0.0652112214
0.05235335067
0.523700711
0.6290439579
0.7029689737
0.7119409721
0.6505473128
0.5486278007
0.4584976839
0.3926898518
0.3472398545
0.32192654
0.325335769
0.3649802793
0.3804663046
0.3946807102
0.3858872986
0.3574050098
0.3231471685
0.293245016
0.2707174473
0.2527244262
0.2342098283
0.2121770577
0.1883567402
0.1684576134
0.1621268346
0.1723121373
0.1887509345
0.1973610486
0.1895887677
0.1644425988
0.1285119616
0.09426022548
0.07054647531
0.07560708733
0.4665353194
0.5540618549
0.6239520004
0.6422526464
0.5993255138
0.5165077118
0.4391479649
0.380957367
0.340308755
0.3238993278
0.3586279354
0.4264201714
0.4632552874
0.4754251171
0.4588722022
0.4161646361
0.367873531
0.3291163202
0.3041806862
0.2880698179
0.2718412029
0.2495005822
0.2229980511
0.196086564
0.1815978633
0.1846801126
0.1960815728
0.2012993633
0.1910983625
0.1646727168
0.129778527
0.09951593967
0.08341361523
0.108227982
0.4006490312
0.4658080727
0.5258615475
0.5500044858
0.5260599035
0.4689817823
0.4114407191
0.3655520309
0.3332018125
0.326169241
0.3685314723
0.478865796
0.5364640741
0.5601387028
0.5370713606
0.4822206753
0.4200743956
0.3758469842
0.3517596838
0.3392760528
0.3255773082
0.3020969029
0.2756757239
0.2353819279
0.2050330366
0.1928505559
0.1926569352
0.1912087789
0.1787583516
0.1549846496
0.1287528814
0.1100257721
0.1023431967
0.1434105019
0.3415452189
0.3877011433
0.4357771505
0.4626970132
0.4567174977
0.4263468722
0.3885411971
0.3535778444
0.3285909054
0.3305162983
0.3913702079
0.5055658974
0.5947882275
0.6185140012
0.5912242213
0.537205416
0.4684441224
0.4246613792
0.4074540682
0.4028219291
0.3949935502
0.3771405679
0.3742727666
0.3003897819
0.2385275152
0.2038947828
0.1871027235
0.1767525207
0.1631218008
0.146373284
0.1358788514
0.1332580936
0.1309197348
0.1828056004
0.297035175
0.3316834207
0.370638726
0.4004926405
0.4120966428
0.405246421
0.381560709
0.3510246416
0.3281282754
0.3337427654
0.4084924039
0.5314158185
0.6207983087
0.6417705166
0.6185662633
0.5891952847
0.5123065679
0.4709219898
0.4657616608
0.4744408554
0.4828976029
0.5239818881
0.6469424785
0.4591919898
0.2950468567
0.2245498617
0.188887419
0.1696107625
0.156740413
0.1518196857
0.1638643785
0.1792951881
0.1770147431
0.2355853056
0.2694434387
0.2997584523
0.3362107538
0.3727787272
0.4026622723
0.4144609221
0.3977221978
0.3624715635
0.3327534852
0.3325617878
0.4071837796
0.5313154232
0.6275002215
0.6493790653
0.6508100716
0.6905776782
0.5708121358
0.5162331813
0.5238841221
0.5574177421
0.6122170574
0.9862491689
1.934034546
1.031006821
0.4297531397
0.2598997622
0.2006997986
0.1741984971
0.1651349387
0.1789385001
0.2205336554
0.2547940376
0.2493458839
0.3161119246
0.2566678047
0.287178596
0.3288991367
0.3787636942
0.4296476648
0.4564104351
0.442272652
0.3933844627
0.346081067
0.3292098785
0.3906883608
0.5217418962
0.6352475507
0.6768650872
0.6985359397
0.6996900782
0.6420156642
0.5582483623
0.5850781839
0.7078139297
0.8824917544
2.271737693
8.046665923
3.116268649
0.7599816086
0.3287884489
0.2201524127
0.1866277971
0.1866345948
0.2298880941
0.3063823538
0.3607039064
0.3526505685
0.439074879
0.2567420903
0.2887357148
0.3417933254
0.4125996888
0.4898656148
0.5304131887
0.5197931183
0.4514906385
0.3754722862
0.3331777522
0.3736102653
0.5129417259
0.6225894837
0.6463038661
0.6346652322
0.6221052781
0.5563051443
0.5623612818
0.6895422057
0.8072440518
1.165670744
3.616670739
8.582207988
4.567647943
1.105929382
0.3938763941
0.2470456295
0.2044030505
0.2194743007
0.3022091917
0.4171904382
0.4968851594
0.4853049283
0.607302223
0.2688446223
0.3022893177
0.3690678712
0.4679840486
0.5769039628
0.6307754936
0.6293667435
0.5434623159
0.4282793701
0.3560382996
0.3646735202
0.4555183783
0.5787709813
0.59102276
0.54409606
0.5269478573
0.5350696302
0.5593709691
0.6307334166
0.8383736404
0.9111218248
2.170397177
2.900610015
1.188029222
0.4050091706
0.2821476991
0.3576246582
0.2529330505
0.2663362567
0.3843638032
0.5354193675
0.6316098699
0.6291612411
0.7926506264
0.2942097577
0.3235577666
0.4039531654
0.536170197
0.6758497216
0.7402079053
0.7547409807
0.6638550214
0.5070579972
0.4040098757
0.3817716406
0.4237195836
0.4816517937
0.4999777514
0.49822915
0.5026185379
0.5159043173
0.5334845606
0.5591720876
0.5763326124
0.5652243376
0.651358748
0.6111659203
0.3617000058
0.2850215024
0.4399841777
1.275499659
0.5590670632
0.3523008176
0.4594120211
0.6209468051
0.7247069148
0.7329648267
0.9288655108
0.3319086266
0.3469744211
0.4362756913
0.600051
0.7595084053
0.8305392173
0.8633848572
0.7849617333
0.6073320472
0.4694967439
0.4246962852
0.4427883817
0.4735380493
0.492346047
0.4990979529
0.505543015
0.5110535065
0.5082491228
0.5021625692
0.4878400884
0.4547136128
0.3955919444
0.3285706468
0.2639406462
0.3219553627
1.82390482
4.374749642
3.289874344
0.5918532309
0.5223729181
0.6500632588
0.7478505236
0.7549684184
0.9420057295
0.3682269775
0.363469953
0.4522973666
0.631886491
0.795935394
0.8759342978
0.9234727571
0.8670399653
0.6938872741
0.5302376464
0.4739966162
0.4801133828
0.4995639188
0.5106717217
0.5112236222
0.5055040299
0.5012374062
0.4710571889
0.4413204866
0.4079752941
0.3614054337
0.2979888329
0.2439674558
0.2285598373
0.5094433551
4.212151529
5.790496012
4.648579922
1.277440078
0.5811831885
0.6212777484
0.6962056884
0.6849006493
0.8138458313
0.3796671554
0.3628674331
0.4438857634
0.6028724475
0.7659295688
0.8631898238
0.9206818375
0.8826838835
0.7260137826
0.5589996134
0.5041662191
0.5097112359
0.5229136375
0.5261831252
0.5175149857
0.4970477542
0.4656725557
0.4229578528
0.3743271815
0.3273435845
0.2733020268
0.2213628674
0.2002105344
0.2054870499
0.2332046579
0.4932400755
1.792807593
0.5778301512
0.3684335861
0.4285733625
0.5281570624
0.5838067309
0.554295716
0.6218635483
0.3020102233
0.3120074329
0.4955433432
0.5195690349
0.6633044027
0.7835535417
0.8533177537
0.8263259949
0.6803048442
0.5325783721
0.4956363483
0.5166929639
0.5307715217
0.5275583291
0.5086769104
0.4758899539
0.4300745103
0.3712550243
0.3117049231
0.2607134991
0.2122393814
0.1845855378
0.1939629583
0.2093960468
0.2157246995
0.2276352369
0.2830438932
0.2403070367
0.2668927904
0.3452389124
0.4264603439
0.4634822311
0.4368180602
0.4959740726
0.2403094245
0.3313864014
1.83274255
0.5322758674
0.5078778262
0.6222914063
0.699785132
0.6720992413
0.5437402874
0.45782704
0.4686437962
0.5071767098
0.5210678092
0.5085714591
0.4765027062
0.4317546335
0.3750083136
0.3089710623
0.2496562349
0.2034447582
0.1723636421
0.1784782809
0.2058652385
0.2194092915
0.2216844048
0.2188267789
0.2205279032
0.2197562199
0.2448885478
0.2973719512
0.356066783
0.3881594915
0.3887595347
0.4966224307
0.2918417106
1.286954239
13.25188817
1.670885555
0.4257549261
0.4107762891
0.4686697809
0.4570106999
0.4033521112
0.38918655
0.4314931938
0.481208449
0.488998603
0.4617233359
0.4135230912
0.3590732199
0.2975378199
0.2344349685
0.187347276
0.1569990919
0.1621674148
0.1985489816
0.2251369113
0.2358529883
0.2369218687
0.2302727438
0.2228715202
0.2205994546
0.2374108218
0.2761111385
0.3250063381
0.3630647983
0.3849105513
0.5199213807
0.2746758737
0.3232176633
0.9796439232
0.2528185039
0.2092807876
0.2731545485
0.3154890851
0.3128538953
0.3019733325
0.3279207039
0.3816608568
0.4336107798
0.4290843995
0.3840394076
0.3257180002
0.2702769983
0.2200219165
0.1724181168
0.1447885883
0.1504968415
0.1891864983
0.2261705304
0.2486257788
0.259062947
0.2578105518
0.2477186711
0.2343773783
0.2268356598
0.2367517157
0.2679695249
0.3124313604
0.3523408084
0.3800990675
0.5166413104
0.3284896366
0.305195162
0.2979980901
0.2078440741
0.1742740392
0.193820561
0.2023029164
0.2047594841
0.2172923452
0.2612699959
0.3209610678
0.3635241016
0.3431505712
0.2826151724
0.2471961942
0.1964549642
0.1592933904
0.1446247411
0.1635554382
0.189006947
0.225059618
0.255483662
0.2760052081
0.2832617145
0.2791105759
0.2654967053
0.2468973816
0.2313766048
0.2326797359
0.2556774824
0.2940674272
0.3317311571
0.3547588593
0.4648530962
0.4047778269
0.3845857528
0.3422712057
0.2827978729
0.2236773558
0.1803442143
0.1461344544
0.1348724388
0.1469983978
0.1867641769
0.2471108917
0.2848820646
0.251082084
0.1934972248
0.1750933131
0.1432760701
0.1358081107
0.1902930091
0.2343212658
0.2400602481
0.2607848132
0.2858617391
0.3013294945
0.3047476606
0.2972956346
0.2796994282
0.2553127238
0.2312728888
0.2218775605
0.2332583707
0.2621121433
0.2932213797
0.3050698884
0.3681822841
0.4820454128
0.4573957203
0.4191964402
0.3574284821
0.2893249563
0.2262621099
0.1713293376
0.1357689058
0.1196893183
0.1301152077
0.1742424558
0.1953814178
0.1635491504
0.1050665124
0.101895651
0.1069328907
0.1703693743
0.2878103519
0.3388809353
0.300107913
0.2950345843
0.3116685678
0.3221060989
0.3218222748
0.3105693496
0.2879143042
0.2570496531
0.2251514416
0.2065073705
0.2030615229
0.2211620772
0.2458441379
0.2441255046
0.2745802397
0.5672181654
0.580567843
0.5339182816
0.4829073331
0.4152003815
0.3340626246
0.2658289067
0.2108636678
0.1737164001
0.1531829631
0.1341096562
0.1283433641
0.1252481806
0.09988538151
0.08054513766
0.07541004757
0.1100829744
0.2225810438
0.3962948921
0.4587328777
0.364090221
0.3242008859
0.3315617444
0.3384441527
0.3349251013
0.3188574983
0.2898467161
0.2528021661
0.2184060844
0.1949556136
0.1783257446
0.1886561163
0.2099476513
0.2053950127
0.2425387555
0.6813575938
0.7187117719
0.6117826388
0.5364099349
0.4520384771
0.3637987059
0.2886980915
0.2356531047
0.1979635592
0.1775721522
0.1649997607
0.1458990504
0.1183137642
0.09513864705
0.0895825696
0.08911434754
0.1129575195
0.2327269438
0.4376427253
0.5119117762
0.395154157
0.3385738802
0.3461486586
0.3574515646
0.3473600424
0.3247050338
0.2881060872
0.2511319125
0.2257438333
0.208275645
0.1924291007
0.226569727
0.2509003412
0.2454128301
0.2777803652
0.7168584976
0.7151789361
0.690827554
0.5660010612
0.4615596188
0.3705657751
0.297988632
0.2448141997
0.2039486171
0.1742091215
0.1523048828
0.1330139209
0.1146032049
0.1017830357
0.1131704626
0.1013017169
0.1137776658
0.1921276269
0.3665718596
0.4384328015
0.3557849803
0.3349798299
0.3628308825
0.4155998879
0.3663336913
0.3313565167
0.2930168929
0.2725755102
0.2987107635
0.3086532296
0.3536828092
0.4729656015
0.4547319378
0.4083907551
0.3863415623
0.5774650095
0.598134428
0.5558956951
0.5003481563
0.4362071416
0.3655088759
0.300370096
0.2516820757
0.212483443
0.1815266724
0.1574815791
0.1384311226
0.1231725961
0.1126391501
0.1097318056
0.1091352009
0.1095217713
0.1504079138
0.2456404254
0.2902799714
0.2991422354
0.3435437353
0.3954229496
0.4261854998
0.4060907152
0.3622153365
0.333966907
0.3929534026
0.6056862232
0.6454533874
0.98794793
1.247532352
0.970185604
0.7629040347
0.6946021454
0.5033810964
0.491517821
0.4620746177
0.4171003814
0.3606913642
0.3036331431
0.2583133295
0.2221220126
0.1933623724
0.1709515964
0.1531357095
0.1387759139
0.1327996358
0.1521090368
0.1230749216
0.1311097699
0.162723234
0.2084246578
0.2565020308
0.329003088
0.4182400371
0.4919774185
0.5241344429
0.5057127623
0.4565060534
0.472090095
0.842857493
1.529360549
1.947024061
2.95424668
3.663097806
3.046414044
1.701276958
1.492260894
0.443480678
0.4469866013
0.4290170955
0.3935686923
0.3475354374
0.2991902642
0.258804844
0.2265466624
0.2017916276
0.1836923302
0.1695621148
0.1587172925
0.6709535083
0.6456799627
0.7988201275
1.912089418
3.213222368
4.384269327
6.071728461
7.423817012
7.683544838
5.521869855
3.805421921
0.388847956
0.3662215865
0.3333001508
0.2951069305
0.2606495745
0.23273306
0.3292945321
0.4451357014
0.5550298088
0.5914793429
0.5706032647
0.512270827
0.4528816069
0.3996191709
0.3536036638
0.3197578781
0.3067820254
0.3218989907
0.3564111984
0.3940954616
0.4194205579
0.423823845
0.4054478363
0.3676350184
0.3176342676
0.2647322107
0.2175934411
0.1818761825
0.1594188461
0.1489894736
0.1477316006
0.1521911215
0.1584410623
0.1623404395
0.1607961686
0.1527499785
0.138197376
0.1171950976
0.08882695549
0.06250889711
0.358625135
0.4563926791
0.5373907522
0.5565539548
0.5091501463
0.4378273923
0.3789801123
0.3343932127
0.3002189475
0.2759838111
0.2662773359
0.2744888894
0.2916812727
0.3079267262
0.3156508856
0.3121961904
0.2977875198
0.2741077933
0.2439645366
0.2110960458
0.179627824
0.1531992575
0.1341388523
0.1231775492
0.1198397529
0.1224220054
0.1274751379
0.130663039
0.1289156457
0.1216510793
0.1096361702
0.09384336099
0.07507609122
0.07439878479
0.4413660288
0.5594661078
0.645752316
0.6529942184
0.5880748076
0.4919137261
0.4128740131
0.3585266327
0.3218367529
0.2985713217
0.2914236875
0.3017040115
0.3145777037
0.3238842817
0.3241504206
0.3151459709
0.2990483875
0.2777171799
0.2524465649
0.2246688341
0.1965193237
0.1708794976
0.1508168171
0.1389571969
0.13691846
0.1432508657
0.1521243436
0.1563229492
0.1513602483
0.1372649711
0.1170877022
0.09480147587
0.07280998576
0.06389016297
0.4709046947
0.5958363581
0.6822839237
0.6855775666
0.6207085418
0.5156233876
0.4240729514
0.3626739407
0.3250320089
0.3058587236
0.3091537989
0.33519994
0.3443239917
0.3472669616
0.3391689565
0.3214954246
0.2997861695
0.2777236892
0.2558226434
0.2330743362
0.2090841374
0.1854213273
0.1655724921
0.1541440181
0.1549310756
0.1661345577
0.1789836921
0.1836303612
0.1744848939
0.1521449183
0.1221777426
0.09234335525
0.06760586665
0.05754786975
0.4552830968
0.5647754086
0.6451365757
0.653478685
0.6012622818
0.5063969783
0.4178997239
0.3571361367
0.322787971
0.312722644
0.3407619825
0.4030018718
0.4014744453
0.3954317348
0.3774440366
0.3479134051
0.3161519176
0.2895069662
0.2685410685
0.2493485953
0.2281878828
0.2049532412
0.1835310138
0.1705063347
0.1716811981
0.1849234092
0.1993011642
0.2032731889
0.1905039075
0.1619164618
0.1251102346
0.09097772116
0.07101957027
0.07902875398
0.4105442981
0.4927226468
0.5636596505
0.5790118997
0.5433325558
0.46950331
0.3967428768
0.3462679555
0.3202888228
0.3251723227
0.3902092411
0.4615803286
0.4733170898
0.4621213485
0.4354545597
0.3944522428
0.3513293288
0.318479401
0.2973632572
0.2807959671
0.2609511368
0.2359298198
0.2095447561
0.189743266
0.1852415592
0.1947061298
0.2065255135
0.2082977626
0.1932070638
0.1626206112
0.1256191992
0.09537189045
0.08329743553
0.1143121496
0.3548918478
0.410760569
0.468975097
0.4892921422
0.469582718
0.4212423566
0.3709790246
0.3355317214
0.3209763873
0.3405813906
0.4181132045
0.4943829728
0.5209044541
0.5196382959
0.4930185726
0.4474348627
0.3970449272
0.3609771853
0.3421313577
0.3296455697
0.3117168796
0.2865074474
0.2541055233
0.2176026226
0.1977337715
0.1961170783
0.2007164486
0.1986125602
0.1827322737
0.1552177334
0.1260102815
0.106436268
0.1016638338
0.1535436271
0.3036647206
0.3398638275
0.3845820841
0.4075868737
0.4028623454