/*--------------------------------*- C++ -*----------------------------------*\
  =========                 |
  \\      /  F ield         | OpenFOAM: The Open Source CFD Toolbox
   \\    /   O peration     | Website:  https://openfoam.org
    \\  /    A nd           | Version:  8
     \\/     M anipulation  |
\*---------------------------------------------------------------------------*/
FoamFile
{
    version     2.0;
    format      ascii;
    class       volScalarField;
    location    "1.6";
    object      N2;
}
// * * * * * * * * * * * * * * * * * * * * * * * * * * * * * * * * * * * * * //

dimensions      [0 0 0 0 0 0 0];

internalField   nonuniform List<scalar> 
67193
(
0.790001224
0.7900011668
0.7900010979
0.7900009381
0.7900008399
0.7900008306
0.7900008738
0.7900009397
0.7900010174
0.7900011064
0.7900012041
0.7900012804
0.7900013174
0.7900013243
0.7900013325
0.7900013511
0.7900013754
0.7900013984
0.7900014144
0.7900014185
0.7900014059
0.7900013743
0.7900013273
0.7900012763
0.7900012326
0.7900011981
0.7900011684
0.7900011432
0.7900011268
0.7900011229
0.7900011315
0.7900011426
0.79000112
0.7900009942
0.7900010838
0.7900010175
0.7900009101
0.7900007067
0.7900005673
0.7900005178
0.7900005325
0.7900005908
0.7900006757
0.7900007808
0.7900009029
0.7900009929
0.7900010405
0.790001029
0.7900010144
0.7900010207
0.7900010476
0.7900010863
0.7900011278
0.7900011645
0.7900011891
0.7900011929
0.7900011686
0.7900011177
0.7900010505
0.79000098
0.7900009159
0.7900008639
0.7900008251
0.7900008015
0.790000796
0.7900007991
0.790000761
0.7900006803
0.790001015
0.7900009269
0.7900007922
0.7900005984
0.7900004542
0.7900003794
0.790000361
0.7900003937
0.7900004638
0.7900005592
0.7900006807
0.7900007394
0.7900008305
0.7900008103
0.7900007694
0.7900007459
0.7900007507
0.7900007791
0.7900008213
0.7900008682
0.7900009137
0.7900009516
0.790000969
0.7900009548
0.7900009018
0.790000823
0.7900007442
0.7900006783
0.7900006221
0.7900005709
0.7900005254
0.7900004742
0.7900003493
0.7900001214
0.7900009491
0.7900008266
0.790000672
0.7900004961
0.790000365
0.7900002931
0.7900002642
0.7900002807
0.790000335
0.7900004076
0.790000519
0.7900004511
0.7900006603
0.7900006431
0.7900005874
0.7900005308
0.7900004994
0.7900004991
0.7900005256
0.7900005686
0.79000062
0.7900006771
0.790000726
0.7900007581
0.79000074
0.7900006716
0.7900005906
0.79000052
0.7900004549
0.7900003829
0.790000295
0.790000168
0.7899999086
0.7899994949
0.7900008553
0.7900007075
0.7900005447
0.7900003855
0.7900002654
0.7900002098
0.790000188
0.7900002051
0.7900002571
0.7900003117
0.7900004263
0.7900002495
0.7900005186
0.7900005014
0.7900004391
0.7900003566
0.790000292
0.7900002569
0.7900002593
0.7900002917
0.790000339
0.7900004019
0.7900004507
0.7900005185
0.7900005387
0.7900004897
0.7900004115
0.7900003379
0.7900002651
0.7900001754
0.7900000513
0.7899998542
0.7899994764
0.7899989311
0.7900007368
0.7900005776
0.7900004208
0.790000276
0.7900001587
0.7900001235
0.7900001173
0.7900001468
0.7900002128
0.7900002875
0.7900004099
0.7900006007
0.7900004431
0.7900003802
0.7900002945
0.790000187
0.7900001126
0.7900000552
0.790000037
0.7900000605
0.7900000978
0.7900001667
0.790000155
0.7900002467
0.7900002979
0.790000272
0.7900001984
0.7900001183
0.7900000305
0.7899999152
0.7899997524
0.789999502
0.7899990897
0.7899985808
0.7900006215
0.7900004665
0.7900003226
0.7900001844
0.790000062
0.7900000435
0.7900000524
0.7900000966
0.7900001767
0.7900002702
0.7900003839
0.7900004217
0.7900003196
0.7900001984
0.7900001182
0.7899999738
0.7899999387
0.7899998891
0.7899998657
0.7899998884
0.7899999021
0.790000013
0.7899997997
0.7899999488
0.7900000304
0.7900000305
0.7899999631
0.7899998725
0.7899997621
0.7899996125
0.7899994088
0.7899991298
0.7899987674
0.7899983981
0.790000545
0.7900003997
0.7900002615
0.790000121
0.7899999931
0.789999985
0.7900000025
0.790000057
0.7900001493
0.7900002602
0.7900003752
0.7900002859
0.7900001254
0.7899999582
0.7899999221
0.7899996294
0.7899997445
0.7899997431
0.7899997347
0.7899997712
0.789999723
0.7899999603
0.7899991753
0.7899995309
0.7899997236
0.7899997769
0.7899997209
0.78999962
0.7899994893
0.7899993138
0.7899990916
0.789998824
0.7899985433
0.7899982898
0.7900004907
0.7900003487
0.7900002126
0.7900000761
0.7899999502
0.7899999573
0.7899999753
0.7900000311
0.790000128
0.7900002557
0.7900003585
0.7900001494
0.7899999334
0.789999674
0.789999732
0.7899989754
0.7899994986
0.7899996012
0.7899996189
0.7899996724
0.7899995359
0.7899999328
0.7899980124
0.7899985493
0.7899992247
0.7899994882
0.789999475
0.7899993723
0.7899992378
0.7899990687
0.7899988813
0.7899986676
0.7899984516
0.7899982377
0.7900004299
0.7900002887
0.7900001566
0.7900000333
0.7899999235
0.7899999609
0.7899999756
0.7900000249
0.7900001132
0.7900002413
0.7900003041
0.7900000156
0.7899997835
0.7899994833
0.7899996133
0.7899984823
0.7899992922
0.7899995027
0.7899995217
0.7899994591
0.7899993658
0.7899996089
0.7899984479
0.7899971026
0.7899982982
0.7899991035
0.7899992145
0.7899991263
0.7899990127
0.7899988965
0.7899988045
0.7899986697
0.7899984952
0.7899982641
0.7900003749
0.7900002394
0.7900001129
0.7900000049
0.7899999207
0.7899999861
0.7900000028
0.7900000499
0.7900001205
0.7900002184
0.7900002195
0.7899999348
0.7899997628
0.789999742
0.7899995885
0.7900000188
0.789999567
0.7899995549
0.7899995232
0.789998952
0.7899992852
0.789998851
0.7900050334
0.789998565
0.7899975567
0.7899986914
0.7899989379
0.7899988596
0.789998798
0.7899987896
0.7899988291
0.7899987807
0.7899986478
0.7899983975
0.7900003051
0.7900001882
0.7900000806
0.7899999999
0.7899999388
0.7899999952
0.7900000269
0.7900000936
0.7900001652
0.7900002128
0.7900001434
0.7899999156
0.7900000039
0.7899999383
0.7899996467
0.7899996498
0.7899995525
0.7899995474
0.7899997355
0.789998455
0.789999372
0.7899991744
0.7900077586
0.7900016281
0.7899986813
0.7899988082
0.7899986976
0.7899985021
0.7899985421
0.7899987153
0.7899988926
0.7899989396
0.7899988624
0.7899986379
0.7900002232
0.7900001461
0.7900000727
0.7900000142
0.7899999573
0.7899999629
0.7900000141
0.7900001122
0.7900002231
0.7900002352
0.7900000776
0.7899998502
0.7899997717
0.7899996807
0.7899996795
0.7899996928
0.7899997225
0.789999732
0.7899997885
0.7899999373
0.7899998295
0.789999914
0.7899997596
0.7899996262
0.7899996382
0.7899994351
0.7899983606
0.789997703
0.7899980748
0.7899985825
0.7899989267
0.7899990965
0.789999088
0.7899989449
0.7900001354
0.7900001101
0.7900000709
0.7900000103
0.7899999435
0.7899999018
0.789999966
0.790000079
0.7900002397
0.7900002604
0.7900000288
0.7899997796
0.7899996932
0.7899996383
0.7899996226
0.7899996425
0.7899996633
0.7899997264
0.7899997164
0.7899996343
0.7899997134
0.7899999092
0.7900000084
0.7899997565
0.7899992725
0.7899991192
0.7899977049
0.7899943685
0.7899967565
0.7899982099
0.7899988699
0.7899992136
0.7899992909
0.7899992602
0.7900000523
0.790000058
0.7900000158
0.7899999483
0.7899998851
0.7899998278
0.7899999019
0.7900000111
0.7900001879
0.7900002647
0.7900000339
0.7899997439
0.7899996254
0.7899995806
0.7899995629
0.7899995685
0.7899994932
0.7899996725
0.7899997588
0.7899998199
0.7899998849
0.7899999466
0.7899997508
0.7899996601
0.78999914
0.7899986662
0.7900003681
0.7899886545
0.7899938289
0.7899975762
0.7899987761
0.789999297
0.7899994451
0.7899995191
0.7899999462
0.7899999453
0.7899998395
0.7899998138
0.7899997762
0.7899997311
0.7899998244
0.7899999332
0.7900001032
0.7900002339
0.7900000412
0.7899997139
0.7899995643
0.7899995197
0.7899995116
0.7899995303
0.7899995776
0.7899996566
0.7899997713
0.7899998925
0.7899999794
0.7899999561
0.7899995922
0.7899993336
0.7899992746
0.7899992295
0.7900040741
0.7899996463
0.7899988765
0.7899989435
0.7899992023
0.7899994441
0.7899995217
0.7899996326
0.7899997749
0.7899997431
0.7899994451
0.7899995986
0.7899995812
0.7899995838
0.7899997135
0.7899998395
0.7900000104
0.7900001739
0.7900000057
0.7899996631
0.7899995098
0.7899994659
0.7899994586
0.7899994771
0.7899995206
0.7899996033
0.7899997357
0.7899998817
0.7899999572
0.7899998064
0.7899994308
0.7899993214
0.7899992946
0.7899994389
0.789999288
0.7899988344
0.7899989535
0.7899992394
0.7899993586
0.7899994303
0.7899994176
0.7899994594
0.7899991918
0.7899992545
0.7899985599
0.7899993238
0.7899992408
0.7899993804
0.7899995838
0.7899997701
0.7899999909
0.7900000143
0.7899997535
0.7899995671
0.7899994434
0.7899994047
0.7899993981
0.7899994164
0.7899994575
0.7899995269
0.7899996326
0.7899997472
0.7899997332
0.7899994743
0.7899992181
0.7899992989
0.7899992808
0.7899994304
0.7899992915
0.7899992356
0.7899991875
0.7899993132
0.7899993657
0.7899993493
0.7899992229
0.7899991428
0.7899984843
0.7899986989
0.789997469
0.7899992316
0.7899992977
0.7899994147
0.7899996233
0.7899998492
0.7900000163
0.7899998809
0.7899996523
0.7899995051
0.7899993791
0.7899993392
0.789999331
0.7899993509
0.7899993907
0.7899994319
0.7899994086
0.7899995329
0.7899994356
0.7899992517
0.7899992774
0.7899994227
0.7899994667
0.7899995394
0.7899994526
0.7899994468
0.7899993901
0.7899994375
0.7899994363
0.7899994286
0.7899993427
0.7899993408
0.7899973026
0.7899967142
0.7899913731
0.7899973464
0.7899985239
0.789999234
0.7899996319
0.7899998716
0.7899999335
0.7899997842
0.7899996307
0.7899994855
0.7899993377
0.7899992896
0.7899992754
0.789999307
0.7899993677
0.7899994251
0.7899993922
0.7899992972
0.7899992152
0.7899992811
0.7899994074
0.7899995259
0.7899995678
0.7899996044
0.7899995078
0.7899994862
0.7899994358
0.7899994883
0.7899994694
0.7899994442
0.7899994062
0.7899994746
0.7899977651
0.7899978581
0.7899974506
0.7899984601
0.7899990889
0.7899995311
0.789999697
0.7899997923
0.789999834
0.789999796
0.7899996861
0.7899995397
0.7899993721
0.7899993153
0.7899993036
0.7899993545
0.7899994012
0.7899993367
0.7899992176
0.7899991744
0.7899992835
0.7899993981
0.7899995054
0.7899996047
0.7899996551
0.7899996714
0.7899996237
0.7899995708
0.7899995048
0.7899995263
0.7899994931
0.789999483
0.7899994819
0.7899996297
0.7899976349
0.7899975224
0.7899968425
0.7899974275
0.7899979922
0.7899990278
0.7899991975
0.7899994469
0.78999965
0.7899998216
0.7899997923
0.7899996519
0.7899994637
0.7899993914
0.7899992635
0.789999338
0.7899992868
0.7899991753
0.7899992815
0.7899993312
0.789999409
0.7899994911
0.7899995779
0.7899996677
0.7899997179
0.7899997249
0.7899996951
0.7899996453
0.7899995696
0.7899995432
0.7899994676
0.7899994637
0.7899995076
0.7899997458
0.7899978421
0.7899978752
0.7899976381
0.7899975131
0.7899975133
0.7899978648
0.7899983144
0.7899988023
0.7899992774
0.7899996902
0.7899998767
0.7899997547
0.7899995257
0.7899992535
0.789999317
0.7899990759
0.7899991024
0.7899993146
0.7899995094
0.7899994881
0.789999509
0.7899995653
0.7899996385
0.7899997195
0.7899997645
0.789999768
0.7899997404
0.7899996954
0.789999619
0.7899995472
0.7899994214
0.7899994179
0.7899995293
0.7899998793
0.7899979465
0.7899980793
0.7899978666
0.7899975713
0.7899972889
0.7899971163
0.7899970735
0.7899973167
0.78999799
0.7899990265
0.7899997264
0.7899997441
0.7899993475
0.7899985646
0.7899987484
0.7899990135
0.7899993091
0.7899995677
0.7899996896
0.7899996453
0.7899996019
0.7899996306
0.7899996834
0.7899997581
0.7899997946
0.7899997957
0.7899997624
0.7899997114
0.7899996228
0.7899995261
0.789999383
0.7899993939
0.7899996173
0.790000029
0.7899980298
0.7899979654
0.7899982077
0.7899980286
0.7899976777
0.7899972903
0.7899969554
0.7899967253
0.7899967183
0.7899971008
0.7899979601
0.7899989386
0.7899989735
0.7899981493
0.7899980261
0.7899986104
0.7899992719
0.7899995932
0.7899997387
0.7899998278
0.7899998338
0.7899997141
0.7899996922
0.7899997056
0.7899997883
0.7899998113
0.7899998141
0.7899997689
0.7899996966
0.789999583
0.7899995021
0.789999447
0.7899995239
0.7899998015
0.7899999582
0.7899980823
0.7899979505
0.7899982471
0.7899981315
0.7899977636
0.7899973374
0.789996951
0.7899966544
0.7899965005
0.7899965712
0.7899968737
0.789997246
0.7899973119
0.7899973152
0.789997913
0.7899985567
0.7899994523
0.7899998108
0.7899999003
0.7899999763
0.7900000489
0.7899998735
0.7899997714
0.789999689
0.7899998453
0.7899998508
0.7899998682
0.7899998031
0.7899996969
0.7899995929
0.7899995358
0.7899995938
0.7899995495
0.7899996568
0.7899994659
0.7899981829
0.7899979613
0.7899979018
0.7899978251
0.7899975659
0.7899972303
0.7899969118
0.7899966561
0.789996472
0.7899963753
0.7899963771
0.7899964716
0.7899966922
0.7899971649
0.7899982554
0.7899985546
0.789999569
0.7899999565
0.7900000609
0.7900000994
0.7900002232
0.7900000757
0.789999915
0.7899994158
0.7899999935
0.7900000302
0.7900000581
0.7899999592
0.7899998263
0.7899997929
0.7899995598
0.7899995708
0.7899993024
0.7899991772
0.7899987271
0.7899985185
0.7899985342
0.7899983182
0.7899980688
0.7899977374
0.7899973787
0.7899970588
0.789996826
0.7899966834
0.7899966323
0.7899966855
0.7899968797
0.789997268
0.7899979107
0.7899986916
0.7899995117
0.7900000119
0.7900002048
0.7900002721
0.7900002917
0.7900002836
0.7900002568
0.7900002157
0.790000144
0.790000248
0.7900003498
0.790000366
0.79000025
0.7900001152
0.7900001932
0.7899996112
0.7899995466
0.7899993518
0.789998974
0.7899981477
0.7899985432
0.7899984283
0.7899982346
0.7899979276
0.7899975898
0.789997304
0.7899971214
0.7899970568
0.7899971181
0.7899973173
0.7899976674
0.78999816
0.7899988183
0.7899994942
0.7899999139
0.7900002626
0.7900003486
0.7900003665
0.7900003577
0.7900004362
0.7900004571
0.7900004163
0.790000343
0.7900003693
0.7900005123
0.7900005825
0.7900005422
0.7900004425
0.7900006882
0.7899999292
0.7899998096
0.7900000267
0.7899995328
0.7899982546
0.7899981672
0.7899980591
0.7899979
0.7899977324
0.7899975754
0.7899974567
0.7899974268
0.7899975121
0.7899977194
0.789998043
0.7899984665
0.7899989597
0.7900003907
0.7900005565
0.7900007366
0.7900008306
0.7900007796
0.7900011962
0.7900006133
0.790000584
0.7900013347
0.7900010271
0.7899995869
0.789997958
0.7899979993
0.7899979398
0.7899978931
0.7899979439
0.7899981154
0.7900013106
0.7900012397
0.7900011625
0.7900010807
0.7900009937
0.7900009941
0.7900010297
0.7900010814
0.7900011429
0.7900012102
0.7900012745
0.7900013097
0.7900013104
0.7900012968
0.7900012928
0.7900013057
0.790001332
0.7900013637
0.7900013908
0.790001403
0.7900013923
0.7900013573
0.7900013059
0.7900012525
0.7900012088
0.7900011778
0.7900011565
0.7900011426
0.7900011366
0.7900011397
0.7900011509
0.7900011606
0.7900011372
0.7900009973
0.7900011052
0.790001
0.7900008815
0.7900007747
0.7900006773
0.7900006516
0.7900006761
0.7900007308
0.790000803
0.7900008856
0.7900009656
0.7900010026
0.7900009928
0.7900009605
0.7900009412
0.790000948
0.7900009804
0.7900010311
0.7900010894
0.7900011417
0.7900011737
0.7900011746
0.7900011418
0.7900010846
0.7900010173
0.7900009526
0.7900008984
0.7900008578
0.790000831
0.7900008181
0.7900008176
0.7900008155
0.7900007747
0.7900006985
0.7900008818
0.7900007578
0.7900006191
0.7900005015
0.7900004149
0.7900003832
0.7900004016
0.7900004577
0.7900005372
0.7900006295
0.7900007199
0.7900007638
0.7900007536
0.7900007107
0.7900006757
0.7900006651
0.7900006828
0.790000726
0.7900007872
0.7900008551
0.7900009154
0.7900009534
0.7900009569
0.7900009226
0.7900008559
0.7900007738
0.7900006965
0.7900006344
0.7900005877
0.7900005525
0.7900005216
0.7900004694
0.7900003363
0.7900001748
0.7900007052
0.790000555
0.790000393
0.7900002631
0.7900001906
0.7900001651
0.7900001842
0.7900002444
0.7900003319
0.7900004327
0.7900005346
0.7900006319
0.7900005845
0.7900005261
0.7900004762
0.7900004442
0.7900004366
0.7900004574
0.7900005059
0.7900005741
0.7900006486
0.7900007137
0.7900007505
0.7900007455
0.7900006886
0.7900005948
0.7900004973
0.7900004161
0.7900003528
0.7900002989
0.790000235
0.7900001132
0.7899998202
0.7899994832
0.7900005721
0.7900003908
0.7900002064
0.7900000652
0.790000003
0.7899999919
0.79000002
0.7900000871
0.7900001821
0.7900002929
0.7900004008
0.7900006636
0.7900004538
0.7900003653
0.7900003025
0.7900002556
0.7900002273
0.790000224
0.790000254
0.790000315
0.7900003946
0.7900004772
0.7900005364
0.790000554
0.7900005061
0.790000402
0.7900002852
0.7900001852
0.7900001052
0.790000033
0.7899999394
0.789999753
0.7899993301
0.7899988759
0.7900004783
0.7900002761
0.7900000796
0.7899999276
0.7899998642
0.7899998624
0.7899999
0.7899999749
0.7900000767
0.7900001924
0.7900002863
0.7900003817
0.790000243
0.7900001701
0.7900001083
0.7900000612
0.7900000283
0.7900000138
0.790000031
0.7900000865
0.79000017
0.7900002701
0.7900003454
0.7900003718
0.7900003249
0.7900002092
0.7900000739
0.7899999546
0.7899998538
0.7899997558
0.7899996289
0.7899994005
0.7899989676
0.7899984995
0.7900004191
0.7900002133
0.7900000151
0.7899998538
0.7899997769
0.7899997754
0.7899998181
0.789999899
0.7900000066
0.7900001212
0.7900001966
0.7900001815
0.7900000355
0.7899999449
0.7899998914
0.7899998626
0.7899998369
0.7899998245
0.7899998393
0.7899998948
0.7899999843
0.7900001132
0.7900002226
0.7900002378
0.7900001784
0.790000043
0.7899998863
0.7899997459
0.7899996204
0.7899994897
0.789999327
0.7899990814
0.7899987152
0.7899983447
0.7900003786
0.7900001823
0.7899999908
0.7899998256
0.7899997313
0.7899997249
0.7899997684
0.7899998528
0.7899999661
0.7900000779
0.7900001224
0.7900000047
0.7899998325
0.7899997328
0.7899996909
0.7899997089
0.789999678
0.7899996691
0.7899996836
0.7899997406
0.789999833
0.7900000026
0.7900002434
0.7900001979
0.7900001083
0.789999927
0.7899997357
0.7899995699
0.7899994196
0.7899992615
0.7899990779
0.7899988415
0.789998553
0.7899982828
0.790000332
0.7900001515
0.789999973
0.7899998139
0.7899997106
0.7899997021
0.7899997444
0.7899998291
0.7899999459
0.7900000512
0.790000057
0.7899998714
0.7899996766
0.7899995974
0.7899995602
0.7899997658
0.7899995969
0.7899995647
0.7899995667
0.7899996133
0.789999687
0.7899998434
0.7900003706
0.7900002799
0.7900001807
0.7899998819
0.789999626
0.7899994258
0.789999256
0.7899990913
0.7899989207
0.789998716
0.7899984855
0.7899982602
0.7900002746
0.7900001124
0.7899999501
0.7899998048
0.7899997051
0.7899996994
0.78999974
0.7899998224
0.7899999391
0.7900000299
0.7899999987
0.7899997794
0.7899996034
0.7899995728
0.7899995244
0.7900003305
0.7899996132
0.789999516
0.7899994893
0.7899995008
0.7899994797
0.7899995052
0.7899999839
0.7900003074
0.7900004184
0.7899998966
0.7899995567
0.7899993141
0.7899991329
0.7899989897
0.789998862
0.7899986967
0.7899984987
0.7899982725
0.7900002124
0.790000073
0.7899999298
0.789999802
0.7899997125
0.7899997072
0.7899997468
0.7899998274
0.7899999434
0.7900000116
0.7899999508
0.7899997301
0.789999603
0.7899994593
0.7899994695
0.7899998066
0.7899995092
0.7899994546
0.7899994451
0.7899995124
0.7899992507
0.7899990929
0.7899979719
0.7899999428
0.7900002362
0.7899998723
0.7899995191
0.7899992533
0.789999064
0.7899989604
0.7899988784
0.7899987478
0.7899985632
0.7899983237
0.7900001461
0.7900000326
0.7899999123
0.7899998048
0.7899997246
0.7899997092
0.7899997488
0.7899998325
0.7899999545
0.7899999971
0.7899999023
0.7899996938
0.7899995474
0.7899994081
0.7899994324
0.7899994532
0.7899995195
0.7899994602
0.7899995062
0.7900001731
0.789999428
0.7899995143
0.7899976785
0.7900000703
0.7900000361
0.7899998367
0.7899995377
0.7899993235
0.7899990843
0.7899990096
0.7899989496
0.7899988434
0.7899986607
0.7899984162
0.7900000734
0.7899999908
0.7899998913
0.7899998025
0.7899997265
0.7899996916
0.7899997308
0.7899998198
0.7899999516
0.789999981
0.7899998404
0.7899996317
0.7899995191
0.7899994073
0.7899993884
0.7899994212
0.7899994498
0.7899994338
0.7899994485
0.7899997318
0.7899995266
0.7899998599
0.7899996345
0.7899997266
0.7899997084
0.7899997229
0.7899997656
0.789999826
0.7899992655
0.7899991599
0.789999069
0.7899989635
0.7899987856
0.7899985437
0.7899999908
0.7899999391
0.7899998478
0.7899997762
0.7899997025
0.7899996501
0.7899996876
0.7899997774
0.7899999072
0.7899999467
0.7899997734
0.7899995658
0.7899994402
0.7899993659
0.789999346
0.7899993585
0.7899993749
0.7899993901
0.789999409
0.7899994615
0.7899995067
0.7899995891
0.7899996207
0.7899996915
0.7899996207
0.7899997688
0.7900003673
0.7900010606
0.7899996255
0.7899994708
0.7899992411
0.7899990925
0.789998914
0.7899986831
0.7899998763
0.7899998506
0.789999745
0.7899997051
0.7899996406
0.7899995842
0.7899996228
0.7899997101
0.7899998297
0.7899998854
0.7899997166
0.7899995026
0.7899993823
0.789999315
0.7899992935
0.7899993108
0.7899993775
0.7899993811
0.7899994305
0.7899995113
0.789999572
0.7899996123
0.7899995241
0.7899995673
0.7899996842
0.7899998481
0.7900015295
0.7900058082
0.7900005745
0.7900001029
0.7899994572
0.7899992104
0.7899990191
0.7899988072
0.7899997043
0.7899996987
0.7899995178
0.7899995678
0.7899995281
0.7899994899
0.7899995395
0.7899996304
0.7899997414
0.7899997994
0.7899996569
0.7899994434
0.7899993182
0.7899992513
0.7899992317
0.7899992515
0.7899993217
0.7899993583
0.7899994457
0.7899995603
0.78999965
0.7899996115
0.7899992566
0.7899993554
0.7899996562
0.7899998767
0.7900024981
0.7900018412
0.7900001179
0.7899996957
0.7899994351
0.789999263
0.7899990813
0.7899988996
0.7899994304
0.7899994581
0.7899990481
0.789999337
0.7899993516
0.7899993636
0.7899994413
0.7899995497
0.7899996628
0.7899997071
0.7899995799
0.7899993829
0.7899992552
0.7899991846
0.7899991628
0.7899991812
0.7899992328
0.7899993037
0.789999418
0.7899995577
0.7899996334
0.7899995114
0.7899992711
0.789999276
0.7899993921
0.7899995313
0.7899997618
0.7899999575
0.7899997127
0.7899995894
0.7899994421
0.7899992981
0.7899991215
0.7899989641
0.7899990403
0.7899990669
0.7899980822
0.7899990045
0.7899991189
0.7899992267
0.7899993567
0.7899995038
0.7899996427
0.7899996617
0.7899994849
0.7899993226
0.7899991922
0.7899991142
0.7899990882
0.7899991041
0.7899991531
0.7899992102
0.7899993062
0.7899994199
0.7899994253
0.789999259
0.7899991557
0.7899992599
0.7899993687
0.7899995203
0.7899996662
0.7899996293
0.7899995404
0.7899995085
0.78999944
0.7899993328
0.7899991726
0.7899990147
0.7899985575
0.7899985475
0.7899962676
0.7899986153
0.7899989535
0.7899991539
0.7899993307
0.7899995153
0.7899996671
0.7899996063
0.78999944
0.7899992836
0.7899991398
0.7899990477
0.789999014
0.7899990262
0.7899990706
0.789999126
0.7899991772
0.7899992166
0.7899991792
0.7899991111
0.7899991802
0.7899993312
0.7899994346
0.7899995365
0.7899995702
0.7899995654
0.7899995235
0.7899994974
0.789999447
0.7899993607
0.789999229
0.7899991246
0.7899975272
0.7899964545
0.7899930666
0.789997183
0.7899982276
0.7899988676
0.7899992516
0.7899995195
0.7899996445
0.789999572
0.7899994468
0.7899992902
0.7899991203
0.7899990017
0.7899989561
0.7899989678
0.789998999
0.7899990294
0.7899990679
0.7899990383
0.7899990432
0.7899991329
0.7899992727
0.7899994121
0.789999503
0.7899995694
0.7899995665
0.7899995438
0.7899995075
0.7899994829
0.789999434
0.789999359
0.7899992562
0.7899991824
0.7899984388
0.7899985386
0.7899979396
0.7899988542
0.7899990359
0.7899992347
0.7899993607
0.7899995033
0.7899995993
0.7899995869
0.7899995082
0.7899993599
0.7899991426
0.7899989753
0.7899989146
0.7899989324
0.7899989654
0.7899989696
0.7899989711
0.7899989865
0.7899990916
0.7899992258
0.7899993659
0.7899994888
0.7899995702
0.7899996138
0.7899996027
0.7899995665
0.7899995172
0.7899994738
0.7899994164
0.7899993507
0.7899992763
0.7899992561
0.7899982833
0.7899980049
0.7899975231
0.7899980374
0.7899983559
0.7899987535
0.7899990639
0.7899992965
0.7899994819
0.7899996047
0.789999607
0.7899994601
0.7899991358
0.7899988942
0.7899988775
0.7899989231
0.7899989403
0.7899989384
0.7899990261
0.7899991131
0.7899992076
0.7899993233
0.789999444
0.7899995508
0.7899996227
0.7899996528
0.7899996358
0.7899995891
0.7899995256
0.7899994572
0.7899993815
0.7899993216
0.7899992808
0.7899993495
0.7899985589
0.789998388
0.7899981446
0.7899980666
0.7899980042
0.7899981355
0.7899983906
0.7899987464
0.7899991595
0.7899995109
0.7899996722
0.7899995061
0.7899990068
0.7899987128
0.7899986795
0.7899988625
0.7899988979
0.7899990414
0.7899991787
0.7899992645
0.7899993249
0.789999412
0.7899995067
0.7899995983
0.7899996597
0.7899996815
0.7899996566
0.7899995988
0.7899995235
0.7899994359
0.7899993417
0.7899992945
0.7899993152
0.7899995342
0.7899987344
0.7899985295
0.7899982298
0.7899979452
0.7899976592
0.7899974492
0.7899974078
0.7899976354
0.7899981928
0.7899989699
0.7899994682
0.7899992251
0.7899986054
0.7899983736
0.7899987325
0.7899988995
0.7899990554
0.7899992095
0.7899993142
0.789999402
0.7899994366
0.7899994931
0.7899995576
0.7899996348
0.7899996802
0.7899996967
0.7899996609
0.7899995912
0.7899995118
0.789999422
0.7899993337
0.7899993226
0.7899994409
0.7899997773
0.7899990428
0.7899989392
0.7899987255
0.78999839
0.7899979972
0.7899975819
0.7899972169
0.7899969821
0.7899969969
0.7899973383
0.7899979663
0.7899984619
0.7899982905
0.7899978924
0.7899980441
0.7899986704
0.7899991298
0.7899993081
0.7899993876
0.7899994571
0.7899995451
0.7899995563
0.7899995839
0.7899996012
0.789999667
0.7899996839
0.7899997015
0.7899996545
0.789999581
0.789999511
0.7899994396
0.7899994092
0.7899994692
0.7899996655
0.7899998899
0.7899992446
0.7899991985
0.789999014
0.7899984931
0.7899980415
0.7899975881
0.7899971808
0.7899968645
0.7899967042
0.7899967296
0.7899968926
0.78999707
0.7899971574
0.7899973449
0.7899979521
0.7899988751
0.7899993854
0.7899995585
0.7899995752
0.7899996106
0.7899997026
0.7899996978
0.7899997171
0.7899996418
0.7899996995
0.7899996703
0.7899997131
0.7899996688
0.7899996112
0.7899995766
0.7899995446
0.7899996152
0.7899997161
0.7899998389
0.7899997855
0.7899997273
0.7900000177
0.7899991012
0.7899985721
0.7899980916
0.7899976361
0.78999723
0.7899969049
0.789996684
0.7899965767
0.7899965761
0.7899966725
0.7899969041
0.7899973959
0.7899982434
0.7899995521
0.7899996864
0.7899998257
0.7899998208
0.7899998127
0.7899998848
0.7899998742
0.7899999341
0.7899997952
0.789999716
0.7899997778
0.789999797
0.7899997774
0.789999759
0.7899997357
0.7899997246
0.7899998207
0.7899998515
0.7899998645
0.789999593
0.7899991246
0.7899990701
0.7899987966
0.7899984672
0.7899980858
0.7899976995
0.7899973524
0.7899970788
0.7899968945
0.7899968115
0.7899968441
0.789997022
0.7899973897
0.7899979703
0.7899987987
0.7899995736
0.7899999436
0.7900000857
0.7900001088
0.7900000503
0.7900001178
0.7900000865
0.7900000411
0.7899999746
0.789999934
0.7899999377
0.7899999791
0.7900000075
0.7900000089
0.7899998668
0.7899998148
0.7899997747
0.7899997339
0.7899997993
0.7899993526
0.7899988271
0.7899986523
0.7899984027
0.789998109
0.7899978092
0.7899975442
0.7899973506
0.7899972483
0.7899972551
0.7899973912
0.789997679
0.7899981256
0.7899986874
0.7899992978
0.7899999335
0.7900002013
0.7900002427
0.7900002293
0.7899999718
0.790000236
0.7900002454
0.790000168
0.7900000824
0.790000058
0.7900000742
0.7900001641
0.7900001832
0.7900000627
0.7899997681
0.78999961
0.7899994262
0.7899993357
0.7899994664
0.7899989998
0.7899985325
0.7899984566
0.7899983126
0.7899981273
0.7899979338
0.7899977717
0.7899976766
0.7899976706
0.789997769
0.7899979861
0.7899983286
0.7899987812
0.7900001201
0.790000153
0.7900002537
0.7900001876
0.7900000347
0.7899999375
0.7899998482
0.7899996068
0.7899993457
0.7899991819
0.7899987745
0.7899982641
0.7899981883
0.7899981096
0.7899980569
0.7899980599
0.7899981311
0.790001372
0.7900013381
0.7900012812
0.7900012219
0.7900011474
0.7900011361
0.7900011523
0.7900011835
0.7900012235
0.7900012648
0.7900012964
0.7900013022
0.7900012861
0.7900012683
0.7900012653
0.790001281
0.7900013109
0.7900013453
0.7900013726
0.7900013817
0.7900013658
0.7900013269
0.7900012752
0.7900012242
0.7900011831
0.7900011543
0.7900011363
0.7900011273
0.790001127
0.7900011356
0.7900011509
0.7900011633
0.790001143
0.790000992
0.7900011867
0.7900011116
0.7900010078
0.7900009012
0.7900008121
0.7900007769
0.7900007848
0.7900008199
0.7900008686
0.7900009204
0.7900009589
0.790000961
0.7900009349
0.7900009071
0.7900008989
0.7900009173
0.7900009592
0.7900010157
0.7900010747
0.7900011222
0.7900011451
0.7900011362
0.7900010976
0.7900010405
0.7900009779
0.7900009202
0.7900008736
0.7900008405
0.7900008211
0.790000815
0.7900008188
0.7900008174
0.7900007822
0.7900007037
0.7900009622
0.7900008474
0.7900007009
0.7900005675
0.7900004835
0.7900004479
0.7900004593
0.7900005048
0.7900005669
0.7900006309
0.7900006766
0.7900006835
0.7900006535
0.7900006198
0.7900006039
0.7900006138
0.7900006495
0.7900007059
0.790000774
0.7900008417
0.7900008948
0.7900009203
0.7900009108
0.7900008678
0.790000801
0.7900007257
0.7900006571
0.7900006029
0.7900005637
0.7900005362
0.7900005107
0.7900004581
0.7900003349
0.7900002335
0.7900007563
0.7900005912
0.7900003984
0.7900002452
0.7900001716
0.7900001526
0.790000178
0.7900002379
0.7900003147
0.7900003902
0.7900004406
0.7900004671
0.7900004258
0.7900003865
0.7900003617
0.7900003581
0.7900003782
0.7900004222
0.7900004865
0.7900005621
0.7900006347
0.7900006883
0.7900007077
0.7900006841
0.7900006185
0.7900005288
0.7900004399
0.7900003663
0.7900003089
0.7900002598
0.7900001982
0.7900000662
0.7899997776
0.7899994967
0.7900005812
0.7900003768
0.7900001543
0.7899999849
0.7899999183
0.7899999151
0.7899999559
0.7900000292
0.7900001174
0.7900001995
0.7900002486
0.7900002611
0.7900002229
0.7900001786
0.7900001483
0.7900001349
0.790000141
0.7900001698
0.7900002239
0.7900002988
0.7900003812
0.7900004542
0.7900004955
0.790000489
0.790000426
0.7900003238
0.7900002166
0.7900001249
0.7900000497
0.789999979
0.7899998813
0.789999664
0.7899992455
0.7899988426
0.7900004439
0.7900002223
0.7899999869
0.7899998051
0.7899997365
0.7899997419
0.789999793
0.7899998767
0.7899999699
0.7900000472
0.7900000917
0.789999993
0.7900000003
0.7899999555
0.7899999275
0.789999915
0.7899999182
0.7899999396
0.7899999852
0.7900000566
0.7900001418
0.7900002265
0.7900002811
0.7900002893
0.7900002329
0.790000123
0.7900000011
0.7899998923
0.7899997973
0.7899997012
0.7899995694
0.789999313
0.7899988657
0.7899984322
0.7900003416
0.7900001242
0.7899998915
0.7899997033
0.7899996237
0.7899996284
0.7899996833
0.7899997706
0.7899998658
0.7899999319
0.7899999581
0.7899998819
0.7899997886
0.7899997241
0.7899996946
0.7899996895
0.7899997002
0.7899997254
0.7899997674
0.7899998346
0.7899999134
0.7900000024
0.7900000599
0.7900000831
0.7900000468
0.7899999409
0.7899998113
0.7899996881
0.7899995721
0.7899994476
0.7899992855
0.7899990276