/*--------------------------------*- C++ -*----------------------------------*\
  =========                 |
  \\      /  F ield         | OpenFOAM: The Open Source CFD Toolbox
   \\    /   O peration     | Website:  https://openfoam.org
    \\  /    A nd           | Version:  8
     \\/     M anipulation  |
\*---------------------------------------------------------------------------*/
FoamFile
{
    version     2.0;
    format      ascii;
    class       volScalarField;
    location    "1.6";
    object      O2;
}
// * * * * * * * * * * * * * * * * * * * * * * * * * * * * * * * * * * * * * //

dimensions      [0 0 0 0 0 0 0];

internalField   nonuniform List<scalar> 
67193
(
0.209998776
0.2099988332
0.2099989021
0.2099990619
0.2099991601
0.2099991694
0.2099991262
0.2099990603
0.2099989826
0.2099988936
0.2099987959
0.2099987196
0.2099986826
0.2099986757
0.2099986675
0.2099986489
0.2099986246
0.2099986016
0.2099985856
0.2099985815
0.2099985941
0.2099986257
0.2099986727
0.2099987237
0.2099987674
0.2099988019
0.2099988316
0.2099988568
0.2099988732
0.2099988771
0.2099988685
0.2099988574
0.20999888
0.2099990058
0.2099989162
0.2099989825
0.2099990899
0.2099992933
0.2099994327
0.2099994822
0.2099994675
0.2099994092
0.2099993243
0.2099992192
0.2099990971
0.2099990071
0.2099989595
0.209998971
0.2099989856
0.2099989793
0.2099989524
0.2099989137
0.2099988722
0.2099988355
0.2099988109
0.2099988071
0.2099988314
0.2099988823
0.2099989495
0.20999902
0.2099990841
0.2099991361
0.2099991749
0.2099991985
0.209999204
0.2099992009
0.209999239
0.2099993197
0.209998985
0.2099990731
0.2099992078
0.2099994016
0.2099995458
0.2099996206
0.209999639
0.2099996063
0.2099995362
0.2099994408
0.2099993193
0.2099992606
0.2099991695
0.2099991897
0.2099992306
0.2099992541
0.2099992493
0.2099992209
0.2099991787
0.2099991318
0.2099990863
0.2099990484
0.209999031
0.2099990452
0.2099990982
0.209999177
0.2099992558
0.2099993217
0.2099993779
0.2099994291
0.2099994746
0.2099995258
0.2099996507
0.2099998786
0.2099990509
0.2099991734
0.209999328
0.2099995039
0.209999635
0.2099997069
0.2099997358
0.2099997193
0.209999665
0.2099995924
0.209999481
0.2099995489
0.2099993397
0.2099993569
0.2099994126
0.2099994692
0.2099995006
0.2099995009
0.2099994744
0.2099994314
0.20999938
0.2099993229
0.209999274
0.2099992419
0.20999926
0.2099993284
0.2099994094
0.20999948
0.2099995451
0.2099996171
0.209999705
0.209999832
0.2100000914
0.2100005051
0.2099991447
0.2099992925
0.2099994553
0.2099996145
0.2099997346
0.2099997902
0.209999812
0.2099997949
0.2099997429
0.2099996883
0.2099995737
0.2099997505
0.2099994814
0.2099994986
0.2099995609
0.2099996434
0.209999708
0.2099997431
0.2099997407
0.2099997083
0.209999661
0.2099995981
0.2099995493
0.2099994815
0.2099994613
0.2099995103
0.2099995885
0.2099996621
0.2099997349
0.2099998246
0.2099999487
0.2100001458
0.2100005236
0.2100010689
0.2099992632
0.2099994224
0.2099995792
0.209999724
0.2099998413
0.2099998765
0.2099998827
0.2099998532
0.2099997872
0.2099997125
0.2099995901
0.2099993993
0.2099995569
0.2099996198
0.2099997055
0.209999813
0.2099998874
0.2099999448
0.209999963
0.2099999395
0.2099999022
0.2099998333
0.209999845
0.2099997533
0.2099997021
0.209999728
0.2099998016
0.2099998817
0.2099999695
0.2100000848
0.2100002476
0.210000498
0.2100009103
0.2100014192
0.2099993785
0.2099995335
0.2099996774
0.2099998156
0.209999938
0.2099999565
0.2099999476
0.2099999034
0.2099998233
0.2099997298
0.2099996161
0.2099995783
0.2099996804
0.2099998016
0.2099998818
0.2100000262
0.2100000613
0.2100001109
0.2100001343
0.2100001116
0.2100000979
0.209999987
0.2100002003
0.2100000512
0.2099999696
0.2099999695
0.2100000369
0.2100001275
0.2100002379
0.2100003875
0.2100005912
0.2100008702
0.2100012326
0.2100016019
0.209999455
0.2099996003
0.2099997385
0.209999879
0.2100000069
0.210000015
0.2099999975
0.209999943
0.2099998507
0.2099997398
0.2099996248
0.2099997141
0.2099998746
0.2100000418
0.2100000779
0.2100003706
0.2100002555
0.2100002569
0.2100002653
0.2100002288
0.210000277
0.2100000397
0.2100008247
0.2100004691
0.2100002764
0.2100002231
0.2100002791
0.21000038
0.2100005107
0.2100006862
0.2100009084
0.210001176
0.2100014567
0.2100017102
0.2099995093
0.2099996513
0.2099997874
0.2099999239
0.2100000498
0.2100000427
0.2100000247
0.2099999689
0.209999872
0.2099997443
0.2099996415
0.2099998506
0.2100000666
0.210000326
0.210000268
0.2100010246
0.2100005014
0.2100003988
0.2100003811
0.2100003276
0.2100004641
0.2100000672
0.2100019876
0.2100014507
0.2100007753
0.2100005118
0.210000525
0.2100006277
0.2100007622
0.2100009313
0.2100011187
0.2100013324
0.2100015484
0.2100017623
0.2099995701
0.2099997113
0.2099998434
0.2099999667
0.2100000765
0.2100000391
0.2100000244
0.2099999751
0.2099998868
0.2099997587
0.2099996959
0.2099999844
0.2100002165
0.2100005167
0.2100003867
0.2100015177
0.2100007078
0.2100004973
0.2100004783
0.2100005409
0.2100006342
0.2100003911
0.2100015521
0.2100028974
0.2100017018
0.2100008965
0.2100007855
0.2100008737
0.2100009873
0.2100011035
0.2100011955
0.2100013303
0.2100015048
0.2100017359
0.2099996251
0.2099997606
0.2099998871
0.2099999951
0.2100000793
0.2100000139
0.2099999972
0.2099999501
0.2099998795
0.2099997816
0.2099997805
0.2100000652
0.2100002372
0.210000258
0.2100004115
0.2099999812
0.210000433
0.2100004451
0.2100004768
0.210001048
0.2100007148
0.210001149
0.2099949666
0.210001435
0.2100024433
0.2100013086
0.2100010621
0.2100011404
0.210001202
0.2100012104
0.2100011709
0.2100012193
0.2100013522
0.2100016025
0.2099996949
0.2099998118
0.2099999194
0.2100000001
0.2100000612
0.2100000048
0.2099999731
0.2099999064
0.2099998348
0.2099997872
0.2099998566
0.2100000844
0.2099999961
0.2100000617
0.2100003533
0.2100003502
0.2100004475
0.2100004526
0.2100002645
0.210001545
0.210000628
0.2100008256
0.2099922414
0.2099983719
0.2100013187
0.2100011918
0.2100013024
0.2100014979
0.2100014579
0.2100012847
0.2100011074
0.2100010604
0.2100011376
0.2100013621
0.2099997768
0.2099998539
0.2099999273
0.2099999858
0.2100000427
0.2100000371
0.2099999859
0.2099998878
0.2099997769
0.2099997648
0.2099999224
0.2100001498
0.2100002283
0.2100003193
0.2100003205
0.2100003072
0.2100002775
0.210000268
0.2100002115
0.2100000627
0.2100001705
0.210000086
0.2100002404
0.2100003738
0.2100003618
0.2100005649
0.2100016394
0.210002297
0.2100019252
0.2100014175
0.2100010733
0.2100009035
0.210000912
0.2100010551
0.2099998646
0.2099998899
0.2099999291
0.2099999897
0.2100000565
0.2100000982
0.210000034
0.209999921
0.2099997603
0.2099997396
0.2099999712
0.2100002204
0.2100003068
0.2100003617
0.2100003774
0.2100003575
0.2100003367
0.2100002736
0.2100002836
0.2100003657
0.2100002866
0.2100000908
0.2099999916
0.2100002435
0.2100007275
0.2100008808
0.2100022951
0.2100056315
0.2100032435
0.2100017901
0.2100011301
0.2100007864
0.2100007091
0.2100007398
0.2099999477
0.209999942
0.2099999842
0.2100000517
0.2100001149
0.2100001722
0.2100000981
0.2099999889
0.2099998121
0.2099997353
0.2099999661
0.2100002561
0.2100003746
0.2100004194
0.2100004371
0.2100004315
0.2100005068
0.2100003275
0.2100002412
0.2100001801
0.2100001151
0.2100000534
0.2100002492
0.2100003399
0.21000086
0.2100013338
0.2099996319
0.2100113455
0.2100061711
0.2100024238
0.2100012239
0.210000703
0.2100005549
0.2100004809
0.2100000538
0.2100000547
0.2100001605
0.2100001862
0.2100002238
0.2100002689
0.2100001756
0.2100000668
0.2099998968
0.2099997661
0.2099999588
0.2100002861
0.2100004357
0.2100004803
0.2100004884
0.2100004697
0.2100004224
0.2100003434
0.2100002287
0.2100001075
0.2100000206
0.2100000439
0.2100004078
0.2100006664
0.2100007254
0.2100007705
0.2099959259
0.2100003537
0.2100011235
0.2100010565
0.2100007977
0.2100005559
0.2100004783
0.2100003674
0.2100002251
0.2100002569
0.2100005549
0.2100004014
0.2100004188
0.2100004162
0.2100002865
0.2100001605
0.2099999896
0.2099998261
0.2099999943
0.2100003369
0.2100004902
0.2100005341
0.2100005414
0.2100005229
0.2100004794
0.2100003967
0.2100002643
0.2100001183
0.2100000428
0.2100001936
0.2100005692
0.2100006786
0.2100007054
0.2100005611
0.210000712
0.2100011656
0.2100010465
0.2100007606
0.2100006414
0.2100005697
0.2100005824
0.2100005406
0.2100008082
0.2100007455
0.2100014401
0.2100006762
0.2100007592
0.2100006196
0.2100004162
0.2100002299
0.2100000091
0.2099999857
0.2100002465
0.2100004329
0.2100005566
0.2100005953
0.2100006019
0.2100005836
0.2100005425
0.2100004731
0.2100003674
0.2100002528
0.2100002668
0.2100005257
0.2100007819
0.2100007011
0.2100007192
0.2100005696
0.2100007085
0.2100007644
0.2100008125
0.2100006868
0.2100006343
0.2100006507
0.2100007771
0.2100008572
0.2100015157
0.2100013011
0.210002531
0.2100007684
0.2100007023
0.2100005853
0.2100003767
0.2100001508
0.2099999837
0.2100001191
0.2100003477
0.2100004949
0.2100006209
0.2100006608
0.210000669
0.2100006491
0.2100006093
0.2100005681
0.2100005914
0.2100004671
0.2100005644
0.2100007483
0.2100007226
0.2100005773
0.2100005333
0.2100004606
0.2100005474
0.2100005532
0.2100006099
0.2100005625
0.2100005637
0.2100005714
0.2100006573
0.2100006592
0.2100026974
0.2100032858
0.2100086269
0.2100026536
0.2100014761
0.210000766
0.2100003681
0.2100001284
0.2100000665
0.2100002158
0.2100003693
0.2100005145
0.2100006623
0.2100007104
0.2100007246
0.210000693
0.2100006323
0.2100005749
0.2100006078
0.2100007028
0.2100007848
0.2100007189
0.2100005926
0.2100004741
0.2100004322
0.2100003956
0.2100004922
0.2100005138
0.2100005642
0.2100005117
0.2100005306
0.2100005558
0.2100005938
0.2100005254
0.2100022349
0.2100021419
0.2100025494
0.2100015399
0.2100009111
0.2100004689
0.210000303
0.2100002077
0.210000166
0.210000204
0.2100003139
0.2100004603
0.2100006279
0.2100006847
0.2100006964
0.2100006455
0.2100005988
0.2100006633
0.2100007824
0.2100008256
0.2100007165
0.2100006019
0.2100004946
0.2100003953
0.2100003449
0.2100003286
0.2100003763
0.2100004292
0.2100004952
0.2100004737
0.2100005069
0.210000517
0.2100005181
0.2100003703
0.2100023651
0.2100024776
0.2100031575
0.2100025725
0.2100020078
0.2100009722
0.2100008025
0.2100005531
0.21000035
0.2100001784
0.2100002077
0.2100003481
0.2100005363
0.2100006086
0.2100007365
0.210000662
0.2100007132
0.2100008247
0.2100007185
0.2100006688
0.210000591
0.2100005089
0.2100004221
0.2100003323
0.2100002821
0.2100002751
0.2100003049
0.2100003547
0.2100004304
0.2100004568
0.2100005324
0.2100005363
0.2100004924
0.2100002542
0.2100021579
0.2100021248
0.2100023619
0.2100024869
0.2100024867
0.2100021352
0.2100016856
0.2100011977
0.2100007226
0.2100003098
0.2100001233
0.2100002453
0.2100004743
0.2100007465
0.210000683
0.2100009241
0.2100008976
0.2100006854
0.2100004906
0.2100005119
0.210000491
0.2100004347
0.2100003615
0.2100002805
0.2100002355
0.210000232
0.2100002596
0.2100003046
0.210000381
0.2100004528
0.2100005786
0.2100005821
0.2100004707
0.2100001207
0.2100020535
0.2100019207
0.2100021334
0.2100024287
0.2100027111
0.2100028837
0.2100029265
0.2100026833
0.21000201
0.2100009735
0.2100002736
0.2100002559
0.2100006525
0.2100014354
0.2100012516
0.2100009865
0.2100006909
0.2100004323
0.2100003104
0.2100003547
0.2100003981
0.2100003694
0.2100003166
0.2100002419
0.2100002054
0.2100002043
0.2100002376
0.2100002886
0.2100003772
0.2100004739
0.210000617
0.2100006061
0.2100003827
0.209999971
0.2100019702
0.2100020346
0.2100017923
0.2100019714
0.2100023223
0.2100027097
0.2100030446
0.2100032747
0.2100032817
0.2100028992
0.2100020399
0.2100010614
0.2100010265
0.2100018507
0.2100019739
0.2100013896
0.2100007281
0.2100004068
0.2100002613
0.2100001722
0.2100001662
0.2100002859
0.2100003078
0.2100002944
0.2100002117
0.2100001887
0.2100001859
0.2100002311
0.2100003034
0.210000417
0.2100004979
0.210000553
0.2100004761
0.2100001985
0.2100000418
0.2100019177
0.2100020495
0.2100017529
0.2100018685
0.2100022364
0.2100026626
0.210003049
0.2100033456
0.2100034995
0.2100034288
0.2100031263
0.210002754
0.2100026881
0.2100026848
0.210002087
0.2100014433
0.2100005477
0.2100001892
0.2100000997
0.2100000237
0.2099999511
0.2100001265
0.2100002286
0.210000311
0.2100001547
0.2100001492
0.2100001318
0.2100001969
0.2100003031
0.2100004071
0.2100004642
0.2100004062
0.2100004505
0.2100003432
0.2100005341
0.2100018171
0.2100020387
0.2100020982
0.2100021749
0.2100024341
0.2100027697
0.2100030882
0.2100033439
0.210003528
0.2100036247
0.2100036229
0.2100035284
0.2100033078
0.2100028351
0.2100017446
0.2100014454
0.210000431
0.2100000435
0.2099999391
0.2099999006
0.2099997768
0.2099999243
0.210000085
0.2100005842
0.2100000065
0.2099999698
0.2099999419
0.2100000408
0.2100001737
0.2100002071
0.2100004402
0.2100004292
0.2100006976
0.2100008228
0.2100012729
0.2100014815
0.2100014658
0.2100016818
0.2100019312
0.2100022626
0.2100026213
0.2100029412
0.210003174
0.2100033166
0.2100033677
0.2100033145
0.2100031203
0.210002732
0.2100020893
0.2100013084
0.2100004883
0.2099999881
0.2099997952
0.2099997279
0.2099997083
0.2099997164
0.2099997432
0.2099997843
0.209999856
0.209999752
0.2099996502
0.209999634
0.20999975
0.2099998848
0.2099998068
0.2100003888
0.2100004534
0.2100006482
0.210001026
0.2100018523
0.2100014568
0.2100015717
0.2100017654
0.2100020724
0.2100024102
0.210002696
0.2100028786
0.2100029432
0.2100028819
0.2100026827
0.2100023326
0.21000184
0.2100011817
0.2100005058
0.2100000861
0.2099997374
0.2099996514
0.2099996335
0.2099996423
0.2099995638
0.2099995429
0.2099995837
0.209999657
0.2099996307
0.2099994877
0.2099994175
0.2099994578
0.2099995575
0.2099993118
0.2100000708
0.2100001904
0.2099999733
0.2100004672
0.2100017454
0.2100018328
0.2100019409
0.2100021
0.2100022676
0.2100024246
0.2100025433
0.2100025732
0.2100024879
0.2100022806
0.210001957
0.2100015335
0.2100010403
0.2099996093
0.2099994435
0.2099992634
0.2099991694
0.2099992204
0.2099988038
0.2099993867
0.209999416
0.2099986653
0.2099989729
0.2100004131
0.210002042
0.2100020007
0.2100020602
0.2100021069
0.2100020561
0.2100018846
0.2099986894
0.2099987603
0.2099988375
0.2099989193
0.2099990063
0.2099990059
0.2099989703
0.2099989186
0.2099988571
0.2099987898
0.2099987255
0.2099986903
0.2099986896
0.2099987032
0.2099987072
0.2099986943
0.209998668
0.2099986363
0.2099986092
0.209998597
0.2099986077
0.2099986427
0.2099986941
0.2099987475
0.2099987912
0.2099988222
0.2099988435
0.2099988574
0.2099988634
0.2099988603
0.2099988491
0.2099988394
0.2099988628
0.2099990027
0.2099988948
0.209999
0.2099991185
0.2099992253
0.2099993227
0.2099993484
0.2099993239
0.2099992692
0.209999197
0.2099991144
0.2099990344
0.2099989974
0.2099990072
0.2099990395
0.2099990588
0.209999052
0.2099990196
0.2099989689
0.2099989106
0.2099988583
0.2099988263
0.2099988254
0.2099988582
0.2099989154
0.2099989827
0.2099990474
0.2099991016
0.2099991422
0.209999169
0.2099991819
0.2099991824
0.2099991845
0.2099992253
0.2099993015
0.2099991182
0.2099992422
0.2099993809
0.2099994985
0.2099995851
0.2099996168
0.2099995984
0.2099995423
0.2099994628
0.2099993705
0.2099992801
0.2099992362
0.2099992464
0.2099992893
0.2099993243
0.2099993349
0.2099993172
0.209999274
0.2099992128
0.2099991449
0.2099990846
0.2099990466
0.2099990431
0.2099990774
0.2099991441
0.2099992262
0.2099993035
0.2099993656
0.2099994123
0.2099994475
0.2099994784
0.2099995306
0.2099996637
0.2099998252
0.2099992948
0.209999445
0.209999607
0.2099997369
0.2099998094
0.2099998349
0.2099998158
0.2099997556
0.2099996681
0.2099995673
0.2099994654
0.2099993681
0.2099994155
0.2099994739
0.2099995238
0.2099995558
0.2099995634
0.2099995426
0.2099994941
0.2099994259
0.2099993514
0.2099992863
0.2099992495
0.2099992545
0.2099993114
0.2099994052
0.2099995027
0.2099995839
0.2099996472
0.2099997011
0.209999765
0.2099998868
0.2100001798
0.2100005168
0.2099994279
0.2099996092
0.2099997936
0.2099999348
0.209999997
0.2100000081
0.20999998
0.2099999129
0.2099998179
0.2099997071
0.2099995992
0.2099993364
0.2099995462
0.2099996347
0.2099996975
0.2099997444
0.2099997727
0.209999776
0.209999746
0.209999685
0.2099996054
0.2099995228
0.2099994636
0.209999446
0.2099994939
0.209999598
0.2099997148
0.2099998148
0.2099998948
0.209999967
0.2100000606
0.210000247
0.2100006699
0.2100011241
0.2099995217
0.2099997239
0.2099999204
0.2100000724
0.2100001358
0.2100001376
0.2100001
0.2100000251
0.2099999233
0.2099998076
0.2099997137
0.2099996183
0.209999757
0.2099998299
0.2099998917
0.2099999388
0.2099999717
0.2099999862
0.209999969
0.2099999135
0.20999983
0.2099997299
0.2099996546
0.2099996282
0.2099996751
0.2099997908
0.2099999261
0.2100000454
0.2100001462
0.2100002442
0.2100003711
0.2100005995
0.2100010324
0.2100015005
0.2099995809
0.2099997867
0.2099999849
0.2100001462
0.2100002231
0.2100002246
0.2100001819
0.210000101
0.2099999934
0.2099998788
0.2099998034
0.2099998185
0.2099999645
0.2100000551
0.2100001086
0.2100001374
0.2100001631
0.2100001755
0.2100001607
0.2100001052
0.2100000157
0.2099998868
0.2099997774
0.2099997622
0.2099998216
0.209999957
0.2100001137
0.2100002541
0.2100003796
0.2100005103
0.210000673
0.2100009186
0.2100012848
0.2100016553
0.2099996214
0.2099998177
0.2100000092
0.2100001744
0.2100002687
0.2100002751
0.2100002316
0.2100001472
0.2100000339
0.2099999221
0.2099998776
0.2099999953
0.2100001675
0.2100002672
0.2100003091
0.2100002911
0.210000322
0.2100003309
0.2100003164
0.2100002594
0.210000167
0.2099999974
0.2099997566
0.2099998021
0.2099998917
0.210000073
0.2100002643
0.2100004301
0.2100005804
0.2100007385
0.2100009221
0.2100011585
0.210001447
0.2100017172
0.209999668
0.2099998485
0.210000027
0.2100001861
0.2100002894
0.2100002979
0.2100002556
0.2100001709
0.2100000541
0.2099999488
0.209999943
0.2100001286
0.2100003234
0.2100004026
0.2100004398
0.2100002342
0.2100004031
0.2100004353
0.2100004333
0.2100003867
0.210000313
0.2100001566
0.2099996294
0.2099997201
0.2099998193
0.2100001181
0.210000374
0.2100005742
0.210000744
0.2100009087
0.2100010793
0.210001284
0.2100015145
0.2100017398
0.2099997254
0.2099998876
0.2100000499
0.2100001952
0.2100002949
0.2100003006
0.21000026
0.2100001776
0.2100000609
0.2099999701
0.2100000013
0.2100002206
0.2100003966
0.2100004272
0.2100004756
0.2099996695
0.2100003868
0.210000484
0.2100005107
0.2100004992
0.2100005203
0.2100004948
0.2100000161
0.2099996926
0.2099995816
0.2100001034
0.2100004433
0.2100006859
0.2100008671
0.2100010103
0.210001138
0.2100013033
0.2100015013
0.2100017275
0.2099997876
0.209999927
0.2100000702
0.210000198
0.2100002875
0.2100002928
0.2100002532
0.2100001726
0.2100000566
0.2099999884
0.2100000492
0.2100002699
0.210000397
0.2100005407
0.2100005305
0.2100001934
0.2100004908
0.2100005454
0.2100005549
0.2100004876
0.2100007493
0.2100009071
0.2100020281
0.2100000572
0.2099997638
0.2100001277
0.2100004809
0.2100007467
0.210000936
0.2100010396
0.2100011216
0.2100012522
0.2100014368
0.2100016763
0.2099998539
0.2099999674
0.2100000877
0.2100001952
0.2100002754
0.2100002908
0.2100002512
0.2100001675
0.2100000455
0.2100000029
0.2100000977
0.2100003062
0.2100004526
0.2100005919
0.2100005676
0.2100005468
0.2100004805
0.2100005398
0.2100004938
0.2099998269
0.210000572
0.2100004857
0.2100023215
0.2099999297
0.2099999639
0.2100001633
0.2100004623
0.2100006765
0.2100009157
0.2100009904
0.2100010504
0.2100011566
0.2100013393
0.2100015838
0.2099999266
0.2100000092
0.2100001087
0.2100001975
0.2100002735
0.2100003084
0.2100002692
0.2100001802
0.2100000484
0.210000019
0.2100001596
0.2100003683
0.2100004809
0.2100005927
0.2100006116
0.2100005788
0.2100005502
0.2100005662
0.2100005515
0.2100002682
0.2100004734
0.2100001401
0.2100003655
0.2100002734
0.2100002916
0.2100002771
0.2100002344
0.210000174
0.2100007345
0.2100008401
0.210000931
0.2100010365
0.2100012144
0.2100014563
0.2100000092
0.2100000609
0.2100001522
0.2100002238
0.2100002975
0.2100003499
0.2100003124
0.2100002226
0.2100000928
0.2100000533
0.2100002266
0.2100004342
0.2100005598
0.2100006341
0.210000654
0.2100006415
0.2100006251
0.2100006099
0.210000591
0.2100005385
0.2100004933
0.2100004109
0.2100003793
0.2100003085
0.2100003793
0.2100002312
0.2099996327
0.2099989394
0.2100003745
0.2100005292
0.2100007589
0.2100009075
0.210001086
0.2100013169
0.2100001237
0.2100001494
0.210000255
0.2100002949
0.2100003594
0.2100004158
0.2100003772
0.2100002899
0.2100001703
0.2100001146
0.2100002834
0.2100004974
0.2100006177
0.210000685
0.2100007065
0.2100006892
0.2100006225
0.2100006189
0.2100005695
0.2100004887
0.210000428
0.2100003877
0.2100004759
0.2100004327
0.2100003158
0.2100001519
0.2099984705
0.2099941918
0.2099994255
0.2099998971
0.2100005428
0.2100007896
0.2100009809
0.2100011928
0.2100002957
0.2100003013
0.2100004822
0.2100004322
0.2100004719
0.2100005101
0.2100004605
0.2100003696
0.2100002586
0.2100002006
0.2100003431
0.2100005566
0.2100006818
0.2100007487
0.2100007683
0.2100007485
0.2100006783
0.2100006417
0.2100005543
0.2100004397
0.21000035
0.2100003885
0.2100007434
0.2100006446
0.2100003438
0.2100001233
0.2099975019
0.2099981588
0.2099998821
0.2100003043
0.2100005649
0.210000737
0.2100009187
0.2100011004
0.2100005696
0.2100005419
0.2100009519
0.210000663
0.2100006484
0.2100006364
0.2100005587
0.2100004503
0.2100003372
0.2100002929
0.2100004201
0.2100006171
0.2100007448
0.2100008154
0.2100008372
0.2100008188
0.2100007672
0.2100006963
0.210000582
0.2100004423
0.2100003666
0.2100004886
0.2100007289
0.210000724
0.2100006079
0.2100004687
0.2100002382
0.2100000425
0.2100002873
0.2100004106
0.2100005579
0.2100007019
0.2100008785
0.2100010359
0.2100009597
0.2100009331
0.2100019178
0.2100009955
0.2100008811
0.2100007733
0.2100006433
0.2100004962
0.2100003573
0.2100003383
0.2100005151
0.2100006774
0.2100008078
0.2100008858
0.2100009118
0.2100008959
0.2100008469
0.2100007898
0.2100006938
0.2100005801
0.2100005747
0.210000741
0.2100008443
0.2100007401
0.2100006313
0.2100004797
0.2100003338
0.2100003707
0.2100004596
0.2100004915
0.21000056
0.2100006672
0.2100008274
0.2100009853
0.2100014425
0.2100014525
0.2100037324
0.2100013847
0.2100010465
0.2100008461
0.2100006693
0.2100004847
0.2100003329
0.2100003937
0.21000056
0.2100007164
0.2100008602
0.2100009523
0.210000986
0.2100009738
0.2100009294
0.210000874
0.2100008228
0.2100007834
0.2100008208
0.2100008889
0.2100008198
0.2100006688
0.2100005654
0.2100004635
0.2100004298
0.2100004346
0.2100004765
0.2100005026
0.210000553
0.2100006393
0.210000771
0.2100008754
0.2100024728
0.2100035455
0.2100069334
0.210002817
0.2100017724
0.2100011324
0.2100007484
0.2100004805
0.2100003555
0.210000428
0.2100005532
0.2100007098
0.2100008797
0.2100009983
0.2100010439
0.2100010322
0.210001001
0.2100009706
0.2100009321
0.2100009617
0.2100009568
0.2100008671
0.2100007273
0.2100005879
0.210000497
0.2100004306
0.2100004335
0.2100004562
0.2100004925
0.2100005171
0.210000566
0.210000641
0.2100007438
0.2100008176
0.2100015612
0.2100014614
0.2100020604
0.2100011458
0.2100009641
0.2100007653
0.2100006393
0.2100004967
0.2100004007
0.2100004131
0.2100004918
0.2100006401
0.2100008574
0.2100010247
0.2100010854
0.2100010676
0.2100010346
0.2100010304
0.2100010289
0.2100010135
0.2100009084
0.2100007742
0.2100006341
0.2100005112
0.2100004298
0.2100003862
0.2100003973
0.2100004335
0.2100004828
0.2100005262
0.2100005836
0.2100006493
0.2100007237
0.2100007439
0.2100017167
0.2100019951
0.2100024769
0.2100019626
0.2100016441
0.2100012465
0.2100009361
0.2100007035
0.2100005181
0.2100003953
0.210000393
0.2100005399
0.2100008642
0.2100011058
0.2100011225
0.2100010769
0.2100010597
0.2100010616
0.2100009739
0.2100008869
0.2100007924
0.2100006767
0.210000556
0.2100004492
0.2100003773
0.2100003472
0.2100003642
0.2100004109
0.2100004744
0.2100005428
0.2100006185
0.2100006784
0.2100007192
0.2100006505
0.2100014411
0.210001612
0.2100018554
0.2100019334
0.2100019958
0.2100018645
0.2100016094
0.2100012536
0.2100008405
0.2100004891
0.2100003278
0.2100004939
0.2100009932
0.2100012872
0.2100013205
0.2100011375
0.2100011021
0.2100009586
0.2100008213
0.2100007355
0.2100006751
0.210000588
0.2100004933
0.2100004017
0.2100003403
0.2100003185
0.2100003434
0.2100004012
0.2100004765
0.2100005641
0.2100006583
0.2100007055
0.2100006848
0.2100004658
0.2100012656
0.2100014705
0.2100017702
0.2100020548
0.2100023408
0.2100025508
0.2100025922
0.2100023646
0.2100018072
0.2100010301
0.2100005318
0.2100007749
0.2100013946
0.2100016264
0.2100012675
0.2100011005
0.2100009446
0.2100007905
0.2100006858
0.210000598
0.2100005634
0.2100005069
0.2100004424
0.2100003652
0.2100003198
0.2100003033
0.2100003391
0.2100004088
0.2100004882
0.210000578
0.2100006663
0.2100006774
0.2100005591
0.2100002227
0.2100009572
0.2100010608
0.2100012745
0.21000161
0.2100020028
0.2100024181
0.2100027831
0.2100030179
0.2100030031
0.2100026617
0.2100020337
0.2100015381
0.2100017095
0.2100021076
0.2100019559
0.2100013296
0.2100008702
0.2100006919
0.2100006124
0.2100005429
0.2100004549
0.2100004437
0.2100004161
0.2100003988
0.210000333
0.2100003161
0.2100002985
0.2100003455
0.210000419
0.210000489
0.2100005604
0.2100005908
0.2100005308
0.2100003345
0.2100001101
0.2100007554
0.2100008015
0.210000986
0.2100015069
0.2100019585
0.2100024119
0.2100028192
0.2100031355
0.2100032958
0.2100032704
0.2100031074
0.21000293
0.2100028426
0.2100026551
0.2100020479
0.2100011249
0.2100006146
0.2100004415
0.2100004248
0.2100003894
0.2100002974
0.2100003022
0.2100002829
0.2100003582
0.2100003005
0.2100003297
0.2100002869
0.2100003312
0.2100003888
0.2100004234
0.2100004554
0.2100003848
0.2100002839
0.2100001611
0.2100002145
0.2100002727
0.2099999823
0.2100008988
0.2100014279
0.2100019084
0.2100023639
0.21000277
0.2100030951
0.210003316
0.2100034233
0.2100034239
0.2100033275
0.2100030959
0.2100026041
0.2100017566
0.2100004479
0.2100003136
0.2100001743
0.2100001792
0.2100001873
0.2100001152
0.2100001258
0.2100000659
0.2100002048
0.210000284
0.2100002222
0.210000203
0.2100002226
0.210000241
0.2100002643
0.2100002754
0.2100001793
0.2100001485
0.2100001355
0.210000407
0.2100008754
0.2100009299
0.2100012034
0.2100015328
0.2100019142
0.2100023005
0.2100026476
0.2100029212
0.2100031055
0.2100031885
0.2100031559
0.210002978
0.2100026103
0.2100020297
0.2100012013
0.2100004264
0.2100000564
0.2099999143
0.2099998912
0.2099999497
0.2099998822
0.2099999135
0.2099999589
0.2100000254
0.210000066
0.2100000623
0.2100000209
0.2099999925
0.2099999911
0.2100001332
0.2100001852
0.2100002253
0.2100002661
0.2100002007
0.2100006474
0.2100011729
0.2100013477
0.2100015973
0.210001891
0.2100021908
0.2100024558
0.2100026494
0.2100027517
0.2100027449
0.2100026088
0.210002321
0.2100018744
0.2100013126
0.2100007022
0.2100000665
0.2099997987
0.2099997573
0.2099997707
0.2100000282
0.209999764
0.2099997546
0.209999832
0.2099999176
0.209999942
0.2099999258
0.2099998359
0.2099998168
0.2099999373
0.2100002319
0.21000039
0.2100005738
0.2100006643
0.2100005336
0.2100010002
0.2100014675
0.2100015434
0.2100016874
0.2100018727
0.2100020662
0.2100022283
0.2100023234
0.2100023294
0.210002231
0.2100020139
0.2100016714
0.2100012188
0.2099998799
0.209999847
0.2099997463
0.2099998124
0.2099999653
0.2100000625
0.2100001518
0.2100003932
0.2100006543
0.2100008181
0.2100012255
0.2100017359
0.2100018117
0.2100018904
0.2100019431
0.2100019401
0.2100018689
0.209998628
0.2099986619
0.2099987188
0.2099987781
0.2099988526
0.2099988639
0.2099988477
0.2099988165
0.2099987765
0.2099987352
0.2099987036
0.2099986978
0.2099987139
0.2099987317
0.2099987347
0.209998719
0.2099986891
0.2099986547
0.2099986274
0.2099986183
0.2099986342
0.2099986731
0.2099987248
0.2099987758
0.2099988169
0.2099988457
0.2099988637
0.2099988727
0.209998873
0.2099988644
0.2099988491
0.2099988367
0.209998857
0.209999008
0.2099988133
0.2099988884
0.2099989922
0.2099990988
0.2099991879
0.2099992231
0.2099992152
0.2099991801
0.2099991314
0.2099990796
0.2099990411
0.209999039
0.2099990651
0.2099990929
0.2099991011
0.2099990827
0.2099990408
0.2099989843
0.2099989253
0.2099988778
0.2099988549
0.2099988638
0.2099989024
0.2099989595
0.2099990221
0.2099990798
0.2099991264
0.2099991595
0.2099991789
0.209999185
0.2099991812
0.2099991826
0.2099992178
0.2099992963
0.2099990378
0.2099991526
0.2099992991
0.2099994325
0.2099995165
0.2099995521
0.2099995407
0.2099994952
0.2099994331
0.2099993691
0.2099993234
0.2099993165
0.2099993465
0.2099993802
0.2099993961
0.2099993862
0.2099993505
0.2099992941
0.209999226
0.2099991583
0.2099991052
0.2099990797
0.2099990892
0.2099991322
0.209999199
0.2099992743
0.2099993429
0.2099993971
0.2099994363
0.2099994638
0.2099994893
0.2099995419
0.2099996651
0.2099997665
0.2099992437
0.2099994088
0.2099996016
0.2099997548
0.2099998284
0.2099998474
0.209999822
0.2099997621
0.2099996853
0.2099996098
0.2099995594
0.2099995329
0.2099995742
0.2099996135
0.2099996383
0.2099996419
0.2099996218
0.2099995778
0.2099995135
0.2099994379
0.2099993653
0.2099993117
0.2099992923
0.2099993159
0.2099993815
0.2099994712
0.2099995601
0.2099996337
0.2099996911
0.2099997402
0.2099998018
0.2099999338
0.2100002224
0.2100005033
0.2099994188
0.2099996232
0.2099998457
0.2100000151
0.2100000817
0.2100000849
0.2100000441
0.2099999708
0.2099998826
0.2099998005
0.2099997514
0.2099997389
0.2099997771
0.2099998214
0.2099998517
0.2099998651
0.209999859
0.2099998302
0.2099997761
0.2099997012
0.2099996188
0.2099995458
0.2099995045
0.209999511
0.209999574
0.2099996762
0.2099997834
0.2099998751
0.2099999503
0.210000021
0.2100001187
0.210000336
0.2100007545
0.2100011574
0.2099995561
0.2099997777
0.2100000131
0.2100001949
0.2100002635
0.2100002581
0.210000207
0.2100001233
0.2100000301
0.2099999528
0.2099999083
0.210000007
0.2099999997
0.2100000445
0.2100000725
0.210000085
0.2100000818
0.2100000604
0.2100000148
0.2099999434
0.2099998582
0.2099997735
0.2099997189
0.2099997107
0.2099997671
0.209999877
0.2099999989
0.2100001077
0.2100002027
0.2100002988
0.2100004306
0.210000687
0.2100011343
0.2100015678
0.2099996584
0.2099998758
0.2100001085
0.2100002967
0.2100003763
0.2100003716
0.2100003167
0.2100002294
0.2100001342
0.2100000681
0.2100000419
0.2100001181
0.2100002114
0.2100002759
0.2100003054
0.2100003105
0.2100002998
0.2100002746
0.2100002326
0.2100001654
0.2100000866
0.2099999976
0.2099999401
0.2099999169
0.2099999532
0.2100000591
0.2100001887
0.2100003119
0.2100004279
0.2100005524
0.2100007145
0.2100009724