/*--------------------------------*- C++ -*----------------------------------*\
  =========                 |
  \\      /  F ield         | OpenFOAM: The Open Source CFD Toolbox
   \\    /   O peration     | Website:  https://openfoam.org
    \\  /    A nd           | Version:  8
     \\/     M anipulation  |
\*---------------------------------------------------------------------------*/
FoamFile
{
    version     2.0;
    format      ascii;
    class       volScalarField;
    location    "1.6";
    object      p;
}
// * * * * * * * * * * * * * * * * * * * * * * * * * * * * * * * * * * * * * //

dimensions      [1 -1 -2 0 0 0 0];

internalField   nonuniform List<scalar> 
67193
(
100003.9475
100003.9634
100003.971
100003.9694
100003.9696
100003.9648
100003.9577
100003.9513
100003.9471
100003.9457
100003.9461
100003.9487
100003.9463
100003.9446
100003.9429
100003.9412
100003.9399
100003.9392
100003.9393
100003.9399
100003.941
100003.9429
100003.9459
100003.9501
100003.9554
100003.9618
100003.9694
100003.9778
100003.9863
100003.9941
100004.0005
100004.0059
100004.0066
100004.0167
100003.8472
100003.8508
100003.8542
100003.8578
100003.8617
100003.8655
100003.8681
100003.8718
100003.8775
100003.8855
100003.8939
100003.9052
100003.9021
100003.9019
100003.9014
100003.9012
100003.9015
100003.9029
100003.9056
100003.9097
100003.9153
100003.9219
100003.9293
100003.9365
100003.9433
100003.9498
100003.9565
100003.9637
100003.9714
100003.9793
100003.9867
100003.9937
100003.996
100004.0054
100003.8009
100003.8087
100003.8166
100003.8197
100003.8206
100003.8225
100003.8249
100003.8301
100003.8385
100003.8507
100003.8615
100003.8874
100003.8717
100003.8738
100003.8747
100003.8765
100003.8786
100003.8813
100003.8853
100003.8909
100003.8982
100003.9068
100003.9167
100003.9252
100003.9323
100003.9384
100003.9445
100003.9514
100003.9596
100003.9688
100003.9781
100003.988
100003.9934
100004.0034
100003.7636
100003.7777
100003.7927
100003.7983
100003.796
100003.7934
100003.7917
100003.7958
100003.8054
100003.8239
100003.8347
100003.9078
100003.8388
100003.8487
100003.8481
100003.8509
100003.8541
100003.8578
100003.8628
100003.8696
100003.8786
100003.889
100003.903
100003.9128
100003.9202
100003.926
100003.9316
100003.9385
100003.9473
100003.9578
100003.9689
100003.9812
100003.989
100004.0007
100003.7402
100003.7582
100003.7789
100003.7878
100003.7853
100003.7804
100003.7741
100003.775
100003.7847
100003.8137
100003.8173
100003.9826
100003.8109
100003.837
100003.8297
100003.8331
100003.8356
100003.8392
100003.8443
100003.8514
100003.8618
100003.8727
100003.895
100003.9046
100003.9119
100003.917
100003.922
100003.9287
100003.9377
100003.9487
100003.9607
100003.9739
100003.9825
100003.9938
100003.724
100003.742
100003.7655
100003.7774
100003.7769
100003.7728
100003.7643
100003.7621
100003.7687
100003.7941
100003.789
100003.8329
100003.7931
100003.8245
100003.8198
100003.8292
100003.8269
100003.8278
100003.8315
100003.8377
100003.8509
100003.8575
100003.9017
100003.9047
100003.9099
100003.9133
100003.917
100003.9228
100003.9312
100003.9419
100003.9534
100003.9661
100003.9737
100003.9835
100003.7153
100003.7307
100003.7535
100003.7675
100003.7708
100003.7682
100003.7597
100003.7558
100003.7608
100003.7759
100003.7839
100003.7928
100003.795
100003.8242
100003.8256
100003.8536
100003.8351
100003.829
100003.8287
100003.8315
100003.8516
100003.837
100003.9339
100003.9127
100003.9167
100003.9168
100003.9179
100003.9217
100003.9285
100003.9377
100003.947
100003.9579
100003.9632
100003.9723
100003.7152
100003.7279
100003.7479
100003.7627
100003.7685
100003.7678
100003.7603
100003.7558
100003.7603
100003.7745
100003.7859
100003.8119
100003.7998
100003.8519
100003.8496
100003.9477
100003.8685
100003.8488
100003.8409
100003.8335
100003.8719
100003.7969
100003.9514
100003.9093
100003.9281
100003.9266
100003.9257
100003.9269
100003.9306
100003.9362
100003.9412
100003.9485
100003.9508
100003.9611
100003.7228
100003.7335
100003.7505
100003.7653
100003.7724
100003.7732
100003.7667
100003.7616
100003.7656
100003.7788
100003.7897
100003.8137
100003.8033
100003.9043
100003.8795
100004.2652
100003.9378
100003.8938
100003.8747
100003.8507
100003.9169
100003.7461
100003.8386
100003.8842
100003.9536
100003.9443
100003.9436
100003.9426
100003.9409
100003.9394
100003.937
100003.9384
100003.9375
100003.9507
100003.7375
100003.7461
100003.7605
100003.7756
100003.7833
100003.7854
100003.7791
100003.7729
100003.7762
100003.7881
100003.7972
100003.8201
100003.8028
100003.9573
100003.8756
100004.6473
100003.9979
100003.943
100003.925
100003.9343
100004.0132
100003.7953
100003.8769
100003.9962
100004.0527
100003.9685
100003.9784
100003.9782
100003.9682
100003.9538
100003.9394
100003.9324
100003.9274
100003.9443
100003.7593
100003.7658
100003.7779
100003.7935
100003.8018
100003.8046
100003.7975
100003.7884
100003.7907
100003.8011
100003.8079
100003.8158
100003.8077
100003.9293
100003.8544
100003.7911
100003.8844
100003.9279
100003.9421
100004.1943
100004.1527
100003.9903
100004.4338
100004.2938
100003.8766
100003.9384
100004.0428
100004.0559
100004.0297
100003.9906
100003.9571
100003.9388
100003.9268
100003.9476
100003.7898
100003.7941
100003.8034
100003.8189
100003.8284
100003.8322
100003.8227
100003.807
100003.806
100003.815
100003.8195
100003.8109
100003.804
100003.8697
100003.853
100003.8849
100003.9587
100003.9655
100003.8166
100004.7666
100004.2216
100004.0087
100004.1853
100004.0736
100003.7836
100003.9545
100004.1705
100004.2262
100004.1614
100004.0697
100004.0033
100003.9652
100003.9412
100003.9637
100003.83
100003.8309
100003.8376
100003.852
100003.8644
100003.8705
100003.8564
100003.8293
100003.82
100003.8244
100003.8265
100003.816
100003.8083
100003.8302
100003.8381
100003.8509
100003.8519
100003.8352
100003.7726
100003.689
100003.7714
100003.7758
100003.7196
100003.7457
100003.8306
100003.8802
100004.111
100004.5454
100004.4379
100004.2321
100004.0942
100004.0171
100003.9694
100003.9885
100003.8808
100003.8798
100003.8832
100003.8945
100003.9102
100003.9179
100003.8973
100003.8561
100003.8337
100003.8351
100003.8395
100003.8302
100003.828
100003.8397
100003.8356
100003.837
100003.8513
100003.8234
100003.8243
100003.8962
100003.8915
100003.7875
100003.8307
100003.8602
100004.002
100003.9492
100004.0477
100006.1736
100005.2286
100004.5685
100004.2484
100004.084
100004
100004.009
100003.9388
100003.9451
100003.9488
100003.9501
100003.9625
100003.9667
100003.9382
100003.8838
100003.8463
100003.8406
100003.8431
100003.8328
100003.8241
100003.8259
100003.832
100003.8404
100003.9204
100003.8152
100003.7919
100003.7794
100003.7731
100003.7834
100003.887
100003.7728
100003.9331
100003.7386
100004.038
100009.3254
100006.9954
100005.0338
100004.3979
100004.1205
100004.0053
100004.0049
100004.0097
100004.0304
100004.058
100004.0232
100004.0163
100004.0049
100003.9658
100003.9027
100003.8544
100003.8418
100003.8413
100003.8318
100003.8236
100003.8229
100003.8203
100003.8125
100003.7966
100003.7825
100003.7745
100003.7779
100003.7948
100003.8132
100003.8923
100003.8185
100003.8063
100003.5127
100003.7286
100003.7779
100004.0619
100004.2109
100004.1176
100004.019
100003.9601
100003.9677
100004.1048
100004.1486
100004.2763
100004.1146
100004.0771
100004.0246
100003.9663
100003.8968
100003.8446
100003.8302
100003.8312
100003.8234
100003.815
100003.8132
100003.8084
100003.7983
100003.7865
100003.7743
100003.7704
100003.7706
100003.7764
100003.7835
100003.7923
100003.7279
100003.7423
100003.6354
100003.6873
100004.103
100004.1375
100004.0061
100003.9495
100003.9201
100003.9064
100003.9198
100004.251
100004.3263
100004.8128
100004.2464
100004.2035
100004.051
100003.955
100003.8802
100003.8371
100003.8228
100003.8143
100003.7982
100003.7998
100003.7988
100003.7944
100003.7846
100003.776
100003.7743
100003.7828
100003.7796
100003.7851
100003.7925
100003.8014
100003.7538
100003.8166
100003.7113
100003.8755
100003.8928
100003.9597
100003.9153
100003.8924
100003.881
100003.8778
100003.8894
100004.4233
100004.4534
100005.3525
100004.3429
100004.1843
100004.0215
100003.9281
100003.8643
100003.831
100003.8146
100003.8
100003.7839
100003.7847
100003.7823
100003.781
100003.7727
100003.7742
100003.7996
100003.879
100003.8078
100003.7971
100003.7904
100003.7792
100003.7515
100003.767
100003.7274
100003.7924
100003.7861
100003.8347
100003.8437
100003.8493
100003.8564
100003.8592
100003.8717
100004.9029
100005.3977
100009.1309
100005.1864
100004.6757
100004.2103
100003.9707
100003.8714
100003.8283
100003.8027
100003.7823
100003.7696
100003.7701
100003.765
100003.7743
100003.7603
100003.7637
100003.7759
100003.7946
100003.7971
100003.7912
100003.7803
100003.7698
100003.7616
100003.7741
100003.7566
100003.8154
100003.8013
100003.8205
100003.8246
100003.8321
100003.8438
100003.8481
100003.8619
100004.2293
100004.2511
100004.6199
100004.152
100004.0199
100003.9338
100003.8859
100003.8447
100003.8167
100003.794
100003.7744
100003.762
100003.7662
100003.7605
100003.7848
100003.7653
100003.7778
100003.7901
100003.7982
100003.7907
100003.7813
100003.7729
100003.7694
100003.77
100003.7769
100003.7753
100003.7971
100003.8017
100003.8127
100003.8201
100003.8274
100003.8403
100003.846
100003.8608
100004.1524
100004.2494
100004.6526
100004.3107
100004.1496
100004.0196
100003.8974
100003.8509
100003.8215
100003.7977
100003.7787
100003.764
100003.7678
100003.7699
100003.7981
100003.7755
100003.788
100003.7945
100003.7919
100003.7827
100003.7762
100003.7732
100003.776
100003.7815
100003.7877
100003.7918
100003.8004
100003.8071
100003.8163
100003.8243
100003.8316
100003.8449
100003.853
100003.8696
100004.0198
100004.0367
100004.0603
100003.9809
100003.9263
100003.8832
100003.8553
100003.8351
100003.8205
100003.8051
100003.7914
100003.779
100003.7736
100003.7779
100003.7764
100003.7864
100003.7973
100003.795
100003.7871
100003.7818
100003.779
100003.7805
100003.7888
100003.7966
100003.8031
100003.8062
100003.8097
100003.8152
100003.8252
100003.8348
100003.8437
100003.8601
100003.8711
100003.8908
100003.9884
100003.9831
100003.971
100003.9124
100003.8669
100003.8486
100003.8325
100003.825
100003.8214
100003.8133
100003.8004
100003.7839
100003.7678
100003.7669
100003.7852
100003.7903
100003.7962
100003.7875
100003.7881
100003.7878
100003.7889
100003.7941
100003.8076
100003.8146
100003.821
100003.8208
100003.8221
100003.8269
100003.8394
100003.8504
100003.8634
100003.886
100003.8971
100003.9169
100004.0117
100004.0188
100003.9963
100003.9481
100003.878
100003.8238
100003.8001
100003.7964
100003.801
100003.8065
100003.8096
100003.8039
100003.788
100003.7836
100003.7745
100003.844
100003.804
100003.814
100003.7953
100003.8012
100003.7995
100003.8036
100003.8128
100003.8381
100003.8365
100003.8444
100003.8373
100003.8386
100003.8432
100003.8572
100003.8669
100003.8796
100003.9059
100003.9097
100003.9376
100004.0576
100004.0973
100004.1505
100003.9862
100003.8853
100003.8157
100003.7862
100003.782
100003.7885
100003.7962
100003.8013
100003.804
100003.8035
100003.8051
100003.7954
100003.8583
100003.8187
100003.8394
100003.8093
100003.8187
100003.8133
100003.8214
100003.8381
100003.9041
100003.8624
100003.8798
100003.8569
100003.8554
100003.8578
100003.8622
100003.8658
100003.8628
100003.893
100003.8911
100003.9481
100004.2697
100004.4355
100004.1374
100003.9968
100003.8919
100003.8186
100003.7827
100003.7741
100003.7793
100003.7888
100003.7983
100003.8069
100003.8199
100003.8519
100003.8337
100004.2775
100003.8626
100003.8834
100003.83
100003.8373
100003.8311
100003.845
100003.8731
100004.2239
100003.8884
100003.9012
100003.8671
100003.859
100003.8463
100003.8348
100003.832
100003.8063
100003.8437
100003.8602
100003.9565
100004.0122
100004.0142
100004.0014
100003.9474
100003.8828
100003.8227
100003.7861
100003.7741
100003.7766
100003.7855
100003.7965
100003.8075
100003.8211
100003.8253
100003.8359
100003.8529
100003.849
100003.8584
100003.8468
100003.8613
100003.8441
100003.8397
100003.8482
100003.8978
100003.8668
100003.8697
100003.8624
100003.8447
100003.8162
100003.7999
100003.7977
100003.7687
100003.8068
100003.8379
100004.0396
100004.0422
100004.0039
100003.9512
100003.8905
100003.8356
100003.7983
100003.7819
100003.7802
100003.7865
100003.7968
100003.809
100003.8307
100003.8235
100003.8756
100003.8723
100003.8693
100003.8688
100003.8666
100003.9094
100003.8573
100003.8417
100003.8409
100003.8588
100003.8565
100003.8636
100003.8623
100003.8419
100003.8389
100003.8839
100003.9318
100003.9698
100004.0005
100003.9227
100004.2528
100003.9663
100003.9589
100003.9328
100003.893
100003.8493
100003.8147
100003.7951
100003.7889
100003.7912
100003.7984
100003.8087
100003.8272
100003.864
100003.8771
100003.8792
100003.8932
100003.9934
100004.1679
100004.2986
100004.4196
100004.4534
100004.2292
100004.5535
100003.9523
100003.9134
100003.87
100003.8344
100003.8118
100003.8013
100003.7673
100003.7678
100003.7721
100003.7799
100003.7904
100003.7959
100003.7989
100003.8008
100003.8035
100003.8077
100003.8126
100003.8161
100003.8155
100003.8136
100003.8117
100003.8103
100003.8097
100003.8098
100003.8106
100003.8123
100003.8149
100003.8185
100003.823
100003.8282
100003.834
100003.8404
100003.8475
100003.8552
100003.8633
100003.8712
100003.8781
100003.884
100003.8856
100003.8966
100003.682
100003.677
100003.678
100003.6855
100003.6961
100003.7073
100003.7183
100003.7287
100003.7393
100003.7504
100003.7608
100003.7685
100003.7701
100003.7704
100003.7702
100003.7706
100003.7719
100003.7744
100003.7782
100003.7834
100003.7901
100003.798
100003.8065
100003.8148
100003.8222
100003.8287
100003.8349
100003.8416
100003.8491
100003.8573
100003.8652
100003.8728
100003.8754
100003.8849
100003.6429
100003.643
100003.6452
100003.6498
100003.657
100003.6662
100003.6766
100003.6877
100003.6995
100003.712
100003.7224
100003.7288
100003.733
100003.7374
100003.7405
100003.744
100003.748
100003.7524
100003.7577
100003.764
100003.7718
100003.7808
100003.791
100003.8007
100003.8091
100003.8158
100003.8215
100003.8281
100003.8363
100003.8461
100003.8564
100003.8675
100003.8728
100003.8835
100003.6086
100003.611
100003.6161
100003.6214
100003.6283
100003.6356
100003.6432
100003.6527
100003.6634
100003.675
100003.6809
100003.6605
100003.6861
100003.7002
100003.7072
100003.7143
100003.7215
100003.7282
100003.7347
100003.7415
100003.7497
100003.7593
100003.7712
100003.7828
100003.7928
100003.8003
100003.8065
100003.8138
100003.8231
100003.8345
100003.8468
100003.8608
100003.8695
100003.8811
100003.5855
100003.5901
100003.5982
100003.6048
100003.6117
100003.6173
100003.6227
100003.6299
100003.6388
100003.6476
100003.6488
100003.4989
100003.6316
100003.6648
100003.6758
100003.6861
100003.6963
100003.7055
100003.713
100003.7196
100003.7268
100003.735
100003.748
100003.7621
100003.7751
100003.7852
100003.7932
100003.8018
100003.8121
100003.8245
100003.8377
100003.8525
100003.8624
100003.8734
100003.5731
100003.5782
100003.5876
100003.5954
100003.6026
100003.6076
100003.6113
100003.6169
100003.6251
100003.6358
100003.6454
100003.5562
100003.6241
100003.6428
100003.6519
100003.6617
100003.6737
100003.6848
100003.6924
100003.6969
100003.7008
100003.7026
100003.7123
100003.731
100003.7515
100003.7686
100003.7811
100003.7919
100003.8034
100003.8161
100003.8289
100003.8426
100003.8511
100003.8612
100003.5701
100003.575
100003.5842
100003.5924
100003.5994
100003.6043
100003.607
100003.6116
100003.62
100003.6343
100003.644
100003.6208
100003.6258
100003.6336
100003.6378
100003.6407
100003.6547
100003.6676
100003.6738
100003.6733
100003.6706
100003.6565
100003.6445
100003.674
100003.7099
100003.7436
100003.7668
100003.783
100003.7964
100003.8091
100003.82
100003.8311
100003.8374
100003.8475
100003.5748
100003.5795
100003.5878
100003.5956
100003.6016
100003.6063
100003.6082
100003.6117
100003.6199
100003.6345
100003.6432
100003.6283
100003.6209
100003.6245
100003.6247
100003.6113
100003.6342
100003.6524
100003.6567
100003.6489
100003.6385
100003.597
100003.4887
100003.563
100003.628
100003.6981
100003.7445
100003.7719
100003.7896
100003.802
100003.8096
100003.8167
100003.8209
100003.8329
100003.5844
100003.5889
100003.5964
100003.6039
100003.609
100003.613
100003.6145
100003.6169
100003.6249
100003.6385
100003.6437
100003.6244
100003.6139
100003.6052
100003.6006
100003.4958
100003.5971
100003.6333
100003.6401
100003.6249
100003.6142
100003.5592
100003.1857
100003.3468
100003.4563
100003.6149
100003.7062
100003.755
100003.781
100003.7937
100003.7963
100003.7989
100003.8014
100003.817
100003.5991
100003.6031
100003.6098
100003.617
100003.6214
100003.6238
100003.6248
100003.6264
100003.6344
100003.6468
100003.647
100003.6223
100003.6053
100003.5498
100003.5607
100002.8926
100003.5282
100003.6088
100003.6243
100003.6067
100003.6252
100003.6135
100003.0394
100003.1295
100003.1477
100003.4877
100003.6466
100003.7288
100003.7698
100003.784
100003.7807
100003.7801
100003.7806
100003.801
100003.6208
100003.6234
100003.629
100003.6353
100003.6382
100003.6373
100003.6375
100003.6381
100003.6465
100003.6588
100003.6551
100003.6249
100003.6002
100003.5286
100003.5935
100003.4796
100003.5961
100003.6273
100003.6148
100003.5795
100003.7188
100003.8136
100003.2509
100003.1115
100003.0277
100003.3749
100003.571
100003.6879
100003.7542
100003.7724
100003.7655
100003.7661
100003.7648
100003.7884
100003.6498
100003.65
100003.6535
100003.6572
100003.6581
100003.6535
100003.6519
100003.6503
100003.6578
100003.6723
100003.6683
100003.6321
100003.5828
100003.5495
100003.6185
100003.6018
100003.5725
100003.6108
100003.5256
100003.0928
100003.5617
100003.5814
100003.1394
100003.0432
100003.0472
100003.3201
100003.4791
100003.5896
100003.7175
100003.7506
100003.7501
100003.7588
100003.7581
100003.7843
100003.6864
100003.6832
100003.6819
100003.6811
100003.68
100003.6732
100003.6685
100003.663
100003.6675
100003.6838
100003.6886
100003.6662
100003.6503
100003.6541
100003.6583
100003.647
100003.6327
100003.6234
100003.5771
100003.4713
100003.5546
100003.5755
100003.465
100003.4074
100003.3884
100003.3812
100003.2477
100003.2063
100003.6031
100003.6911
100003.7292
100003.7547
100003.7577
100003.7874
100003.7261
100003.7208
100003.7158
100003.7081
100003.7045
100003.6959
100003.6868
100003.6756
100003.6742
100003.6884
100003.7008
100003.6827
100003.6698
100003.665
100003.6618
100003.653
100003.6414
100003.6302
100003.6055
100003.5722
100003.5803
100003.5683
100003.4911
100003.4431
100003.4083
100003.2813
100002.7178
100002.3294
100003.3529
100003.5319
100003.6778
100003.742
100003.7561
100003.7892
100003.7699
100003.7668
100003.7662
100003.7423
100003.732
100003.7183
100003.7031
100003.6847
100003.677
100003.6853
100003.7012
100003.6865
100003.6716
100003.664
100003.6582
100003.6435
100003.5874
100003.6191
100003.6112
100003.5956
100003.5933
100003.5925
100003.5909
100003.479
100003.2952
100003.0531
100001.8426
99997.93125
100002.5195
100003.0952
100003.58
100003.7164
100003.7469
100003.7816
100003.8267
100003.8238
100003.8654
100003.7908
100003.7652
100003.737
100003.7124
100003.687
100003.6738
100003.6767
100003.6903
100003.679
100003.6655
100003.6578
100003.651
100003.6394
100003.6186
100003.6172
100003.6118
100003.6099
100003.6172
100003.6408
100003.7557
100003.5611
100003.3585
100003.2192
100002.4779
100002.5672
100003.1181
100003.4524
100003.637
100003.7118
100003.7362
100003.7663
100003.9105
100003.9034
100004.0827
100003.8687
100003.813
100003.7538
100003.7129
100003.6805
100003.6633
100003.6627
100003.6739
100003.6636
100003.6528
100003.6466
100003.6403
100003.6316
100003.6211
100003.6184
100003.6149
100003.6188
100003.6286
100003.6413
100003.6477
100003.5804
100003.5123
100003.4262
100003.2133
100003.1886
100003.4346
100003.571
100003.6575
100003.7022
100003.7252
100003.7536
100004.0567
100004.0528
100004.5895
100003.9939
100003.8975
100003.7807
100003.715
100003.6758
100003.6579
100003.6601
100003.6562
100003.6427
100003.6369
100003.6331
100003.6289
100003.6235
100003.618
100003.6221
100003.6272
100003.6309
100003.6415
100003.6511
100003.645
100003.6033
100003.5966
100003.5275
100003.4868
100003.5311
100003.6131
100003.6514
100003.6863
100003.7111
100003.7277
100003.749
100004.1941
100004.1994
100005.4064
100004.0496
100003.9397
100003.7939
100003.7173
100003.6733
100003.6573
100003.6542
100003.6371
100003.628
100003.6243
100003.6217
100003.6202
100003.6183
100003.6141
100003.6288
100003.6251
100003.6466
100003.652
100003.6505
100003.637
100003.6115
100003.6103
100003.5818
100003.5792
100003.6008
100003.6409
100003.6675
100003.6885
100003.708
100003.7192
100003.7374
100004.7121
100005.215
100009.6022
100004.4667
100004.3311
100003.9529
100003.7684
100003.6918
100003.6658
100003.6475
100003.6274
100003.6196
100003.617
100003.6156
100003.6174
100003.6137
100003.6126
100003.6185
100003.6236
100003.6515
100003.6513
100003.6418
100003.6313
100003.6221
100003.6264
100003.6177
100003.6374
100003.6492
100003.6673
100003.6777
100003.6876
100003.7012
100003.7103
100003.7278
100003.9175
100003.8373
100003.9533
100003.7228
100003.7569
100003.7
100003.6814
100003.6737
100003.6637
100003.6434
100003.6258
100003.6187
100003.617
100003.6171
100003.6235
100003.6213
100003.6271
100003.6455
100003.652
100003.6533
100003.6444
100003.6355
100003.6307
100003.6304
100003.6357
100003.6378
100003.6518
100003.6642
100003.6773
100003.6838
100003.6889
100003.7
100003.7084
100003.7252
100003.9552
100004.0493
100004.3558
100003.9653
100003.8763
100003.7209
100003.6947
100003.6798
100003.6707
100003.6511
100003.6322
100003.6232
100003.6216
100003.6264
100003.63
100003.6318
100003.6455
100003.6571
100003.6513
100003.6473
100003.6401
100003.6347
100003.6351
100003.639
100003.6459
100003.6522
100003.6624
100003.6728
100003.6843
100003.6911
100003.6945
100003.7042
100003.7135
100003.7302
100003.792
100003.7646
100003.778
100003.6992
100003.6871
100003.6881
100003.6858
100003.6854
100003.681
100003.6665
100003.647
100003.6325
100003.6226
100003.6164
100003.5868
100003.6316
100003.6514
100003.6519
100003.6441
100003.6447
100003.6415
100003.6395
100003.6438
100003.6499
100003.6583
100003.6644
100003.672
100003.6802
100003.6916
100003.7016
100003.7064
100003.7152
100003.7266
100003.7445
100003.75
100003.7203
100003.7221
100003.6781
100003.6569
100003.6549
100003.665
100003.676
100003.6815
100003.6787
100003.6656
100003.6473
100003.6395
100003.6383
100003.644
100003.6586
100003.6564
100003.6465
100003.6446
100003.6469
100003.6483
100003.6481
100003.6572
100003.6635
100003.6743
100003.6767
100003.6822
100003.6885
100003.6994
100003.7131
100003.7206
100003.7296
100003.744
100003.762
100003.7617
100003.7167
100003.671
100003.656
100003.633
100003.6187
100003.6217
100003.6385
100003.6564
100003.6678
100003.6738
100003.6725
100003.6587
100003.652
100003.6388
100003.6476
100003.661
100003.659
100003.6503
100003.6511
100003.6526
100003.6577
100003.6566
100003.6768
100003.6796
100003.6968
100003.6908
100003.6937
100003.698
100003.7047
100003.7204
100003.7241
100003.7322
100003.7467
100003.7699
100003.7632
100003.7213
100003.6148
100003.6325
100003.6172
100003.6051
100003.6056
100003.6236
100003.644
100003.6579
100003.6648
100003.6674
100003.6644
100003.6601
100003.6277
100003.5946
100003.6512
100003.6656
100003.6572
100003.661
100003.6605
100003.6666
100003.6483
100003.7011
100003.7029
100003.7387
100003.7071
100003.7052
100003.7024
100003.6845
100003.702
100003.6785
100003.6762
100003.7008
100003.7577
100003.5778
100003.2778
100003.6723
100003.6604
100003.6425
100003.6215
100003.6134
100003.6238
100003.6405
100003.6556
100003.6667
100003.6739
100003.6759
100003.6723
100003.6049
100003.3912
100003.6295
100003.6818
100003.6689
100003.6801
100003.6771
100003.6774
100003.5918
100003.7436
100003.7606
100003.7282
100003.7089
100003.6968
100003.6668
100003.6092
100003.6261
100003.5638
100003.5521
100003.581
100003.7022
100003.7465
100003.7356
100003.7261
100003.6921
100003.6589
100003.6324
100003.6198
100003.6245
100003.6379
100003.6529
100003.6664
100003.6773
100003.6844
100003.6908
100003.6542
100003.6585
100003.6883
100003.7124
100003.7028
100003.7385
100003.7079
100003.687
100003.6591
100003.6746
100003.6954
100003.6984
100003.6937
100003.6616
100003.6028
100003.5385
100003.5337
100003.4849
100003.5044
100003.4384
100003.5949
100003.7124
100003.7188
100003.6975
100003.6701
100003.647
100003.6332
100003.6326
100003.6412
100003.6535
100003.6664
100003.6779
100003.6854
100003.6975
100003.6106
100003.688
100003.7064
100003.7329
100003.7328
100003.9241
100003.7365
100003.69
100003.6737
100003.6859
100003.6839
100003.6829
100003.6751
100003.6215
100003.5866
100003.5753
100003.572
100003.5474
100003.5631
100003.4203
100003.5059
100003.7498
100003.7463
100003.7286
100003.7027
100003.6757
100003.6559
100003.6485
100003.651
100003.6587
100003.6687
100003.6801
100003.6941
100003.6826
100003.6875
100003.6716
100003.6397
100003.6356
100003.6639
100003.6976
100003.6733
100003.641
100003.5225
100003.5391
100003.7582
100003.7226
100003.6933
100003.6731
100003.6645
100003.6634
100003.6017
100003.6034
100003.6066
100003.6105
100003.6161
100003.6221
100003.6275
100003.6327
100003.6382
100003.6442
100003.6499
100003.6542
100003.6569
100003.6585
100003.6595
100003.6603
100003.661
100003.6618
100003.6631
100003.6651
100003.6682
100003.6726
100003.6783
100003.6849
100003.6922
100003.6999
100003.7079
100003.7161
100003.7239
100003.7311
100003.7369
100003.7419
100003.7431
100003.7551
100003.5564
100003.5528
100003.5516
100003.5535
100003.5575
100003.5654
100003.5744
100003.5841
100003.5941
100003.6038
100003.6118
100003.617
100003.6204
100003.6228
100003.6247
100003.6267
100003.6293
100003.6327
100003.6371
100003.6424
100003.6488
100003.6561
100003.6641
100003.6722
100003.6802
100003.688
100003.6957
100003.7035
100003.7114
100003.719
100003.7256
100003.7318
100003.7337
100003.7435
100003.5244
100003.5221
100003.5221
100003.5232
100003.5271
100003.5337
100003.542
100003.552
100003.5628
100003.5732
100003.5817
100003.586
100003.5906
100003.5947
100003.5983
100003.6022
100003.6066
100003.6117
100003.6175
100003.6241
100003.6318
100003.6403
100003.6494
100003.6586
100003.6674
100003.6757
100003.6839
100003.6924
100003.7013
100003.7106
100003.7192
100003.7281
100003.731
100003.7414
100003.4916
100003.4917
100003.4935
100003.4957
100003.4997
100003.506
100003.5137
100003.5226
100003.5333
100003.5442
100003.5539
100003.5521
100003.5608
100003.5666
100003.5715
100003.5768
100003.5827
100003.5889
100003.5956
100003.6031
100003.6115
100003.6209
100003.6313
100003.6418
100003.6517
100003.661
100003.6702
100003.6799
100003.6902
100003.7013
100003.7119
100003.7231
100003.7297
100003.7398
100003.4683
100003.4691
100003.4722
100003.4757
100003.4801
100003.4859
100003.4932
100003.5023
100003.5127
100003.5242
100003.5375
100003.5226
100003.5387
100003.5439
100003.5489
100003.5547
100003.5612
100003.5682
100003.5753
100003.5829
100003.5917
100003.6012
100003.6125
100003.6241
100003.6351
100003.6459
100003.6565
100003.6676
100003.6794
100003.6917
100003.7034
100003.715
100003.7231
100003.7318
100003.4529
100003.4538
100003.4579
100003.4627
100003.4676
100003.4733
100003.48
100003.4896
100003.5009
100003.5158
100003.5267
100003.5037
100003.5238
100003.5301
100003.5336
100003.5383
100003.5441
100003.5507
100003.5576
100003.5649
100003.5743
100003.5831
100003.5953
100003.6067
100003.6179
100003.6304
100003.6428
100003.6555
100003.6684
100003.6813
100003.6928
100003.7038
100003.7104
100003.7178
100003.4454
100003.4464
100003.4509
100003.4563
100003.4616
100003.4673
100003.4735
100003.4829
100003.4957
100003.5167
100003.521
100003.5112
100003.517
100003.5211
100003.525
100003.5305
100003.5347
100003.5391
100003.5451
100003.5521
100003.5645
100003.5726
100003.5872
100003.5958
100003.6024
100003.6148
100003.6289
100003.6433
100003.6573
100003.6702
100003.6808
100003.6907
100003.6955
100003.7023
100003.4456
100003.4466
100003.4509
100003.4565
100003.4617
100003.4672
100003.4727
100003.4808
100003.4922
100003.5074
100003.5157
100003.5132
100003.5123
100003.5171
100003.5217
100003.5273
100003.5351
100003.5359
100003.5408
100003.5468
100003.5686
100003.5774
100003.5989
100003.5993
100003.5943
100003.6021
100003.6147
100003.6305
100003.6456
100003.6584
100003.6679
100003.6765
100003.6802
100003.6871
100003.4528
100003.4537
100003.4576
100003.4629
100003.4677
100003.4727
100003.4776
100003.4847
100003.4952
100003.5075
100003.515
100003.5132
100003.5105
100003.5169
100003.5217
100003.5188
100003.5315
100003.5391
100003.5453
100003.5444
100003.5894
100003.6013
100003.645
100003.6248
100003.5929
100003.5965
100003.6019
100003.6169
100003.6332
100003.646
100003.6543
100003.6617
100003.6647
100003.6727
100003.4665
100003.467
100003.4701
100003.4749
100003.4791
100003.4834
100003.4878
100003.4943
100003.5045
100003.5152
100003.5205
100003.5167
100003.509
100003.5125
100003.514
100003.456
100003.5139
100003.532
100003.5543
100003.5282
100003.6208
100003.6224
100003.6492
100003.6475
100003.5943
100003.5976
100003.5915
100003.6034
100003.6205
100003.6339
100003.6415
100003.6486
100003.651
100003.6601
100003.4869
100003.4864
100003.4883
100003.4918
100003.495
100003.4981
100003.502
100003.5083
100003.5188
100003.529
100003.5321
100003.523
100003.5072
100003.5057
100003.5114
100003.4552
100003.4946
100003.5188
100003.5542
100003.4979
100003.6393
100003.6002
100003.6459
100003.6387
100003.6249
100003.5962
100003.5792
100003.5908
100003.6091
100003.6238
100003.632
100003.6391
100003.6411
100003.652
100003.5139
100003.5116
100003.5114
100003.5126
100003.5141
100003.5155
100003.5185
100003.5244
100003.5362
100003.547
100003.5492
100003.5333
100003.5086
100003.5048
100003.5171
100003.4999
100003.4844
100003.4974
100003.5127
100003.3316
100003.5482
100003.5205
100003.6077
100003.5654
100003.5793
100003.5725
100003.5511
100003.5759
100003.6004
100003.6183
100003.6279
100003.635
100003.6363
100003.6496
100003.5466
100003.5421
100003.5387
100003.5358
100003.5347
100003.5341
100003.5353
100003.5399
100003.5525
100003.5657
100003.5692
100003.5537
100003.5339
100003.5288
100003.5273
100003.514
100003.4895
100003.4967