/*--------------------------------*- C++ -*----------------------------------*\
  =========                 |
  \\      /  F ield         | OpenFOAM: The Open Source CFD Toolbox
   \\    /   O peration     | Website:  https://openfoam.org
    \\  /    A nd           | Version:  8
     \\/     M anipulation  |
\*---------------------------------------------------------------------------*/
FoamFile
{
    version     2.0;
    format      ascii;
    class       volScalarField;
    location    "0.2";
    object      alphat;
}
// * * * * * * * * * * * * * * * * * * * * * * * * * * * * * * * * * * * * * //

dimensions      [1 -1 -1 0 0 0 0];

internalField   nonuniform List<scalar> 
67451
(
7.404888752e-07
7.404701917e-07
7.404503568e-07
7.404237383e-07
7.403900352e-07
7.403498924e-07
7.403049674e-07
7.402573194e-07
7.402094131e-07
7.401628531e-07
7.401217832e-07
7.405454835e-07
7.405465728e-07
7.405500288e-07
7.405517713e-07
7.40547886e-07
7.405405776e-07
7.405262324e-07
7.405032618e-07
7.404711877e-07
7.404305223e-07
7.403826016e-07
7.403291667e-07
7.402719942e-07
7.402142683e-07
7.401599041e-07
7.401126257e-07
7.400698886e-07
7.400352941e-07
7.40011545e-07
7.399999739e-07
7.399947098e-07
7.399917001e-07
7.399885247e-07
7.399260459e-07
7.38488521e-07
6.010628648e-07
7.405776918e-07
7.405860422e-07
7.405946339e-07
7.406048489e-07
7.406146259e-07
7.406231153e-07
7.406285824e-07
7.406284599e-07
7.406201094e-07
7.40600962e-07
7.405701667e-07
7.405283453e-07
7.404773115e-07
7.404193784e-07
7.403568504e-07
7.40291691e-07
7.402254932e-07
7.40160402e-07
7.401028536e-07
7.40055511e-07
7.400199382e-07
7.400001105e-07
7.399940168e-07
7.399907594e-07
7.399874142e-07
7.399248426e-07
7.384870119e-07
6.010635159e-07
7.40641124e-07
7.406490663e-07
7.406624755e-07
7.40676838e-07
7.406921646e-07
7.407076533e-07
7.407211446e-07
7.407289273e-07
7.407273344e-07
7.407124013e-07
7.406826506e-07
7.406389621e-07
7.405838894e-07
7.405204735e-07
7.404516129e-07
7.403796684e-07
7.403063871e-07
7.402331932e-07
7.401612335e-07
7.400931757e-07
7.400404993e-07
7.400051041e-07
7.399951272e-07
7.39991732e-07
7.399882977e-07
7.399256416e-07
7.38487631e-07
6.010663267e-07
7.40726438e-07
7.407383681e-07
7.407560291e-07
7.407762889e-07
7.407986294e-07
7.408204376e-07
7.408366989e-07
7.408428919e-07
7.408327e-07
7.408037698e-07
7.407576423e-07
7.406978597e-07
7.406284483e-07
7.40552878e-07
7.404738073e-07
7.40393073e-07
7.403120665e-07
7.402320783e-07
7.401544471e-07
7.400805623e-07
7.400217299e-07
7.3999607e-07
7.399924748e-07
7.399890238e-07
7.399262933e-07
7.384882095e-07
6.010691123e-07
7.408054133e-07
7.408174129e-07
7.408368828e-07
7.408607456e-07
7.408889204e-07
7.409184421e-07
7.409434902e-07
7.409581625e-07
7.409534749e-07
7.409253426e-07
7.40876641e-07
7.408122412e-07
7.407370946e-07
7.406552523e-07
7.405694514e-07
7.404815787e-07
7.403928899e-07
7.403046751e-07
7.402184562e-07
7.40136104e-07
7.400594381e-07
7.400031031e-07
7.399930976e-07
7.399895334e-07
7.399267355e-07
7.384886978e-07
6.01071723e-07
7.408835472e-07
7.408931957e-07
7.409123707e-07
7.409376048e-07
7.409694973e-07
7.410052783e-07
7.410381898e-07
7.410612208e-07
7.410625014e-07
7.410353921e-07
7.40984951e-07
7.409170645e-07
7.40837719e-07
7.407511996e-07
7.406602934e-07
7.405665182e-07
7.404709267e-07
7.403748551e-07
7.402801597e-07
7.401891933e-07
7.401047915e-07
7.40032894e-07
7.399937122e-07
7.399897825e-07
7.399269294e-07
7.384890644e-07
6.010740122e-07
7.409532998e-07
7.409571213e-07
7.409734484e-07
7.409970313e-07
7.410297157e-07
7.410686769e-07
7.411069195e-07
7.411367109e-07
7.411457679e-07
7.411192466e-07
7.410687487e-07
7.410002117e-07
7.40919801e-07
7.408317531e-07
7.407384058e-07
7.406409364e-07
7.405401995e-07
7.404375053e-07
7.403350245e-07
7.402357598e-07
7.401446738e-07
7.400669907e-07
7.400045725e-07
7.399897698e-07
7.399268158e-07
7.384892698e-07
6.010758179e-07
7.410044213e-07
7.410002549e-07
7.410119614e-07
7.41031108e-07
7.41061067e-07
7.410982049e-07
7.411356543e-07
7.411652374e-07
7.41174195e-07
7.411548611e-07
7.411113782e-07
7.410488849e-07
7.409729739e-07
7.408876688e-07
7.407953744e-07
7.406970956e-07
7.405934559e-07
7.404858912e-07
7.40377174e-07
7.402713674e-07
7.401756408e-07
7.400931868e-07
7.400254405e-07
7.399894107e-07
7.399263601e-07
7.384892791e-07
6.010769833e-07
7.41029209e-07
7.410153072e-07
7.41021536e-07
7.410350397e-07
7.410609916e-07
7.410947719e-07
7.41130245e-07
7.411593944e-07
7.41170416e-07
7.411558987e-07
7.41118891e-07
7.410633482e-07
7.409936977e-07
7.409134592e-07
7.408245713e-07
7.407277836e-07
7.40623517e-07
7.405133454e-07
7.404006657e-07
7.402921864e-07
7.401940002e-07
7.40108067e-07
7.400376641e-07
7.399888747e-07
7.39925509e-07
7.384890599e-07
6.010773516e-07
7.410062519e-07
7.409913241e-07
7.4099551e-07
7.410064047e-07
7.410294273e-07
7.410600568e-07
7.41092853e-07
7.411199908e-07
7.41131451e-07
7.411215443e-07
7.410909995e-07
7.410424192e-07
7.409793385e-07
7.409048014e-07
7.408204823e-07
7.40727139e-07
7.406245658e-07
7.40514279e-07
7.404015102e-07
7.402942029e-07
7.401956463e-07
7.401091818e-07
7.400393529e-07
7.399900246e-07
7.399242562e-07
7.384885958e-07
6.010768415e-07
7.409456314e-07
7.409332907e-07
7.409376424e-07
7.409484901e-07
7.40970205e-07
7.409989291e-07
7.410297838e-07
7.410554367e-07
7.410673834e-07
7.410601301e-07
7.410336175e-07
7.40989561e-07
7.409308054e-07
7.40860009e-07
7.407788328e-07
7.406881062e-07
7.405882549e-07
7.404815843e-07
7.403752809e-07
7.402730641e-07
7.401782039e-07
7.400950298e-07
7.400296743e-07
7.399862991e-07
7.399226156e-07
7.384878904e-07
6.010754108e-07
7.408545941e-07
7.408475023e-07
7.408537673e-07
7.408664318e-07
7.408882368e-07
7.409160787e-07
7.409456003e-07
7.409699982e-07
7.409819235e-07
7.40975688e-07
7.409510149e-07
7.409092396e-07
7.408529441e-07
7.407846655e-07
7.407062154e-07
7.406187e-07
7.405232744e-07
7.404251947e-07
7.403273373e-07
7.402322449e-07
7.401445329e-07
7.400692433e-07
7.400108171e-07
7.399831412e-07
7.399206549e-07
7.384869695e-07
6.010731029e-07
7.407447828e-07
7.407427404e-07
7.40751405e-07
7.407662567e-07
7.407885405e-07
7.408157834e-07
7.40844009e-07
7.408669364e-07
7.408782541e-07
7.408716918e-07
7.408473381e-07
7.408064183e-07
7.407515091e-07
7.406852132e-07
7.406095249e-07
7.405260765e-07
7.404394245e-07
7.403511269e-07
7.402624273e-07
7.401770181e-07
7.400992155e-07
7.40035332e-07
7.39989979e-07
7.399806636e-07
7.399184548e-07
7.384858734e-07
6.010700217e-07
7.406255901e-07
7.406269295e-07
7.406375146e-07
7.406537644e-07
7.406759363e-07
7.407018877e-07
7.407279734e-07
7.407485677e-07
7.407581867e-07
7.407506377e-07
7.407260822e-07
7.406857976e-07
7.406323971e-07
7.405685396e-07
7.404966465e-07
7.404217359e-07
7.403447049e-07
7.402658227e-07
7.401876692e-07
7.401136917e-07
7.400499486e-07
7.399999284e-07
7.399813152e-07
7.399780814e-07
7.399161065e-07
7.384846523e-07
6.010663153e-07
7.405034706e-07
7.405065585e-07
7.405179234e-07
7.40534246e-07
7.405550484e-07
7.405785449e-07
7.406011746e-07
7.406182181e-07
7.406248999e-07
7.406160008e-07
7.405915192e-07
7.405526278e-07
7.405017567e-07
7.40442041e-07
7.40378984e-07
7.4031326e-07
7.402451425e-07
7.401765704e-07
7.40110222e-07
7.400512838e-07
7.400027255e-07
7.399802251e-07
7.399784802e-07
7.39975465e-07
7.399137097e-07
7.38483362e-07
6.010621542e-07
7.403829961e-07
7.403865362e-07
7.403974252e-07
7.404124248e-07
7.404307123e-07
7.404504831e-07
7.404686485e-07
7.404812801e-07
7.404844063e-07
7.404741225e-07
7.404501347e-07
7.404134731e-07
7.403675856e-07
7.403171743e-07
7.402628828e-07
7.402056201e-07
7.40147402e-07
7.400906464e-07
7.400393759e-07
7.399969968e-07
7.399790233e-07
7.399772013e-07
7.399757635e-07
7.399728911e-07
7.399113446e-07
7.384820508e-07
6.010577102e-07
7.402674639e-07
7.402702723e-07
7.402797339e-07
7.402922905e-07
7.40307228e-07
7.403226659e-07
7.403358814e-07
7.403438466e-07
7.403434281e-07
7.403318574e-07
7.403088225e-07
7.402779278e-07
7.402409925e-07
7.401987055e-07
7.401527193e-07
7.401050207e-07
7.400591586e-07
7.400171105e-07
7.399845708e-07
7.399777445e-07
7.399759356e-07
7.399744501e-07
7.399731761e-07
7.399704309e-07
7.399090765e-07
7.384807614e-07
6.010531435e-07
7.401587303e-07
7.401601618e-07
7.401675121e-07
7.40177187e-07
7.401882624e-07
7.401991795e-07
7.402077187e-07
7.402113299e-07
7.402077803e-07
7.401967812e-07
7.401795554e-07
7.401555835e-07
7.401255411e-07
7.400911886e-07
7.400556097e-07
7.40020915e-07
7.399912187e-07
7.399786097e-07
7.399764792e-07
7.39974736e-07
7.399732166e-07
7.399719066e-07
7.399707673e-07
7.399681319e-07
7.399069488e-07
7.384795253e-07
6.010485934e-07
7.40073057e-07
7.400691222e-07
7.400696988e-07
7.40071829e-07
7.400765674e-07
7.400832054e-07
7.400875455e-07
7.400891245e-07
7.400873444e-07
7.400803582e-07
7.400675709e-07
7.400497752e-07
7.400285673e-07
7.400059042e-07
7.399859765e-07
7.399793272e-07
7.399771727e-07
7.399753005e-07
7.399736152e-07
7.39972096e-07
7.399707503e-07
7.399695863e-07
7.39968567e-07
7.399660263e-07
7.399049956e-07
7.384783677e-07
6.010441747e-07
7.400218874e-07
7.40015134e-07
7.400108876e-07
7.400057943e-07
7.400003989e-07
7.399961477e-07
7.39993278e-07
7.399925573e-07
7.399938713e-07
7.399925992e-07
7.399885717e-07
7.399838333e-07
7.399817771e-07
7.399797231e-07
7.399777615e-07
7.399759427e-07
7.399742209e-07
7.399725971e-07
7.399711009e-07
7.399697467e-07
7.399685459e-07
7.39967504e-07
7.399665848e-07
7.399641245e-07
7.399032284e-07
7.384773027e-07
6.010399781e-07
7.399994028e-07
7.399945337e-07
7.399928649e-07
7.399912647e-07
7.399897215e-07
7.399883942e-07
7.39987152e-07
7.399858807e-07
7.399845409e-07
7.399830726e-07
7.399815099e-07
7.399798724e-07
7.39978202e-07
7.399765236e-07
7.39974862e-07
7.399732443e-07
7.399716968e-07
7.399702399e-07
7.399688984e-07
7.399676816e-07
7.399666015e-07
7.399656625e-07
7.399648283e-07
7.399624359e-07
7.399016495e-07
7.384763383e-07
6.010360707e-07
7.399925439e-07
7.399884159e-07
7.399875559e-07
7.399867129e-07
7.399857984e-07
7.399848043e-07
7.399837249e-07
7.3998255e-07
7.399812697e-07
7.399799074e-07
7.399784678e-07
7.399769701e-07
7.399754387e-07
7.399739075e-07
7.399723964e-07
7.399709292e-07
7.399695214e-07
7.399682029e-07
7.399669862e-07
7.399658829e-07
7.399649026e-07
7.399640486e-07
7.399632841e-07
7.399609488e-07
7.399002627e-07
7.384754802e-07
6.010325025e-07
7.399889708e-07
7.399850731e-07
7.399843962e-07
7.399836697e-07
7.399828423e-07
7.399819147e-07
7.399808886e-07
7.399797592e-07
7.399785493e-07
7.399772658e-07
7.399759147e-07
7.399745213e-07
7.399731091e-07
7.399716972e-07
7.39970305e-07
7.399689519e-07
7.39967664e-07
7.39966458e-07
7.39965343e-07
7.399643332e-07
7.399634353e-07
7.399626519e-07
7.399619459e-07
7.399596587e-07
7.398990567e-07
7.384747273e-07
6.010293058e-07
7.399863646e-07
7.399825085e-07
7.399818765e-07
7.399811827e-07
7.399803889e-07
7.39979494e-07
7.399785014e-07
7.399774257e-07
7.39976277e-07
7.399750537e-07
7.399737803e-07
7.399724735e-07
7.399711561e-07
7.399698378e-07
7.399685437e-07
7.399672897e-07
7.399660954e-07
7.399649784e-07
7.399639472e-07
7.39963014e-07
7.399621839e-07
7.39961459e-07
7.399608017e-07
7.399585549e-07
7.398980239e-07
7.384740784e-07
6.010265025e-07
7.39984255e-07
7.399804153e-07
7.399798053e-07
7.399791347e-07
7.39978356e-07
7.399774889e-07
7.399765341e-07
7.399755014e-07
7.399743922e-07
7.399732287e-07
7.399720187e-07
7.39970783e-07
7.399695363e-07
7.399682962e-07
7.399670791e-07
7.399659027e-07
7.39964787e-07
7.399637396e-07
7.399627767e-07
7.399619067e-07
7.399611323e-07
7.399604553e-07
7.399598385e-07
7.399576255e-07
7.398971541e-07
7.384735306e-07
6.01024107e-07
7.399825298e-07
7.399787033e-07
7.399781074e-07
7.399774441e-07
7.399766908e-07
7.39975847e-07
7.39974919e-07
7.399739154e-07
7.399728507e-07
7.399717292e-07
7.399705717e-07
7.399693923e-07
7.399682012e-07
7.399670222e-07
7.399658661e-07
7.399647534e-07
7.399636976e-07
7.399627096e-07
7.399618018e-07
7.399609782e-07
7.399602483e-07
7.399596101e-07
7.399590263e-07
7.399568415e-07
7.398964229e-07
7.384730785e-07
6.010221315e-07
7.399802255e-07
7.399764095e-07
7.399758155e-07
7.399751724e-07
7.399744402e-07
7.3997361e-07
7.399727046e-07
7.399717312e-07
7.39970696e-07
7.399696104e-07
7.399684951e-07
7.39967357e-07
7.399662139e-07
7.399650804e-07
7.399639731e-07
7.399629098e-07
7.399619002e-07
7.399609575e-07
7.399600916e-07
7.399593085e-07
7.399586114e-07
7.399580051e-07
7.399574487e-07
7.399552959e-07
7.398950338e-07
7.384725384e-07
6.010205769e-07
7.399413829e-07
7.399375913e-07
7.39937028e-07
7.399364249e-07
7.399357192e-07
7.399349428e-07
7.399340819e-07
7.399331637e-07
7.399321847e-07
7.399311619e-07
7.399301114e-07
7.39929039e-07
7.399279645e-07
7.399269e-07
7.399258579e-07
7.3992486e-07
7.399239115e-07
7.399230264e-07
7.399222131e-07
7.399214779e-07
7.399208249e-07
7.399202557e-07
7.399197379e-07
7.399177593e-07
7.398603873e-07
7.384611578e-07
6.010178738e-07
7.390097436e-07
7.390061833e-07
7.390059297e-07
7.390056813e-07
7.390053911e-07
7.390050593e-07
7.390046884e-07
7.390042792e-07
7.390038325e-07
7.390033545e-07
7.390028522e-07
7.390023277e-07
7.390017897e-07
7.390012442e-07
7.390006989e-07
7.390001635e-07
7.389996439e-07
7.389991495e-07
7.389986866e-07
7.389982611e-07
7.389978781e-07
7.389975417e-07
7.389972481e-07
7.389965268e-07
7.38971187e-07
7.379874965e-07
6.008843284e-07
6.78024477e-07
6.780210571e-07
6.780209819e-07
6.780209259e-07
6.780208248e-07
6.780206637e-07
6.780204262e-07
6.780200995e-07
6.780196722e-07
6.780191366e-07
6.780184923e-07
6.780177395e-07
6.78016886e-07
6.780159439e-07
6.780149312e-07
6.780138653e-07
6.780127705e-07
6.780116709e-07
6.78010591e-07
6.780095567e-07
6.780085933e-07
6.780077257e-07
6.780069779e-07
6.780063028e-07
6.779990589e-07
6.775096193e-07
5.648941856e-07
1.859706688e-05
1.859406065e-05
1.858971755e-05
1.858381439e-05
1.857642562e-05
1.856762377e-05
1.855684076e-05
1.854336512e-05
1.852582781e-05
1.850410595e-05
1.847776485e-05
1.860658757e-05
1.860886691e-05
1.861070897e-05
1.861133575e-05
1.861092322e-05
1.860952722e-05
1.860648365e-05
1.860137241e-05
1.859416773e-05
1.858513989e-05
1.857477103e-05
1.856360188e-05
1.855214525e-05
1.853883355e-05
1.851990804e-05
1.849467982e-05
1.846188048e-05
1.842065388e-05
1.836755999e-05
1.830019766e-05
1.822927262e-05
1.816332044e-05
1.808235003e-05
1.737527747e-05
8.773136426e-06
5.066318281e-07
1.861580949e-05
1.861803056e-05
1.862001154e-05
1.862238897e-05
1.862487709e-05
1.862728332e-05
1.862916682e-05
1.862978806e-05
1.862845203e-05
1.862431937e-05
1.861724103e-05
1.860757092e-05
1.859600463e-05
1.858331306e-05
1.85701663e-05
1.855706556e-05
1.854435217e-05
1.853127772e-05
1.850998739e-05
1.847762904e-05
1.843309857e-05
1.837024341e-05
1.829123281e-05
1.821737091e-05
1.812980306e-05
1.741459453e-05
8.783094892e-06
5.0664578e-07
1.862962316e-05
1.863205864e-05
1.863504582e-05
1.86385962e-05
1.864270734e-05
1.864725937e-05
1.865171258e-05
1.865493066e-05
1.865591604e-05
1.865307309e-05
1.864603318e-05
1.863535279e-05
1.862206955e-05
1.860729357e-05
1.859194197e-05
1.857665609e-05
1.856183961e-05
1.854775122e-05
1.853455871e-05
1.852052772e-05
1.849028293e-05
1.844153101e-05
1.835847055e-05
1.827474457e-05
1.817907157e-05
1.745481798e-05
8.793203194e-06
5.066621075e-07
1.865001272e-05
1.86531446e-05
1.865779807e-05
1.866361399e-05
1.867058856e-05
1.867813003e-05
1.868463681e-05
1.868878115e-05
1.868774537e-05
1.868059302e-05
1.866842676e-05
1.865284918e-05
1.863543241e-05
1.861738131e-05
1.859946549e-05
1.858212754e-05
1.856562014e-05
1.855013738e-05
1.853586647e-05
1.852292957e-05
1.849738331e-05
1.842840845e-05
1.833355733e-05
1.822828185e-05
1.749431342e-05
8.802975246e-06
5.066783472e-07
1.867064965e-05
1.867373056e-05
1.867921376e-05
1.868651109e-05
1.869592653e-05
1.870682838e-05
1.871718797e-05
1.872538349e-05
1.872693741e-05
1.871943053e-05
1.870538683e-05
1.868707572e-05
1.866665865e-05
1.864563799e-05
1.862486764e-05
1.860476041e-05
1.858553772e-05
1.856740477e-05
1.855060515e-05
1.853541041e-05
1.852171686e-05
1.848690322e-05
1.839026727e-05
1.827499186e-05
1.753100447e-05
8.811899031e-06
5.066937425e-07
1.869354399e-05
1.869549509e-05
1.870123855e-05
1.870934708e-05
1.872075272e-05
1.873485052e-05
1.874924981e-05
1.876202877e-05
1.876705931e-05
1.875879762e-05
1.87427795e-05
1.872176378e-05
1.869851724e-05
1.867477587e-05
1.865136622e-05
1.862860133e-05
1.860661133e-05
1.858562426e-05
1.856601128e-05
1.854818836e-05
1.853102158e-05
1.850464004e-05
1.844092439e-05
1.83161213e-05
1.75623916e-05
8.819354707e-06
5.067074628e-07
1.8716756e-05
1.871596411e-05
1.872102844e-05
1.872864242e-05
1.874079004e-05
1.875687925e-05
1.877470668e-05
1.879196799e-05
1.880375868e-05
1.879269645e-05
1.87747891e-05
1.875177969e-05
1.872682151e-05
1.870149448e-05
1.867639073e-05
1.865162855e-05
1.862722632e-05
1.860346703e-05
1.858095161e-05
1.856026727e-05
1.853721365e-05
1.850507346e-05
1.846403073e-05
1.83473777e-05
1.758522765e-05
8.824591062e-06
5.067184584e-07
1.873687832e-05
1.873198036e-05
1.873536821e-05
1.874094453e-05
1.875183624e-05
1.87666857e-05
1.878301066e-05
1.879833383e-05
1.880628343e-05
1.880149265e-05
1.87882458e-05
1.876888358e-05
1.87460486e-05
1.872163483e-05
1.869652587e-05
1.867095149e-05
1.864491518e-05
1.861883775e-05
1.859365613e-05
1.856941632e-05
1.853784028e-05
1.849932372e-05
1.845729286e-05
1.836495538e-05
1.759659088e-05
8.826897574e-06
5.067258179e-07
1.875066216e-05
1.874055389e-05
1.874130042e-05
1.87441122e-05
1.875312626e-05
1.876635956e-05
1.878174993e-05
1.879668174e-05
1.880562628e-05
1.880275373e-05
1.879209371e-05
1.877550238e-05
1.875524189e-05
1.873281278e-05
1.8708895e-05
1.868360685e-05
1.865686706e-05
1.86292102e-05
1.860183444e-05
1.857009523e-05
1.852970142e-05
1.848715214e-05
1.844269127e-05
1.836427895e-05
1.759333405e-05
8.825596792e-06
5.067286601e-07
1.874413279e-05
1.87344249e-05
1.873446808e-05
1.873630302e-05
1.87439674e-05
1.875544305e-05
1.876898434e-05
1.87820509e-05
1.879007092e-05
1.878975874e-05
1.878242966e-05
1.876936693e-05
1.875223803e-05
1.873241694e-05
1.871049456e-05
1.868677005e-05
1.866053046e-05
1.863215912e-05
1.860035356e-05
1.855874884e-05
1.851281477e-05
1.846736995e-05
1.841929921e-05
1.833990973e-05
1.757325631e-05
8.820175132e-06
5.067262465e-07
1.8724769e-05
1.871710241e-05
1.871740013e-05
1.87194441e-05
1.872649024e-05
1.873692869e-05
1.874925265e-05
1.876110652e-05
1.876888328e-05
1.876962629e-05
1.876400122e-05
1.875281454e-05
1.873738243e-05
1.871889061e-05
1.869796753e-05
1.867490471e-05
1.864955115e-05
1.862094498e-05
1.858095688e-05
1.85334845e-05
1.84859875e-05
1.843907262e-05
1.838662007e-05
1.830050518e-05
1.75358367e-05
8.810533327e-06
5.067184141e-07
1.869613802e-05
1.86915455e-05
1.869278604e-05
1.869582305e-05
1.870282542e-05
1.871272926e-05
1.872421021e-05
1.873513865e-05
1.874261484e-05
1.874353139e-05
1.873846581e-05
1.872801221e-05
1.871338675e-05
1.869573305e-05
1.867577241e-05
1.865388387e-05
1.862924971e-05
1.859299155e-05
1.854664624e-05
1.849861015e-05
1.845002626e-05
1.839932322e-05
1.834326087e-05
1.823992656e-05
1.748241657e-05
8.796960895e-06
5.067054475e-07
1.866369258e-05
1.866182791e-05
1.866400277e-05
1.866804838e-05
1.867512972e-05
1.868459369e-05
1.869531491e-05
1.870535121e-05
1.871246088e-05
1.871287774e-05
1.87076685e-05
1.869731164e-05
1.868307463e-05
1.866611678e-05
1.864720272e-05
1.862604492e-05
1.859353728e-05
1.854998615e-05
1.850310011e-05
1.845477888e-05
1.840492738e-05
1.834870086e-05
1.828252414e-05
1.816154987e-05
1.741575619e-05
8.780067974e-06
5.066880341e-07
1.863127479e-05
1.863117418e-05
1.863391368e-05
1.863844907e-05
1.864529632e-05
1.865398008e-05
1.866358469e-05
1.867237184e-05
1.867858009e-05
1.867842723e-05
1.867295588e-05
1.866275e-05
1.864909932e-05
1.863310044e-05
1.861459903e-05
1.858464622e-05
1.854393563e-05
1.84992647e-05
1.845232939e-05
1.840314786e-05
1.834697793e-05
1.828341606e-05
1.819039801e-05
1.807149e-05
1.733942227e-05
8.760657669e-06
5.066671215e-07
1.860088345e-05
1.860164657e-05
1.860451368e-05
1.860891086e-05
1.861504031e-05
1.862245404e-05
1.863039951e-05
1.863739395e-05
1.864195169e-05
1.864122019e-05
1.863585464e-05
1.862638316e-05
1.861381422e-05
1.859751928e-05
1.856884504e-05
1.853042393e-05
1.848805622e-05
1.844283116e-05
1.839455285e-05
1.83386246e-05
1.827525685e-05
1.81857388e-05
1.8082183e-05
1.797481188e-05
1.725730074e-05
8.739644367e-06
5.066437601e-07
1.85734615e-05
1.857446471e-05
1.857706386e-05
1.85808812e-05
1.858591057e-05
1.859177661e-05
1.859777935e-05
1.860278382e-05
1.860557508e-05
1.860431672e-05
1.859926847e-05
1.859061852e-05
1.857543858e-05
1.854745677e-05
1.851113694e-05
1.847092015e-05
1.842715668e-05
1.837915413e-05
1.832327356e-05
1.825823117e-05
1.81656619e-05
1.806194137e-05
1.797197606e-05
1.787595142e-05
1.717293554e-05
8.717878423e-06
5.066189736e-07
1.854931595e-05
1.855018078e-05
1.855230237e-05
1.855530922e-05
1.855911205e-05
1.856339847e-05
1.856753903e-05
1.85706907e-05
1.857195818e-05
1.857017055e-05
1.856495176e-05
1.854896709e-05
1.852141923e-05
1.848707582e-05
1.844840378e-05
1.840581932e-05
1.835633994e-05
1.829995703e-05
1.823085997e-05
1.812994913e-05
1.803025047e-05
1.794124233e-05
1.786405719e-05
1.777854256e-05
1.708934475e-05
8.69611847e-06
5.065936823e-07
1.852838544e-05
1.852895957e-05
1.853051859e-05
1.853269184e-05
1.853534485e-05
1.853819832e-05
1.854077179e-05
1.854235074e-05
1.854215428e-05
1.853552009e-05
1.851766636e-05
1.849076207e-05
1.845794322e-05
1.842020558e-05
1.837589293e-05
1.832493696e-05
1.826380769e-05
1.817824275e-05
1.808045233e-05
1.798791456e-05
1.790300949e-05
1.782731927e-05
1.776142991e-05
1.768529814e-05
1.700883287e-05
8.674966689e-06
5.065686578e-07
1.848882852e-05
1.849460293e-05
1.850204476e-05
1.850973599e-05
1.851474825e-05
1.851631422e-05
1.851737186e-05
1.85136712e-05
1.850149576e-05
1.848136657e-05
1.845438891e-05
1.842073256e-05
1.838046456e-05
1.833320172e-05
1.82753581e-05
1.819513457e-05
1.810719899e-05
1.802040236e-05
1.793680701e-05
1.78582829e-05
1.778629901e-05
1.772211294e-05
1.766607827e-05
1.75981274e-05
1.693314516e-05
8.654902306e-06
5.065445084e-07
1.841075333e-05
1.841816403e-05
1.842925367e-05
1.844302106e-05
1.845684856e-05
1.846539603e-05
1.84659046e-05
1.845418376e-05
1.842891946e-05
1.839628406e-05
1.835631208e-05
1.83073192e-05
1.824549561e-05
1.817708458e-05
1.810435398e-05
1.802925442e-05
1.795384496e-05
1.787982518e-05
1.780882427e-05
1.774221564e-05
1.768121272e-05
1.762679516e-05
1.757912726e-05
1.751815794e-05
1.686333432e-05
8.636236769e-06
5.065217043e-07
1.829900684e-05
1.829954324e-05
1.830100298e-05
1.830196122e-05
1.830118081e-05
1.829659142e-05
1.828686236e-05
1.827069116e-05
1.824680888e-05
1.82145784e-05
1.817412007e-05
1.812594818e-05
1.807127661e-05
1.80117262e-05
1.794890155e-05
1.788446903e-05
1.781999224e-05
1.775688352e-05
1.769647861e-05
1.763987551e-05
1.758806732e-05
1.754183723e-05
1.750118869e-05
1.744608647e-05
1.68000387e-05
8.619179672e-06
5.065005801e-07
1.817175058e-05
1.816782856e-05
1.816372225e-05
1.815830892e-05
1.815105385e-05
1.814090678e-05
1.812673688e-05
1.810759067e-05
1.80825701e-05
1.80513488e-05
1.80138051e-05
1.797044135e-05
1.792215296e-05
1.787016766e-05
1.781577139e-05
1.776026468e-05
1.770485706e-05
1.765081754e-05
1.75991696e-05
1.755083642e-05
1.75066213e-05
1.746714733e-05
1.743228759e-05
1.738205274e-05
1.674359937e-05
8.603859119e-06
5.064813682e-07
1.805308541e-05
1.804660754e-05
1.803946329e-05
1.803084322e-05
1.802020069e-05
1.80068634e-05
1.799018826e-05
1.796939252e-05
1.794410107e-05
1.791397438e-05
1.787901021e-05
1.783967964e-05
1.779667581e-05
1.775089615e-05
1.770333517e-05
1.76550409e-05
1.760710778e-05
1.756047353e-05
1.751596994e-05
1.747438875e-05
1.743637199e-05
1.740241728e-05
1.737229491e-05
1.732605296e-05
1.669402815e-05
8.590317531e-06
5.064642187e-07
1.794951342e-05
1.794158293e-05
1.793262663e-05
1.792189407e-05
1.790915007e-05
1.789390576e-05
1.787568113e-05
1.785413981e-05
1.782896518e-05
1.779991703e-05
1.776722006e-05
1.773121075e-05
1.769247072e-05
1.765165118e-05
1.760961976e-05
1.756719712e-05
1.752523542e-05
1.748454485e-05
1.744580175e-05
1.740965872e-05
1.737663934e-05
1.734713917e-05
1.732084733e-05
1.727784836e-05
1.665121455e-05
8.578560893e-06
5.064492214e-07
1.786191899e-05
1.785306846e-05
1.784299571e-05
1.783102532e-05
1.781688364e-05
1.780045512e-05
1.778141901e-05
1.775954109e-05
1.773458721e-05
1.770667939e-05
1.767589803e-05
1.764258088e-05
1.760720297e-05
1.757035397e-05
1.753267665e-05
1.749488324e-05
1.745768542e-05
1.742168262e-05
1.73875109e-05
1.735569704e-05
1.732665317e-05
1.730069891e-05
1.727746907e-05
1.723708025e-05
1.66149202e-05
8.568559347e-06
5.064364293e-07
1.77895484e-05
1.778018618e-05
1.776941775e-05
1.775654812e-05
1.774165294e-05
1.772452896e-05
1.770501822e-05
1.768301226e-05
1.765853057e-05
1.763157437e-05
1.760237346e-05
1.757121318e-05
1.753846794e-05
1.750469941e-05
1.747041095e-05
1.743622546e-05
1.740270295e-05
1.737037513e-05
1.73397636e-05
1.731127711e-05
1.728532926e-05
1.726215147e-05
1.724133418e-05
1.720303475e-05
1.658463386e-05
8.560246626e-06
5.064258827e-07
1.77197922e-05
1.771011969e-05
1.76988381e-05
1.768556193e-05
1.767024876e-05
1.765269894e-05
1.763299764e-05
1.761111031e-05
1.758706783e-05
1.756096582e-05
1.753304972e-05
1.750355897e-05
1.747288778e-05
1.744145652e-05
1.740976103e-05
1.737831731e-05
1.734758307e-05
1.731804068e-05
1.729012478e-05
1.726421293e-05
1.724061044e-05
1.721957602e-05
1.720064633e-05
1.716419758e-05
1.655109712e-05
8.552371331e-06
5.064174339e-07
1.725685769e-05
1.724744041e-05
1.723646562e-05
1.72235908e-05
1.720861365e-05
1.719175731e-05
1.717284521e-05
1.715208521e-05
1.712945405e-05
1.710512579e-05
1.707932279e-05
1.70522586e-05
1.702431413e-05
1.699583621e-05
1.696722537e-05
1.693896327e-05
1.6911408e-05
1.688498115e-05
1.686005415e-05
1.683695166e-05
1.681595114e-05
1.679725116e-05
1.678052945e-05
1.674884752e-05
1.618727781e-05
8.481113369e-06
5.064010521e-07
1.000882867e-05
1.000553091e-05
1.000176134e-05
9.997295082e-06
9.992135678e-06
9.986279289e-06
9.979741099e-06
9.972541306e-06
9.96468558e-06
9.956235012e-06
9.947266605e-06
9.937852184e-06
9.928115717e-06
9.918175825e-06
9.908177832e-06
9.898271619e-06
9.888588952e-06
9.879284072e-06
9.870485878e-06
9.862316129e-06
9.854882015e-06
9.848272111e-06
9.842497153e-06
9.834362041e-06
9.684457472e-06
6.440863727e-06
5.060484351e-07
6.31415637e-07
6.314121382e-07
6.314116579e-07
6.31410888e-07
6.314096064e-07
6.314076095e-07
6.31404708e-07
6.314007357e-07
6.31395539e-07
6.313890341e-07
6.313812072e-07
6.313720601e-07
6.313616845e-07
6.313502659e-07
6.313379725e-07
6.313250479e-07
6.313118026e-07
6.312984995e-07
6.312854513e-07
6.312729647e-07
6.312613394e-07
6.312508651e-07
6.312418154e-07
6.31233937e-07
6.312017347e-07
6.301552115e-07
5.02620374e-07
8.414367305e-05
8.414259624e-05
8.414120178e-05
8.413048127e-05
8.410843572e-05
8.407654333e-05
8.403723467e-05
8.399303099e-05
8.394483877e-05
8.389366954e-05
8.383943101e-05
8.378232276e-05
8.372713447e-05
8.365681467e-05
8.357296552e-05
8.414807903e-05
8.416530474e-05
8.418651405e-05
8.420706527e-05
8.42251122e-05
8.423715605e-05
8.423819757e-05
8.42219417e-05
8.418916631e-05
8.414424454e-05
8.409342324e-05
8.404257355e-05
8.399576901e-05
8.394916682e-05
8.389828172e-05
8.384263911e-05
8.377880821e-05
8.370348419e-05
8.360870285e-05
8.348778556e-05
8.33576729e-05
8.31618542e-05
8.153974889e-05
6.282374564e-05
1.251126294e-05
5.068421102e-07
8.418398265e-05
8.419793652e-05
8.421305679e-05
8.423603213e-05
8.426685933e-05
8.430508033e-05
8.434638654e-05
8.438161382e-05
8.440415959e-05
8.439805741e-05
8.436284163e-05
8.430601376e-05
8.423796379e-05
8.416813152e-05
8.410316036e-05
8.404676974e-05
8.400060043e-05
8.396027171e-05
8.390997758e-05
8.384606668e-05
8.376399553e-05
8.36483207e-05
8.350155584e-05
8.328969061e-05
8.165053062e-05
6.288621856e-05
1.25156046e-05
5.068609282e-07
8.42658606e-05
8.428153749e-05
8.429993485e-05
8.433354408e-05
8.438147705e-05
8.444558303e-05
8.452066004e-05
8.459202071e-05
8.465137913e-05
8.466329397e-05
8.46218045e-05
8.454424234e-05
8.444818232e-05
8.434890912e-05
8.425647142e-05
8.417585284e-05
8.410867708e-05
8.405492936e-05
8.401402895e-05
8.397765041e-05
8.391563453e-05
8.38229045e-05
8.366384188e-05
8.343093328e-05
8.17708835e-05
6.295418334e-05
1.252036963e-05
5.068826514e-07
8.440681947e-05
8.44219693e-05
8.446733201e-05
8.453565464e-05
8.463374364e-05
8.475572861e-05
8.488067131e-05
8.499881595e-05
8.504545238e-05
8.498715713e-05
8.487533701e-05
8.47367536e-05
8.459511271e-05
8.446476626e-05
8.435163565e-05
8.425659537e-05
8.417857428e-05
8.411647481e-05
8.406954434e-05
8.403697824e-05
8.397960702e-05
8.383995247e-05
8.358208106e-05
8.189698478e-05
6.302455619e-05
1.252524693e-05
5.069046665e-07
8.458322387e-05
8.458362192e-05
8.463974095e-05
8.472711371e-05
8.486428608e-05
8.504450249e-05
8.523995004e-05
8.544175339e-05
8.554954541e-05
8.545522659e-05
8.529465584e-05
8.509941552e-05
8.490406047e-05
8.472765547e-05
8.457601644e-05
8.444793354e-05
8.434011083e-05
8.425053806e-05
8.41789986e-05
8.412573661e-05
8.408833677e-05
8.400706635e-05
8.373648836e-05
8.20238328e-05
6.309430781e-05
1.253001183e-05
5.069260372e-07
8.482097248e-05
8.478240651e-05
8.484283273e-05
8.493963092e-05
8.511535057e-05
8.536117193e-05
8.564684237e-05
8.596404324e-05
8.619269221e-05
8.600935803e-05
8.5777646e-05
8.550878229e-05
8.525229857e-05
8.502848888e-05
8.483906842e-05
8.467803126e-05
8.453807096e-05
8.441602396e-05
8.431339707e-05
8.423270609e-05
8.417106733e-05
8.410368691e-05
8.388438121e-05
8.214376287e-05
6.315908327e-05
1.253438895e-05
5.069454476e-07
8.510189956e-05
8.499873046e-05
8.50460433e-05
8.512875451e-05
8.532298548e-05
8.562148746e-05
8.600688468e-05
8.648398642e-05
8.702547559e-05
8.658940507e-05
8.624552306e-05
8.589005036e-05
8.557959087e-05
8.532421309e-05
8.511199046e-05
8.492852005e-05
8.476069306e-05
8.460434662e-05
8.446545621e-05
8.435121087e-05
8.425573838e-05
8.41616396e-05