/*--------------------------------*- C++ -*----------------------------------*\
  =========                 |
  \\      /  F ield         | OpenFOAM: The Open Source CFD Toolbox
   \\    /   O peration     | Website:  https://openfoam.org
    \\  /    A nd           | Version:  8
     \\/     M anipulation  |
\*---------------------------------------------------------------------------*/
FoamFile
{
    version     2.0;
    format      ascii;
    class       volScalarField;
    location    "0.2";
    object      epsilon;
}
// * * * * * * * * * * * * * * * * * * * * * * * * * * * * * * * * * * * * * //

dimensions      [0 2 -3 0 0 0 0];

internalField   nonuniform List<scalar> 
67451
(
9.038864507e-06
9.038636207e-06
9.038392872e-06
9.038067251e-06
9.037656447e-06
9.037166916e-06
9.036618494e-06
9.036036898e-06
9.035452228e-06
9.034884048e-06
9.034382881e-06
9.039556343e-06
9.03956918e-06
9.039610854e-06
9.039628618e-06
9.039576473e-06
9.039482676e-06
9.039303819e-06
9.039021317e-06
9.038629746e-06
9.038135295e-06
9.037553889e-06
9.03690626e-06
9.036213664e-06
9.035509521e-06
9.034846128e-06
9.034269258e-06
9.033747918e-06
9.033326024e-06
9.033036556e-06
9.032895786e-06
9.032831971e-06
9.032795635e-06
9.032757314e-06
9.031997272e-06
9.014488614e-06
1.016536609e-05
9.039949757e-06
9.040050778e-06
9.040153001e-06
9.040273914e-06
9.040388185e-06
9.040485443e-06
9.04054486e-06
9.040536073e-06
9.040427863e-06
9.040190337e-06
9.03981382e-06
9.039305715e-06
9.038687447e-06
9.037986411e-06
9.037230014e-06
9.036441742e-06
9.035640832e-06
9.034850082e-06
9.034147986e-06
9.033570569e-06
9.033136855e-06
9.032895404e-06
9.032821602e-06
9.032782346e-06
9.03274204e-06
9.031980938e-06
9.01446861e-06
1.016537487e-05
9.040711379e-06
9.040806096e-06
9.040966915e-06
9.04113762e-06
9.041318159e-06
9.041498325e-06
9.04165252e-06
9.041736823e-06
9.041707882e-06
9.041519694e-06
9.041155482e-06
9.040625485e-06
9.039959671e-06
9.039193857e-06
9.038362354e-06
9.037493337e-06
9.036607892e-06
9.035723345e-06
9.03485378e-06
9.034027828e-06
9.033385433e-06
9.032954053e-06
9.032833041e-06
9.032792243e-06
9.032750961e-06
9.031988918e-06
9.014474465e-06
1.016541995e-05
9.041731719e-06
9.041874789e-06
9.042085063e-06
9.042324246e-06
9.042585669e-06
9.042837582e-06
9.04302128e-06
9.043083331e-06
9.042950178e-06
9.042595775e-06
9.042037499e-06
9.041316567e-06
9.040480218e-06
9.039569411e-06
9.038615825e-06
9.037641631e-06
9.036663886e-06
9.035698506e-06
9.034761847e-06
9.033870763e-06
9.03315457e-06
9.032842276e-06
9.032799253e-06
9.032757901e-06
9.031995058e-06
9.014479794e-06
1.016546452e-05
9.042672284e-06
9.042817398e-06
9.04304956e-06
9.043331551e-06
9.043661674e-06
9.044004519e-06
9.044290498e-06
9.044451045e-06
9.044381148e-06
9.044036742e-06
9.043449117e-06
9.042674736e-06
9.041771341e-06
9.040786649e-06
9.039753301e-06
9.038694197e-06
9.037624944e-06
9.036561585e-06
9.035522717e-06
9.034530947e-06
9.03360808e-06
9.032925763e-06
9.032804768e-06
9.032762203e-06
9.031998658e-06
9.014484048e-06
1.016550613e-05
9.043598863e-06
9.043717721e-06
9.043946873e-06
9.044245384e-06
9.044619123e-06
9.045035115e-06
9.04541285e-06
9.045670122e-06
9.045668302e-06
9.04533704e-06
9.044730207e-06
9.043915964e-06
9.042963925e-06
9.041924358e-06
9.040830583e-06
9.039701277e-06
9.038549861e-06
9.03739309e-06
9.036253606e-06
9.035159715e-06
9.034145426e-06
9.033282634e-06
9.032810171e-06
9.032763409e-06
9.031999321e-06
9.014486911e-06
1.016554242e-05
9.044420872e-06
9.044473184e-06
9.044669237e-06
9.044948943e-06
9.045332048e-06
9.045784755e-06
9.046223851e-06
9.046558475e-06
9.04664295e-06
9.046322588e-06
9.045717495e-06
9.044897459e-06
9.043933798e-06
9.042876432e-06
9.041753569e-06
9.040580108e-06
9.039367408e-06
9.038132107e-06
9.036900562e-06
9.035708674e-06
9.034616008e-06
9.033685522e-06
9.032939293e-06
9.032761581e-06
9.031996414e-06
9.014487981e-06
1.016557078e-05
9.045017127e-06
9.044978159e-06
9.045120405e-06
9.045349172e-06
9.045701243e-06
9.046133902e-06
9.046566172e-06
9.046900442e-06
9.046989387e-06
9.04674947e-06
9.04622408e-06
9.045472818e-06
9.044560587e-06
9.043534419e-06
9.042423064e-06
9.041239278e-06
9.039991784e-06
9.038698869e-06
9.037393961e-06
9.036125425e-06
9.034979373e-06
9.033993474e-06
9.033184545e-06
9.03275579e-06
9.031989612e-06
9.014486918e-06
1.016558871e-05
9.045295505e-06
9.045145771e-06
9.045224272e-06
9.045388152e-06
9.045694074e-06
9.046088236e-06
9.046498258e-06
9.046828213e-06
9.046942334e-06
9.046759019e-06
9.046309442e-06
9.045639331e-06
9.044799975e-06
9.043832666e-06
9.042760729e-06
9.04159397e-06
9.040338808e-06
9.039015353e-06
9.037664283e-06
9.03636577e-06
9.03519234e-06
9.034166362e-06
9.033326857e-06
9.032747886e-06
9.031978356e-06
9.014483403e-06
1.016559368e-05
9.045011111e-06
9.044849874e-06
9.044904765e-06
9.045038694e-06
9.04531104e-06
9.045669383e-06
9.046049441e-06
9.046357711e-06
9.04647923e-06
9.046349153e-06
9.045974221e-06
9.045384578e-06
9.044621349e-06
9.043720302e-06
9.042701488e-06
9.041574748e-06
9.040339419e-06
9.039015377e-06
9.03766495e-06
9.036382713e-06
9.03520654e-06
9.034175555e-06
9.033344165e-06
9.032759374e-06
9.031962641e-06
9.014477296e-06
1.016558442e-05
9.044282331e-06
9.044149539e-06
9.044206268e-06
9.044339351e-06
9.044596499e-06
9.044932917e-06
9.045290843e-06
9.045582702e-06
9.045710868e-06
9.045611925e-06
9.045284227e-06
9.044747742e-06
9.044035668e-06
9.043179294e-06
9.042198529e-06
9.041103933e-06
9.039901892e-06
9.038621288e-06
9.037348769e-06
9.03612767e-06
9.034995824e-06
9.03400445e-06
9.033227346e-06
9.032715057e-06
9.031942683e-06
9.014468673e-06
1.01655603e-05
9.043193761e-06
9.043119256e-06
9.043197776e-06
9.043351097e-06
9.043608871e-06
9.043934782e-06
9.044277152e-06
9.044554892e-06
9.044683191e-06
9.04459644e-06
9.04429074e-06
9.043781753e-06
9.043099651e-06
9.042274235e-06
9.041327096e-06
9.040271949e-06
9.039123679e-06
9.037946889e-06
9.036775769e-06
9.035639663e-06
9.034593161e-06
9.033696365e-06
9.033002538e-06
9.03267857e-06
9.031919282e-06
9.014457838e-06
1.016552201e-05
9.041880468e-06
9.041862125e-06
9.041967795e-06
9.042145426e-06
9.042408043e-06
9.042726433e-06
9.043053182e-06
9.043313945e-06
9.043435155e-06
9.043344984e-06
9.043043807e-06
9.042546088e-06
9.041881841e-06
9.041081549e-06
9.040168891e-06
9.039163757e-06
9.038122205e-06
9.037063361e-06
9.036001722e-06
9.03498113e-06
9.034052901e-06
9.033292924e-06
9.032756823e-06
9.032649423e-06
9.031893367e-06
9.014445249e-06
1.016547125e-05
9.04045281e-06
9.04047172e-06
9.040598833e-06
9.040791525e-06
9.041051901e-06
9.041354493e-06
9.041655663e-06
9.041889061e-06
9.0419904e-06
9.041889119e-06
9.041586581e-06
9.041097752e-06
9.040452943e-06
9.039683251e-06
9.038817454e-06
9.037916617e-06
9.036991752e-06
9.03604609e-06
9.03511066e-06
9.034226672e-06
9.033467117e-06
9.032873771e-06
9.032657552e-06
9.032619317e-06
9.031865976e-06
9.014431452e-06
1.01654104e-05
9.03898755e-06
9.039025146e-06
9.039160318e-06
9.03935275e-06
9.039596257e-06
9.039869476e-06
9.040129787e-06
9.040321729e-06
9.040389241e-06
9.040272767e-06
9.039971965e-06
9.039500609e-06
9.038886929e-06
9.038167884e-06
9.037409841e-06
9.036620583e-06
9.035803306e-06
9.034981558e-06
9.034187673e-06
9.033484448e-06
9.032907451e-06
9.0326449e-06
9.032624807e-06
9.032589025e-06
9.031838234e-06
9.014417055e-06
1.016534224e-05
9.037539614e-06
9.037581139e-06
9.037709749e-06
9.037885777e-06
9.038099143e-06
9.038328249e-06
9.038535929e-06
9.038676534e-06
9.038703169e-06
9.038571198e-06
9.038277025e-06
9.037832814e-06
9.037279538e-06
9.036673469e-06
9.036021573e-06
9.035334439e-06
9.034636448e-06
9.03395694e-06
9.033344772e-06
9.032841106e-06
9.032631335e-06
9.032610218e-06
9.032593588e-06
9.032559398e-06
9.031811028e-06
9.01440257e-06
1.016526952e-05
9.036148876e-06
9.0361808e-06
9.036291853e-06
9.036438531e-06
9.036612055e-06
9.036789896e-06
9.036939643e-06
9.037025892e-06
9.037011756e-06
9.036865437e-06
9.036583334e-06
9.036209198e-06
9.03576439e-06
9.035256348e-06
9.034704529e-06
9.034132701e-06
9.033583879e-06
9.033081954e-06
9.032696274e-06
9.03261724e-06
9.032596091e-06
9.032578788e-06
9.032563992e-06
9.032531217e-06
9.031785077e-06
9.014388443e-06
1.016519485e-05
9.034837712e-06
9.034853295e-06
9.034938894e-06
9.035051179e-06
9.035178931e-06
9.035303441e-06
9.035398443e-06
9.035433985e-06
9.035383874e-06
9.035245801e-06
9.035035007e-06
9.034744937e-06
9.034383265e-06
9.033970839e-06
9.033544668e-06
9.033130025e-06
9.032776851e-06
9.032628805e-06
9.03260359e-06
9.032583016e-06
9.032565164e-06
9.032549844e-06
9.03253655e-06
9.032504994e-06
9.031760844e-06
9.014374998e-06
1.016512048e-05
9.03379323e-06
9.03374442e-06
9.033750534e-06
9.03377553e-06
9.033832302e-06
9.033906899e-06
9.033952774e-06
9.033965587e-06
9.033938904e-06
9.03385093e-06
9.033694615e-06
9.033479557e-06
9.033224876e-06
9.03295395e-06
9.032717478e-06
9.0326393e-06
9.032613489e-06
9.032591126e-06
9.032571063e-06
9.032553065e-06
9.032537194e-06
9.032523521e-06
9.032511573e-06
9.032481072e-06
9.031738696e-06
9.014362491e-06
1.016504826e-05
9.033169956e-06
9.033086804e-06
9.033034104e-06
9.032970989e-06
9.03290412e-06
9.032851197e-06
9.03281517e-06
9.032805463e-06
9.032819975e-06
9.032802624e-06
9.032753537e-06
9.032696718e-06
9.032671504e-06
9.032646462e-06
9.032622664e-06
9.032600661e-06
9.032579917e-06
9.032560443e-06
9.032542577e-06
9.032526477e-06
9.03251226e-06
9.032499968e-06
9.032489142e-06
9.032459537e-06
9.031718734e-06
9.014351051e-06
1.016497967e-05
9.032896792e-06
9.032836726e-06
9.032815618e-06
9.032795306e-06
9.032775663e-06
9.032758643e-06
9.032742674e-06
9.032726387e-06
9.032709333e-06
9.032690825e-06
9.032671296e-06
9.032650989e-06
9.032630396e-06
9.032609827e-06
9.032589573e-06
9.032569948e-06
9.03255126e-06
9.032533741e-06
9.032517675e-06
9.032503158e-06
9.03249032e-06
9.032479195e-06
9.032469326e-06
9.03244048e-06
9.031700959e-06
9.014340746e-06
1.016491581e-05
9.032814246e-06
9.03276328e-06
9.032752111e-06
9.03274112e-06
9.03272924e-06
9.032716385e-06
9.032702509e-06
9.03268751e-06
9.032671289e-06
9.032654154e-06
9.032636173e-06
9.03261759e-06
9.032598701e-06
9.032579916e-06
9.032561469e-06
9.032543637e-06
9.032526598e-06
9.032510702e-06
9.03249609e-06
9.032482884e-06
9.032471189e-06
9.03246103e-06
9.032451946e-06
9.032423742e-06
9.031685399e-06
9.014331623e-06
1.016485749e-05
9.032771635e-06
9.032723529e-06
9.03271465e-06
9.032705148e-06
9.032694408e-06
9.032682451e-06
9.032669315e-06
9.032654958e-06
9.032639675e-06
9.032623565e-06
9.032606713e-06
9.032589431e-06
9.032572008e-06
9.032554673e-06
9.032537656e-06
9.032521184e-06
9.032505566e-06
9.032490993e-06
9.032477564e-06
9.032465442e-06
9.032454694e-06
9.03244534e-06
9.032436918e-06
9.032409257e-06
9.031671904e-06
9.014323652e-06
1.016480524e-05
9.032740683e-06
9.032693124e-06
9.032684842e-06
9.032675795e-06
9.03266553e-06
9.032654042e-06
9.032641386e-06
9.032627754e-06
9.032613282e-06
9.032597959e-06
9.032582095e-06
9.032565896e-06
9.032549642e-06
9.032533447e-06
9.032517613e-06
9.032502327e-06
9.032487819e-06
9.032474294e-06
9.032461845e-06
9.032450611e-06
9.032440644e-06
9.03243196e-06
9.032424093e-06
9.032396889e-06
9.031660376e-06
9.01431681e-06
1.016475941e-05
9.032715657e-06
9.032668331e-06
9.032660357e-06
9.032651641e-06
9.03264161e-06
9.032630518e-06
9.032618382e-06
9.032605329e-06
9.032591389e-06
9.032576839e-06
9.032561782e-06
9.032546473e-06
9.032531092e-06
9.032515853e-06
9.03250095e-06
9.032486594e-06
9.032473021e-06
9.032460315e-06
9.032448667e-06
9.03243817e-06
9.032428847e-06
9.032420715e-06
9.03241331e-06
9.032386491e-06
9.031650685e-06
9.014311053e-06
1.016472025e-05
9.032695196e-06
9.032648057e-06
9.032640286e-06
9.032631696e-06
9.032622017e-06
9.032611253e-06
9.032599488e-06
9.032586834e-06
9.032573475e-06
9.032559473e-06
9.032545081e-06
9.032530478e-06
9.032515787e-06
9.032501295e-06
9.03248713e-06
9.03247354e-06
9.032460681e-06
9.032448678e-06
9.032437678e-06
9.032427721e-06
9.032418915e-06
9.032411229e-06
9.032404204e-06
9.032377709e-06
9.031642533e-06
9.014306313e-06
1.016468796e-05
9.032667591e-06
9.032620601e-06
9.032612876e-06
9.03260456e-06
9.03259517e-06
9.032584604e-06
9.032573149e-06
9.032560897e-06
9.032547928e-06
9.032534389e-06
9.032520534e-06
9.032506448e-06
9.03249235e-06
9.032478417e-06
9.032464845e-06
9.032451849e-06
9.032439541e-06
9.032428077e-06
9.03241757e-06
9.032408087e-06
9.032399662e-06
9.032392346e-06
9.032385638e-06
9.032359518e-06
9.031626232e-06
9.014300352e-06
1.016466256e-05
9.032195231e-06
9.032148554e-06
9.032141219e-06
9.03213341e-06
9.032124365e-06
9.032114477e-06
9.032103587e-06
9.032092028e-06
9.032079766e-06
9.032067009e-06
9.032053957e-06
9.032040683e-06
9.032027427e-06
9.032014335e-06
9.032001556e-06
9.03198935e-06
9.031977779e-06
9.031967005e-06
9.031957128e-06
9.031948216e-06
9.031940315e-06
9.031933438e-06
9.031927189e-06
9.031903175e-06
9.031205018e-06
9.014162351e-06
1.016461759e-05
9.020847571e-06
9.020803712e-06
9.020800153e-06
9.020796665e-06
9.020792682e-06
9.020788213e-06
9.020783291e-06
9.020777932e-06
9.020772151e-06
9.020766028e-06
9.02075965e-06
9.020753043e-06
9.020746315e-06
9.020739538e-06
9.020732803e-06
9.020726225e-06
9.02071987e-06
9.020713851e-06
9.020708236e-06
9.020703093e-06
9.020698477e-06
9.020694435e-06
9.020690914e-06
9.02068219e-06
9.02037394e-06
9.008394466e-06
1.016236495e-05
9.456474962e-06
9.45642692e-06
9.456425436e-06
9.456424218e-06
9.456422384e-06
9.456419732e-06
9.456416043e-06
9.456411147e-06
9.456404891e-06
9.456397176e-06
9.456388e-06
9.456377368e-06
9.456365388e-06
9.456352228e-06
9.456338134e-06
9.456323345e-06
9.456308191e-06
9.456293e-06
9.456278104e-06
9.456263857e-06
9.456250603e-06
9.456238677e-06
9.456228407e-06
9.456219131e-06
9.456118553e-06
9.449308957e-06
1.053584781e-05
5.465536331e-07
5.46602496e-07
5.466587378e-07
5.467277324e-07
5.468145868e-07
5.469302586e-07
5.471066718e-07
5.473785993e-07
5.47796237e-07
5.483699583e-07
5.491157455e-07
5.463583762e-07
5.463354405e-07
5.463271814e-07
5.463507149e-07
5.463907214e-07
5.464321084e-07
5.46481598e-07
5.465416802e-07
5.466175778e-07
5.467167429e-07
5.468464198e-07
5.470114992e-07
5.472127618e-07
5.475051348e-07
5.4800174e-07
5.487240974e-07
5.4970741e-07
5.509744361e-07
5.526225194e-07
5.547202788e-07
5.569481946e-07
5.590430133e-07
5.615881636e-07
5.838617734e-07
1.127727887e-06
1.134003354e-05
5.461727895e-07
5.46160472e-07
5.461591015e-07
5.461600639e-07
5.46172395e-07
5.461979317e-07
5.462363725e-07
5.462854736e-07
5.463424104e-07
5.464028721e-07
5.464697879e-07
5.465525417e-07
5.46662318e-07
5.468081439e-07
5.469945461e-07
5.472217729e-07
5.474870666e-07
5.478139537e-07
5.484277104e-07
5.494078441e-07
5.507823893e-07
5.527274834e-07
5.551787524e-07
5.575004692e-07
5.602361464e-07
5.826645892e-07
1.126599769e-06
1.134033688e-05
5.460288821e-07
5.460293798e-07
5.460218928e-07
5.460277769e-07
5.460505779e-07
5.460940632e-07
5.46158544e-07
5.462386731e-07
5.463264006e-07
5.464012398e-07
5.464595013e-07
5.465158014e-07
5.465896935e-07
5.46698139e-07
5.468511323e-07
5.470519289e-07
5.472990601e-07
5.475880773e-07
5.479130331e-07
5.483196447e-07
5.492459505e-07
5.507521931e-07
5.532978496e-07
5.558958634e-07
5.588617392e-07
5.814670857e-07
1.125479162e-06
1.134069241e-05
5.459377882e-07
5.459488629e-07
5.459715097e-07
5.460191213e-07
5.461008583e-07
5.462179483e-07
5.463599562e-07
5.465121356e-07
5.466230758e-07
5.466689563e-07
5.46681924e-07
5.466955915e-07
5.467403163e-07
5.468346983e-07
5.469860272e-07
5.471944944e-07
5.474564588e-07
5.47765955e-07
5.481142163e-07
5.484905205e-07
5.492871965e-07
5.513896531e-07
5.542899207e-07
5.575232945e-07
5.803229145e-07
1.124424471e-06
1.134104531e-05
5.459683566e-07
5.459869671e-07
5.460336014e-07
5.46116141e-07
5.462521769e-07
5.464475283e-07
5.466836577e-07
5.469384834e-07
5.471179573e-07
5.471416332e-07
5.470905709e-07
5.470174486e-07
5.469715225e-07
5.469821132e-07
5.470605356e-07
5.472080883e-07
5.474216542e-07
5.476961917e-07
5.480242269e-07
5.483932723e-07
5.487949223e-07
5.498673671e-07
5.527865342e-07
5.562907469e-07
5.792951584e-07
1.123493687e-06
1.134137903e-05
5.461516237e-07
5.461592131e-07
5.462273467e-07
5.463412519e-07
5.465363882e-07
5.468225839e-07
5.471762812e-07
5.475676766e-07
5.478628499e-07
5.478400595e-07
5.47707003e-07
5.475289271e-07
5.473773223e-07
5.472914427e-07
5.472841928e-07
5.473556668e-07
5.475029976e-07
5.477229132e-07
5.48011275e-07
5.483580358e-07
5.487876285e-07
5.495664925e-07
5.514909256e-07
5.55244908e-07
5.784528547e-07
1.122751117e-06
1.134167551e-05
5.464844867e-07
5.464471291e-07
5.465192223e-07
5.466376749e-07
5.468674251e-07
5.472214578e-07
5.476867129e-07
5.482262858e-07
5.487495612e-07
5.486021738e-07
5.483777735e-07
5.481024447e-07
5.478646679e-07
5.477014749e-07
5.476202894e-07
5.476186428e-07
5.476930487e-07
5.478448306e-07
5.480769732e-07
5.48387752e-07
5.488970767e-07
5.497814953e-07
5.510071589e-07
5.544924128e-07
5.778812477e-07
1.122270577e-06
1.134191192e-05
5.469263122e-07
5.467974164e-07
5.468375818e-07
5.469155778e-07
5.471197963e-07
5.474393972e-07
5.478507711e-07
5.483110179e-07
5.486704462e-07
5.48730359e-07
5.486427159e-07
5.484641965e-07
5.482659996e-07
5.481003798e-07
5.479899231e-07
5.479405094e-07
5.479526036e-07
5.480350463e-07
5.482037159e-07
5.484931991e-07
5.491524103e-07
5.501553587e-07
5.513696233e-07
5.541178455e-07
5.776494883e-07
1.122116303e-06
1.134206863e-05
5.473585929e-07
5.471127987e-07
5.47081775e-07
5.470960829e-07
5.472563181e-07
5.47536207e-07
5.47922003e-07
5.483681087e-07
5.487460246e-07
5.488450685e-07
5.488124605e-07
5.486910785e-07
5.48543968e-07
5.484109281e-07
5.483103041e-07
5.482466427e-07
5.482202928e-07
5.482457963e-07
5.483603412e-07
5.487583641e-07
5.495884965e-07
5.506514848e-07
5.519023613e-07
5.542239593e-07
5.778298113e-07
1.12234483e-06
1.13421267e-05
5.473967023e-07
5.471646202e-07
5.471155438e-07
5.471084376e-07
5.47231644e-07
5.474590825e-07
5.477815431e-07
5.481567428e-07
5.484825724e-07
5.486499464e-07
5.487056255e-07
5.486781866e-07
5.486108637e-07
5.485401338e-07
5.484807918e-07
5.484446296e-07
5.484160236e-07
5.484111371e-07
5.485807107e-07
5.491973568e-07
5.501404838e-07
5.512576843e-07
5.525978423e-07
5.54944046e-07
5.784707276e-07
1.122999087e-06
1.134207016e-05
5.472135786e-07
5.470388879e-07
5.470027802e-07
5.470012063e-07
5.471056887e-07
5.472995408e-07
5.47577879e-07
5.479044637e-07
5.482053016e-07
5.483915312e-07
5.484852963e-07
5.485015545e-07
5.484724905e-07
5.484291673e-07
5.483884739e-07
5.48361819e-07
5.483523458e-07
5.484265803e-07
5.489040642e-07
5.497494011e-07
5.507803925e-07
5.519687565e-07
5.534560619e-07
5.56017767e-07
5.795869361e-07
1.124088629e-06
1.134189588e-05
5.469335061e-07
5.468299238e-07
5.46821872e-07
5.468392448e-07
5.469361963e-07
5.471080945e-07
5.473530524e-07
5.476416276e-07
5.479194369e-07
5.480991919e-07
5.48198448e-07
5.482270394e-07
5.482139361e-07
5.481887523e-07
5.481711398e-07
5.481753474e-07
5.482365556e-07
5.486478422e-07
5.494320622e-07
5.504036523e-07
5.515517939e-07
5.529115683e-07
5.545459767e-07
5.576525421e-07
5.811573687e-07
1.125595013e-06
1.134160997e-05
5.466945355e-07
5.466497685e-07
5.466600848e-07
5.466929826e-07
5.467818234e-07
5.469331494e-07
5.471470274e-07
5.474000987e-07
5.476559267e-07
5.478118307e-07
5.478998025e-07
5.479262508e-07
5.479220058e-07
5.479164929e-07
5.479310013e-07
5.480015926e-07
5.484081237e-07
5.491755765e-07
5.501262127e-07
5.512392578e-07
5.525289275e-07
5.541257838e-07
5.561105579e-07
5.597907571e-07
5.831283617e-07
1.127471561e-06
1.134122734e-05
5.465877651e-07
5.465774411e-07
5.465896872e-07
5.466224352e-07
5.466937666e-07
5.468160528e-07
5.469906398e-07
5.472010773e-07
5.474226832e-07
5.47557117e-07
5.476333561e-07
5.476627436e-07
5.476762929e-07
5.477029591e-07
5.477893476e-07
5.482199424e-07
5.48996723e-07
5.499479836e-07
5.510494004e-07
5.523175513e-07
5.538945817e-07
5.55782544e-07
5.586228613e-07
5.622965891e-07
5.854248499e-07
1.129653915e-06
1.134076852e-05
5.466421286e-07
5.466429177e-07
5.466474211e-07
5.466661001e-07
5.46711746e-07
5.467961219e-07
5.469216529e-07
5.470783778e-07
5.472475282e-07
5.473626102e-07
5.474408852e-07
5.474922651e-07
5.47544641e-07
5.476691089e-07
5.48153313e-07
5.48949266e-07
5.499082146e-07
5.510135801e-07
5.52283642e-07
5.538603599e-07
5.557373852e-07
5.584660378e-07
5.616830474e-07
5.650582256e-07
5.879562599e-07
1.1320615e-06
1.13402563e-05
5.468461961e-07
5.468465667e-07
5.468404699e-07
5.468416411e-07
5.468609061e-07
5.46907546e-07
5.469860501e-07
5.470918648e-07
5.472122674e-07
5.473119917e-07
5.473983389e-07
5.474857317e-07
5.476997485e-07
5.482631745e-07
5.490811202e-07
5.50047653e-07
5.511665054e-07
5.524673956e-07
5.540640582e-07
5.559978177e-07
5.58818453e-07
5.620417147e-07
5.648994122e-07
5.679671898e-07
5.906310382e-07
1.134612547e-06
1.133971291e-05
5.4717204e-07
5.471710086e-07
5.471571679e-07
5.471457925e-07
5.471452742e-07
5.471636607e-07
5.472073004e-07
5.472751533e-07
5.4736117e-07
5.474528314e-07
5.475644778e-07
5.479214391e-07
5.485757086e-07
5.494204857e-07
5.504088633e-07
5.515453424e-07
5.529281474e-07
5.545646218e-07
5.566320827e-07
5.597107302e-07
5.62817499e-07
5.656499933e-07
5.681517529e-07
5.70922817e-07
5.933608412e-07
1.137225504e-06
1.133915839e-05
5.475887922e-07
5.475890916e-07
5.475741009e-07
5.475580858e-07
5.475482422e-07
5.475520193e-07
5.475755851e-07
5.476236598e-07
5.476995143e-07
5.479156665e-07
5.484107148e-07
5.491325613e-07
5.500091373e-07
5.510317243e-07
5.52266056e-07
5.537270299e-07
5.555279965e-07
5.581039979e-07
5.611039156e-07
5.64000874e-07
5.667107226e-07
5.691694052e-07
5.713424035e-07
5.738387508e-07
5.960684506e-07
1.139827784e-06
1.133860957e-05
5.486923591e-07
5.485376762e-07
5.483413216e-07
5.48146961e-07
5.480413132e-07
5.480458406e-07
5.480710525e-07
5.482310594e-07
5.486231316e-07
5.492231237e-07
5.50000077e-07
5.509564342e-07
5.521026268e-07
5.534638385e-07
5.551591729e-07
5.575535995e-07
5.602240358e-07
5.629081993e-07
5.655400869e-07
5.680554379e-07
5.703989794e-07
5.725197825e-07
5.743946049e-07
5.766437936e-07
5.986861313e-07
1.142354159e-06
1.133807978e-05
5.510340413e-07
5.508288369e-07
5.505195799e-07
5.501371501e-07
5.497592116e-07
5.49540586e-07
5.495584471e-07
5.49930082e-07
5.506900457e-07
5.516566917e-07
5.528315467e-07
5.542710071e-07
5.560987855e-07
5.581421853e-07
5.603429118e-07
5.626485804e-07
5.649995435e-07
5.673432818e-07
5.696260496e-07
5.717992431e-07
5.738170755e-07
5.756397386e-07
5.772530453e-07
5.792857163e-07
6.011639816e-07
1.144755348e-06
1.133757931e-05
5.544661008e-07
5.544620985e-07
5.544323176e-07
5.544195401e-07
5.544609462e-07
5.546175117e-07
5.54927336e-07
5.554271924e-07
5.561534246e-07
5.57125595e-07
5.583434689e-07
5.597974029e-07
5.614581792e-07
5.632841261e-07
5.652324175e-07
5.672559219e-07
5.693076918e-07
5.713429023e-07
5.733167055e-07
5.751897353e-07
5.769244798e-07
5.78489208e-07
5.798771243e-07
5.817239505e-07
6.034638357e-07
1.146992343e-06
1.133711554e-05
5.584518891e-07
5.585825879e-07
5.587199876e-07
5.588978209e-07
5.591323459e-07
5.594549467e-07
5.59899092e-07
5.604928981e-07
5.612635249e-07
5.622221095e-07
5.633751863e-07
5.647117943e-07
5.662095304e-07
5.678355435e-07
5.695540357e-07
5.713269849e-07
5.731172161e-07
5.748837817e-07
5.76591715e-07
5.782078138e-07
5.79701676e-07
5.810480541e-07
5.822460145e-07
5.83936059e-07
6.055576175e-07
1.149036144e-06
1.133669361e-05
5.622540907e-07
5.62464988e-07
5.626975458e-07
5.629760312e-07
5.633170017e-07
5.637407064e-07
5.642664437e-07
5.649180358e-07
5.657074236e-07
5.666463777e-07
5.677373691e-07
5.689690742e-07
5.703235804e-07
5.717763914e-07
5.732991085e-07
5.748603873e-07
5.764259719e-07
5.779651068e-07
5.794491331e-07
5.808496082e-07
5.821421225e-07
5.833064966e-07
5.843463333e-07
5.859061299e-07
6.074300512e-07
1.150869366e-06
1.133631684e-05
5.65643764e-07
5.659019296e-07
5.661934591e-07
5.665408249e-07
5.669509536e-07
5.674385782e-07
5.680182835e-07
5.687004321e-07
5.694953397e-07
5.70411666e-07
5.714443497e-07
5.725853396e-07
5.738191105e-07
5.751277575e-07
5.764858758e-07
5.778686371e-07
5.792490988e-07
5.806005576e-07
5.818995972e-07
5.831227005e-07
5.842499125e-07
5.852651152e-07
5.861754263e-07
5.876284507e-07
6.09072297e-07
1.152480916e-06
1.133598726e-05
5.685631959e-07
5.688519956e-07
5.69180923e-07
5.69570181e-07
5.700278432e-07
5.705570812e-07
5.711675543e-07
5.718665282e-07
5.72661749e-07
5.735503321e-07
5.745312821e-07
5.755958837e-07
5.767312649e-07
5.779207569e-07
5.791455466e-07
5.803838697e-07
5.816131363e-07
5.828134886e-07
5.839630212e-07
5.850426831e-07
5.860366165e-07
5.869317094e-07
5.877374611e-07
5.891039503e-07
6.104823604e-07
1.153866068e-06
1.133570606e-05
5.710117088e-07
5.71317929e-07
5.716705977e-07
5.720906173e-07
5.725750667e-07
5.731298207e-07
5.737594655e-07
5.744673025e-07
5.752529447e-07
5.761171045e-07
5.770537008e-07
5.780552471e-07
5.791116008e-07
5.802065231e-07
5.813253328e-07
5.824489355e-07
5.835595735e-07
5.846396785e-07
5.856712663e-07
5.866394076e-07
5.875285434e-07
5.883288144e-07
5.890515978e-07
5.903484376e-07
6.116706886e-07
1.155026696e-06
1.133547419e-05
5.73359718e-07
5.736769279e-07
5.740474605e-07
5.744825761e-07
5.749830229e-07
5.755545858e-07
5.76194122e-07
5.769025298e-07
5.776789623e-07
5.785209467e-07
5.79421592e-07
5.80374576e-07
5.813687781e-07
5.823921937e-07
5.834301445e-07
5.844668586e-07
5.854878764e-07
5.864772836e-07
5.874200895e-07
5.883025688e-07
5.89112931e-07
5.898406372e-07
5.904991363e-07
5.917359918e-07
6.129605118e-07
1.156117206e-06
1.133528837e-05
5.883853148e-07
5.887090606e-07
5.890871497e-07
5.895300226e-07
5.900438232e-07
5.906205352e-07
5.912656077e-07
5.919718025e-07
5.927399619e-07
5.935646675e-07
5.944392574e-07
5.953576749e-07
5.963084099e-07
5.972811415e-07
5.982635152e-07
5.992400556e-07
6.001990342e-07
6.011259401e-07
6.020073893e-07
6.028310678e-07
6.035858376e-07
6.042629946e-07
6.048719993e-07
6.060004365e-07
6.263560747e-07
1.165380635e-06
1.133492481e-05
9.952173947e-07
9.955405551e-07
9.959117467e-07
9.963506664e-07
9.968562536e-07
9.974281895e-07
9.980644037e-07
9.98762511e-07
9.995218192e-07
1.000336653e-06
1.001200194e-06
1.002106441e-06
1.003044619e-06
1.004004581e-06
1.004973524e-06
1.005937933e-06
1.006885715e-06
1.007802084e-06
1.008674208e-06
1.009489469e-06
1.010236247e-06
1.010904429e-06
1.01149141e-06
1.012307935e-06
1.027253276e-06
1.51041508e-06
1.132705217e-05
9.978369094e-06
9.978312943e-06
9.978304267e-06
9.978290943e-06
9.978269533e-06
9.978236898e-06
9.978190125e-06
9.978126667e-06
9.978044167e-06
9.977941355e-06
9.977818054e-06
9.977674305e-06
9.977511551e-06
9.977332695e-06
9.977140346e-06
9.976938295e-06
9.976731373e-06
9.97652366e-06
9.976320015e-06
9.976125202e-06
9.975943878e-06
9.975780548e-06
9.975639461e-06
9.975516587e-06
9.975010323e-06
9.958512843e-06
1.125051632e-05
1.24102023e-07
1.241402701e-07
1.241525835e-07
1.241418566e-07
1.241027888e-07
1.240399093e-07
1.239648244e-07
1.238929618e-07
1.238401855e-07
1.238172624e-07
1.238310844e-07
1.238839457e-07
1.239683337e-07
1.241062951e-07
1.242910428e-07
1.240865913e-07
1.241339712e-07
1.241925121e-07
1.242649195e-07
1.243391054e-07
1.243959801e-07
1.244227624e-07
1.243999822e-07
1.24330898e-07
1.242304174e-07
1.241189226e-07
1.24014879e-07
1.239316525e-07
1.23885619e-07
1.238876072e-07
1.239383216e-07
1.240400446e-07
1.241930007e-07
1.244024534e-07
1.246704801e-07
1.249632391e-07
1.253549095e-07
1.278937404e-07
1.65429431e-07
8.027996629e-07
1.134476389e-05
1.24130131e-07
1.241685819e-07
1.242150797e-07
1.242876285e-07
1.243879376e-07
1.245162863e-07
1.246596803e-07
1.247894531e-07
1.248848083e-07
1.248934922e-07
1.248142831e-07
1.246731268e-07
1.245044825e-07
1.243388296e-07
1.241967566e-07
1.240889105e-07
1.240187076e-07
1.239927814e-07
1.240311692e-07
1.241342435e-07
1.243016046e-07
1.24547029e-07
1.24856567e-07
1.252692422e-07
1.278277825e-07
1.653761279e-07
8.026438601e-07
1.13451745e-05
1.243292667e-07
1.243816331e-07
1.244336464e-07
1.245371757e-07
1.246906388e-07
1.249019179e-07
1.251552017e-07
1.254042736e-07
1.256228155e-07
1.256914447e-07
1.255886927e-07
1.253757496e-07
1.251119481e-07
1.248478625e-07
1.246155782e-07
1.244298082e-07
1.242940564e-07
1.242065346e-07
1.241638128e-07
1.241729453e-07
1.242707654e-07
1.244546711e-07
1.247649901e-07
1.251993119e-07
1.277783842e-07
1.65337429e-07
8.024895349e-07
1.134564867e-05
1.247212523e-07
1.247668545e-07
1.249085243e-07
1.251285448e-07
1.254529058e-07
1.258642335e-07
1.262960695e-07
1.267175115e-07
1.269075498e-07
1.267429143e-07
1.264089954e-07
1.25996989e-07
1.255870923e-07
1.252262705e-07
1.249322576e-07
1.247057724e-07
1.245412588e-07
1.244331619e-07
1.243769556e-07
1.243679422e-07
1.244535355e-07
1.247041736e-07
1.251558959e-07
1.27754693e-07
1.65323054e-07
8.023560347e-07
1.134612825e-05
1.252472506e-07
1.252417068e-07
1.254202759e-07
1.257048407e-07
1.261633017e-07
1.267761443e-07
1.2745457e-07
1.281712414e-07
1.285801959e-07
1.282825864e-07
1.277731598e-07
1.271590084e-07
1.265592373e-07
1.260376431e-07
1.256113993e-07
1.25273787e-07
1.250113424e-07
1.248151494e-07
1.246821888e-07
1.246106716e-07
1.245961474e-07
1.247113766e-07
1.251497122e-07
1.277630069e-07
1.653378346e-07
8.022532262e-07
1.134659271e-05
1.260000545e-07
1.258596649e-07
1.26054965e-07
1.263732619e-07
1.269679936e-07
1.278137325e-07
1.288157611e-07
1.299504883e-07
1.308071736e-07
1.301747158e-07
1.294014875e-07
1.285167068e-07
1.276943528e-07
1.270021562e-07
1.264421763e-07
1.259904608e-07
1.256192878e-07
1.25315496e-07
1.250817842e-07
1.249242192e-07
1.248469445e-07
1.248708056e-07
1.251863159e-07
1.278050787e-07
1.653820751e-07
8.02186703e-07
1.134701326e-05
1.269259942e-07
1.265629324e-07
1.267152115e-07
1.269872939e-07
1.276510558e-07
1.286889708e-07
1.300539151e-07
1.317797715e-07
1.337992956e-07
1.322160683e-07
1.310214818e-07
1.298120486e-07
1.28786857e-07
1.279760032e-07
1.273316722e-07
1.267996951e-07
1.26331868e-07
1.259113776e-07
1.255565435e-07
1.252912162e-07
1.251379671e-07
1.251112894e-07