/*--------------------------------*- C++ -*----------------------------------*\
  =========                 |
  \\      /  F ield         | OpenFOAM: The Open Source CFD Toolbox
   \\    /   O peration     | Website:  https://openfoam.org
    \\  /    A nd           | Version:  8
     \\/     M anipulation  |
\*---------------------------------------------------------------------------*/
FoamFile
{
    version     2.0;
    format      ascii;
    class       volScalarField;
    location    "0.2";
    object      k;
}
// * * * * * * * * * * * * * * * * * * * * * * * * * * * * * * * * * * * * * //

dimensions      [0 2 -2 0 0 0 0];

internalField   nonuniform List<scalar> 
67451
(
8.030246966e-06
8.030044173e-06
8.029828462e-06
8.029539426e-06
8.029174148e-06
8.028738992e-06
8.028251758e-06
8.027735033e-06
8.027215551e-06
8.026710703e-06
8.026265395e-06
8.030861479e-06
8.030872996e-06
8.030910152e-06
8.030927393e-06
8.030883066e-06
8.030801677e-06
8.030644356e-06
8.030394237e-06
8.030046321e-06
8.029606136e-06
8.029087999e-06
8.028510559e-06
8.02789289e-06
8.0272671e-06
8.026677649e-06
8.026165059e-06
8.025701768e-06
8.02532681e-06
8.025069486e-06
8.02494425e-06
8.024887396e-06
8.024854971e-06
8.024820761e-06
8.024144393e-06
8.008572304e-06
7.67245128e-06
8.031210965e-06
8.031301027e-06
8.031392925e-06
8.03150192e-06
8.031605582e-06
8.0316947e-06
8.031750618e-06
8.031745932e-06
8.031652478e-06
8.031443049e-06
8.03110874e-06
8.030656212e-06
8.030104815e-06
8.029479257e-06
8.028804207e-06
8.028100742e-06
8.027386043e-06
8.026681866e-06
8.026057979e-06
8.02554482e-06
8.02515932e-06
8.024944602e-06
8.024878824e-06
8.024843769e-06
8.024807765e-06
8.02413043e-06
8.008555057e-06
7.672458579e-06
8.031893119e-06
8.031978162e-06
8.0321222e-06
8.032275789e-06
8.032438965e-06
8.032602842e-06
8.032744347e-06
8.032823852e-06
8.032802227e-06
8.032637546e-06
8.032314353e-06
8.031841967e-06
8.031247544e-06
8.030563481e-06
8.029820732e-06
8.029044611e-06
8.028253956e-06
8.027464187e-06
8.026687775e-06
8.025951902e-06
8.025380976e-06
8.024997493e-06
8.024889701e-06
8.024853225e-06
8.024816317e-06
8.024138114e-06
8.008560829e-06
7.672493355e-06
8.032808722e-06
8.03293685e-06
8.033125889e-06
8.033341848e-06
8.033578954e-06
8.033808938e-06
8.033978541e-06
8.034039525e-06
8.033924978e-06
8.033610576e-06
8.033112395e-06
8.032467946e-06
8.031720041e-06
8.030905683e-06
8.030053358e-06
8.029182873e-06
8.02830935e-06
8.027446853e-06
8.026609907e-06
8.025813529e-06
8.025176462e-06
8.024898681e-06
8.024860148e-06
8.02482313e-06
8.024144179e-06
8.008566143e-06
7.672527776e-06
8.033654604e-06
8.03378401e-06
8.033992571e-06
8.034247067e-06
8.034546308e-06
8.034858489e-06
8.035121137e-06
8.035271825e-06
8.035215199e-06
8.034909551e-06
8.034384367e-06
8.033691136e-06
8.032882348e-06
8.032001162e-06
8.031076915e-06
8.03013001e-06
8.029174189e-06
8.028223574e-06
8.027294675e-06
8.026407676e-06
8.025582123e-06
8.024973664e-06
8.024865754e-06
8.024827598e-06
8.024147981e-06
8.008570495e-06
7.672559967e-06
8.034489707e-06
8.034594699e-06
8.034800317e-06
8.035069576e-06
8.035408336e-06
8.035786938e-06
8.03613294e-06
8.036371898e-06
8.036377852e-06
8.036083575e-06
8.035540418e-06
8.034810568e-06
8.0339574e-06
8.033026475e-06
8.032047702e-06
8.03103761e-06
8.030007869e-06
8.028973167e-06
8.027953627e-06
8.026974575e-06
8.026066485e-06
8.025293493e-06
8.024871274e-06
8.024829287e-06
8.024149143e-06
8.008573579e-06
7.672588109e-06
8.035232921e-06
8.035276758e-06
8.035452228e-06
8.035704176e-06
8.036051379e-06
8.036463513e-06
8.036865685e-06
8.037175628e-06
8.037262054e-06
8.036975797e-06
8.036433094e-06
8.035697134e-06
8.034833019e-06
8.03388589e-06
8.032880955e-06
8.031831216e-06
8.030746356e-06
8.02964087e-06
8.028538234e-06
8.027470672e-06
8.026491543e-06
8.025657129e-06
8.024987326e-06
8.02482823e-06
8.024147071e-06
8.008575011e-06
7.672610191e-06
8.03577485e-06
8.035734833e-06
8.03586135e-06
8.036066617e-06
8.036385256e-06
8.036778595e-06
8.037173434e-06
8.037482079e-06
8.037569944e-06
8.037358374e-06
8.036889093e-06
8.036216434e-06
8.035399546e-06
8.034481134e-06
8.033487009e-06
8.032428289e-06
8.031312233e-06
8.030154751e-06
8.028985724e-06
8.027848658e-06
8.026820669e-06
8.025935788e-06
8.025209259e-06
8.024823563e-06
8.024141441e-06
8.00857446e-06
7.672624274e-06
8.036032819e-06
8.03589082e-06
8.035959325e-06
8.036105177e-06
8.036381593e-06
8.036739628e-06
8.03711387e-06
8.037418243e-06
8.037528477e-06
8.037368153e-06
8.036967642e-06
8.0363687e-06
8.035618111e-06
8.034753303e-06
8.033795146e-06
8.032752068e-06
8.031629204e-06
8.030444025e-06
8.029233014e-06
8.028068151e-06
8.027014676e-06
8.026093141e-06
8.025338637e-06
8.024817038e-06
8.024131726e-06
8.008571616e-06
7.672628415e-06
8.035781966e-06
8.035629299e-06
8.035676245e-06
8.035794652e-06
8.036040276e-06
8.036365322e-06
8.036711745e-06
8.036995581e-06
8.037111479e-06
8.036999793e-06
8.036667469e-06
8.036142007e-06
8.035460843e-06
8.03465637e-06
8.033746574e-06
8.03273994e-06
8.031635066e-06
8.030449002e-06
8.029237798e-06
8.028086526e-06
8.027029831e-06
8.026103198e-06
8.025355417e-06
8.024828315e-06
8.024117897e-06
8.008566333e-06
7.672621616e-06
8.035129548e-06
8.035003545e-06
8.03505221e-06
8.035169991e-06
8.035401778e-06
8.03570676e-06
8.03603283e-06
8.03630133e-06
8.036422821e-06
8.036339348e-06
8.036049862e-06
8.035572534e-06
8.034937537e-06
8.034173185e-06
8.033297328e-06
8.03231916e-06
8.031243829e-06
8.030096667e-06
8.028955125e-06
8.027858611e-06
8.026841647e-06
8.025950449e-06
8.025251038e-06
8.02478842e-06
8.024100126e-06
8.008558669e-06
7.672603371e-06
8.034152432e-06
8.034080778e-06
8.034149498e-06
8.034286121e-06
8.034518679e-06
8.034814215e-06
8.035126154e-06
8.035381586e-06
8.035503024e-06
8.035430486e-06
8.035160745e-06
8.034708001e-06
8.034099657e-06
8.033362709e-06
8.032516572e-06
8.03157334e-06
8.030545891e-06
8.029491422e-06
8.028440712e-06
8.027420575e-06
8.026480273e-06
8.025673831e-06
8.025048976e-06
8.024755132e-06
8.024079138e-06
8.008548897e-06
7.672574222e-06
8.03297373e-06
8.0329544e-06
8.03304819e-06
8.033207473e-06
8.033444782e-06
8.033733736e-06
8.034031714e-06
8.034271644e-06
8.034386645e-06
8.034310822e-06
8.034044828e-06
8.033601733e-06
8.033008843e-06
8.032293812e-06
8.031477972e-06
8.030579011e-06
8.029646538e-06
8.028697498e-06
8.027745067e-06
8.026828735e-06
8.025994688e-06
8.025310855e-06
8.024826937e-06
8.02472884e-06
8.024055777e-06
8.008537437e-06
7.67253547e-06
8.031693382e-06
8.031708934e-06
8.031822664e-06
8.031996219e-06
8.032231932e-06
8.032506872e-06
8.032781893e-06
8.032997029e-06
8.033094004e-06
8.033007906e-06
8.032740223e-06
8.032304531e-06
8.031728466e-06
8.031040257e-06
8.030265818e-06
8.029459483e-06
8.02863101e-06
8.027783292e-06
8.026944096e-06
8.026150416e-06
8.025467513e-06
8.024932852e-06
8.024736003e-06
8.024701592e-06
8.024030993e-06
8.008524796e-06
7.672488955e-06
8.030380474e-06
8.030413809e-06
8.030535348e-06
8.030709188e-06
8.030929989e-06
8.031178584e-06
8.031416717e-06
8.031594205e-06
8.031660242e-06
8.031560088e-06
8.031293589e-06
8.030873224e-06
8.030324711e-06
8.029681466e-06
8.029002808e-06
8.028295852e-06
8.027563499e-06
8.02682672e-06
8.026114398e-06
8.025482545e-06
8.024963054e-06
8.024724537e-06
8.024706257e-06
8.024674106e-06
8.024005819e-06
8.008511542e-06
7.6724368e-06
8.029084189e-06
8.029121722e-06
8.029237771e-06
8.029397156e-06
8.029590941e-06
8.029799747e-06
8.029990318e-06
8.030121093e-06
8.030149709e-06
8.030035178e-06
8.029774314e-06
8.029378109e-06
8.028883459e-06
8.028340855e-06
8.027756881e-06
8.027141169e-06
8.026515476e-06
8.025905946e-06
8.025356088e-06
8.024902652e-06
8.024712108e-06
8.024692943e-06
8.024677849e-06
8.024647165e-06
8.023981076e-06
8.008498155e-06
7.672381142e-06
8.02784011e-06
8.027869415e-06
8.027969931e-06
8.028103041e-06
8.028260974e-06
8.028423527e-06
8.028561543e-06
8.028642887e-06
8.02863419e-06
8.028506324e-06
8.028256001e-06
8.027922203e-06
8.027524284e-06
8.027069281e-06
8.026574797e-06
8.026062162e-06
8.025569724e-06
8.025118816e-06
8.024771117e-06
8.024699068e-06
8.024679943e-06
8.02466428e-06
8.024650874e-06
8.024621494e-06
8.023957427e-06
8.008485058e-06
7.672323974e-06
8.026668239e-06
8.026682825e-06
8.026760593e-06
8.02686281e-06
8.026979482e-06
8.027093845e-06
8.027182205e-06
8.027217434e-06
8.027175797e-06
8.027054708e-06
8.026867572e-06
8.026608664e-06
8.026285055e-06
8.025915552e-06
8.025533314e-06
8.025161009e-06
8.024843128e-06
8.024709034e-06
8.024686331e-06
8.024667799e-06
8.024651693e-06
8.024637849e-06
8.024625826e-06
8.024597572e-06
8.023935306e-06
8.008472558e-06
7.672267029e-06
8.025739864e-06
8.025696755e-06
8.025702495e-06
8.025725037e-06
8.02577583e-06
8.025844834e-06
8.02588862e-06
8.02590275e-06
8.025881131e-06
8.02580407e-06
8.025665212e-06
8.025473122e-06
8.025244947e-06
8.025001685e-06
8.024788577e-06
8.024717798e-06
8.024694668e-06
8.024674613e-06
8.024656602e-06
8.024640416e-06
8.02462612e-06
8.024613786e-06
8.024603e-06
8.024575717e-06
8.023915058e-06
8.008460899e-06
7.672211739e-06
8.025185673e-06
8.025112032e-06
8.025065502e-06
8.025009747e-06
8.024950681e-06
8.02490401e-06
8.024872336e-06
8.024864009e-06
8.024877481e-06
8.024862787e-06
8.024819069e-06
8.024768077e-06
8.024745683e-06
8.024723394e-06
8.024702173e-06
8.024682537e-06
8.024663998e-06
8.024646566e-06
8.024630547e-06
8.024616089e-06
8.024603303e-06
8.024592233e-06
8.024582478e-06
8.024556021e-06
8.023896783e-06
8.008450213e-06
7.672159232e-06
8.024942532e-06
8.024889369e-06
8.024870856e-06
8.024853065e-06
8.024835875e-06
8.02482102e-06
8.024807094e-06
8.024792872e-06
8.024777944e-06
8.024761684e-06
8.024744469e-06
8.024726516e-06
8.024708272e-06
8.024690007e-06
8.024671986e-06
8.024654494e-06
8.024637809e-06
8.024622144e-06
8.024607756e-06
8.024594738e-06
8.024583208e-06
8.024573207e-06
8.02456433e-06
8.02453857e-06
8.023880492e-06
8.008440566e-06
7.672110345e-06
8.024868782e-06
8.024823684e-06
8.024813979e-06
8.024804441e-06
8.02479412e-06
8.024782932e-06
8.024770829e-06
8.024757714e-06
8.02474349e-06
8.024728424e-06
8.024712572e-06
8.024696148e-06
8.024679417e-06
8.024662745e-06
8.024646342e-06
8.024630461e-06
8.024615261e-06
8.024601062e-06
8.024587991e-06
8.024576163e-06
8.024565676e-06
8.024556557e-06
8.024548399e-06
8.024523229e-06
8.023866212e-06
8.00843201e-06
7.672065703e-06
8.024830576e-06
8.024788003e-06
8.024780313e-06
8.024772076e-06
8.024762741e-06
8.024752322e-06
8.024740847e-06
8.024728273e-06
8.024714857e-06
8.024700681e-06
8.024685817e-06
8.024670542e-06
8.024655111e-06
8.024639731e-06
8.024624608e-06
8.024609947e-06
8.024596026e-06
8.02458302e-06
8.02457102e-06
8.024560176e-06
8.02455055e-06
8.024542166e-06
8.024534614e-06
8.024509942e-06
8.023853817e-06
8.008424522e-06
7.672025709e-06
8.02480278e-06
8.02476068e-06
8.024753504e-06
8.024745652e-06
8.024736717e-06
8.024726692e-06
8.02471562e-06
8.024703667e-06
8.02469095e-06
8.024677457e-06
8.024663458e-06
8.024649137e-06
8.024634743e-06
8.024620378e-06
8.024606311e-06
8.024592713e-06
8.024579791e-06
8.02456773e-06
8.024556617e-06
8.024546577e-06
8.024537662e-06
8.024529888e-06
8.024522843e-06
8.024498589e-06
8.023843219e-06
8.008418084e-06
7.671990638e-06
8.024780298e-06
8.024738393e-06
8.024731478e-06
8.024723904e-06
8.024715161e-06
8.024705468e-06
8.024694838e-06
8.024683382e-06
8.024671122e-06
8.024658301e-06
8.024645009e-06
8.024631472e-06
8.024617852e-06
8.024604336e-06
8.024591101e-06
8.024578336e-06
8.024566253e-06
8.024554931e-06
8.024544541e-06
8.024535167e-06
8.024526837e-06
8.024519565e-06
8.024512941e-06
8.024489038e-06
8.023834303e-06
8.008412661e-06
7.671960669e-06
8.024761915e-06
8.024720168e-06
8.024713423e-06
8.024705949e-06
8.024697504e-06
8.024688088e-06
8.024677773e-06
8.024666658e-06
8.024654901e-06
8.024642556e-06
8.024629847e-06
8.024616933e-06
8.024603921e-06
8.02459107e-06
8.024578493e-06
8.024566414e-06
8.024554971e-06
8.024544281e-06
8.024534475e-06
8.024525592e-06
8.024517729e-06
8.024510863e-06
8.024504585e-06
8.024480977e-06
8.023826807e-06
8.008408192e-06
7.671935958e-06
8.024737207e-06
8.024695585e-06
8.024688873e-06
8.024681633e-06
8.024673435e-06
8.024664184e-06
8.024654134e-06
8.024643364e-06
8.024631944e-06
8.024620002e-06
8.024607764e-06
8.024595305e-06
8.024582819e-06
8.024570464e-06
8.024558415e-06
8.024546866e-06
8.024535919e-06
8.024525713e-06
8.024516351e-06
8.024507896e-06
8.024500379e-06
8.024493848e-06
8.024487858e-06
8.024464588e-06
8.023812105e-06
8.008402686e-06
7.671916516e-06
8.024316803e-06
8.024275454e-06
8.024269084e-06
8.024262289e-06
8.024254389e-06
8.024245734e-06
8.024236178e-06
8.024226019e-06
8.02421522e-06
8.024203969e-06
8.024192441e-06
8.0241807e-06
8.024168961e-06
8.024157353e-06
8.024146011e-06
8.024135168e-06
8.024124878e-06
8.02411529e-06
8.024106493e-06
8.02409855e-06
8.024091503e-06
8.024085367e-06
8.024079789e-06
8.024058398e-06
8.02343719e-06
8.00827973e-06
7.671882346e-06
8.01422452e-06
8.014185678e-06
8.014182666e-06
8.014179714e-06
8.014176318e-06
8.014172483e-06
8.014168238e-06
8.014163593e-06
8.014158562e-06
8.014153213e-06
8.014147623e-06
8.014141816e-06
8.014135886e-06
8.014129899e-06
8.014123936e-06
8.0141181e-06
8.014112452e-06
8.014107094e-06
8.014102089e-06
8.014097499e-06
8.014093375e-06
8.01408976e-06
8.014086609e-06
8.014078827e-06
8.013804505e-06
8.003149314e-06
7.670179932e-06
7.859593329e-06
7.859553488e-06
7.859552382e-06
7.859551498e-06
7.859550099e-06
7.859548013e-06
7.859545057e-06
7.859541086e-06
7.85953597e-06
7.859529624e-06
7.859522044e-06
7.859513235e-06
7.859503287e-06
7.859492339e-06
7.859480598e-06
7.859468264e-06
7.859455614e-06
7.859442924e-06
7.859430474e-06
7.85941856e-06
7.859407471e-06
7.85939749e-06
7.859388892e-06
7.859381128e-06
7.85929735e-06
7.853630743e-06
7.572355894e-06
9.895819002e-06
9.895461353e-06
9.894814552e-06
9.893867607e-06
9.892686185e-06
9.891388226e-06
9.890110253e-06
9.888975207e-06
9.888067895e-06
9.887442852e-06
9.887119255e-06
9.896583791e-06
9.896982099e-06
9.897397001e-06
9.897776714e-06
9.898029273e-06
9.89803277e-06
9.897671398e-06
9.896855755e-06
9.895625891e-06
9.894120633e-06
9.892533192e-06
9.891051088e-06
9.889817331e-06
9.88890932e-06
9.888341935e-06
9.888115254e-06
9.888191287e-06
9.888521072e-06
9.889016969e-06
9.889583755e-06
9.890202265e-06
9.890843715e-06
9.891212118e-06
9.88630498e-06
9.763211849e-06
7.439890068e-06
9.897354701e-06
9.8978334e-06
9.898347428e-06
9.898987919e-06
9.899760812e-06
9.90063159e-06
9.901480385e-06
9.902090351e-06
9.902251134e-06
9.901700407e-06
9.900424693e-06
9.89860247e-06
9.896519226e-06
9.894460933e-06
9.892646114e-06
9.89120982e-06
9.89021756e-06
9.889681574e-06
9.889534259e-06
9.88971177e-06
9.890136432e-06
9.890678264e-06
9.89124591e-06
9.891873721e-06
9.89225272e-06
9.887331488e-06
9.763863934e-06
7.440091857e-06
9.899721535e-06
9.900373023e-06
9.90109862e-06
9.902094974e-06
9.903393588e-06
9.904996767e-06
9.906764063e-06
9.908345244e-06
9.909402395e-06
9.909325825e-06
9.907983773e-06
9.905655891e-06
9.902794237e-06
9.899846601e-06
9.897146477e-06
9.894893178e-06
9.89318027e-06
9.892035998e-06
9.891451096e-06
9.891374649e-06
9.891639573e-06
9.892126941e-06
9.89260844e-06
9.893169771e-06
9.893526569e-06
9.888566047e-06
9.764620653e-06
7.440328199e-06
9.904310971e-06
9.90524288e-06
9.906683663e-06
9.908659409e-06
9.911252216e-06
9.914316189e-06
9.917331623e-06
9.919812414e-06
9.920544102e-06
9.919061598e-06
9.915948558e-06
9.911934438e-06
9.907711032e-06
9.903766059e-06
9.900369254e-06
9.897639327e-06
9.895609987e-06
9.894278584e-06
9.893615626e-06
9.893556975e-06
9.893909849e-06
9.894327648e-06
9.894752422e-06
9.895037649e-06
9.890002212e-06
9.765465871e-06
7.44056303e-06
9.91006644e-06
9.911052832e-06
9.912930974e-06
9.915616254e-06
9.919348979e-06
9.924014415e-06
9.928906164e-06
9.933393736e-06
9.935435387e-06
9.933658608e-06
9.929468229e-06
9.923943633e-06
9.918104417e-06
9.912614382e-06
9.90780195e-06
9.903787708e-06
9.900601529e-06
9.898251778e-06
9.896735365e-06
9.896011817e-06
9.895977767e-06
9.89632868e-06
9.896595202e-06
9.896749488e-06
9.891597056e-06
9.766369384e-06
7.440785374e-06
9.917804496e-06
9.918390832e-06
9.920532791e-06
9.923717567e-06
9.928514323e-06
9.934851898e-06
9.941882495e-06
9.948825967e-06
9.95284089e-06
9.950442784e-06
9.944985526e-06
9.937792469e-06
9.930245648e-06
9.923160933e-06
9.916873755e-06
9.911467075e-06
9.906948502e-06
9.903348154e-06
9.900726715e-06
9.899103891e-06
9.898397063e-06
9.898365453e-06
9.898595464e-06
9.898561826e-06
9.893247399e-06
9.767270489e-06
7.440983209e-06
9.926983635e-06
9.926434201e-06
9.928431785e-06
9.931526448e-06
9.936834068e-06
9.944315626e-06
9.953268455e-06
9.962746491e-06
9.97062617e-06
9.966354041e-06
9.959566833e-06
9.950962911e-06
9.942181172e-06
9.933975896e-06
9.926570493e-06
9.919972836e-06
9.914155006e-06
9.909203052e-06
9.905302875e-06
9.902594576e-06
9.901037543e-06
9.900417165e-06
9.900449521e-06
9.900288426e-06
9.894784636e-06
9.768078396e-06
7.441141352e-06
9.936332522e-06
9.93386283e-06
9.9351258e-06
9.93731261e-06
9.942055237e-06
9.948895242e-06
9.956960192e-06
9.965203654e-06
9.970576566e-06
9.969850607e-06
9.9655417e-06
9.958784677e-06
9.950926181e-06
9.942942158e-06
9.935271042e-06
9.928026023e-06
9.921210931e-06
9.915016345e-06
9.909833931e-06
9.905986917e-06
9.90350726e-06
9.902243879e-06
9.901897952e-06
9.901683523e-06
9.895995863e-06
9.768683206e-06
7.441246679e-06
9.943913974e-06
9.939000861e-06
9.938916851e-06
9.939792169e-06
9.9436375e-06
9.949688355e-06
9.957273209e-06
9.965284428e-06
9.971088956e-06
9.971226905e-06
9.968103668e-06
9.962600296e-06
9.955888556e-06
9.948726996e-06
9.941461573e-06
9.934163799e-06
9.926813914e-06
9.919684299e-06
9.91342871e-06
9.908562029e-06
9.905263391e-06
9.903448003e-06
9.902760923e-06
9.902449055e-06
9.896624239e-06
9.768957888e-06
7.441286507e-06
9.942528519e-06
9.937846042e-06
9.937411652e-06
9.93783357e-06
9.940984881e-06
9.946093465e-06
9.952612839e-06
9.95948536e-06
9.964571411e-06
9.96600865e-06
9.964570186e-06
9.960855304e-06
9.95569817e-06
9.94979366e-06
9.943431936e-06
9.936798309e-06
9.929560418e-06
9.921965047e-06
9.915025644e-06
9.909495661e-06
9.905719513e-06
9.903594715e-06
9.90271226e-06
9.902303191e-06
9.896459384e-06
9.768802827e-06
7.441250189e-06
9.935729266e-06
9.932109224e-06
9.931860266e-06
9.932388065e-06
9.935205692e-06
9.939734531e-06
9.945530588e-06
9.951640011e-06
9.956434326e-06
9.958322174e-06
9.95768083e-06
9.954859479e-06
9.950498825e-06
9.94519467e-06
9.939266163e-06
9.932893116e-06
9.926062555e-06
9.919118403e-06
9.912774732e-06
9.907724174e-06
9.904294808e-06
9.902384636e-06
9.901603721e-06
9.901224274e-06
9.89545051e-06
9.768197098e-06
7.4411355e-06
9.925589363e-06
9.92343031e-06
9.923686393e-06
9.924649974e-06
9.927388092e-06
9.931576286e-06
9.93684601e-06
9.942364957e-06
9.946870186e-06
9.948744675e-06
9.948300663e-06
9.945784533e-06
9.9417813e-06
9.936862451e-06
9.931396856e-06
9.925613299e-06
9.919611104e-06
9.913669755e-06
9.908380475e-06
9.904286477e-06
9.901583289e-06
9.900149945e-06
9.899655216e-06
9.899343912e-06
9.893743331e-06
9.767208309e-06
7.440946533e-06
9.91480655e-06
9.913905204e-06
9.914576267e-06
9.91594892e-06
9.918635044e-06
9.922520478e-06
9.92730703e-06
9.932267214e-06
9.936475417e-06
9.938000099e-06
9.937414355e-06
9.93490284e-06
9.931081078e-06
9.926523024e-06
9.921623878e-06
9.916632297e-06
9.911649329e-06
9.906959465e-06
9.902991568e-06
9.900052353e-06
9.898230695e-06
9.89737113e-06
9.897184638e-06
9.896972122e-06
9.891594123e-06
9.765956394e-06
7.440693227e-06
9.905224846e-06
9.905104437e-06
9.905943438e-06
9.907445482e-06
9.90991149e-06
9.913327205e-06
9.91746155e-06
9.921703634e-06
9.925361807e-06
9.926539596e-06
9.925776378e-06
9.923329594e-06
9.919822374e-06
9.915807725e-06
9.911665198e-06
9.907579232e-06
9.903730735e-06
9.900361146e-06
9.897690495e-06
9.895858793e-06
9.894841575e-06
9.894506712e-06
9.894491634e-06
9.894474737e-06
9.889308661e-06
9.7645922e-06
7.440389267e-06
9.897635196e-06
9.897845246e-06
9.89864862e-06
9.899987278e-06
9.902030755e-06
9.904766371e-06
9.908016004e-06
9.911295238e-06
9.914039111e-06
9.914886732e-06
9.91416835e-06
9.912113628e-06
9.909242618e-06
9.906029959e-06
9.902764986e-06
9.89969438e-06
9.897003822e-06
9.894821365e-06
9.893244092e-06
9.892283285e-06
9.891896889e-06
9.891835695e-06
9.892000511e-06
9.892175777e-06
9.887169853e-06
9.763262091e-06
7.440049833e-06
9.892182914e-06
9.892453294e-06
9.8930901e-06
9.894116917e-06
9.895629975e-06
9.897613289e-06
9.89992121e-06
9.902210523e-06
9.904042811e-06
9.904610077e-06
9.904047199e-06
9.902534163e-06
9.900424875e-06
9.898052285e-06
9.895729685e-06
9.893670565e-06
9.891988369e-06
9.890747469e-06
9.889960423e-06
9.889604659e-06
9.889492941e-06
9.889618453e-06
9.890005419e-06
9.890295418e-06
9.885382166e-06
9.762077713e-06
7.439689729e-06
9.888695898e-06
9.888916975e-06
9.889357235e-06
9.890055636e-06
9.891064177e-06
9.892372345e-06
9.893869846e-06
9.895322746e-06
9.896437863e-06
9.896789952e-06
9.896408038e-06
9.895370403e-06
9.893921436e-06
9.89235228e-06
9.89088483e-06
9.889656936e-06
9.888728096e-06
9.888129791e-06
9.887824315e-06
9.887651704e-06
9.887755774e-06
9.88810817e-06
9.888610919e-06
9.888942352e-06
9.884056445e-06
9.761107464e-06
7.439322278e-06
9.886878447e-06
9.887034213e-06
9.887314678e-06
9.887749699e-06
9.888368356e-06
9.889163398e-06
9.890062417e-06
9.890917511e-06
9.89154994e-06
9.891731419e-06
9.891431694e-06
9.890746304e-06
9.889849013e-06
9.88891383e-06
9.888068252e-06
9.887401301e-06
9.886935345e-06
9.88659114e-06
9.886426827e-06
9.886517988e-06
9.886824014e-06
9.887280751e-06
9.887813507e-06
9.888130893e-06
9.883218684e-06
9.760377426e-06
7.438958665e-06
9.886266012e-06
9.886415776e-06
9.886634503e-06
9.886936384e-06
9.887321824e-06
9.887780632e-06
9.8882903e-06
9.888745186e-06
9.889027074e-06
9.889049029e-06
9.888815802e-06
9.888380113e-06
9.88783522e-06
9.887280476e-06
9.886777885e-06
9.886305299e-06
9.885976572e-06
9.885851939e-06
9.885925643e-06
9.886174853e-06
9.886560868e-06
9.88703523e-06
9.887541897e-06
9.887810344e-06
9.882834094e-06
9.7598819e-06
7.438607712e-06
9.886399127e-06
9.886547184e-06
9.886746406e-06
9.887002593e-06
9.887310124e-06
9.887632533e-06
9.887929239e-06
9.888132224e-06
9.888186519e-06
9.888094187e-06
9.887857904e-06
9.887501133e-06
9.88705367e-06
9.886615007e-06
9.886248923e-06
9.885999433e-06
9.885892149e-06
9.88593335e-06
9.886114419e-06
9.886414256e-06
9.886802301e-06
9.887241822e-06
9.887690577e-06
9.887892281e-06
9.882829448e-06
9.759593151e-06
7.438276257e-06
9.886997195e-06
9.887106325e-06
9.887235015e-06
9.88737981e-06
9.887538083e-06
9.887693854e-06
9.887825179e-06
9.887902465e-06
9.887895806e-06
9.887789785e-06
9.887591616e-06
9.887327226e-06
9.887038425e-06
9.886772066e-06
9.886568168e-06
9.886456074e-06
9.886450082e-06
9.886552773e-06
9.886756203e-06
9.887042976e-06
9.887389553e-06
9.887768117e-06
9.888145934e-06
9.888276223e-06
9.883115571e-06
9.759472345e-06
7.437969165e-06
9.887908137e-06
9.887997817e-06
9.888096117e-06
9.888195698e-06
9.888294013e-06
9.888380968e-06
9.888441018e-06
9.888456723e-06
9.888413301e-06
9.888306219e-06
9.888142168e-06
9.887942062e-06
9.887734295e-06
9.887550373e-06
9.887417898e-06
9.887356493e-06
9.887375946e-06
9.887478442e-06
9.88765709e-06
9.887898458e-06
9.888184434e-06
9.888493449e-06
9.88879941e-06
9.888861497e-06
9.883602358e-06
9.75947846e-06
7.437689827e-06
9.889064116e-06
9.889143812e-06
9.889229858e-06
9.889312978e-06
9.889387348e-06
9.889443985e-06
9.889471975e-06
9.889459405e-06
9.889399532e-06
9.889291078e-06
9.889141722e-06
9.88896815e-06
9.888791696e-06
9.888635524e-06
9.888520014e-06
9.888460273e-06
9.888465418e-06
9.888536914e-06
9.888669742e-06
9.888854027e-06
9.889075567e-06
9.889317422e-06
9.889557966e-06
9.889559839e-06
9.884206992e-06
9.75957151e-06
7.437440436e-06
9.89033515e-06
9.890406218e-06
9.890483822e-06
9.890556181e-06
9.890617004e-06
9.890657214e-06
9.890667487e-06
9.890639799e-06
9.890569374e-06
9.890456186e-06
9.890308637e-06
9.890139973e-06
9.889967745e-06
9.889810265e-06
9.889684823e-06
9.889604535e-06
9.889577528e-06
9.889606595e-06
9.889688692e-06
9.889816417e-06
9.889978538e-06
9.890161397e-06
9.890346337e-06
9.890297741e-06
9.884859759e-06
9.759716976e-06
7.437222312e-06
9.891601234e-06
9.891661492e-06
9.891729174e-06
9.89179121e-06
9.891839554e-06
9.89186673e-06
9.891863677e-06
9.891823429e-06
9.891741849e-06
9.891621071e-06
9.891467374e-06
9.891292286e-06
9.891110838e-06
9.890939291e-06
9.890792837e-06
9.890683939e-06
9.890621169e-06
9.890607753e-06
9.890642716e-06
9.890720733e-06
9.890832587e-06
9.890966819e-06
9.89110662e-06
9.891017146e-06
9.885504222e-06
9.759885986e-06
7.43703624e-06
9.892775241e-06
9.892823244e-06
9.892878934e-06
9.892927994e-06
9.892963727e-06
9.892977285e-06
9.892960507e-06
9.892907152e-06
9.892814258e-06
9.892682662e-06
9.892518597e-06
9.892332161e-06
9.892136496e-06
9.891946809e-06
9.891777161e-06
9.891640057e-06
9.891544088e-06
9.891493739e-06
9.891489251e-06
9.891526289e-06
9.891597873e-06
9.891693718e-06
9.89179811e-06
9.891675998e-06
9.886098191e-06
9.76005563e-06
7.436882818e-06
9.893639405e-06
9.893674397e-06
9.893716202e-06
9.893752215e-06
9.89377448e-06
9.893773816e-06
9.893743452e-06
9.893677413e-06
9.893572676e-06
9.893430193e-06
9.893255349e-06
9.89305715e-06
9.892848126e-06
9.892641979e-06
9.892452667e-06
9.892292508e-06
9.892170294e-06
9.892091342e-06
9.892056861e-06
9.892063766e-06
9.892105521e-06
9.892173286e-06
9.89225175e-06
9.892108918e-06
9.886504923e-06
9.760169368e-06
7.436759892e-06
9.890652644e-06
9.890673425e-06
9.890700609e-06
9.890721713e-06
9.890727645e-06
9.890712342e-06
9.890667401e-06
9.89058846e-06
9.890472071e-06
9.890319263e-06
9.89013494e-06
9.889926958e-06
9.889707084e-06
9.889488234e-06
9.889283357e-06
9.889104764e-06
9.888961276e-06
9.888858691e-06
9.88879878e-06
9.888779473e-06
9.888795264e-06
9.888837815e-06
9.888893896e-06
9.888765545e-06
9.883498595e-06
9.758284666e-06
7.436520394e-06
9.796338624e-06
9.796314664e-06
9.796294834e-06
9.796265268e-06
9.796221596e-06
9.796159344e-06
9.796074645e-06
9.79596446e-06
9.795826846e-06
9.795662623e-06
9.795474944e-06
9.79526857e-06
9.795050854e-06
9.794829966e-06
9.794614743e-06
9.794413328e-06
9.794232352e-06
9.794076984e-06
9.793949814e-06
9.793851317e-06
9.793779876e-06
9.793732111e-06
9.793702319e-06
9.793604645e-06
9.790154988e-06
9.681293004e-06
7.43134882e-06
7.791133274e-06
7.791089715e-06
7.791083311e-06
7.791073307e-06
7.791056991e-06
7.791031882e-06
7.790995675e-06
7.79094635e-06
7.790882041e-06
7.790801734e-06
7.790705277e-06
7.790592696e-06
7.790465121e-06
7.790324829e-06
7.790173875e-06
7.790015244e-06
7.789852737e-06
7.789689567e-06
7.78952956e-06
7.789376469e-06
7.789233958e-06
7.789105575e-06
7.788994666e-06
7.788898093e-06
7.788501776e-06
7.77560454e-06
7.381071735e-06
1.003029087e-05
1.003177209e-05
1.003218637e-05
1.003111378e-05
1.002822101e-05
1.002377916e-05
1.001840202e-05
1.00128633e-05
1.000785808e-05
1.000388143e-05
1.000120526e-05
9.999932175e-06
1.000004232e-05
1.000140262e-05
1.000382685e-05
1.002993003e-05
1.003287135e-05
1.003650102e-05
1.004065155e-05
1.004472431e-05
1.004773954e-05
1.004888312e-05
1.004699351e-05
1.004224873e-05
1.003551148e-05
1.002797736e-05
1.002074239e-05
1.001458955e-05
1.000995146e-05
1.000699758e-05
1.000572599e-05
1.000602024e-05
1.000768578e-05
1.001044883e-05
1.001397778e-05
1.001791324e-05
1.002180841e-05
1.002357562e-05
1.000648721e-05
9.837109676e-06
7.442989812e-06
1.003382952e-05
1.003621503e-05
1.003899517e-05
1.004329604e-05
1.004918623e-05
1.005664925e-05
1.006490288e-05
1.00722429e-05
1.007743627e-05
1.00774222e-05
1.007212398e-05
1.006303585e-05
1.005216801e-05
1.004131392e-05
1.003170144e-05
1.00239828e-05
1.001839406e-05
1.00149419e-05
1.001349162e-05
1.001383583e-05
1.001567865e-05
1.001863659e-05
1.002227478e-05
1.002608031e-05
1.002779541e-05
1.000984803e-05
9.837861376e-06
7.443262517e-06
1.004675675e-05
1.004980693e-05
1.005300491e-05
1.00591906e-05
1.006824638e-05
1.008059957e-05
1.009529986e-05
1.010960508e-05
1.012195948e-05
1.012543631e-05
1.011881632e-05
1.010559963e-05
1.008922582e-05
1.007264636e-05
1.005775606e-05
1.004544719e-05
1.003595902e-05
1.002921901e-05
1.002505416e-05
1.002325213e-05
1.002349632e-05
1.002536664e-05
1.002832925e-05
1.003177631e-05
1.003324371e-05
1.001408356e-05
9.838787747e-06
7.443577397e-06
1.007099448e-05
1.007373926e-05
1.008216437e-05
1.009512022e-05
1.011405863e-05
1.013792365e-05
1.01627824e-05
1.018680637e-05
1.019723818e-05
1.01871283e-05
1.016700467e-05
1.014213227e-05
1.011715526e-05
1.009482493e-05
1.007621267e-05
1.006140219e-05
1.005010708e-05
1.004203854e-05
1.003696928e-05
1.003466156e-05
1.003468709e-05
1.003643108e-05
1.003911784e-05
1.004004586e-05
1.001924325e-05
9.839885097e-06
7.443896187e-06
1.010274908e-05
1.010254914e-05
1.01131017e-05
1.012979214e-05
1.015645901e-05
1.019190098e-05
1.023087053e-05
1.027173123e-05
1.029459244e-05
1.027700165e-05
1.024693503e-05
1.021057286e-05
1.017476549e-05
1.014322328e-05
1.011699174e-05
1.009573341e-05
1.007871241e-05
1.006545139e-05
1.005581686e-05
1.004975172e-05
1.004693213e-05
1.004671847e-05
1.004813802e-05
1.00481449e-05
1.002523392e-05
9.841125801e-06
7.444205288e-06
1.0147296e-05
1.013933541e-05
1.015081434e-05
1.0169418e-05
1.020385734e-05
1.025255794e-05
1.030987625e-05
1.037434369e-05
1.042231618e-05
1.038602604e-05
1.034117597e-05
1.02895975e-05
1.024123016e-05
1.02000197e-05
1.016616516e-05
1.013835384e-05
1.011503918e-05
1.009550571e-05
1.007995463e-05
1.00687824e-05
1.006198443e-05
1.005891751e-05
1.00584778e-05
1.005714331e-05
1.003172039e-05
9.842436236e-06
7.4444856e-06
1.020136396e-05
1.018058675e-05
1.018954401e-05
1.02054364e-05
1.024373937e-05
1.030327577e-05
1.038105713e-05
1.047865311e-05
1.059164289e-05
1.050237956e-05
1.043404595e-05
1.036435171e-05
1.030466998e-05
1.025684116e-05
1.02182567e-05
1.018589272e-05
1.015703448e-05
1.013076052e-05
1.01081685e-05
1.009065163e-05
1.007877017e-05
1.007206692e-05
1.006923263e-05