/*--------------------------------*- C++ -*----------------------------------*\
  =========                 |
  \\      /  F ield         | OpenFOAM: The Open Source CFD Toolbox
   \\    /   O peration     | Website:  https://openfoam.org
    \\  /    A nd           | Version:  8
     \\/     M anipulation  |
\*---------------------------------------------------------------------------*/
FoamFile
{
    version     2.0;
    format      ascii;
    class       volScalarField;
    location    "0.2";
    object      nut;
}
// * * * * * * * * * * * * * * * * * * * * * * * * * * * * * * * * * * * * * //

dimensions      [0 2 -1 0 0 0 0];

internalField   nonuniform List<scalar> 
67451
(
6.420760003e-07
6.420597882e-07
6.420425782e-07
6.420194876e-07
6.419902559e-07
6.41955442e-07
6.419164835e-07
6.418751654e-07
6.418336248e-07
6.417932529e-07
6.417576423e-07
6.421251252e-07
6.421260551e-07
6.421290366e-07
6.421305318e-07
6.421271473e-07
6.42120795e-07
6.421083421e-07
6.42088412e-07
6.420605905e-07
6.42025322e-07
6.419837646e-07
6.41937428e-07
6.418878524e-07
6.418377984e-07
6.417906609e-07
6.417496684e-07
6.417126149e-07
6.416826229e-07
6.416620355e-07
6.416520081e-07
6.416474494e-07
6.416448452e-07
6.416420967e-07
6.415879253e-07
6.403414524e-07
5.211800273e-07
6.421530668e-07
6.42160293e-07
6.421677275e-07
6.421765683e-07
6.421850282e-07
6.421923705e-07
6.421970919e-07
6.421969669e-07
6.421897088e-07
6.421730909e-07
6.421463759e-07
6.421101035e-07
6.420658457e-07
6.420156082e-07
6.419613887e-07
6.419048894e-07
6.418474914e-07
6.417910544e-07
6.417411592e-07
6.417001146e-07
6.416692765e-07
6.416520914e-07
6.416468151e-07
6.416439978e-07
6.416411035e-07
6.415868527e-07
6.403401154e-07
5.211805691e-07
6.422080513e-07
6.422149226e-07
6.422265327e-07
6.422389677e-07
6.422522373e-07
6.422656454e-07
6.422773209e-07
6.422840465e-07
6.422826441e-07
6.422696772e-07
6.422438658e-07
6.422059728e-07
6.421582122e-07
6.421032203e-07
6.420435098e-07
6.419811276e-07
6.419175882e-07
6.418541264e-07
6.417917365e-07
6.417327315e-07
6.416870648e-07
6.416563833e-07
6.416477419e-07
6.416448071e-07
6.416418373e-07
6.415875147e-07
6.403406223e-07
5.211829824e-07
6.422819895e-07
6.422923159e-07
6.423076092e-07
6.423251538e-07
6.423445003e-07
6.423633834e-07
6.423774564e-07
6.423828009e-07
6.423739415e-07
6.423488393e-07
6.4230883e-07
6.422569849e-07
6.421967941e-07
6.421312658e-07
6.420627048e-07
6.419927036e-07
6.419224688e-07
6.41853119e-07
6.417858149e-07
6.417217608e-07
6.416707594e-07
6.41648522e-07
6.416454161e-07
6.416424338e-07
6.415880483e-07
6.403410937e-07
5.211853737e-07
6.423504452e-07
6.423608308e-07
6.42377691e-07
6.423983574e-07
6.4242276e-07
6.424483284e-07
6.424700149e-07
6.424827077e-07
6.424786176e-07
6.424542049e-07
6.424119624e-07
6.423561129e-07
6.422909489e-07
6.422199821e-07
6.421455856e-07
6.420693954e-07
6.419925003e-07
6.41916019e-07
6.418412707e-07
6.417698771e-07
6.417034152e-07
6.416545824e-07
6.416459208e-07
6.416428428e-07
6.415884006e-07
6.403414874e-07
5.211876137e-07
6.424181706e-07
6.424265171e-07
6.424431206e-07
6.424649743e-07
6.424925983e-07
6.425235922e-07
6.425520906e-07
6.425720281e-07
6.425731094e-07
6.425495816e-07
6.425058293e-07
6.424469556e-07
6.423781499e-07
6.423031272e-07
6.422243037e-07
6.421429957e-07
6.420601162e-07
6.419768237e-07
6.418947279e-07
6.418158678e-07
6.417427012e-07
6.416803772e-07
6.416464198e-07
6.416430273e-07
6.415885393e-07
6.403417772e-07
5.211895764e-07
6.424786297e-07
6.424819239e-07
6.424960575e-07
6.425164787e-07
6.425447876e-07
6.425785356e-07
6.426116575e-07
6.426374519e-07
6.42645272e-07
6.426222522e-07
6.42578449e-07
6.425190097e-07
6.42449279e-07
6.423729296e-07
6.422919885e-07
6.422074769e-07
6.421201363e-07
6.420311029e-07
6.419422585e-07
6.418562057e-07
6.417772463e-07
6.417099087e-07
6.41655806e-07
6.41642988e-07
6.415884145e-07
6.403419303e-07
5.211911222e-07
6.425229371e-07
6.425193058e-07
6.425294333e-07
6.425460079e-07
6.425719535e-07
6.426041201e-07
6.426365543e-07
6.426621661e-07
6.426698989e-07
6.426531083e-07
6.426153847e-07
6.425611826e-07
6.424953509e-07
6.424213774e-07
6.423413477e-07
6.422561334e-07
6.421662758e-07
6.420730201e-07
6.419787699e-07
6.418870471e-07
6.418040667e-07
6.41732595e-07
6.416738748e-07
6.41642653e-07
6.415879975e-07
6.403419177e-07
5.211921165e-07
6.425444154e-07
6.42532344e-07
6.425377227e-07
6.425494053e-07
6.42571877e-07
6.426011326e-07
6.426318535e-07
6.426570886e-07
6.426666101e-07
6.426539938e-07
6.42621882e-07
6.425737039e-07
6.425132977e-07
6.424437152e-07
6.423666372e-07
6.422827147e-07
6.421923131e-07
6.420967975e-07
6.419991127e-07
6.419050743e-07
6.418199632e-07
6.417454769e-07
6.41684455e-07
6.41642171e-07
6.415872435e-07
6.403417125e-07
5.211924239e-07
6.425245022e-07
6.425115421e-07
6.425151503e-07
6.425245716e-07
6.425445043e-07
6.42571029e-07
6.425994297e-07
6.42622921e-07
6.426328227e-07
6.426242026e-07
6.425976925e-07
6.425555489e-07
6.425008369e-07
6.424361959e-07
6.423630779e-07
6.422821408e-07
6.421932071e-07
6.420975918e-07
6.419998304e-07
6.419068092e-07
6.41821378e-07
6.417464321e-07
6.416859089e-07
6.416431584e-07
6.415861482e-07
6.403413015e-07
5.211919748e-07
6.424719402e-07
6.424612234e-07
6.424649759e-07
6.424743571e-07
6.424931568e-07
6.425180302e-07
6.425447484e-07
6.425669532e-07
6.42577277e-07
6.425709569e-07
6.425479419e-07
6.425097196e-07
6.424587566e-07
6.423973582e-07
6.423269649e-07
6.422482963e-07
6.421617225e-07
6.420692424e-07
6.419770868e-07
6.418884792e-07
6.418062529e-07
6.417341598e-07
6.416775154e-07
6.416399267e-07
6.415847242e-07
6.403406885e-07
5.21190733e-07
6.423930119e-07
6.423868458e-07
6.423922574e-07
6.424032143e-07
6.424220927e-07
6.424462021e-07
6.424717653e-07
6.424928833e-07
6.425031892e-07
6.424977518e-07
6.424763317e-07
6.424400873e-07
6.423912575e-07
6.423320424e-07
6.42264013e-07
6.42188129e-07
6.421053924e-07
6.42020361e-07
6.41935528e-07
6.418530967e-07
6.417770672e-07
6.417118094e-07
6.416611721e-07
6.416371952e-07
6.415830301e-07
6.403398954e-07
5.211887361e-07
6.422978103e-07
6.422960221e-07
6.423035142e-07
6.423163678e-07
6.423356619e-07
6.423592529e-07
6.423836935e-07
6.424035383e-07
6.424133184e-07
6.424075986e-07
6.423864564e-07
6.423509547e-07
6.423033279e-07
6.422458328e-07
6.42180199e-07
6.421078419e-07
6.420327128e-07
6.419561625e-07
6.418792688e-07
6.418052318e-07
6.417377925e-07
6.416824227e-07
6.416431192e-07
6.416350612e-07
6.415811353e-07
6.40338957e-07
5.211860738e-07
6.421944779e-07
6.421956217e-07
6.422047792e-07
6.422188454e-07
6.422380434e-07
6.422605156e-07
6.422831019e-07
6.423009258e-07
6.423092349e-07
6.42302661e-07
6.422813454e-07
6.42246396e-07
6.42200079e-07
6.421446995e-07
6.420823574e-07
6.420174039e-07
6.419506169e-07
6.418822297e-07
6.418144786e-07
6.417503517e-07
6.416951008e-07
6.416517492e-07
6.416356294e-07
6.416328425e-07
6.415791177e-07
6.403379157e-07
5.211828738e-07
6.420886099e-07
6.420912699e-07
6.421011039e-07
6.421152339e-07
6.421332456e-07
6.421535915e-07
6.421731812e-07
6.421879294e-07
6.42193694e-07
6.421859517e-07
6.421647021e-07
6.421309625e-07
6.420868402e-07
6.420350533e-07
6.419803739e-07
6.419233863e-07
6.418643278e-07
6.418048792e-07
6.417473624e-07
6.416962736e-07
6.416541865e-07
6.416346945e-07
6.416331985e-07
6.416305988e-07
6.415770627e-07
6.403368188e-07
5.211792831e-07
6.419841693e-07
6.419872217e-07
6.419966437e-07
6.420096276e-07
6.420254601e-07
6.420425767e-07
6.420582992e-07
6.420692241e-07
6.420719082e-07
6.420629677e-07
6.420421483e-07
6.420103439e-07
6.419705443e-07
6.419268263e-07
6.418797479e-07
6.418300971e-07
6.417796217e-07
6.417304179e-07
6.416859731e-07
6.416492401e-07
6.416336704e-07
6.416321057e-07
6.416308733e-07
6.416283953e-07
6.415750384e-07
6.40335707e-07
5.211754496e-07
6.418840143e-07
6.418864329e-07
6.418946182e-07
6.419054851e-07
6.419184146e-07
6.419317763e-07
6.419432097e-07
6.419500911e-07
6.419497045e-07
6.419396506e-07
6.419196596e-07
6.418928573e-07
6.418608211e-07
6.418241485e-07
6.417842719e-07
6.417429139e-07
6.417031516e-07
6.416666992e-07
6.416384938e-07
6.416325863e-07
6.416310303e-07
6.416297548e-07
6.416286619e-07
6.41626292e-07
6.415731e-07
6.40334616e-07
5.211715114e-07
6.417897539e-07
6.417909795e-07
6.417973353e-07
6.41805705e-07
6.418152876e-07
6.418247314e-07
6.418321129e-07
6.418352219e-07
6.418321231e-07
6.418225673e-07
6.418076153e-07
6.417868172e-07
6.417607589e-07
6.417309668e-07
6.417001144e-07
6.416700317e-07
6.416442858e-07
6.416333586e-07
6.416315193e-07
6.416300171e-07
6.416287097e-07
6.416275841e-07
6.416266058e-07
6.416243291e-07
6.415712841e-07
6.403335722e-07
5.211675883e-07
6.417154881e-07
6.417120616e-07
6.417125452e-07
6.417143745e-07
6.417184641e-07
6.417242e-07
6.417279431e-07
6.417292927e-07
6.417277308e-07
6.417216569e-07
6.417105554e-07
6.416951141e-07
6.41676717e-07
6.41657061e-07
6.416397797e-07
6.416340147e-07
6.416321493e-07
6.416305307e-07
6.416290756e-07
6.416277658e-07
6.41626607e-07
6.416256059e-07
6.416247298e-07
6.416225336e-07
6.415696194e-07
6.403325963e-07
5.211637792e-07
6.416711393e-07
6.416652698e-07
6.416615726e-07
6.416571399e-07
6.416524444e-07
6.416487405e-07
6.416462345e-07
6.416455925e-07
6.416467159e-07
6.416455986e-07
6.416420944e-07
6.416379762e-07
6.416361863e-07
6.416344007e-07
6.416326977e-07
6.416311206e-07
6.416296295e-07
6.416282251e-07
6.416269326e-07
6.416257642e-07
6.416247294e-07
6.416238324e-07
6.416230415e-07
6.416209136e-07
6.41568115e-07
6.403317e-07
5.211601621e-07
6.416516619e-07
6.416474271e-07
6.416459661e-07
6.416445638e-07
6.416432103e-07
6.416420437e-07
6.416409511e-07
6.416398337e-07
6.416386581e-07
6.416373725e-07
6.416360068e-07
6.416345785e-07
6.416331237e-07
6.41631664e-07
6.41630221e-07
6.416288178e-07
6.416274772e-07
6.416262165e-07
6.416250569e-07
6.416240063e-07
6.416230746e-07
6.416222654e-07
6.41621547e-07
6.416194767e-07
6.415667723e-07
6.403308894e-07
5.211567946e-07
6.416457317e-07
6.416421404e-07
6.416413818e-07
6.416406373e-07
6.416398306e-07
6.416389547e-07
6.41638005e-07
6.416369732e-07
6.416358508e-07
6.416346587e-07
6.41633401e-07
6.416320947e-07
6.416307609e-07
6.416294291e-07
6.416281165e-07
6.416268435e-07
6.416256233e-07
6.416244817e-07
6.416234295e-07
6.416224761e-07
6.416216299e-07
6.416208932e-07
6.41620234e-07
6.416182124e-07
6.415655942e-07
6.403301692e-07
5.211537198e-07
6.416426489e-07
6.416392581e-07
6.416386592e-07
6.416380169e-07
6.41637287e-07
6.416364703e-07
6.416355684e-07
6.416345775e-07
6.416335176e-07
6.41632395e-07
6.416312152e-07
6.416300001e-07
6.416287702e-07
6.41627542e-07
6.416263324e-07
6.41625158e-07
6.416240413e-07
6.416229966e-07
6.416220316e-07
6.416211585e-07
6.416203828e-07
6.416197065e-07
6.416190971e-07
6.416171165e-07
6.415645706e-07
6.40329538e-07
5.211509654e-07
6.416404027e-07
6.416370486e-07
6.416364895e-07
6.416358765e-07
6.416351769e-07
6.416343897e-07
6.416335181e-07
6.41632575e-07
6.416315694e-07
6.416305001e-07
6.416293884e-07
6.41628249e-07
6.416271018e-07
6.416259549e-07
6.416248303e-07
6.416237416e-07
6.416227058e-07
6.416217378e-07
6.416208449e-07
6.416200374e-07
6.416193197e-07
6.416186934e-07
6.416181257e-07
6.416161795e-07
6.415636947e-07
6.403289946e-07
5.211485502e-07
6.416385852e-07
6.416352458e-07
6.416347064e-07
6.416341145e-07
6.416334287e-07
6.416326667e-07
6.416318289e-07
6.416309241e-07
6.416299537e-07
6.416289371e-07
6.416278811e-07
6.416268039e-07
6.416257183e-07
6.416246394e-07
6.416235816e-07
6.416225601e-07
6.41621592e-07
6.416206839e-07
6.416198498e-07
6.416190966e-07
6.416184267e-07
6.416178414e-07
6.416173083e-07
6.416153909e-07
6.415629574e-07
6.403285363e-07
5.211464866e-07
6.41637099e-07
6.416337715e-07
6.416332449e-07
6.416326599e-07
6.41631997e-07
6.416312559e-07
6.416304422e-07
6.416295634e-07
6.416286323e-07
6.416276528e-07
6.416266428e-07
6.416256149e-07
6.416245778e-07
6.416235521e-07
6.416225471e-07
6.416215808e-07
6.416206645e-07
6.416198076e-07
6.416190208e-07
6.416183076e-07
6.416176758e-07
6.416171237e-07
6.416166189e-07
6.416147256e-07
6.415623377e-07
6.403281583e-07
5.211447849e-07
6.416351088e-07
6.416317907e-07
6.416312661e-07
6.416306991e-07
6.416300551e-07
6.416293263e-07
6.416285328e-07
6.416276809e-07
6.416267759e-07
6.41625828e-07
6.416248552e-07
6.416238633e-07
6.41622868e-07
6.41621882e-07
6.416209194e-07
6.416199957e-07
6.416191194e-07
6.416183016e-07
6.41617551e-07
6.416168725e-07
6.416162688e-07
6.416157441e-07
6.416152627e-07
6.41613397e-07
6.415611446e-07
6.403277013e-07
5.211434461e-07
6.416014342e-07
6.415981376e-07
6.415976399e-07
6.41597108e-07
6.415964873e-07
6.415958056e-07
6.415950511e-07
6.415942474e-07
6.415933917e-07
6.415924986e-07
6.415915822e-07
6.415906477e-07
6.41589712e-07
6.415887858e-07
6.415878798e-07
6.415870128e-07
6.415861894e-07
6.415854214e-07
6.415847162e-07
6.41584079e-07
6.415835135e-07
6.415830207e-07
6.415825726e-07
6.415808577e-07
6.415311112e-07
6.403178417e-07
5.211411091e-07
6.407936143e-07
6.407905184e-07
6.407902895e-07
6.407900654e-07
6.407898052e-07
6.407895094e-07
6.407891801e-07
6.407888181e-07
6.407884241e-07
6.407880037e-07
6.407875629e-07
6.407871035e-07
6.407866332e-07
6.407861571e-07
6.407856819e-07
6.40785216e-07
6.407847643e-07
6.407843351e-07
6.407839336e-07
6.407835648e-07
6.407832332e-07
6.407829423e-07
6.407826884e-07
6.407820637e-07
6.407600922e-07
6.399071363e-07
5.210253167e-07
5.879134327e-07
5.879104592e-07
5.879103859e-07
5.879103294e-07
5.879102341e-07
5.87910087e-07
5.879098741e-07
5.879095844e-07
5.879092079e-07
5.879087382e-07
5.879081747e-07
5.879075179e-07
5.879067744e-07
5.879059547e-07
5.879050744e-07
5.879041486e-07
5.879031983e-07
5.879022443e-07
5.879013077e-07
5.87900411e-07
5.878995761e-07
5.878988244e-07
5.878981766e-07
5.878975918e-07
5.878913112e-07
5.874669196e-07
4.898183549e-07
1.612550077e-05
1.612289379e-05
1.611912761e-05
1.611400875e-05
1.610760175e-05
1.609996952e-05
1.609061948e-05
1.607893471e-05
1.606372809e-05
1.604489309e-05
1.602205276e-05
1.613375716e-05
1.613573323e-05
1.613733009e-05
1.613787318e-05
1.613751509e-05
1.613630424e-05
1.61336648e-05
1.612923253e-05
1.61229851e-05
1.611515688e-05
1.610616591e-05
1.609648108e-05
1.608654701e-05
1.607500445e-05
1.605859419e-05
1.603671888e-05
1.60082787e-05
1.597253127e-05
1.592649374e-05
1.586808406e-05
1.580658517e-05
1.574939823e-05
1.567918898e-05
1.506608714e-05
7.607178651e-06
4.393000042e-07
1.614175381e-05
1.614367936e-05
1.614539671e-05
1.614745776e-05
1.614961476e-05
1.615170072e-05
1.615333341e-05
1.61538716e-05
1.615271267e-05
1.614912885e-05
1.614299091e-05
1.613460574e-05
1.612457647e-05
1.611357154e-05
1.610217196e-05
1.609081233e-05
1.607978862e-05
1.606845187e-05
1.604999117e-05
1.602193342e-05
1.598332127e-05
1.592881981e-05
1.586030998e-05
1.579626458e-05
1.572033473e-05
1.510017825e-05
7.615813299e-06
4.393120828e-07
1.615373119e-05
1.615584264e-05
1.615843241e-05
1.616151048e-05
1.616507475e-05
1.61690212e-05
1.617288199e-05
1.617567179e-05
1.617652563e-05
1.617406002e-05
1.616795535e-05
1.615869414e-05
1.61471761e-05
1.613436377e-05
1.612105239e-05
1.610779804e-05
1.609495077e-05
1.608273485e-05
1.607129581e-05
1.605912975e-05
1.603290475e-05
1.599063226e-05
1.591861086e-05
1.584601238e-05
1.576305462e-05
1.513505524e-05
7.624577845e-06
4.393262204e-07
1.617141003e-05
1.617412525e-05
1.617815976e-05
1.618320215e-05
1.618924913e-05
1.619578764e-05
1.620142891e-05
1.620502176e-05
1.620412304e-05
1.619792082e-05
1.618737118e-05
1.617386371e-05
1.615876157e-05
1.614310947e-05
1.612757472e-05
1.61125411e-05
1.60982277e-05
1.608480283e-05
1.60724288e-05
1.606121152e-05
1.60390607e-05
1.597925299e-05
1.589700798e-05
1.580572398e-05
1.516930095e-05
7.633050821e-06
4.393402814e-07
1.618930367e-05
1.619197467e-05
1.619672859e-05
1.620305545e-05
1.621121883e-05
1.622067103e-05
1.622965285e-05
1.623675837e-05
1.623810506e-05
1.623159537e-05
1.621941779e-05
1.620354008e-05
1.618583639e-05
1.616760939e-05
1.61495995e-05
1.613216467e-05
1.611549688e-05
1.609977407e-05
1.608520746e-05
1.607203249e-05
1.606015923e-05
1.602997277e-05
1.594618021e-05
1.584622536e-05
1.520111498e-05
7.640788267e-06
4.393536106e-07
1.620915467e-05
1.621084601e-05
1.621582557e-05
1.622285577e-05
1.623274477e-05
1.624496804e-05
1.625745264e-05
1.626853229e-05
1.627289341e-05
1.626572919e-05
1.625183956e-05
1.623361668e-05
1.621345955e-05
1.619287343e-05
1.6172575e-05
1.615283571e-05
1.613376842e-05
1.611557086e-05
1.609856486e-05
1.608311109e-05
1.606822629e-05
1.604535138e-05
1.599010407e-05
1.588188785e-05
1.522833001e-05
7.647252738e-06
4.393654885e-07
1.622928113e-05
1.622859406e-05
1.623298474e-05
1.623958609e-05
1.625011842e-05
1.626406835e-05
1.627952542e-05
1.629449156e-05
1.63047142e-05
1.629512165e-05
1.627959386e-05
1.625964223e-05
1.623800092e-05
1.621603984e-05
1.619427243e-05
1.61728013e-05
1.615164237e-05
1.613104107e-05
1.611151843e-05
1.609358361e-05
1.607359443e-05
1.604572631e-05
1.601013875e-05
1.590898952e-05
1.524813048e-05
7.651792871e-06
4.393750058e-07
1.62467286e-05
1.624248121e-05
1.624541823e-05
1.625025275e-05
1.625969608e-05
1.627257105e-05
1.628672539e-05
1.630001086e-05
1.630690298e-05
1.630274825e-05
1.629126144e-05
1.627447217e-05
1.625467177e-05
1.62335025e-05
1.621173052e-05
1.618955509e-05
1.616697925e-05
1.614436792e-05
1.612253349e-05
1.61015158e-05
1.607413694e-05
1.604073996e-05
1.600429567e-05
1.592423049e-05
1.5257983e-05
7.653792592e-06
4.393813732e-07
1.62586801e-05
1.624991492e-05
1.625056169e-05
1.625299912e-05
1.626081438e-05
1.6272288e-05
1.628563195e-05
1.629857808e-05
1.630633289e-05
1.630384138e-05
1.629459753e-05
1.62802108e-05
1.626264264e-05
1.624319418e-05
1.622245501e-05
1.620052772e-05
1.617734188e-05
1.615336105e-05
1.612962413e-05
1.610210379e-05
1.606707912e-05
1.603018544e-05
1.599163416e-05
1.592364352e-05
1.525515861e-05
7.6526645e-06
4.393838274e-07
1.625301826e-05
1.624460031e-05
1.624463723e-05
1.624622769e-05
1.625287268e-05
1.626282229e-05
1.627456296e-05
1.628589175e-05
1.629284494e-05
1.629257346e-05
1.628621777e-05
1.627489059e-05
1.626003773e-05
1.624285062e-05
1.622384159e-05
1.620327008e-05
1.618051794e-05
1.615591759e-05
1.612833963e-05
1.609226496e-05
1.605243638e-05
1.601303201e-05
1.597135065e-05
1.590251275e-05
1.5237749e-05
7.64796328e-06
4.393817287e-07
1.623622803e-05
1.622958006e-05
1.622983771e-05
1.623160943e-05
1.623771837e-05
1.624676866e-05
1.625745382e-05
1.626773113e-05
1.627447341e-05
1.627511685e-05
1.627023867e-05
1.626053815e-05
1.624715655e-05
1.623112202e-05
1.621297947e-05
1.619298172e-05
1.617099785e-05
1.614619387e-05
1.611152082e-05
1.607035829e-05
1.602917447e-05
1.598849541e-05
1.594301458e-05
1.586834507e-05
1.520530247e-05
7.639602863e-06
4.393749361e-07
1.621140245e-05
1.620741996e-05
1.620849512e-05
1.62111279e-05
1.621719892e-05
1.622578567e-05
1.623573987e-05
1.624521482e-05
1.625169648e-05
1.62524904e-05
1.624809734e-05
1.623903248e-05
1.622635034e-05
1.621104254e-05
1.619373453e-05
1.6174755e-05
1.615339494e-05
1.612195591e-05
1.60817705e-05
1.604011913e-05
1.599799283e-05
1.595402901e-05
1.590541808e-05
1.58158176e-05
1.515898208e-05
7.627834291e-06
4.393636964e-07
1.61832695e-05
1.618165229e-05
1.618353759e-05
1.618704492e-05
1.619318442e-05
1.620138978e-05
1.621068524e-05
1.62193867e-05
1.622555057e-05
1.622591123e-05
1.622139363e-05
1.621241268e-05
1.62000674e-05
1.618536302e-05
1.616896254e-05
1.615061666e-05
1.612242951e-05
1.608466673e-05
1.60440124e-05
1.600211373e-05
1.59588882e-05
1.591013491e-05
1.585275376e-05
1.574785763e-05
1.510118126e-05
7.613186604e-06
4.393486053e-07
1.615516061e-05
1.615507298e-05
1.615744788e-05
1.61613799e-05
1.616731643e-05
1.617484531e-05
1.618317258e-05
1.619079099e-05
1.619617327e-05
1.619603997e-05
1.619129515e-05
1.618244517e-05
1.617060835e-05
1.615673552e-05
1.614069289e-05
1.61147209e-05
1.607942097e-05
1.604068719e-05
1.599999008e-05
1.595734536e-05
1.590864105e-05
1.58535272e-05
1.577287188e-05
1.566976734e-05
1.503499266e-05
7.596356162e-06
4.393304838e-07
1.612880889e-05
1.612947019e-05
1.613195574e-05
1.613576794e-05
1.61410821e-05
1.614750977e-05
1.615439845e-05
1.616046248e-05
1.616441368e-05
1.61637787e-05
1.615912568e-05
1.615091254e-05
1.614001375e-05
1.612588425e-05
1.61010208e-05
1.606770596e-05
1.603096914e-05
1.599175484e-05
1.594989315e-05
1.590139828e-05
1.584645266e-05
1.576883214e-05
1.567903947e-05
1.558593848e-05
1.496378573e-05
7.578135815e-06
4.393102419e-07
1.610503194e-05
1.610590142e-05
1.610815464e-05
1.611146408e-05
1.61158244e-05
1.612091012e-05
1.612611436e-05
1.613045296e-05
1.613287253e-05
1.613178078e-05
1.612740294e-05
1.611990221e-05
1.610673945e-05
1.608247631e-05
1.605098339e-05
1.601611152e-05
1.597816443e-05
1.593654171e-05
1.588808806e-05
1.583169025e-05
1.575142394e-05
1.566148838e-05
1.558347992e-05
1.550021739e-05
1.489063338e-05
7.559262887e-06
4.392887664e-07
1.608409595e-05
1.608484544e-05
1.60866846e-05
1.608929131e-05
1.609258814e-05
1.609630425e-05
1.609989385e-05
1.610262598e-05
1.610372437e-05
1.610217377e-05
1.609764812e-05
1.608378749e-05
1.605990055e-05
1.603012129e-05
1.599658878e-05
1.59596639e-05
1.591676051e-05
1.586787116e-05
1.580795744e-05
1.572045806e-05
1.563400978e-05
1.555683124e-05
1.548990439e-05
1.541575501e-05
1.481815255e-05
7.540395175e-06
4.392668545e-07
1.606594768e-05
1.606644514e-05
1.606779653e-05
1.606968046e-05
1.607198034e-05
1.6074454e-05
1.607668485e-05
1.607805337e-05
1.607788247e-05
1.607212949e-05
1.605664815e-05
1.603331917e-05
1.600486177e-05
1.597213939e-05
1.59337159e-05
1.588953208e-05
1.583652706e-05
1.576233395e-05
1.567754019e-05
1.559730103e-05
1.552368019e-05
1.545804953e-05
1.540091718e-05
1.533490361e-05
1.474834146e-05
7.522054816e-06
4.392451745e-07
1.603164845e-05
1.603665509e-05
1.604310748e-05
1.60497761e-05
1.605412173e-05
1.605547907e-05
1.605639563e-05
1.605318628e-05
1.604262849e-05
1.602517407e-05
1.600178143e-05
1.597259777e-05
1.593768125e-05
1.589669958e-05
1.58465434e-05
1.577698167e-05
1.57007329e-05
1.562547176e-05
1.555298648e-05
1.548489849e-05
1.542248152e-05
1.536682605e-05
1.531823864e-05
1.525931867e-05
1.468271339e-05
7.504657335e-06
4.392242532e-07
1.596395002e-05
1.597037551e-05
1.597999095e-05
1.599192824e-05
1.600391762e-05
1.601132867e-05
1.60117692e-05
1.600160563e-05
1.597969857e-05
1.595140009e-05
1.591674011e-05
1.58742582e-05
1.582065085e-05
1.576133161e-05
1.569826693e-05
1.563314818e-05
1.556776076e-05
1.550357838e-05
1.544201368e-05
1.538425754e-05
1.533136212e-05
1.528417687e-05
1.524284422e-05
1.518997792e-05
1.46221811e-05
7.488472781e-06
4.39204498e-07
1.586705518e-05
1.586751999e-05
1.586878539e-05
1.586961591e-05
1.586893883e-05
1.586495899e-05
1.585652254e-05
1.584250012e-05
1.582179147e-05
1.579384414e-05
1.57587625e-05
1.571699248e-05
1.566958666e-05
1.561795045e-05
1.55634752e-05
1.550760582e-05
1.545169808e-05
1.539697663e-05
1.534459968e-05
1.529551929e-05
1.525059658e-05
1.521051063e-05
1.517526444e-05
1.512748545e-05
1.456729813e-05
7.473682886e-06
4.391861985e-07
1.575671178e-05
1.575331073e-05
1.574974984e-05
1.574505562e-05
1.573876441e-05
1.572996554e-05
1.57176785e-05
1.570107651e-05
1.567938089e-05
1.565230865e-05
1.561975432e-05
1.558215346e-05
1.55402825e-05
1.549520599e-05
1.544803898e-05
1.539990914e-05
1.535186526e-05
1.530500768e-05
1.526022386e-05
1.521831428e-05
1.517997548e-05
1.514574772e-05
1.511552097e-05
1.507196245e-05
1.451836018e-05
7.460398722e-06
4.391695559e-07
1.565381767e-05
1.564820045e-05
1.56420054e-05
1.563453063e-05
1.562530221e-05
1.561373715e-05
1.559927785e-05
1.55812456e-05
1.555931514e-05
1.553319207e-05
1.550287446e-05
1.546877079e-05
1.543148208e-05
1.539178648e-05
1.535054633e-05
1.530867039e-05
1.526710762e-05
1.522667113e-05
1.518808215e-05
1.515202719e-05
1.511906296e-05
1.508962093e-05
1.506350191e-05
1.502340562e-05
1.447537752e-05
7.448657073e-06
4.391547e-07
1.556401079e-05
1.555713403e-05
1.554936776e-05
1.554006129e-05
1.55290107e-05
1.55157921e-05
1.549998927e-05
1.548131056e-05
1.545948143e-05
1.543429359e-05
1.540594189e-05
1.537471809e-05
1.534112653e-05
1.530573185e-05
1.526928638e-05
1.523250172e-05
1.519611675e-05
1.5160834e-05
1.512723992e-05
1.509590037e-05
1.506726934e-05
1.504168981e-05
1.501889224e-05
1.498160791e-05
1.443825432e-05
7.438463122e-06
4.391417088e-07
1.548805799e-05
1.548038348e-05
1.547164915e-05
1.546126938e-05
1.544900689e-05
1.543476149e-05
1.541825505e-05
1.539928451e-05
1.53776468e-05
1.535344777e-05
1.532675711e-05
1.52978677e-05
1.526719143e-05
1.52352396e-05
1.520256957e-05
1.51697989e-05
1.513754468e-05
1.510632669e-05
1.507669644e-05
1.504911069e-05
1.502392681e-05
1.500142193e-05
1.498127939e-05
1.494625832e-05
1.440678389e-05
7.429790981e-06
4.39130628e-07
1.542530572e-05
1.541718754e-05
1.540785001e-05
1.539669052e-05
1.538377469e-05
1.536892627e-05
1.535200831e-05
1.533292675e-05
1.531169851e-05
1.528832464e-05
1.52630044e-05
1.523598522e-05
1.520759175e-05
1.5178311e-05
1.514857944e-05
1.511893719e-05
1.508986983e-05
1.506183839e-05
1.503529517e-05
1.501059458e-05
1.498809524e-05
1.496799783e-05
1.49499472e-05
1.491673782e-05
1.438052294e-05
7.422583187e-06
4.391214924e-07
1.536482035e-05
1.535643312e-05
1.534665064e-05
1.533513866e-05
1.53218604e-05
1.530664275e-05
1.528955957e-05
1.527058089e-05
1.524973351e-05
1.522710032e-05
1.520289414e-05
1.517732262e-05
1.515072755e-05
1.512347345e-05
1.509599026e-05
1.50687254e-05
1.504207574e-05
1.501645954e-05
1.499225369e-05
1.496978556e-05
1.494931987e-05
1.493108096e-05
1.491466707e-05
1.488306241e-05
1.435144352e-05
7.415754654e-06
4.39114174e-07
1.496341029e-05
1.495524438e-05
1.494572793e-05
1.493456398e-05
1.49215771e-05
1.490696079e-05
1.489056193e-05
1.487256077e-05
1.485293715e-05
1.483184199e-05
1.480946811e-05
1.478600066e-05
1.476176994e-05
1.473707667e-05
1.471226818e-05
1.468776209e-05
1.466386891e-05
1.46409542e-05
1.461934002e-05
1.459930787e-05
1.458109835e-05
1.456488363e-05
1.455038427e-05
1.452291291e-05
1.403597627e-05
7.353967026e-06
4.39099975e-07
8.678649093e-06
8.675789495e-06
8.672520785e-06
8.668647976e-06
8.664174146e-06
8.659095965e-06
8.653426601e-06
8.647183568e-06
8.640371784e-06
8.633044222e-06
8.625267651e-06
8.617104351e-06
8.608661817e-06
8.600042901e-06
8.591373616e-06
8.582783922e-06
8.574388073e-06
8.56631981e-06
8.5586909e-06
8.551606919e-06
8.54516081e-06
8.539429375e-06
8.534421923e-06
8.527367982e-06
8.397385851e-06
5.584868155e-06
4.38794225e-07
5.475001117e-07
5.474970705e-07
5.474966465e-07
5.474959716e-07
5.474948532e-07
5.474931149e-07
5.474905925e-07
5.474871421e-07
5.474826305e-07
5.47476985e-07
5.474701939e-07
5.474622586e-07
5.474532586e-07
5.47443355e-07
5.474326932e-07
5.474214848e-07
5.474099988e-07
5.473984632e-07
5.473871489e-07
5.473763218e-07
5.473662418e-07
5.4735716e-07
5.473493136e-07
5.473424827e-07
5.473145606e-07
5.464071215e-07
4.358217576e-07
7.296098747e-05
7.296005241e-05
7.295884189e-05
7.294954485e-05
7.293042801e-05
7.290277323e-05
7.286868802e-05
7.283035855e-05
7.278857079e-05
7.274420183e-05
7.26971716e-05
7.264765314e-05
7.259979954e-05
7.253882553e-05
7.246612026e-05
7.296481099e-05
7.297974587e-05
7.299813477e-05
7.301595299e-05
7.303159971e-05
7.304204108e-05
7.304294245e-05
7.302884549e-05
7.300042478e-05
7.296147225e-05
7.291740454e-05
7.287331244e-05
7.283272808e-05
7.279231934e-05
7.274819702e-05
7.269994958e-05
7.264460221e-05
7.257928924e-05
7.249710489e-05
7.239225815e-05
7.227943811e-05
7.210964433e-05
7.070311737e-05
5.447447119e-05
1.084851653e-05
4.394828142e-07
7.29959444e-05
7.300804234e-05
7.302115152e-05
7.304107166e-05
7.306779996e-05
7.310093922e-05
7.313675343e-05
7.316729666e-05
7.318684384e-05
7.31815507e-05
7.315101365e-05
7.310173721e-05
7.304273047e-05
7.29821786e-05
7.292584201e-05
7.287694578e-05
7.28369126e-05
7.280194397e-05
7.275833449e-05
7.270291804e-05
7.263175495e-05
7.253145418e-05
7.240419525e-05
7.222048775e-05
7.079917292e-05
5.452863905e-05
1.085228071e-05
4.394991124e-07
7.306693873e-05
7.308053063e-05
7.309648123e-05
7.312562174e-05
7.316718208e-05
7.322276579e-05
7.328786188e-05
7.33497358e-05
7.340120259e-05
7.341153143e-05
7.337555421e-05
7.3308299e-05
7.322500479e-05
7.313892477e-05
7.305877205e-05
7.298886787e-05
7.293062014e-05
7.288401605e-05
7.284855204e-05
7.281700916e-05
7.276323629e-05
7.268283126e-05
7.254490926e-05
7.234295535e-05
7.09035273e-05
5.458756867e-05
1.085641197e-05
4.395179285e-07
7.318915991e-05
7.320229452e-05
7.324162622e-05
7.330086602e-05
7.338591579e-05
7.349168532e-05
7.360001935e-05
7.37024588e-05
7.374289396e-05
7.369234426e-05
7.359538399e-05
7.347521788e-05
7.3352401e-05
7.323937776e-05
7.314128253e-05
7.305887362e-05
7.299122227e-05
7.293737682e-05
7.289668467e-05
7.286844807e-05
7.281870307e-05
7.26976102e-05
7.24740114e-05
7.101286592e-05
5.464858623e-05
1.086064055e-05
4.395369972e-07
7.334211707e-05
7.334246042e-05
7.339111866e-05
7.346687647e-05
7.358581488e-05
7.374207619e-05
7.391154406e-05
7.408652294e-05
7.417998502e-05
7.409819935e-05
7.395896751e-05
7.378967438e-05
7.362028215e-05
7.34673217e-05
7.333583595e-05
7.322477591e-05
7.313128377e-05
7.30536165e-05
7.299158628e-05
7.294540473e-05
7.291297739e-05
7.284250987e-05
7.260789365e-05
7.112285196e-05
5.470906509e-05
1.086477168e-05
4.395555073e-07
7.354826545e-05
7.351482329e-05
7.356721611e-05
7.365114644e-05
7.38035087e-05
7.401665533e-05
7.426435454e-05
7.453939388e-05
7.473764969e-05
7.457867893e-05
7.437776051e-05
7.414462869e-05
7.392223192e-05
7.372816693e-05
7.356392094e-05
7.342428631e-05
7.330292781e-05
7.319710243e-05
7.310811674e-05
7.303815205e-05
7.298470772e-05
7.292628478e-05
7.273612726e-05
7.122683954e-05
5.476522923e-05
1.086856659e-05
4.395723186e-07
7.379185371e-05
7.370239462e-05
7.374341673e-05
7.381513217e-05
7.398354522e-05
7.424237055e-05
7.457654176e-05
7.499023015e-05
7.54597464e-05
7.508162974e-05
7.478344923e-05
7.44752192e-05
7.420602018e-05
7.398458244e-05
7.380056456e-05
7.364147798e-05
7.349595632e-05
7.336039017e-05
7.323996085e-05
7.314090177e-05
7.305812085e-05
7.297653102e-05