/*--------------------------------*- C++ -*----------------------------------*\
  =========                 |
  \\      /  F ield         | OpenFOAM: The Open Source CFD Toolbox
   \\    /   O peration     | Website:  https://openfoam.org
    \\  /    A nd           | Version:  8
     \\/     M anipulation  |
\*---------------------------------------------------------------------------*/
FoamFile
{
    version     2.0;
    format      ascii;
    class       volScalarField;
    location    "0.2";
    object      O2;
}
// * * * * * * * * * * * * * * * * * * * * * * * * * * * * * * * * * * * * * //

dimensions      [0 0 0 0 0 0 0];

internalField   nonuniform List<scalar> 
67451
(
0.2100067766
0.2100067807
0.2100067845
0.2100067879
0.2100067907
0.2100067928
0.2100067943
0.2100067952
0.2100067956
0.2100067955
0.2100067949
0.2100067625
0.2100067676
0.2100067729
0.2100067783
0.2100067836
0.2100067888
0.2100067936
0.2100067977
0.2100068011
0.2100068037
0.2100068055
0.2100068065
0.210006807
0.2100068068
0.2100068062
0.2100068052
0.2100068037
0.210006802
0.2100068
0.2100067978
0.2100067957
0.2100067937
0.210006792
0.2100067909
0.2100067943
0.2100067988
0.2100067577
0.2100067626
0.210006768
0.2100067737
0.2100067797
0.2100067861
0.2100067925
0.2100067988
0.2100068046
0.2100068096
0.2100068137
0.2100068167
0.2100068187
0.2100068198
0.2100068202
0.2100068199
0.2100068191
0.2100068177
0.2100068159
0.2100068137
0.2100068112
0.2100068085
0.2100068058
0.2100068032
0.2100068011
0.2100067996
0.2100068027
0.2100068072
0.2100067634
0.2100067688
0.2100067747
0.2100067811
0.2100067879
0.2100067953
0.2100068029
0.2100068104
0.2100068173
0.2100068233
0.210006828
0.2100068314
0.2100068336
0.2100068348
0.210006835
0.2100068345
0.2100068334
0.2100068316
0.2100068293
0.2100068265
0.2100068234
0.2100068201
0.2100068167
0.2100068135
0.2100068107
0.2100068089
0.2100068116
0.2100068159
0.2100067762
0.2100067824
0.2100067894
0.2100067971
0.2100068054
0.2100068143
0.2100068231
0.2100068313
0.2100068383
0.2100068437
0.2100068475
0.2100068498
0.2100068509
0.210006851
0.2100068502
0.2100068488
0.2100068465
0.2100068437
0.2100068402
0.2100068364
0.2100068323
0.2100068281
0.2100068242
0.2100068207
0.2100068183
0.2100068207
0.2100068248
0.2100067841
0.2100067908
0.2100067983
0.2100068068
0.210006816
0.2100068259
0.2100068361
0.2100068456
0.2100068537
0.2100068598
0.2100068639
0.2100068663
0.2100068674
0.2100068674
0.2100068665
0.2100068647
0.2100068621
0.2100068586
0.2100068544
0.2100068497
0.2100068447
0.2100068397
0.2100068349
0.2100068307
0.2100068277
0.2100068297
0.2100068336
0.2100067923
0.2100067992
0.2100068071
0.2100068161
0.2100068262
0.2100068369
0.2100068484
0.2100068591
0.2100068684
0.210006875
0.2100068795
0.2100068822
0.2100068834
0.2100068835
0.2100068825
0.2100068805
0.2100068775
0.2100068734
0.2100068684
0.2100068628
0.2100068568
0.2100068508
0.2100068452
0.2100068402
0.2100068366
0.2100068381
0.2100068418
0.2100068002
0.2100068071
0.2100068152
0.2100068245
0.2100068351
0.2100068467
0.2100068587
0.2100068705
0.2100068809
0.2100068882
0.2100068931
0.2100068961
0.2100068977
0.210006898
0.2100068972
0.2100068951
0.2100068918
0.2100068873
0.2100068816
0.210006875
0.210006868
0.2100068611
0.2100068546
0.2100068488
0.2100068446
0.2100068457
0.2100068492
0.2100068072
0.2100068138
0.2100068219
0.2100068312
0.2100068419
0.2100068536
0.2100068659
0.2100068781
0.2100068889
0.210006897
0.2100069029
0.2100069068
0.210006909
0.2100069099
0.2100069095
0.2100069076
0.2100069042
0.2100068992
0.2100068929
0.2100068855
0.2100068776
0.2100068698
0.2100068625
0.2100068561
0.2100068513
0.210006852
0.2100068553
0.2100068126
0.2100068189
0.2100068268
0.2100068359
0.2100068464
0.2100068581
0.2100068703
0.2100068828
0.2100068939
0.2100069026
0.2100069093
0.210006914
0.210006917
0.2100069185
0.2100069185
0.2100069169
0.2100069135
0.2100069083
0.2100069014
0.2100068934
0.2100068848
0.2100068762
0.2100068683
0.2100068614
0.2100068562
0.2100068567
0.2100068598
0.2100068156
0.2100068217
0.2100068293
0.2100068382
0.2100068485
0.21000686
0.210006872
0.2100068844
0.2100068955
0.2100069047
0.2100069121
0.2100069175
0.2100069213
0.2100069233
0.2100069237
0.2100069223
0.2100069189
0.2100069135
0.2100069064
0.210006898
0.2100068889
0.21000688
0.2100068717
0.2100068645
0.2100068591
0.2100068594
0.2100068625
0.2100068158
0.2100068219
0.2100068295
0.2100068383
0.2100068484
0.2100068596
0.2100068714
0.2100068835
0.2100068947
0.2100069042
0.2100069118
0.2100069177
0.2100069217
0.210006924
0.2100069245
0.2100069231
0.2100069197
0.2100069142
0.2100069071
0.2100068986
0.2100068896
0.2100068807
0.2100068723
0.2100068651
0.2100068597
0.21000686
0.210006863
0.2100068134
0.2100068198
0.2100068274
0.2100068362
0.2100068462
0.2100068572
0.2100068687
0.2100068806
0.2100068916
0.210006901
0.2100069088
0.2100069146
0.2100069186
0.2100069208
0.2100069212
0.2100069196
0.2100069162
0.2100069108
0.2100069038
0.2100068957
0.210006887
0.2100068783
0.2100068703
0.2100068633
0.210006858
0.2100068584
0.2100068616
0.2100068092
0.2100068158
0.2100068234
0.2100068322
0.2100068421
0.2100068529
0.2100068642
0.2100068757
0.2100068863
0.2100068956
0.210006903
0.2100069086
0.2100069123
0.2100069142
0.2100069142
0.2100069125
0.210006909
0.2100069038
0.2100068972
0.2100068895
0.2100068814
0.2100068733
0.2100068657
0.2100068591
0.2100068542
0.2100068549
0.2100068582
0.2100068037
0.2100068104
0.2100068181
0.2100068267
0.2100068364
0.2100068469
0.2100068579
0.2100068689
0.210006879
0.2100068878
0.2100068948
0.2100068999
0.2100069032
0.2100069046
0.2100069044
0.2100069025
0.210006899
0.210006894
0.2100068878
0.2100068808
0.2100068734
0.210006866
0.2100068591
0.2100068531
0.2100068487
0.2100068497
0.2100068531
0.2100067973
0.210006804
0.2100068116
0.2100068201
0.2100068294
0.2100068393
0.2100068501
0.2100068603
0.2100068698
0.2100068779
0.2100068843
0.2100068889
0.2100068917
0.2100068928
0.2100068923
0.2100068903
0.2100068869
0.2100068823
0.2100068767
0.2100068703
0.2100068637
0.2100068571
0.2100068509
0.2100068456
0.2100068418
0.2100068431
0.2100068467
0.2100067905
0.2100067971
0.2100068044
0.2100068126
0.2100068214
0.2100068308
0.2100068407
0.2100068501
0.2100068588
0.2100068662
0.210006872
0.2100068762
0.2100068786
0.2100068794
0.2100068787
0.2100068768
0.2100068736
0.2100068694
0.2100068643
0.2100068587
0.2100068529
0.2100068471
0.2100068417
0.2100068371
0.2100068338
0.2100068355
0.2100068393
0.2100067834
0.2100067898
0.2100067968
0.2100068045
0.2100068126
0.2100068217
0.2100068305
0.210006839
0.2100068468
0.2100068534
0.2100068586
0.2100068623
0.2100068644
0.210006865
0.2100068644
0.2100068625
0.2100068596
0.2100068559
0.2100068515
0.2100068465
0.2100068414
0.2100068365
0.2100068319
0.210006828
0.2100068252
0.2100068273
0.2100068313
0.2100067764
0.2100067824
0.210006789
0.2100067961
0.2100068039
0.2100068118
0.2100068197
0.2100068273
0.2100068343
0.2100068401
0.2100068447
0.210006848
0.2100068499
0.2100068504
0.2100068498
0.2100068482
0.2100068456
0.2100068423
0.2100068384
0.2100068342
0.2100068299
0.2100068257
0.2100068219
0.2100068185
0.2100068162
0.2100068187
0.2100068229
0.2100067695
0.2100067752
0.2100067813
0.210006788
0.2100067949
0.210006802
0.210006809
0.2100068157
0.2100068218
0.2100068269
0.210006831
0.2100068338
0.2100068355
0.2100068361
0.2100068356
0.2100068341
0.2100068319
0.2100068291
0.2100068258
0.2100068223
0.2100068187
0.2100068152
0.2100068119
0.2100068092
0.2100068073
0.21000681
0.2100068144
0.2100067627
0.2100067681
0.2100067738
0.2100067798
0.2100067861
0.2100067924
0.2100067986
0.2100068045
0.2100068097
0.2100068142
0.2100068177
0.2100068203
0.2100068217
0.2100068222
0.2100068219
0.2100068207
0.2100068189
0.2100068165
0.2100068138
0.2100068109
0.2100068079
0.210006805
0.2100068024
0.2100068001
0.2100067986
0.2100068016
0.2100068061
0.2100067563
0.2100067612
0.2100067665
0.2100067719
0.2100067775
0.2100067831
0.2100067885
0.2100067936
0.2100067982
0.2100068021
0.2100068052
0.2100068075
0.2100068089
0.2100068094
0.2100068092
0.2100068083
0.2100068069
0.210006805
0.2100068028
0.2100068004
0.2100067979
0.2100067956
0.2100067934
0.2100067915
0.2100067903
0.2100067936
0.2100067981
0.2100067503
0.2100067549
0.2100067596
0.2100067646
0.2100067696
0.2100067745
0.2100067793
0.2100067837
0.2100067877
0.2100067912
0.2100067939
0.2100067959
0.2100067972
0.2100067978
0.2100067977
0.2100067971
0.210006796
0.2100067945
0.2100067927
0.2100067908
0.2100067888
0.2100067868
0.210006785
0.2100067835
0.2100067826
0.210006786
0.2100067907
0.2100067448
0.210006749
0.2100067534
0.2100067579
0.2100067624
0.2100067668
0.210006771
0.2100067749
0.2100067784
0.2100067814
0.2100067839
0.2100067857
0.2100067869
0.2100067875
0.2100067876
0.2100067871
0.2100067863
0.2100067851
0.2100067837
0.2100067821
0.2100067805
0.210006779
0.2100067775
0.2100067763
0.2100067756
0.2100067791
0.2100067839
0.21000674
0.2100067439
0.2100067479
0.210006752
0.210006756
0.21000676
0.2100067637
0.2100067672
0.2100067703
0.210006773
0.2100067752
0.2100067768
0.210006778
0.2100067786
0.2100067787
0.2100067785
0.2100067779
0.210006777
0.2100067758
0.2100067746
0.2100067733
0.210006772
0.2100067708
0.2100067698
0.2100067693
0.210006773
0.2100067778
0.2100067357
0.2100067394
0.2100067431
0.2100067469
0.2100067506
0.2100067541
0.2100067575
0.2100067606
0.2100067634
0.2100067658
0.2100067678
0.2100067693
0.2100067704
0.210006771
0.2100067713
0.2100067711
0.2100067707
0.21000677
0.2100067691
0.2100067681
0.2100067671
0.210006766
0.210006765
0.2100067642
0.2100067639
0.2100067676
0.2100067725
0.2100067322
0.2100067356
0.2100067391
0.2100067426
0.210006746
0.2100067493
0.2100067524
0.2100067552
0.2100067577
0.2100067599
0.2100067617
0.2100067631
0.2100067641
0.2100067648
0.2100067651
0.2100067651
0.2100067648
0.2100067642
0.2100067635
0.2100067627
0.2100067619
0.210006761
0.2100067602
0.2100067595
0.2100067592
0.2100067631
0.210006768
0.2100067293
0.2100067326
0.2100067359
0.2100067392
0.2100067424
0.2100067454
0.2100067483
0.2100067509
0.2100067532
0.2100067552
0.2100067569
0.2100067582
0.2100067592
0.2100067599
0.2100067602
0.2100067603
0.2100067601
0.2100067597
0.2100067591
0.2100067584
0.2100067577
0.210006757
0.2100067563
0.2100067557
0.2100067555
0.2100067594
0.2100067644
0.2100067274
0.2100067306
0.2100067338
0.2100067369
0.2100067399
0.2100067428
0.2100067454
0.2100067479
0.21000675
0.210006752
0.2100067535
0.2100067548
0.2100067558
0.2100067564
0.2100067568
0.2100067569
0.2100067568
0.2100067565
0.210006756
0.2100067554
0.2100067548
0.2100067542
0.2100067536
0.2100067531
0.2100067529
0.2100067567
0.2100067616
0.2100067296
0.2100067327
0.2100067358
0.2100067389
0.2100067418
0.2100067445
0.2100067471
0.2100067494
0.2100067515
0.2100067533
0.2100067548
0.2100067561
0.210006757
0.2100067577
0.2100067581
0.2100067582
0.2100067581
0.2100067579
0.2100067575
0.210006757
0.2100067564
0.2100067558
0.2100067553
0.2100067548
0.2100067545
0.2100067561
0.2100067599
0.2100067347
0.2100067377
0.2100067408
0.2100067438
0.2100067466
0.2100067493
0.2100067518
0.2100067541
0.2100067562
0.2100067579
0.2100067594
0.2100067607
0.2100067616
0.2100067622
0.2100067626
0.2100067628
0.2100067627
0.2100067625
0.2100067621
0.2100067616
0.2100067611
0.2100067606
0.2100067601
0.2100067596
0.2100067592
0.210006759
0.210006759
0.2100063248
0.2100063292
0.210006333
0.2100063365
0.2100063394
0.2100063415
0.210006343
0.2100063439
0.2100063443
0.2100063443
0.2100063437
0.2100063107
0.2100063159
0.2100063213
0.2100063266
0.2100063322
0.2100063375
0.2100063424
0.2100063467
0.2100063502
0.2100063528
0.2100063545
0.2100063556
0.210006356
0.2100063559
0.2100063554
0.2100063543
0.2100063529
0.2100063513
0.2100063494
0.2100063475
0.2100063455
0.2100063436
0.2100063421
0.2100063427
0.2100063497
0.2100063514
0.210006306
0.2100063111
0.2100063164
0.2100063221
0.2100063282
0.2100063346
0.2100063413
0.2100063478
0.2100063538
0.2100063591
0.2100063632
0.2100063662
0.2100063682
0.2100063692
0.2100063696
0.2100063693
0.2100063685
0.2100063671
0.2100063654
0.2100063632
0.2100063608
0.2100063582
0.2100063557
0.2100063533
0.2100063513
0.2100063515
0.2100063581
0.2100063596
0.2100063118
0.2100063175
0.2100063232
0.2100063295
0.2100063365
0.210006344
0.2100063521
0.2100063599
0.2100063673
0.2100063737
0.2100063785
0.2100063818
0.2100063839
0.2100063848
0.210006385
0.2100063844
0.2100063833
0.2100063815
0.2100063792
0.2100063764
0.2100063732
0.2100063699
0.2100063666
0.2100063635
0.210006361
0.2100063607
0.210006367
0.2100063683
0.2100063248
0.2100063311
0.2100063381
0.2100063459
0.2100063543
0.2100063644
0.2100063736
0.2100063824
0.2100063901
0.2100063955
0.2100063991
0.2100064011
0.2100064019
0.2100064018
0.210006401
0.2100063994
0.2100063972
0.2100063942
0.2100063907
0.2100063867
0.2100063824
0.2100063782
0.2100063743
0.210006371
0.2100063702
0.2100063761
0.2100063772
0.2100063331
0.2100063397
0.2100063473
0.210006356
0.2100063657
0.2100063764
0.2100063877
0.2100063982
0.2100064074
0.2100064134
0.2100064171
0.2100064191
0.2100064197
0.2100064194
0.2100064183
0.2100064164
0.2100064137
0.2100064101
0.2100064057
0.2100064006
0.2100063953
0.2100063901
0.2100063852
0.2100063811
0.2100063796
0.2100063851
0.210006386
0.2100063418
0.2100063485
0.2100063565
0.2100063658
0.2100063766
0.2100063885
0.2100064011
0.2100064133
0.2100064241
0.2100064305
0.2100064345
0.2100064365
0.2100064371
0.2100064368
0.2100064356
0.2100064335
0.2100064304
0.2100064261
0.2100064208
0.2100064147
0.2100064082
0.2100064018
0.2100063958
0.2100063908
0.2100063886
0.2100063936
0.2100063943
0.2100063505
0.2100063569
0.2100063651
0.2100063747
0.2100063861
0.2100063989
0.2100064127
0.2100064264
0.2100064394
0.2100064457
0.2100064498
0.2100064519
0.2100064528
0.2100064527
0.2100064517
0.2100064497
0.2100064463
0.2100064414
0.2100064352
0.210006428
0.2100064203
0.2100064127
0.2100064056
0.2100063997
0.2100063968
0.2100064013
0.2100064018
0.2100063583
0.2100063641
0.2100063722
0.2100063816
0.210006393
0.2100064058
0.2100064193
0.2100064333
0.2100064456
0.2100064538
0.2100064594
0.2100064629
0.2100064649
0.2100064657
0.2100064654
0.2100064636
0.2100064602
0.2100064549
0.2100064478
0.2100064396
0.2100064308
0.210006422
0.210006414
0.2100064072
0.2100064037
0.2100064078
0.2100064081
0.2100063648
0.2100063698
0.2100063775
0.2100063865
0.2100063975
0.2100064101
0.2100064234
0.2100064378
0.2100064503
0.2100064592
0.2100064658
0.2100064705
0.2100064735
0.2100064752
0.2100064755
0.2100064741
0.2100064708
0.2100064651
0.2100064575
0.2100064484
0.2100064387
0.2100064291
0.2100064202
0.2100064128
0.2100064088
0.2100064126
0.2100064127
0.2100063682
0.2100063728
0.2100063802
0.2100063888
0.2100063994
0.2100064115
0.2100064245
0.2100064384
0.2100064506
0.2100064604
0.2100064681
0.2100064738
0.2100064779
0.2100064804
0.2100064813
0.2100064804
0.2100064772
0.2100064714
0.2100064632
0.2100064536
0.2100064433
0.2100064332
0.2100064239
0.2100064161
0.2100064118
0.2100064154
0.2100064154
0.210006368
0.2100063729
0.2100063802
0.2100063887
0.210006399
0.2100064108
0.2100064235
0.210006437
0.2100064492
0.2100064593
0.2100064675
0.2100064738
0.2100064782
0.2100064809
0.2100064818
0.2100064808
0.2100064775
0.2100064716
0.2100064636
0.2100064541
0.2100064439
0.2100064338
0.2100064245
0.2100064168
0.2100064125
0.2100064161
0.2100064161
0.2100063648
0.2100063703
0.2100063777
0.2100063863
0.2100063966
0.2100064082
0.2100064206
0.2100064337
0.2100064457
0.2100064559
0.2100064642
0.2100064704
0.2100064747
0.2100064772
0.2100064779
0.2100064766
0.2100064731
0.2100064674
0.2100064596
0.2100064505
0.2100064408
0.2100064311
0.2100064223
0.2100064149
0.2100064109
0.2100064146
0.2100064147
0.2100063598
0.2100063659
0.2100063734
0.2100063821
0.2100063924
0.2100064038
0.2100064159
0.2100064285
0.2100064403
0.2100064503
0.2100064582
0.2100064641
0.2100064679
0.2100064699
0.2100064701
0.2100064684
0.2100064648
0.2100064592
0.2100064519
0.2100064435
0.2100064345
0.2100064257
0.2100064175
0.2100064107
0.2100064071
0.2100064111
0.2100064113
0.2100063536
0.2100063601
0.2100063677
0.2100063765
0.2100063865
0.2100063977
0.2100064095
0.2100064215
0.2100064328
0.2100064423
0.2100064497
0.2100064549
0.2100064581
0.2100064595
0.2100064592
0.2100064572
0.2100064535
0.2100064482
0.2100064415
0.2100064339
0.2100064259
0.2100064179
0.2100064107
0.2100064045
0.2100064015
0.2100064059
0.2100064063
0.2100063468
0.2100063534
0.210006361
0.2100063697
0.2100063794
0.2100063899
0.2100064013
0.2100064126
0.210006423
0.2100064318
0.2100064385
0.2100064431
0.2100064458
0.2100064467
0.210006446
0.2100064438
0.2100064402
0.2100064353
0.2100064293
0.2100064226
0.2100064156
0.2100064086
0.2100064023
0.210006397
0.2100063945
0.2100063993
0.2100064
0.2100063396
0.2100063463
0.2100063537
0.210006362
0.2100063711
0.2100063807
0.2100063919
0.210006402
0.2100064114
0.2100064193
0.2100064253
0.2100064294
0.2100064317
0.2100064323
0.2100064314
0.2100064293
0.2100064259
0.2100064215
0.2100064162
0.2100064103
0.2100064043
0.2100063984
0.2100063929
0.2100063884
0.2100063866
0.2100063918
0.2100063926
0.2100063324
0.2100063389
0.210006346
0.2100063538
0.2100063623
0.2100063714
0.210006381
0.2100063901
0.2100063985
0.2100064055
0.2100064109
0.2100064146
0.2100064166
0.2100064171
0.2100064162
0.2100064142
0.2100064112
0.2100064073
0.2100064027
0.2100063978
0.2100063926
0.2100063877
0.2100063831
0.2100063792
0.210006378
0.2100063836
0.2100063846
0.2100063254
0.2100063315
0.2100063382
0.2100063454
0.2100063532
0.2100063615
0.2100063699
0.2100063779
0.2100063853
0.2100063914
0.2100063962
0.2100063994
0.2100064012
0.2100064017
0.210006401
0.2100063993
0.2100063966
0.2100063933
0.2100063895
0.2100063853
0.210006381
0.2100063769
0.210006373
0.2100063699
0.2100063691
0.2100063751
0.2100063764
0.2100063185
0.2100063243
0.2100063304
0.2100063371
0.2100063442
0.2100063515
0.2100063588
0.2100063658
0.2100063722
0.2100063776
0.2100063818
0.2100063847
0.2100063863
0.2100063868
0.2100063863
0.2100063849
0.2100063828
0.21000638
0.2100063768
0.2100063734
0.2100063698
0.2100063664
0.2100063632
0.2100063606
0.2100063603
0.2100063666
0.210006368
0.2100063119
0.2100063174
0.210006323
0.2100063291
0.2100063354
0.2100063418
0.2100063482
0.2100063543
0.2100063598
0.2100063645
0.2100063681
0.2100063708
0.2100063723
0.2100063729
0.2100063726
0.2100063715
0.2100063698
0.2100063675
0.2100063649
0.2100063621
0.2100063592
0.2100063564
0.2100063538
0.2100063517
0.2100063518
0.2100063584
0.2100063599
0.2100063058
0.2100063109
0.210006316
0.2100063215
0.2100063271
0.2100063328
0.2100063384
0.2100063436
0.2100063484
0.2100063524
0.2100063557
0.210006358
0.2100063595
0.2100063601
0.21000636
0.2100063592
0.2100063578
0.210006356
0.2100063539
0.2100063517
0.2100063493
0.210006347
0.2100063449
0.2100063432
0.2100063437
0.2100063505
0.2100063521
0.2100063001
0.2100063048
0.2100063096
0.2100063145
0.2100063195
0.2100063246
0.2100063294
0.210006334
0.2100063381
0.2100063416
0.2100063445
0.2100063466
0.210006348
0.2100063486
0.2100063487
0.2100063481
0.2100063471
0.2100063457
0.210006344
0.2100063422
0.2100063403
0.2100063384
0.2100063367
0.2100063354
0.2100063361
0.2100063431
0.2100063449
0.210006295
0.2100062994
0.2100063037
0.2100063082
0.2100063127
0.2100063171
0.2100063214
0.2100063254
0.210006329
0.2100063321
0.2100063346
0.2100063365
0.2100063378
0.2100063385
0.2100063387
0.2100063383
0.2100063376
0.2100063365
0.2100063352
0.2100063337
0.2100063322
0.2100063307
0.2100063294
0.2100063283
0.2100063292
0.2100063364
0.2100063382
0.2100062904
0.2100062945
0.2100062985
0.2100063026
0.2100063067
0.2100063106
0.2100063144
0.2100063179
0.2100063211
0.2100063238
0.2100063261
0.2100063279
0.2100063291
0.2100063298
0.2100063301
0.2100063299
0.2100063294
0.2100063285
0.2100063275
0.2100063264
0.2100063251
0.2100063239
0.2100063228
0.210006322
0.2100063231
0.2100063304
0.2100063323
0.2100062865
0.2100062903
0.210006294
0.2100062978
0.2100063015
0.210006305
0.2100063084
0.2100063116
0.2100063144
0.2100063169
0.2100063189
0.2100063205
0.2100063217
0.2100063224
0.2100063227
0.2100063227
0.2100063224
0.2100063218
0.210006321
0.21000632
0.2100063191
0.2100063181
0.2100063172
0.2100063165
0.2100063178
0.2100063252
0.2100063271
0.2100062831
0.2100062868
0.2100062902
0.2100062937
0.2100062971
0.2100063004
0.2100063035
0.2100063064
0.2100063089
0.2100063112
0.210006313
0.2100063145
0.2100063156
0.2100063164
0.2100063167
0.2100063168
0.2100063166
0.2100063161
0.2100063155
0.2100063148
0.210006314
0.2100063132
0.2100063125
0.210006312
0.2100063133
0.2100063207
0.2100063227
0.2100062805
0.210006284
0.2100062873
0.2100062906
0.2100062938
0.2100062968
0.2100062997
0.2100063023
0.2100063047
0.2100063067
0.2100063085
0.2100063099
0.2100063109
0.2100063117
0.2100063121
0.2100063122
0.2100063121
0.2100063118
0.2100063113
0.2100063107
0.2100063101
0.2100063094
0.2100063088
0.2100063084
0.2100063097
0.2100063172
0.2100063192
0.2100062799
0.2100062833
0.2100062864
0.2100062896
0.2100062926
0.2100062955
0.2100062982
0.2100063006
0.2100063029
0.2100063048
0.2100063065
0.2100063078
0.2100063088
0.2100063095
0.21000631
0.2100063102
0.2100063101
0.2100063099
0.2100063095
0.210006309
0.2100063084
0.2100063079
0.2100063073
0.2100063069
0.210006308
0.2100063146
0.2100063165
0.2100062864
0.2100062897
0.2100062928
0.2100062958
0.2100062987
0.2100063015
0.2100063041
0.2100063065
0.2100063086
0.2100063105
0.210006312
0.2100063133
0.2100063143
0.210006315
0.2100063155
0.2100063157
0.2100063157
0.2100063155
0.2100063152
0.2100063148
0.2100063143
0.2100063138
0.2100063133
0.2100063128
0.2100063126
0.2100063136
0.2100063148
0.2100062886
0.2100062916
0.2100062947
0.2100062977
0.2100063006
0.2100063033
0.2100063058
0.2100063081
0.2100063102
0.210006312
0.2100063136
0.2100063149
0.2100063159
0.2100063166
0.210006317
0.2100063173
0.2100063173
0.2100063171
0.2100063168
0.2100063164
0.210006316
0.2100063155
0.210006315
0.2100063146
0.2100063142
0.2100063141
0.2100063138
0.2100060496
0.2100060545
0.2100060589
0.2100060631
0.2100060666
0.2100060693
0.2100060715
0.2100060731
0.2100060741
0.2100060747
0.2100060748
0.2100060745
0.2100060738
0.2100060729
0.2100060715
0.2100060401
0.2100060452
0.2100060505
0.2100060561
0.2100060617
0.2100060672
0.2100060724
0.2100060769
0.2100060805
0.2100060832
0.210006085
0.210006086
0.2100060866
0.2100060866
0.2100060862
0.2100060854
0.2100060842
0.2100060826
0.2100060807
0.2100060787
0.2100060768
0.2100060749
0.2100060734
0.2100060738
0.2100060783
0.2100060781
0.2100060356
0.2100060405
0.2100060457
0.2100060514
0.2100060573
0.2100060639
0.2100060709
0.2100060778
0.2100060845
0.2100060902
0.2100060945
0.2100060975
0.2100060994
0.2100061004
0.2100061007
0.2100061005
0.2100060998
0.2100060986
0.2100060969
0.2100060948
0.2100060924
0.2100060898
0.2100060872
0.2100060847
0.2100060827
0.2100060827
0.2100060868
0.2100060863
0.2100060415
0.2100060469
0.2100060524
0.2100060587
0.2100060658
0.2100060736
0.2100060824
0.210006091
0.2100060993
0.2100061065
0.2100061115
0.2100061147
0.2100061164
0.2100061171
0.2100061171
0.2100061165
0.2100061154
0.2100061138
0.2100061116
0.2100061087
0.2100061055
0.210006102
0.2100060985
0.2100060952
0.2100060925
0.210006092
0.2100060957
0.210006095
0.2100060545
0.2100060605
0.2100060675
0.2100060757
0.210006085
0.2100060954
0.2100061062
0.2100061167
0.2100061259
0.2100061313
0.2100061344
0.2100061358
0.210006136
0.2100061356
0.2100061346
0.210006133
0.2100061308
0.2100061278
0.2100061241
0.2100061199
0.2100061153
0.2100061107
0.2100061065
0.2100061029
0.2100061017
0.210006105
0.210006104
0.2100060635
0.2100060695
0.2100060772
0.2100060863
0.2100060972
0.2100061096
0.2100061227
0.2100061357
0.2100061477
0.210006153
0.2100061558
0.2100061566
0.2100061563
0.2100061554
0.210006154
0.2100061521
0.2100061493
0.2100061455
0.2100061408
0.2100061353
0.2100061294
0.2100061235
0.210006118
0.2100061135
0.2100061115
0.2100061142
0.210006113
0.2100060734
0.2100060789
0.2100060872
0.210006097
0.2100061092
0.2100061235
0.2100061389
0.2100061539
0.210006169
0.210006174
0.2100061768
0.2100061772
0.2100061766
0.2100061755
0.210006174
0.2100061718
0.2100061687
0.2100061641
0.2100061582
0.2100061512
0.2100061438
0.2100061364
0.2100061295
0.2100061238
0.2100061209
0.2100061231
0.2100061216
0.2100060838
0.2100060881
0.2100060967
0.2100061068
0.21000612
0.210006136
0.2100061542
0.2100061716
0.2100061944
0.2100061953
0.2100061969
0.2100061962
0.2100061953
0.2100061943
0.2100061931
0.2100061912
0.2100061878
0.2100061825
0.2100061753
0.2100061668
0.2100061576
0.2100061486
0.2100061404
0.2100061334
0.2100061297
0.2100061312
0.2100061294
0.2100060934
0.2100060962
0.2100061046
0.210006114
0.2100061267
0.2100061417
0.2100061583
0.2100061746
0.2100061917
0.210006199
0.2100062043
0.2100062073
0.2100062088
0.2100062095
0.2100062095
0.2100062084
0.2100062052
0.2100061993
0.2100061909
0.2100061808
0.21000617
0.2100061593
0.2100061497
0.2100061417
0.210006137
0.2100061381
0.210006136
0.2100061021
0.2100061032
0.2100061109
0.2100061193
0.2100061314
0.2100061461
0.2100061627
0.2100061793
0.2100061968
0.210006205
0.2100062114
0.2100062156
0.2100062186
0.2100062207
0.210006222
0.2100062216
0.2100062188
0.2100062124
0.210006203
0.2100061916
0.2100061794
0.2100061675
0.2100061568
0.2100061479
0.2100061426
0.2100061432
0.2100061409
0.210006107
0.2100061072
0.2100061139
0.2100061215
0.2100061328
0.2100061464
0.2100061617
0.2100061774
0.2100061931
0.2100062037
0.2100062121
0.2100062185
0.2100062235
0.2100062272
0.2100062297
0.2100062303
0.2100062281
0.2100062213
0.2100062109
0.2100061984
0.2100061851
0.2100061723
0.2100061609
0.2100061515
0.2100061458
0.2100061462
0.2100061438
0.2100061057
0.2100061069
0.2100061135
0.2100061212
0.210006132
0.2100061451
0.2100061598
0.2100061751
0.2100061901
0.2100062016
0.2100062109
0.210006218
0.2100062234
0.2100062272
0.2100062294
0.2100062296
0.2100062268
0.2100062201
0.2100062102
0.2100061981
0.2100061853
0.2100061727
0.2100061614
0.2100061521
0.2100061464
0.2100061468
0.2100061444
0.2100061007
0.2100061033
0.2100061105
0.2100061185
0.2100061293
0.2100061421
0.2100061565
0.2100061713
0.2100061861
0.2100061978
0.2100062072
0.2100062142
0.2100062193
0.2100062226
0.2100062242
0.2100062237
0.2100062205
0.2100062139
0.2100062045
0.2100061932
0.2100061811
0.2100061694
0.2100061587
0.2100061498
0.2100061446
0.2100061452
0.2100061429
0.210006094
0.2100060979
0.2100061054
0.210006114
0.2100061249
0.2100061376
0.2100061517
0.2100061662
0.2100061806
0.2100061922
0.2100062011
0.2100062074
0.2100062115
0.2100062138
0.2100062144
0.210006213
0.2100062093
0.210006203
0.2100061944
0.2100061842
0.2100061734
0.2100061628
0.2100061531
0.2100061451
0.2100061404
0.2100061414
0.2100061393
0.2100060864
0.2100060916
0.2100060992
0.2100061082
0.210006119
0.2100061314
0.2100061452
0.2100061593
0.2100061732
0.2100061844
0.2100061925
0.2100061977
0.2100062006
0.2100062018
0.2100062013
0.2100061992
0.2100061952
0.2100061892
0.2100061815
0.2100061725
0.2100061631
0.2100061538
0.2100061454
0.2100061383
0.2100061344
0.2100061359
0.210006134
0.2100060786
0.2100060846
0.2100060922
0.2100061012
0.2100061117
0.2100061235
0.2100061364
0.2100061497
0.2100061625
0.2100061726
0.2100061799
0.2100061844
0.2100061866
0.2100061871
0.210006186
0.2100061834
0.2100061794
0.2100061738
0.210006167
0.2100061593
0.2100061513
0.2100061433
0.2100061361
0.2100061301
0.210006127
0.210006129
0.2100061274
0.2100060709
0.2100060773
0.2100060847
0.2100060934
0.2100061032
0.2100061141
0.2100061256
0.2100061384
0.2100061495
0.2100061584
0.2100061648
0.2100061688
0.2100061706
0.2100061707
0.2100061693
0.2100061667
0.2100061628
0.2100061579
0.210006152
0.2100061455
0.2100061387
0.2100061321
0.210006126
0.2100061209
0.2100061186
0.2100061211
0.2100061198
0.2100060635
0.2100060698
0.210006077
0.2100060851
0.2100060942
0.2100061041
0.2100061146
0.2100061252
0.2100061349
0.2100061427
0.2100061484
0.210006152
0.2100061536
0.2100061536
0.2100061523
0.2100061499
0.2100061464
0.2100061421
0.2100061371
0.2100061316
0.210006126
0.2100061205
0.2100061155
0.2100061114
0.2100061097
0.2100061127
0.2100061116
0.2100060564
0.2100060625
0.2100060692
0.2100060767
0.2100060849
0.2100060936
0.2100061029
0.2100061119
0.2100061201
0.2100061268
0.2100061319
0.2100061351
0.2100061366
0.2100061367
0.2100061356
0.2100061335
0.2100061306
0.2100061269
0.2100061228
0.2100061182
0.2100061136
0.2100061091
0.210006105
0.2100061017
0.2100061006
0.2100061041
0.2100061032
0.2100060495
0.2100060553
0.2100060615
0.2100060683
0.2100060756
0.2100060834
0.2100060913
0.2100060989
0.2100061059
0.2100061116
0.210006116
0.2100061189
0.2100061204
0.2100061206
0.2100061198
0.2100061181
0.2100061157
0.2100061127
0.2100061093
0.2100061056
0.2100061018
0.2100060982
0.2100060949
0.2100060922
0.2100060916
0.2100060954
0.2100060948
0.2100060431
0.2100060485
0.2100060542
0.2100060603
0.2100060668
0.2100060735
0.2100060803
0.2100060868
0.2100060926
0.2100060975
0.2100061013
0.2100061039
0.2100061053
0.2100061057
0.2100061052
0.2100061039
0.210006102
0.2100060996
0.2100060969
0.2100060939
0.2100060909
0.2100060879
0.2100060852
0.2100060831
0.210006083
0.2100060871
0.2100060866
0.2100060371
0.2100060421
0.2100060472
0.2100060527
0.2100060585
0.2100060643
0.2100060701
0.2100060756
0.2100060805
0.2100060847
0.210006088
0.2100060904
0.2100060918
0.2100060923
0.210006092
0.2100060911
0.2100060897
0.2100060878
0.2100060856
0.2100060832
0.2100060808
0.2100060784
0.2100060763
0.2100060746
0.2100060748
0.2100060792
0.2100060788
0.2100060315
0.2100060362
0.2100060409
0.2100060458
0.2100060508
0.2100060559
0.2100060609
0.2100060656
0.2100060698
0.2100060735
0.2100060763
0.2100060785
0.2100060798
0.2100060804
0.2100060804
0.2100060797
0.2100060786
0.2100060772
0.2100060755
0.2100060736
0.2100060717
0.2100060698
0.2100060681
0.2100060668
0.2100060673
0.2100060719
0.2100060716
0.2100060265
0.2100060308
0.2100060351
0.2100060395
0.210006044
0.2100060485
0.2100060528
0.2100060569
0.2100060605
0.2100060637
0.2100060662
0.2100060681
0.2100060694
0.2100060701
0.2100060702
0.2100060698
0.210006069