/*--------------------------------*- C++ -*----------------------------------*\
  =========                 |
  \\      /  F ield         | OpenFOAM: The Open Source CFD Toolbox
   \\    /   O peration     | Website:  https://openfoam.org
    \\  /    A nd           | Version:  8
     \\/     M anipulation  |
\*---------------------------------------------------------------------------*/
FoamFile
{
    version     2.0;
    format      ascii;
    class       volVectorField;
    location    "0.2";
    object      U;
}
// * * * * * * * * * * * * * * * * * * * * * * * * * * * * * * * * * * * * * //

dimensions      [0 1 -1 0 0 0 0];

internalField   nonuniform List<vector> 
67451
(
(0.002209969279 -0.008913480204 2.175888401e-05)
(0.002805885535 -0.009323030942 1.312265151e-06)
(0.003442201043 -0.009697601676 -1.252799685e-05)
(0.004097019975 -0.01001153831 -1.705776629e-05)
(0.004739358148 -0.01024629511 -9.846854342e-06)
(0.00533557453 -0.01039231567 8.771949611e-06)
(0.005855821352 -0.01044922804 3.781253371e-05)
(0.006277778095 -0.0104234358 7.384880056e-05)
(0.00658626006 -0.01032495431 0.0001139330822)
(0.006773353357 -0.01016548908 0.0001557513524)
(0.006836099835 -0.009956081589 0.0001979090663)
(-8.448458512e-06 -0.007945714438 5.790816581e-05)
(0.0003448783635 -0.008283218906 3.368197383e-05)
(0.0007451235547 -0.008661730513 3.11109086e-06)
(0.001208744862 -0.009075200922 -3.346459843e-05)
(0.00175000989 -0.009506420102 -7.442990028e-05)
(0.002372558303 -0.009928231589 -0.0001140814447)
(0.00306621587 -0.01030913609 -0.0001460335257)
(0.003803843703 -0.01061883695 -0.0001630050977)
(0.004544873195 -0.01083608894 -0.000161116416)
(0.005244900363 -0.01095206843 -0.0001407764809)
(0.005864352676 -0.01096857123 -0.0001054870883)
(0.006374502042 -0.010895699 -6.020009249e-05)
(0.006757630506 -0.01074642313 -9.514706967e-06)
(0.007005870293 -0.01053381127 4.294362817e-05)
(0.007117618784 -0.01026993159 9.615489919e-05)
(0.007092828636 -0.009966200584 0.000148531622)
(0.00693257082 -0.00963406513 0.0001996580513)
(0.006639079132 -0.009284536214 0.0002490265239)
(0.006215862378 -0.008930008016 0.0002960066539)
(0.005668783327 -0.008583480684 0.0003398052126)
(0.005006538305 -0.008258009536 0.0003795043939)
(0.004240887219 -0.007965993696 0.0004141648028)
(0.003386262704 -0.007718499481 0.0004429846801)
(0.002460973422 -0.007524701016 0.0004643233944)
(0.001489822563 -0.007391081048 0.0004764004406)
(0.0004939056339 -0.007258763324 0.0004808859028)
(-0.0009051581661 -0.007770927105 9.982616847e-06)
(-0.0006398774999 -0.008039697382 -7.485377459e-06)
(-0.0003562704334 -0.008329926253 -2.889067325e-05)
(-4.684620976e-05 -0.0086572657 -6.015335571e-05)
(0.0003109217785 -0.009028889329 -0.0001034710822)
(0.0007439894936 -0.009440735 -0.0001587928707)
(0.001279447654 -0.009875912203 -0.0002227821814)
(0.001930260703 -0.01030405999 -0.0002867848745)
(0.002688882373 -0.01068955407 -0.0003413652426)
(0.003522228729 -0.01099518877 -0.0003733679825)
(0.00437589164 -0.0111961648 -0.0003759986573)
(0.005191096785 -0.0112851317 -0.000350759899)
(0.005917352946 -0.01126752118 -0.0003041651463)
(0.006520148785 -0.01115667887 -0.0002441763066)
(0.006981065229 -0.01096784545 -0.0001776134316)
(0.007293177609 -0.01071455591 -0.000109031266)
(0.007455324317 -0.01040892525 -4.082161645e-05)
(0.007467870356 -0.01006189505 2.574889621e-05)
(0.007332601863 -0.009684146382 9.106341289e-05)
(0.007051159553 -0.009287830797 0.0001543866647)
(0.006625526608 -0.008886782133 0.0002150254788)
(0.006061032826 -0.008495151792 0.0002717966769)
(0.005366649261 -0.008127676136 0.0003233822953)
(0.004555272346 -0.007798326146 0.0003684316506)
(0.003643217443 -0.007519516335 0.000405826107)
(0.002651166746 -0.007301461855 0.0004337050048)
(0.001606539561 -0.007151419808 0.0004502348117)
(0.000532983327 -0.007019145366 0.0004572850019)
(-0.001191613134 -0.007957186593 -0.0001167771317)
(-0.0009369499048 -0.008205284196 -0.0001358896079)
(-0.0006821314859 -0.008465308657 -0.0001586547258)
(-0.000417592755 -0.008760607044 -0.0001969931165)
(-0.0001095312615 -0.009103357433 -0.0002532433035)
(0.0002847710857 -0.009494759276 -0.0003308063713)
(0.000808265113 -0.009919622837 -0.0004228949029)
(0.001485025031 -0.01034334808 -0.0005174113284)
(0.002312340421 -0.01072775964 -0.0006011403929)
(0.003251259966 -0.01102872483 -0.0006522036517)
(0.004228646837 -0.01121570327 -0.0006582214891)
(0.005167120804 -0.01128427775 -0.0006237454624)
(0.006004535471 -0.01124379635 -0.0005600830732)
(0.006701464601 -0.01111037299 -0.0004795929758)
(0.007239983445 -0.01090023402 -0.0003920706948)
(0.007615631577 -0.01062672645 -0.0003035004989)
(0.007829632948 -0.01030031188 -0.000216485015)
(0.007883513372 -0.009929701653 -0.0001315547664)
(0.007777021068 -0.009524032898 -4.839920586e-05)
(0.007508938899 -0.009095815445 3.23960115e-05)
(0.007080605936 -0.008659770283 0.0001105837786)
(0.006496900274 -0.008233172418 0.000184103307)
(0.005766716861 -0.007832531191 0.0002510730872)
(0.004904341046 -0.007473411589 0.0003095806531)
(0.003928284481 -0.007169585409 0.0003580460292)
(0.002861982403 -0.006932156917 0.0003943504928)
(0.001735829883 -0.006769053412 0.0004165840658)
(0.0005762879862 -0.006639424108 0.0004268196847)
(-0.00119419072 -0.00806528795 -0.0003100463077)
(-0.0009620682464 -0.008271075144 -0.0003297753081)
(-0.000742882705 -0.00851175826 -0.0003733980818)
(-0.0004899430921 -0.008800588709 -0.0004426514786)
(-0.0001464438519 -0.009143961244 -0.0005410170582)
(0.0003537702482 -0.009536107731 -0.0006668584361)
(0.001048730407 -0.009938290836 -0.0007978809487)
(0.001941286387 -0.01031104852 -0.0009176913238)
(0.002990019889 -0.01060483822 -0.0009931160422)
(0.004097195974 -0.01078070847 -0.001000568987)
(0.005160530822 -0.010839762 -0.0009524158294)
(0.00610714129 -0.0107945383 -0.0008665937107)
(0.006895013289 -0.01066234094 -0.0007610472958)
(0.007508744456 -0.01045803942 -0.000649052789)
(0.007947697344 -0.01019214764 -0.0005379131055)
(0.008215767776 -0.00987173347 -0.0004298848061)
(0.008314765044 -0.009502915847 -0.0003243968785)
(0.008242327821 -0.009093561588 -0.0002203274511)
(0.007994020553 -0.00865533993 -0.0001176391481)
(0.007566617562 -0.008203756639 -1.756521849e-05)
(0.006963489895 -0.007758022872 7.652603006e-05)
(0.006195491938 -0.007337752062 0.000162686037)
(0.005278499442 -0.006960979339 0.0002379437868)
(0.004233672286 -0.006642245877 0.0003001628324)
(0.00308767184 -0.006393349732 0.0003468758522)
(0.001874153592 -0.006222626374 0.0003761271564)
(0.000622635869 -0.006099289334 0.0003901860216)
(-0.00138635217 -0.007545984215 -0.0005283039927)
(-0.001169198687 -0.007675164892 -0.0005359949353)
(-0.0009952348699 -0.007838654355 -0.0005797990047)
(-0.000799191424 -0.008049409476 -0.0006582417806)
(-0.0005175872853 -0.008318141589 -0.0007779476433)
(-5.82332223e-05 -0.008642889227 -0.0009319601779)
(0.0006396977854 -0.009002396257 -0.001105819867)
(0.001585282072 -0.009343389204 -0.001266406759)
(0.002739000288 -0.009622873776 -0.001373904965)
(0.003972463397 -0.00979148417 -0.001379485943)
(0.00515212751 -0.009857938258 -0.001314017667)
(0.006198175147 -0.009834283343 -0.001203565091)
(0.007068639973 -0.009734846516 -0.001072138708)
(0.007753003415 -0.009570083485 -0.0009360161339)
(0.008255313839 -0.009345333975 -0.0008030753806)
(0.008581590213 -0.009063003074 -0.0006746292728)
(0.008732487865 -0.008725698969 -0.0005482714558)
(0.008701701169 -0.008339619795 -0.0004215094419)
(0.00847967766 -0.007916746926 -0.0002941153167)
(0.008059531419 -0.007474458591 -0.0001685094976)
(0.007441663893 -0.007032615787 -4.881905449e-05)
(0.006636236913 -0.006612733318 6.030679949e-05)
(0.005663092603 -0.006235073643 0.0001555682152)
(0.004547518262 -0.005915849451 0.0002340905089)
(0.0033194304 -0.005666760958 0.0002930921852)
(0.002016103677 -0.005496156086 0.0003305719765)
(0.0006702131953 -0.005383858458 0.0003490076085)
(-0.001492155674 -0.006588433313 -0.0007818627857)
(-0.00128135161 -0.006625237097 -0.0007646968907)
(-0.001151144181 -0.006696238435 -0.0008009394733)
(-0.001013010525 -0.006810001687 -0.0008796671749)
(-0.0007938568587 -0.006982698246 -0.001013655539)
(-0.0003926622613 -0.007211493927 -0.0011954612)
(0.000284598446 -0.007491180727 -0.001400574664)
(0.001264474862 -0.007776117235 -0.0016034182)
(0.002501280263 -0.008032287159 -0.001748224681)
(0.003840855515 -0.008196466303 -0.001749541619)
(0.005113938712 -0.008290533126 -0.001668379672)
(0.006241521163 -0.008319258197 -0.001536565963)
(0.00718332719 -0.008287718001 -0.001384295926)
(0.007933760798 -0.008197564144 -0.001230089325)
(0.008500965284 -0.008047490402 -0.001081332084)
(0.008891815781 -0.007834998081 -0.0009370667875)
(0.009103984792 -0.007559311472 -0.0007924185349)
(0.009124887422 -0.007225234563 -0.0006432147582)
(0.008937891561 -0.006845325779 -0.0004894725928)
(0.008531176384 -0.006438839616 -0.0003352949701)
(0.007903596543 -0.006028080235 -0.0001870068029)
(0.007065568886 -0.005634812897 -5.116922334e-05)
(0.006038759531 -0.005278540422 6.665369177e-05)
(0.004853658633 -0.004977371653 0.0001634999514)
(0.003545330531 -0.00474258213 0.0002362201395)
(0.002154369065 -0.004582036418 0.0002828123173)
(0.0007165717916 -0.004486537569 0.0003060213292)
(-0.001502105695 -0.00515557768 -0.001052813799)
(-0.001286795311 -0.005102567107 -0.0009935862135)
(-0.001196789315 -0.005083561658 -0.001012643724)
(-0.00111167336 -0.005097877912 -0.00107732742)
(-0.00095556221 -0.005162139612 -0.001211912239)
(-0.0006129222271 -0.005277274137 -0.00140795711)
(2.377768826e-05 -0.005436804865 -0.00164206797)
(0.0009950225344 -0.005627163946 -0.00188150495)
(0.002280506654 -0.005821580684 -0.002084359446)
(0.003690824509 -0.006002591904 -0.002064152422)
(0.005018261482 -0.006158126201 -0.001967052916)
(0.006201333997 -0.00627501493 -0.001821099151)
(0.007201482487 -0.006342762288 -0.001659826832)
(0.008015154422 -0.006353973377 -0.001500391072)
(0.008650925379 -0.006302316295 -0.001347113091)
(0.009114231516 -0.006182730629 -0.001195897736)
(0.009397762337 -0.005992802084 -0.001038779858)
(0.009480667524 -0.00573659679 -0.0008697625902)
(0.009337630391 -0.005427418977 -0.0006898244077)
(0.008951132926 -0.00508571154 -0.0005059684839)
(0.008318837363 -0.00473476097 -0.0003276775493)
(0.007453962031 -0.00439673403 -0.0001638573383)
(0.006380321401 -0.004089381866 -2.163430921e-05)
(0.005132215314 -0.003828004706 9.410019677e-05)
(0.003750655666 -0.003624665146 0.0001809693794)
(0.002279928524 -0.003485840198 0.0002368929331)
(0.0007586854671 -0.003413619311 0.0002648426046)
(-0.001430582237 -0.003269885656 -0.001302929871)
(-0.001202763942 -0.003149958344 -0.001190700761)
(-0.001146007747 -0.003065463702 -0.001185302169)
(-0.001098696764 -0.003002850409 -0.001219260071)
(-0.0009895301975 -0.002979170918 -0.001331584057)
(-0.0006922649105 -0.00299537079 -0.001506689034)
(-9.706218189e-05 -0.00305245673 -0.001717090693)
(0.000844774242 -0.003150500921 -0.001940998304)
(0.002091753378 -0.003282521937 -0.002108236787)
(0.003473713304 -0.003471326872 -0.002137103849)
(0.004816753007 -0.003674662018 -0.002085036098)
(0.006040118065 -0.003865480186 -0.001979136853)
(0.007097224747 -0.004020823252 -0.001848168986)
(0.007977932117 -0.004124891877 -0.001709853698)
(0.008687834422 -0.004168918751 -0.00156993104)
(0.00922953226 -0.004145745682 -0.001424116795)
(0.009590743576 -0.004052363481 -0.001262664217)
(0.009741735895 -0.003892284492 -0.001078402987)
(0.009648012192 -0.003678548022 -0.0008747047627)
(0.009286862522 -0.003430669816 -0.0006626704843)
(0.008655260564 -0.003169860558 -0.0004556625103)
(0.007769661309 -0.002915944112 -0.0002654281724)
(0.006659219048 -0.002684834047 -0.0001006421514)
(0.005360635135 -0.002486695598 3.315782977e-05)
(0.003918695507 -0.002332926391 0.0001332478028)
(0.002382637435 -0.002228080851 0.000197773673)
(0.0007931520106 -0.002185712146 0.0002299986562)
(-0.001300792676 -0.0009436819256 -0.001513841468)
(-0.001063711827 -0.0008220166399 -0.001337655092)
(-0.00103624292 -0.0007240335028 -0.001303929807)
(-0.001017473037 -0.0006382653969 -0.001301223693)
(-0.0009473473706 -0.000576765114 -0.001387731433)
(-0.0006928191577 -0.0005423577814 -0.001539620585)
(-0.0001454289256 -0.0005416102728 -0.00173236765)
(0.0007440372478 -0.0005846326053 -0.001946803595)
(0.001930483369 -0.0006825816254 -0.002111865072)
(0.003263001688 -0.0008492866164 -0.002159244178)
(0.004588236848 -0.001054859119 -0.002135005427)
(0.005823677431 -0.00127059728 -0.002061304109)
(0.006918481783 -0.00147028661 -0.001961236326)
(0.007853604031 -0.001634536713 -0.001849463811)
(0.008628196596 -0.001750072298 -0.001729152182)
(0.009241411347 -0.001810376843 -0.001594607088)
(0.009674300849 -0.001811924545 -0.00143440244)
(0.009888504886 -0.001756875104 -0.001240028961)
(0.009841248957 -0.001656557962 -0.00101779033)
(0.009506102142 -0.001526827615 -0.0007830514842)
(0.00888039016 -0.001383779271 -0.0005528727334)
(0.00798310927 -0.001241199355 -0.0003414957369)
(0.006848615323 -0.001110057294 -0.000158727242)
(0.005516114339 -0.0009970033057 -1.103915071e-05)
(0.004033021199 -0.000908418179 9.937655331e-05)
(0.002452496554 -0.0008481728819 0.000170458484)
(0.0008166236096 -0.0008408490511 0.0002059357533)
(-0.001193316801 0.001628184508 -0.001559223746)
(-0.0009632588893 0.001699615915 -0.0013705233)
(-0.0009456445814 0.001768813511 -0.001324068948)
(-0.0009381186008 0.001832096219 -0.001303307597)
(-0.0008849606454 0.001890948022 -0.001369772461)
(-0.0006539367791 0.001938613204 -0.001497923883)
(-0.0001431544062 0.001966251947 -0.001667684002)
(0.0006910826995 0.0019569698 -0.001859208667)
(0.001803214975 0.001891424145 -0.002009551598)
(0.003067839514 0.001756412705 -0.002080958152)
(0.004357423484 0.001575907972 -0.002091478444)
(0.005587195282 0.001374573173 -0.002055196693)
(0.006700395344 0.001176197653 -0.00198943589)
(0.007672789797 0.0009970028002 -0.001905980394)
(0.008496008892 0.0008479848313 -0.001808184457)
(0.009162035631 0.0007321011138 -0.001690379415)
(0.00964908117 0.0006490618788 -0.00153724088)
(0.00991119367 0.0005957149711 -0.001336694075)
(0.009898935292 0.0005666971756 -0.001100625849)
(0.009584399087 0.0005559004464 -0.0008496433419)
(0.008966815163 0.0005573773525 -0.0006040770423)
(0.008068223105 0.0005662126342 -0.0003797020024)
(0.006925565056 0.000578448936 -0.0001867440097)
(0.005580557674 0.0005911489694 -3.087407104e-05)
(0.004081409215 0.0006026080496 8.475648317e-05)
(0.002482360781 0.0006104174063 0.0001592958243)
(0.0008269253503 0.0005788695566 0.0001962757338)
(-0.00111785018 0.004144405621 -0.001466890126)
(-0.000910246776 0.004170716803 -0.001302189448)
(-0.0008916907762 0.004204709004 -0.001257135526)
(-0.0008842319879 0.004236162439 -0.001238463351)
(-0.000831171261 0.004276676559 -0.001298287386)
(-0.0006107215589 0.004319602567 -0.001414960244)
(-0.0001254900797 0.004352982974 -0.001571683156)
(0.0006622838997 0.004361464828 -0.001749587009)
(0.001711531741 0.004322017811 -0.001894783722)
(0.002918608256 0.004228964762 -0.001977276441)
(0.004171471657 0.004094775841 -0.002004880349)
(0.005387431436 0.003935463548 -0.001986088155)
(0.006506463727 0.003767364199 -0.001934086064)
(0.007495551638 0.00360146452 -0.001858953506)
(0.008339294599 0.003441318523 -0.001763892217)
(0.009024516746 0.003286721739 -0.00164455733)
(0.009525642856 0.003133121709 -0.00149056361)
(0.00979878607 0.002976580409 -0.001294975805)
(0.009797947744 0.002819083408 -0.00106677818)
(0.009496060405 0.002665823335 -0.0008237027798)
(0.008891753507 0.002522582114 -0.0005845715995)
(0.008006200228 0.002394149777 -0.0003647807022)
(0.006875912972 0.002283961934 -0.0001747858795)
(0.005542561245 0.002193681964 -2.074034365e-05)
(0.004054645336 0.002125302208 9.363664463e-05)
(0.002466447679 0.002078858871 0.000167437713)
(0.0008218051763 0.002007900165 0.0002037808299)
(-0.001068088763 0.006431290404 -0.001269929103)
(-0.0008974822386 0.006436330085 -0.001152362687)
(-0.0008742703223 0.006447529642 -0.001121488592)
(-0.0008596424351 0.006458418503 -0.001121121584)
(-0.0007939787165 0.006485227977 -0.001186097681)
(-0.0005707444276 0.006525197212 -0.001301536652)
(-9.754459958e-05 0.006567475318 -0.001453273558)
(0.0006572420167 0.006594091272 -0.001622049289)
(0.001658616647 0.006583931244 -0.00176481456)
(0.002819898839 0.006533051541 -0.001850162612)
(0.00403721061 0.006444804361 -0.001882020341)
(0.005229997158 0.006326537054 -0.001866064123)
(0.00633601657 0.006185671823 -0.001814133942)
(0.007317087817 0.006026764718 -0.001736432058)
(0.008152635565 0.005850213093 -0.001637306514)
(0.008825803712 0.005653161796 -0.00151465806)
(0.009310730656 0.005431113715 -0.001361571584)
(0.009568596607 0.005182847176 -0.001174182366)
(0.009559922372 0.004914920861 -0.000959874459)
(0.00926094204 0.004639522111 -0.0007333847524)
(0.008670445539 0.004370620504 -0.0005108570313)
(0.007807911486 0.004121149227 -0.0003058975459)
(0.006706871254 0.003901597105 -0.0001281003423)
(0.005407497626 0.003718061001 1.630576257e-05)
(0.00395683991 0.003577484158 0.0001242307079)
(0.002407249925 0.003481644743 0.0001937528323)
(0.0008022689146 0.003374780761 0.0002275934632)
(-0.001018954865 0.008361636041 -0.00102734485)
(-0.000892562466 0.008375721637 -0.0009567002953)
(-0.0008676370279 0.008389162569 -0.0009462078367)
(-0.0008431628521 0.008404147114 -0.0009690549621)
(-0.0007583883505 0.008438534265 -0.001044463556)
(-0.0005210706658 0.008492002612 -0.001163457047)
(-5.041082809e-05 0.008554947157 -0.001315206511)
(0.0006801597821 0.008608356142 -0.00147680888)
(0.001644879604 0.008631846781 -0.001617492298)
(0.002766785933 0.008618503513 -0.001699010557)
(0.003946149573 0.008565616492 -0.001725839648)
(0.00510471595 0.008473993518 -0.001702704754)
(0.006179415757 0.008345176566 -0.001642076518)
(0.007129571183 0.0081799684 -0.001555160883)
(0.007931699678 0.00797711005 -0.001447892426)
(0.00856728732 0.007733623715 -0.001320575433)
(0.00901254237 0.00744669095 -0.00116974704)
(0.009235638009 0.007118204158 -0.0009939723267)
(0.00920520263 0.006758346086 -0.0007988908701)
(0.008902253384 0.006383868906 -0.0005956304401)
(0.008326233147 0.006014135323 -0.0003968474525)
(0.00749451894 0.005667672602 -0.0002136160516)
(0.006436157595 0.005359173163 -5.435983596e-05)
(0.005189001971 0.005100131441 7.542502905e-05)
(0.003797553057 0.004900374802 0.0001727688413)
(0.002310441574 0.004763870148 0.000235358989)
(0.0007701618053 0.004626584036 0.0002652838892)
(-0.0009509254913 0.009895642695 -0.0007772872283)
(-0.0008674874869 0.009937999683 -0.0007444644983)
(-0.0008433098706 0.009975448944 -0.0007538451439)
(-0.0008058481665 0.01001825324 -0.000796318446)
(-0.0006982123631 0.01008130722 -0.000881180581)
(-0.0004438326446 0.0101679947 -0.001002479408)
(2.92979996e-05 0.01026456051 -0.001151001159)
(0.0007410453497 0.01035500664 -0.001304437532)
(0.001669613948 0.01041586071 -0.001438584459)
(0.00274759348 0.01043275742 -0.001512692225)
(0.003879524531 0.01039980289 -0.00153035214)
(0.004989487635 0.0103147414 -0.001497169492)
(0.00601523471 0.01017750789 -0.001426691894)
(0.006915531197 0.00998857415 -0.001331070427)
(0.00766568074 0.009747509392 -0.001217606613)
(0.008247128261 0.00945318773 -0.001088636747)
(0.008639326201 0.009105709026 -0.0009434012279)
(0.00881763733 0.008710062919 -0.0007820289955)
(0.008758792399 0.008278813343 -0.0006087389564)
(0.008449039826 0.007830958567 -0.0004314558537)
(0.007889106326 0.00738829858 -0.0002593837816)
(0.007093375131 0.006971652165 -0.0001011527915)
(0.006087708589 0.006598655351 3.629630863e-05)
(0.004906994286 0.006285486692 0.0001490193762)
(0.003590931675 0.006042799317 0.0002337112895)
(0.002184535818 0.005876611546 0.0002879163923)
(0.0007283038158 0.005715844002 0.0003130982906)
(-0.000854905701 0.01103455109 -0.0005423665272)
(-0.0008055337601 0.01111255745 -0.0005358286032)
(-0.0007801355135 0.01118606603 -0.0005598532544)
(-0.00072774568 0.01127053683 -0.0006140267158)
(-0.0005951058239 0.01137431822 -0.0007014499964)
(-0.0003212444124 0.01150262341 -0.0008195659381)
(0.0001535117672 0.01164362533 -0.0009568927098)
(0.0008451237257 0.0117717242 -0.0010956513)
(0.001729619092 0.01186610264 -0.001213825645)
(0.002749206362 0.01190438532 -0.001277240354)
(0.003817357514 0.01187832698 -0.001287568705)
(0.004862174615 0.01178500457 -0.001249622589)
(0.005823562744 0.01162553936 -0.001175874686)
(0.006660447075 0.01140252143 -0.001078351403)
(0.007347605241 0.01111819625 -0.0009651836262)
(0.007867103936 0.01077454746 -0.0008403409497)
(0.008201823368 0.01037504804 -0.0007050487473)
(0.008333533291 0.009927477935 -0.000560485229)
(0.008246143507 0.00944583685 -0.0004098693743)
(0.007930746725 0.008949360507 -0.0002586505375)
(0.007388772368 0.008459809761 -0.0001134765384)
(0.006633053132 0.007998785384 1.917880242e-05)
(0.005687582265 0.007586805876 0.0001347572838)
(0.004582614525 0.007240422436 0.000229790666)
(0.003352516199 0.006971248954 0.0003013096063)
(0.002038972141 0.006786610186 0.0003467060894)
(0.0006798428364 0.006609669006 0.0003668516591)
(-0.0007308800784 0.01180050764 -0.0003333284792)
(-0.0007022320033 0.01191095252 -0.0003421334908)
(-0.0006710117216 0.01202307122 -0.0003740390738)
(-0.0006005439988 0.01214897465 -0.00043137891)
(-0.0004450914059 0.01229707517 -0.000514533582)
(-0.0001501221744 0.01246450488 -0.000620522088)
(0.0003227761892 0.01264376667 -0.0007434624549)
(0.0009836602684 0.01280183735 -0.000860794475)
(0.001814253619 0.01291869887 -0.0009580265947)
(0.002760860692 0.01296875909 -0.001009391573)
(0.003749234556 0.01294195869 -0.001014275688)
(0.004713672645 0.01283521979 -0.000976427595)
(0.005597939547 0.01265113957 -0.0009060383753)
(0.006362028141 0.01239499388 -0.0008137884635)
(0.006980582356 0.0120723601 -0.0007077452093)
(0.007436386988 0.01168873177 -0.000592712566)
(0.00771521833 0.01125082759 -0.0004711904071)
(0.007803922322 0.01076858025 -0.0003450239241)
(0.007691725934 0.01025669246 -0.0002168852027)
(0.00737334507 0.009733342676 -9.066349711e-05)
(0.00685208537 0.009220353821 2.898181679e-05)
(0.00614097175 0.008739523132 0.0001381612303)
(0.005260364207 0.00831075595 0.0002332096023)
(0.004235484665 0.0079497362 0.0003115167791)
(0.003096936962 0.00766880378 0.0003704761184)
(0.001882726635 0.007475874336 0.000407411233)
(0.0006277863716 0.007289678726 0.0004226368185)
(-0.0005854516713 0.01222403149 -0.0001533977854)
(-0.0005627702353 0.01235866694 -0.0001687856151)
(-0.0005205184367 0.012501921 -0.0002025824731)
(-0.0004288861565 0.0126623875 -0.000256001395)
(-0.0002509544935 0.01284523465 -0.000330381914)
(5.68935563e-05 0.01304496973 -0.0004214987838)
(0.0005214297188 0.0132450156 -0.0005222682906)
(0.001144966122 0.01342054771 -0.000617181636)
(0.001911634793 0.01354735401 -0.0006930191813)
(0.002774510204 0.01360061906 -0.0007324669801)
(0.003671618762 0.01356930654 -0.0007335287206)
(0.004544868648 0.01345029633 -0.0006988503278)
(0.005343275952 0.01324712604 -0.0006361067683)
(0.006029016876 0.01296712156 -0.0005540319794)
(0.006577107249 0.01261843312 -0.0004598298238)
(0.00697086001 0.01220937381 -0.0003585871776)
(0.00719799893 0.01174941258 -0.0002533684694)
(0.007249002007 0.01124997875 -0.000146336958)
(0.007116775709 0.01072623211 -3.967538772e-05)
(0.006800176672 0.01019678585 6.359483609e-05)
(0.006304573121 0.009681877148 0.0001609499762)
(0.005640731846 0.009201525996 0.000249338811)
(0.004825966332 0.008773483026 0.0003261840138)
(0.00388231739 0.008413100692 0.0003895669602)
(0.00283669039 0.008132519506 0.0004372551491)
(0.001723510112 0.007939699791 0.0004665488315)
(0.0005747235702 0.007750351999 0.0004772367541)
(-0.0004276616375 0.01233765193 -1.146045522e-06)
(-0.0003991128317 0.01248605625 -1.764253663e-05)
(-0.0003397234128 0.01264933452 -4.861303547e-05)
(-0.0002260694009 0.0128329371 -9.521173177e-05)
(-2.778990671e-05 0.0130368154 -0.0001571009554)
(0.0002859342752 0.01325259833 -0.0002309231236)
(0.0007324226776 0.01346015925 -0.0003096665312)
(0.001313405471 0.01363866997 -0.0003826403208)
(0.002010618659 0.01376397963 -0.0004389648675)
(0.002784741782 0.01381375781 -0.0004675099599)
(0.003585190696 0.01377675305 -0.0004658275785)
(0.004362159612 0.01364978063 -0.0004356022929)
(0.005070806335 0.01343648336 -0.0003822048924)
(0.005676154936 0.01314491004 -0.000312484281)
(0.006153928284 0.01278475751 -0.000232595815)
(0.006488349431 0.01236605776 -0.0001470870572)
(0.006668595583 0.01190065528 -5.896708383e-05)
(0.006687729374 0.01140193059 2.936352382e-05)
(0.006542773175 0.01088508624 0.000116502166)
(0.006234019825 0.01036786585 0.0002001860954)
(0.005766328375 0.009867849898 0.0002783687468)
(0.005149974512 0.009402780365 0.0003490115249)
(0.004400242413 0.008989097599 0.0004103273095)
(0.003536272926 0.008641052504 0.0004609304368)
(0.00258163203 0.008370093239 0.0004989386213)
(0.00156742065 0.008183827165 0.0005216352332)
(0.0005227041608 0.007996442285 0.0005283067576)
(-0.0002675740952 0.01217879008 0.0001264118294)
(-0.0002227893915 0.01232976842 0.0001112779756)
(-0.0001421464209 0.01250102319 8.524654303e-05)
(-6.229056892e-06 0.01269269013 4.744302533e-05)
(0.0002068013192 0.01290247637 -1.249396992e-06)
(0.0005186588325 0.01311787467 -5.741090565e-05)
(0.0009425293348 0.01332166643 -0.0001161736146)
(0.001476335597 0.01349247676 -0.0001695351948)
(0.002102572167 0.01360829574 -0.0002094566727)
(0.00278838641 0.01365013938 -0.0002286614857)
(0.003492688293 0.01360752405 -0.0002249271891)
(0.004173631675 0.01347712124 -0.0001992783413)
(0.004792485494 0.01326203557 -0.000155428984)
(0.005318029362 0.01297037284 -9.840562154e-05)
(0.00572744465 0.01261268327 -3.29921128e-05)
(0.006006395919 0.01220076782 3.67678453e-05)
(0.006146225229 0.01174721747 0.0001086990362)
(0.006141089842 0.01126599047 0.0001805457797)
(0.005988698549 0.01077173733 0.00025070891)
(0.005690459611 0.01027991925 0.0003175878444)
(0.005251743022 0.009806695373 0.0003796794134)
(0.004682079628 0.009367981851 0.0004355613607)
(0.003994976583 0.00897853517 0.0004839851863)
(0.003207066185 0.008651219986 0.0005239824597)
(0.002339027082 0.008396511278 0.0005539465402)
(0.001418952497 0.008221406601 0.0005711406657)
(0.0004732365661 0.00804011746 0.0005743633095)
(-0.0001145458489 0.01178424007 0.0002328379873)
(-4.760383041e-05 0.01192928003 0.0002206821046)
(5.616688888e-05 0.01209612743 0.0002000297178)
(0.0002118441585 0.01228278921 0.000171004384)
(0.0004359971576 0.01248323453 0.0001347177972)
(0.0007431727802 0.0126864606 9.366153497e-05)
(0.001141018417 0.01287525691 5.182632476e-05)
(0.001626032264 0.01303007222 1.48047434e-05)
(0.0021825604 0.01313147048 -1.165601032e-05)
(0.0027838566 0.01316326427 -2.336935821e-05)
(0.003396413257 0.01311596625 -1.818237535e-05)
(0.003985247433 0.01298649624 3.022792417e-06)
(0.004517991571 0.01277772089 3.827692267e-05)
(0.004967785217 0.01249717749 8.384297903e-05)
(0.005314358586 0.01215528085 0.0001361800425)
(0.00554418969 0.011764341 0.0001922924558)
(0.005648840402 0.01133663637 0.0002499548609)
(0.005623580124 0.01088524203 0.0003073778394)
(0.005467065604 0.01042399199 0.0003631567156)
(0.005181248073 0.009967240853 0.0004160481555)
(0.004771484118 0.009529487116 0.000464925112)
(0.004246519786 0.009124827275 0.0005087866384)
(0.003618312169 0.008766293258 0.000546756649)
(0.002901367096 0.008465308113 0.0005781594758)
(0.002113847805 0.008231222218 0.0006016064127)
(0.001281177154 0.008070311672 0.0006143307213)
(0.000427348745 0.007898364417 0.000614657531)
(2.593773677e-05 0.01118444939 0.0003207153347)
(0.0001174436793 0.01131738702 0.0003116289738)
(0.0002434924087 0.01147189786 0.0002965296931)
(0.0004160618817 0.01164414015 0.0002756058864)
(0.0006471626623 0.01182691686 0.000249892594)
(0.0009463125803 0.01200898394 0.0002213641519)
(0.001317366901 0.01217526897 0.0001930173661)
(0.001755818147 0.01230872164 0.00016863902)
(0.002247844309 0.01239285508 0.0001520377203)
(0.002771451375 0.01241399497 0.0001461915373)
(0.003299835444 0.01236376068 0.0001524200767)
(0.003804619878 0.01223946661 0.000170421628)
(0.004258669544 0.01204367632 0.0001986576206)
(0.004639005703 0.0117829107 0.0002347274584)
(0.004928004184 0.01146665913 0.000276095471)
(0.005113349349 0.0111060551 0.000320503972)
(0.00518722575 0.01071292464 0.0003661194351)
(0.005145491549 0.01029964129 0.0004114756302)
(0.004987251981 0.009878971495 0.0004554000016)
(0.004714640708 0.009463890698 0.0004969074234)
(0.004332746635 0.009067282826 0.0005351521135)
(0.003849501269 0.008701513169 0.0005694073479)
(0.003275496746 0.008377978544 0.0005990537837)
(0.002623382741 0.008106669505 0.0006236272906)
(0.001909181898 0.007895799114 0.0006419113652)
(0.001155995115 0.007750867694 0.0006510764904)
(0.0003856758743 0.007590761037 0.0006490123527)
(0.0001499929593 0.01040802743 0.0003925645372)
(0.0002659716566 0.01052504204 0.0003864517197)
(0.0004126201323 0.01066223161 0.0003761901906)
(0.0005991331069 0.01081468441 0.0003620724828)
(0.0008340043612 0.01097480931 0.0003449362439)
(0.001123189322 0.01113203389 0.0003262982761)
(0.001468001483 0.01127320869 0.0003082694881)
(0.001863396616 0.01138391547 0.0002934179586)
(0.002297404034 0.01145039115 0.0002842488355)
(0.002752121374 0.0114614794 0.0002827099257)
(0.0032060284 0.01141022673 0.0002896912729)
(0.00363608034 0.01129413293 0.0003050678714)
(0.004019949915 0.01111514112 0.0003278327889)
(0.004338333264 0.01087889592 0.0003563776894)
(0.004575992209 0.01059365108 0.0003889302298)
(0.004721953854 0.01026929935 0.0004238361812)
(0.004769133561 0.009916590741 0.0004596661995)
(0.004713826871 0.009546770142 0.0004952590643)
(0.00455534756 0.009171339428 0.0005296664786)
(0.004295775322 0.00880183136 0.0005621132845)
(0.003939801592 0.008449548202 0.0005919554471)
(0.003494550455 0.008125242604 0.0006186609206)
(0.002969389726 0.007838771798 0.0006417891394)
(0.002375383083 0.007598769887 0.0006610230127)