/*--------------------------------*- C++ -*----------------------------------*\
  =========                 |
  \\      /  F ield         | OpenFOAM: The Open Source CFD Toolbox
   \\    /   O peration     | Website:  https://openfoam.org
    \\  /    A nd           | Version:  8
     \\/     M anipulation  |
\*---------------------------------------------------------------------------*/
FoamFile
{
    version     2.0;
    format      ascii;
    class       volScalarField;
    location    "1.2/wallFilmRegion";
    object      alpha;
}
// * * * * * * * * * * * * * * * * * * * * * * * * * * * * * * * * * * * * * //

dimensions      [0 0 0 0 0 0 0];

internalField   nonuniform List<scalar> 
1342
(
7.735375115e-05
0.8956238688
0.8558111947
1.432028353
1.395701671
1.190355769
1.374555884
0.2123921573
0.3475279553
0.3101634805
0.09846146048
0.01355735771
0.0004119179381
0.7318422524
0.6138513543
1.055278195
1.503981772
1.743208155
2.022829568e-06
6.60512168e-06
2.200978357e-06
6.672687158e-07
1.499586797e-07
1.562070624e-19
5.636081365e-19
0.02666923755
0.1198014499
0.1707658779
0.05347973168
0.01646608633
7.395011455e-05
1.736586534e-19
5.407705774e-20
4.619931161e-20
6.741513575e-20
1.232772899e-19
2.191032821e-07
1.108018478e-06
1.258617347e-06
1.333576142e-07
4.249954906e-09
1.547386894e-21
1.757199366e-20
0.1270843556
0.08044416902
0.04298706993
2.823100747e-19
9.652930336e-21
3.315462421e-21
2.317586693e-21
4.088597991e-21
0.03528345054
0.2528979171
5.46501635e-09
4.150676398e-09
2.795211208e-09
1.424450276e-09
2.94679419e-09
1.342968313e-08
9.084932015e-08
2.22756839e-08
5.91640186e-22
2.642468475e-21
3.258176447e-22
0.007347020438
0.3331715428
7.29446746e-10
5.498333408e-10
3.932339109e-10
2.177918081e-10
4.170139962e-10
1.680823573e-09
5.423045511e-09
8.113181172e-11
1.583924337e-23
3.396812802e-23
0.0007546148406
0.2067936583
7.048168262e-08
1.081482498e-26
3.483059189e-27
1.750066853e-27
7.442600869e-28
4.183153942e-28
1.212244049e-28
6.955528935e-28
2.525292239e-28
6.021533706e-29
7.772640504e-30
3.25777791e-05
0.005614237821
9.047768698e-07
4.042410433e-28
1.591305952e-28
5.641724102e-29
1.677594167e-29
3.651274268e-30
4.07569791e-31
2.030576998e-06
0.0002178126484
3.182191016e-06
6.331137835e-06
1.909299167e-05
5.312802783e-05
0.7724530696
1.059675118
5.137198426e-05
3.296357002e-05
1.535018154
1.960953564e-05
1.198733169e-05
0.3484481105
0.00445668516
0.3801138514
0.5127933515
0.3788649085
0.4254224032
0.4128909917
0.5041316379
0.3878475297
0.1591670765
0.1673137587
0.01690026914
0.214920095
0.02713745291
0.008665421003
0.03271327615
0.02367366381
0.02326644483
0.03530374336
0.02348543031
0.03916213361
0.0412322131
0.06448381022
0.005175849388
0.01303937812
0.006733529608
0.007437137184
0.05485828179
0.008849856961
0.01822084833
0.08411321783
0.03295851451
0.0197315617
0.6031930335
0.03125904027
0.0700789012
0.5682487144
0.1018031506
0.1363926182
0.2154861504
0.1465222268
0.07563732924
0.002672050338
0.02736232888
0.001326366697
0.002785401009
0.0007678521467
0.007059492988
0.01914308497
0.01218972306
0.05281650463
0.01914658426
0.009018355508
0.001307176421
0.004380769259
0.001747384117
0.00530944907
0.02154307862
0.01605283378
0.03155214877
0.01386177223
0.04243043343
0.03687034608
0.05845267999
0.0158881157
0.02776093036
0.6208585402
0.0939368928
0.3140533676
0.01066472494
0.05271828179
0.01350759885
0.01837749838
0.008704397447
0.7178109569
0.01016676095
0.2087035148
0.02006627267
0.02767080651
0.0105600587
0.008952952311
0.003167515356
0.002104313081
0.0002396914489
0.0008705108625
6.323602963e-10
7.830374487e-05
0.0171018939
0.006469160176
0.01460721801
0.001027660483
0.002798381179
0.0008946561062
0.005273902277
0.00107692219
0.003070686506
0.04501419323
0.01198532357
0.03565743925
0.09168149976
0.0708549662
0.1175951917
0.03228228498
0.1675917454
0.3324443783
0.212201608
0.241068012
0.2687415423
0.1098063096
1.052058092
0.6877608433
1.554317535
0.7472836158
0.9456233894
0.08678449871
0.5829500725
0.08920217838
0.00384682704
0.01340617547
0.003853657667
0.0008752101806
0.002000511809
0.001282665772
9.34457657e-05
0.0009981371571
0.001308630447
0.01354108678
0.006284661347
0.01200686533
0.0007364408867
0.002151781641
0.0005992955013
0.0005167914558
0.0003437223475
0.000184695875
0.004039781927
0.0001124974506
8.64999616e-05
0.02339869505
8.595925148e-05
0.0001171659794
0.05689547012
0.0002192147559
0.0004679767785
0.2673532883
0.002309407221
0.1874861186
5.329756146
0.5693215157
6.637993744
0.06210329405
0.02527946825
0.005870239983
0.09487303162
0.0009262478003
0.01438461296
0.001362005185
0.03278481301
0.0004725816144
0.002907556104
0.002200763703
0.002286369585
0.00149754593
0.001933394837
0.001590639286
0.001472543539
0.001318440474
0.001428932105
0.01038987087
0.00437939493
0.009638303748
0.000448719934
0.001809912024
0.0002883519266
0.0001008832784
0.0001192768438
4.752844326e-05
3.146496858e-05
2.041216396e-05
1.023173298e-05
2.405303071e-05
7.016620932e-06
6.123649551e-06
0.0001163868354
8.323630856e-06
1.347703685e-05
0.000379908194
1.954622154e-05
0.000151562444
6.354522087
0.360996477
5.523055422
3.472227833e-05
8.114915605e-05
2.16919003e-05
4.129013315e-06
8.58887079e-09
2.124650975e-12
0.0003141299701
1.332448375e-12
0.0002400659054
0.001922301354
0.001164758425
0.001734187452
0.001622088432
0.001798923616
0.001664637659
0.001505895163
0.00155358374
0.00162377111
0.004437105146
0.002728638245
0.001741723507
0.0001279090848
9.500095644e-05
3.275624342e-05
1.676384525e-05
7.946702856e-06
3.132986686e-06
1.807777538e-06
1.796154597e-06
6.596364889e-07
1.401055948e-08
1.108764558e-07
3.456620244e-10
9.707669922e-06
5.872460807e-06
1.840591273e-05
0.000173503659
4.596945848e-05
0.0002389848177
1.473212344e-05
2.076960332e-05
2.048968968e-05
3.846320317e-05
2.485086455e-05
4.79478925e-09
4.494126422e-06
9.509537767e-06
0.000235951122
3.931553874e-05
0.0002758339342
0.001753264015
0.001295028212
0.002170762332
0.002025662776
0.002623447892
0.002875430486
0.001729802407
0.001986392656
0.001342387637
0.000509245004
0.0009414346394
0.0002231225471
1.51424689e-05
2.671910506e-05
1.248255702e-05
1.831333191e-06
7.934270778e-06
8.709881616e-06
9.652024189e-08
1.316646412e-05
1.973644001e-05
3.310038041e-20
2.584941868e-05
1.999065485e-05
4.74369738e-05
7.967588738e-05
0.0001498637877
0.000204871956
0.0002259992999
0.3220532116
4.321280338e-05
0.0002209371937
5.113745878e-05
0.0003309217843
0.0003371557714
6.779502589e-05
0.000358454153
0.0004625027108
0.0005339987864
0.0008447983596
0.001467646754
0.003034247667
0.002644062807
0.003606987793
0.002355642687
0.003100624198
0.00217040793
0.0008659918095
0.001459841198
0.0009807197066
0.0001302334468
0.0004970929302
0.0001448273903
1.31960139e-05
5.44664623e-05
5.898620311e-05
1.100878755e-05
7.523785925e-05
9.52595253e-05
7.593318182e-06
0.0001015730075
6.384012361e-05
0.0006944117916
0.0003192561302
0.001971332289
0.03059375172
0.04808579132
0.008948519715
0.03527125762
0.01883639599
1.807174137e-07
0.02189929151
2.880152405e-07
9.137352966e-08
5.462746675e-08
4.569402486e-08
5.749748235e-08
3.731827259e-08
2.948568883e-08
2.923477064e-08
2.219962603e-08
1.548767146e-08
9.871691028e-09
9.368038896e-09
6.02359347e-09
6.754818746e-08
1.810502721e-08
4.245504424e-08
3.112715171e-07
9.175039447e-08
2.00577638e-07
7.568948433e-07
1.202896226e-06
1.90681308e-06
3.812950026e-06
8.280611398e-06
3.40867301e-06
0.0527426836
0.02751866803
1.070459584e-06
2.464844885e-08
1.637918941e-08
8.936153421e-09
3.869036834e-09
2.681373595e-08
0.04245373685
0.05288535597
1.463922622e-08
1.227013677e-08
9.97429697e-09
7.749627117e-09
1.748480458e-08
1.380258393e-07
3.671207025e-08
5.626480829e-08
3.797007722e-07
1.019130301e-07
9.797253451e-07
2.942990997e-07
4.787961114e-07
0.01883570667
0.03243301162
3.881913957e-05
0.2962366962
0.0002026861876
4.811575985e-09
3.24702781e-09
3.479203464e-09
2.105526272e-09
1.707368941e-09
1.298994595e-09
1.055830434e-09
8.904059856e-10
6.662020965e-10
6.711780436e-09
2.448269034e-08
7.889833024e-08
1.825710294e-08
1.267720976e-07
2.791071431e-08
2.711243696e-08
9.061743976e-11
0.003299422576
0.01618448925
6.223623914e-10
6.60192759e-10
5.427873354e-11
4.416545185e-11
1.647511165e-10
3.284414843e-11
2.57822509e-11
8.82629796e-10
5.988968671e-11
2.986631827e-09
1.761533915e-10
3.062622632e-24
0.0007690951973
8.539581551e-06
1.013572168e-27
1.937533449e-28
1.66906846e-28
0.7410094795
0.005894264036
1.016482788
0.00119231694
1.932307969
1.450724523e-05
1.448707186
1.120016413e-05
0.4953221908
3.459602818e-06
0.1954936116
1.154281355e-06
0.2208074987
8.785872298e-07
0.3171128604
2.969490707e-06
5.323495289e-05
0.5940868583
1.465788321e-05
0.2933775193
0.4380288304
0.4763738602
0.2964830751
0.3093865093
0.07612392189
0.02126685796
0.06223102793
0.03165770625
0.03000736063
0.1941371593
0.00146813063
0.9975592995
0.000295863693
0.03119900132
0.2870824278
0.6702333892
0.4241479601
0.07046681329
0.001581854792
0.005728426734
0.08411484373
0.002397413427
0.01114814493
0.0316238249
0.02256529094
0.1907666115
0.4315079873
0.6395258582
1.170203075
0.03784524974
0.01200973943
0.01364822715
0.02458969672
0.0112400557
0.0002119633101
0.008657928025
0.003386430031
0.001581393825
0.01885980061
0.07504014203
0.06674712359
0.06551854862
0.7454980335
0.1137139177
0.7611044738
1.362622629
0.006107794509
0.001687725975
0.0005577126178
0.006764667691
0.002447541038
0.0005236979687
0.001239971956
0.01114579084
0.03816041957
0.09143067403
0.6370262891
0.08505744364
0.08183116364
0.02280487434
0.004117044074
0.002018715767
0.001189699229
0.005547926002
0.00191788539
0.000219454988
5.10570385e-05
2.47846385e-05
3.021622829e-05
5.750412639e-05
0.4696326374
0.0004109214471
8.35083484e-07
1.524248662e-05
0.001469842096
0.001843339005
0.001413310816
0.003112817228
0.002314218873
4.518815044e-05
6.138490577e-06
3.25236131e-07
5.779559036e-06
2.570679694e-05
0.2473748902
5.027828733e-05
1.193412159e-08
2.736250142e-11
0.001089711726
0.001965298498
0.001889634266
0.002227063586
3.779332364e-05
5.031869113e-06
6.101567467e-07
5.174793223e-12
1.587382565e-05
0.0001153638647
0.7128048736
0.0001517852204
6.984175352e-05
2.937956077e-05
0.0001783622223
0.001655543934
0.003203851535
0.001368880354
0.0004832197879
2.310213601e-05
1.051277416e-05
1.165791472e-05
0.0001421668457
0.0006032967122
0.1641268844
0.02731344554
0.02562701608
0.02248140511
0.01468838317
0.005984625644
0.001339513715
0.002741453739
0.09507548365
4.698118424e-05
1.794450734e-05
0.9641619566
1.553989066
0.4882979462
0.0383020539
0.01789174499
0.0061898601
1.104792999e-07
7.372304899e-08
4.267158936e-08
1.70150474e-08
2.891754956e-08
1.463706219e-07
6.108483378e-07
1.23517531e-06
4.781016112e-07
5.374134045e-06
6.981306019e-06
8.15715918e-06
3.644479061e-06
4.741344208e-19
3.257836238e-19
0.05039934813
0.06847197437
0.1384776235
2.908240833e-08
1.708535561e-08
2.041475369e-08
1.254343759e-08
5.603954318e-09
3.609429616e-09
1.159119603e-08
7.607538286e-09
5.614080001e-08
3.801407418e-21
1.07284099e-20
2.826326721e-20
6.984078646e-21
5.117289466e-08
2.438324203e-08
1.252735672e-07
2.62063569e-09
2.829564515e-23
5.465494746e-23
0.03102186643
0.01597988964
0.04466047407
7.707705955e-06
8.366677197e-06
3.623130049e-22
1.426192535e-22
6.809713331e-23
6.828475035e-23
5.411618058e-23
1.784138431e-23
1.058437636e-22
3.731835133e-10
6.147937301e-09
8.482611817e-24
4.660350723e-24
3.259823564e-24
8.539274199e-25
0.006603176583
0.001059795548
2.310270233e-24
1.330524788e-24
4.794414898e-24
5.522278955e-25
3.230172838e-24
4.566745404e-25
0.0001970502793
0.2552764018
1.6400456e-19
3.032483433e-27
1.38480245e-27
1.448084959e-27
7.055402786e-28
3.520826725e-28
1.634859577e-28
6.721946081e-29
8.146011342e-05
0.1959572164
1.227100287e-18
6.260826044e-28
3.478582671e-28
1.89432286e-28
9.589835388e-29
4.170260093e-29
1.666648161e-29
2.828251475e-05
0.1222671354
1.700735876e-17
2.212354195e-28
1.324374272e-28
7.895751404e-29
4.523744224e-29
2.27704133e-29
8.362150188e-30
6.876933076e-06
0.04024646146
5.81203719e-16
5.37374022e-29
3.22323069e-29
1.953146172e-29
1.192665174e-29
7.340797966e-30
4.16953376e-30
0.7031291315
0.01183596494
0.3701921064
0.01500882971
0.8182164334
0.002746727288
0.4613607282
0.5831610436
0.007755400611
0.003749842129
1.432349813
1.504981645e-05
0.5483730081
0.5552036992
0.001989257531
2.843962634e-07
2.015091181
1.366309761e-05
0.6356331925
0.7445980032
2.38169423e-07
2.105701034e-07
0.8140658138
5.90005256e-06
0.633456104
0.2213780284
1.780329246e-07
1.220920072e-07
0.3260800646
2.106340678e-06
0.08171154228
0.03860970799
8.417302639e-08
5.562358847e-08
0.1504729692
5.608119306e-07
0.02338378831
0.0237814761
3.166708645e-08
1.707612792e-08
0.2753449017
1.492569137e-06
0.06133496087
0.08914868492
4.573401247e-08
1.017180707e-07
0.4315921667
6.748930313e-06
0.07334737067
0.04992275193
2.145611447e-07
4.379900399e-07
0.1958148296
0.3073945973
8.489132429e-07
0.5096826299
0.3795571315
0.05579593245
0.1186113444
0.4213827943
1.226426434
9.71423511e-06
1.028327793
6.824517311e-05
9.279163975e-05
1.417492013
0.6686654934
0.9355694879
2.798165326
9.232763856e-05
7.253220824e-05
4.876450046
0.5903533467
1.904126196
1.92630828
5.61028787
6.834530649e-06
4.284829305e-06
3.598090418e-06
1.443162102
0.8213481711
2.802324267e-06
0.0006681983501
0.2758466956
1.265690888
0.2399938301
1.210706973
0.5315145254
0.2329777433
2.071953407e-07
1.965510039e-07
6.839262196e-08
0.02525071851
0.8382356847
0.1179729626
0.01677532234
0.02633002478
0.7159597378
0.6253857968
0.3008288689
0.04794304172
0.09974945671
0.0244522055
1.165221748
1.099696437
0.3407697093
0.1405110712
0.153957283
0.0190908721
0.9739661336
0.7112379007
0.2361367952
0.1514399161
0.125128571
0.01011585602
0.3483468556
0.08944226216
0.05100579262
0.04100821337
0.04082697574
0.003163017485
0.01965693041
0.007090864042
0.001724921114
0.009933483858
0.0008985908729
0.0003943672831
0.01200354554
0.09256788406
0.0001038315375
0.0001330979186
1.623673211e-05
0.0054082677
0.3824670652
0.2706524828
0.4475235452
1.082897071e-06
1.385493219e-10
0.0002948318298
0.4231535007
0.6470410822
0.8202113622
3.910729883e-10
9.107960783e-10
1.581838816e-05
0.8426969236
0.8342273893
1.298381452
1.920218993e-09
3.912633215e-09
0.0003100350988
0.83904361
0.6709033824
1.684458205
8.100673057e-09
1.756006412e-08
1.508049069
0.7420391994
1.322125561
9.895931979e-08
4.143016221e-08
1.380676407e-07
4.312178565e-08
3.701282157e-06
2.802328235e-06
9.002284308e-06
3.405542074e-06
1.272367829e-06
4.021261824e-06
2.17560865e-06
6.383414761e-07
1.27326954e-06
1.185372849e-06
6.218500384e-07
3.330504153e-07
4.279248053e-07
1.984270617e-07
3.839152285e-08
1.958514123e-20
2.134654093e-20
4.805288919e-21
6.847531072e-21
3.052052218e-20
6.227391936e-20
1.424493271e-20
5.015702917e-19
1.688012629e-19
1.442995182e-19
6.498118808e-20
0.006967156357
0.07090768069
0.1541907153
0.1254942871
0.1591984291
0.1620627093
0.1721986589
0.08892239313
0.07107746272
0.175952529
0.000996978046
0.02985932201
0.0008549490752
2.860073627e-06
2.45747637e-06
7.041322978e-20
8.346124895e-20
3.486999408e-20
1.834445642e-20
4.55632915e-20
1.204741657e-20
9.99085763e-21
5.359726748e-20
1.028425253e-20
1.276589349e-20
8.709313237e-20
1.776485848e-20
2.538353243e-20
1.994132818e-19
3.506566952e-20
4.528096104e-20
1.454331352e-19
8.258367255e-20
0.03134892522
4.881124025e-06
5.61486182e-09
2.576856956e-09
6.806036729e-07
1.960689801e-07
3.555126396e-07
4.04605262e-07
3.352079022e-07
1.227492847e-07
3.008727566e-07
9.236505026e-07
3.791329159e-07
1.68245549e-07
7.386986814e-08
2.756894111e-08
1.070772926e-07
1.964698655e-08
1.356742147e-22
1.139611028e-21
4.53233171e-22
3.960752051e-11
6.98938008e-23
1.878989399e-21
5.220449978e-22
6.468780193e-22
1.23873689e-21
3.028065802e-21
1.393160056e-21
9.067289837e-21
3.952837453e-20
3.404552274e-20
6.363879536e-21
1.019260692e-20
0.05000175706
0.08331264763
0.1556474917
0.08640515207
0.1201940207
0.07358304695
0.4835814665
0.3003810636
6.824854241e-06
2.426832599e-19
0.0001262897172
1.945981205e-20
1.54400635e-20
7.398100007e-21
3.727769692e-21
2.065155523e-21
5.243750748e-21
9.292022957e-22
2.501995118e-21
1.296579941e-21
7.614107634e-22
2.721069798e-21
7.107200598e-22
5.508773457e-21
7.642791558e-22
8.327308848e-22
1.348239438e-20
1.213289682e-21
2.900236213e-21
5.20473897e-21
0.01072045261
0.02157769317
0.02433615136
2.873129358e-09
2.495298888e-09
2.10752881e-09
1.809066815e-09
3.983137372e-09
7.661373257e-09
1.375234454e-08
0.01132822575
0.001749737054
4.739326505e-10
3.075680884e-10
2.250377492e-08
3.967945901e-09
4.036038972e-09
3.558961721e-08
1.009369734e-07
1.120207097e-08
4.577466697e-23
6.915603716e-24
3.064927684e-23
2.608553813e-23
5.835658946e-24
2.248103435e-23
5.037978512e-24
4.92438085e-23
5.914536521e-23
1.18046318e-23
2.010326633e-23
2.26564775e-23
1.404845776e-22
2.345954333e-22
0.002866612707
0.03058647324
0.006403831876
0.02613935109
0.6509567202
6.642256557e-06
5.664066531e-23
1.732227318e-22
1.758380342e-23
8.730123123e-24
4.473964568e-23
6.363923143e-24
3.083639962e-23
2.260721368e-23
3.126609736e-24
2.762016169e-24
1.408352829e-23
2.619304671e-24
7.561931901e-22
7.378617305e-22
2.55460804e-23
1.81160923e-23
2.038298177e-21
3.59068757e-22
2.148675973e-22
0.0138383845
0.006857949924
0.05560524248
0.6372795119
6.283190553e-22
3.533067766e-22
2.249881161e-22
1.074177484e-22
9.48412027e-23
5.557606079e-23
6.684199937e-23
1.524288332e-23
2.10785371e-22
1.461599834e-23
0.001057007632
0.002292436654
0.003959037586
0.3134085759
7.967388409e-11
7.14981821e-11
6.32752384e-11
1.198322977e-10
2.137064181e-10
3.990349491e-10
6.082912788e-10
0.0003893954624
0.0002649793218
0.001236326432
0.0004924560165
0.1145432168
0.2934000784
7.68171974e-12
9.432916587e-20
7.345424313e-27
5.039185631e-27
2.090701348e-27
2.447398364e-27
1.273686924e-27
7.178076703e-28
5.17027551e-28
5.457887665e-28
3.128285236e-28
2.269486132e-28
3.202412333e-28
1.854874387e-28
2.564085259e-10
3.423418386e-28
1.068868381e-10
4.715778914e-28
1.653991104e-10
4.231004937e-09
2.739901348e-28
4.565875793e-11
4.215997972e-28
1.27540099e-23
3.064645755e-24
1.844865345e-24
1.758621213e-25
1.638000395e-25
1.398538673e-24
1.1432297e-24
1.677583323e-25
1.858185715e-25
9.547092686e-25
4.528151497e-32
5.583772327e-25
1.032333293e-24
1.15804677e-24
1.077655793e-31
3.803016895e-05
0.0003591838761
5.697598874e-05
0.0007102747652
6.377249527e-05
0.001108547502
0.3004095566
1.462778759e-26
3.988304092e-06
1.694048009e-06
2.836753636e-25
1.239421462e-25
1.741463033e-24
1.083437394e-25
9.633960626e-29
9.570546454e-26
8.556812695e-26
3.165524919e-29
8.183335022e-25
7.759173894e-26
6.629337089e-25
7.165193693e-26
6.775298952e-26
6.629983608e-26
4.348533123e-25
6.847733713e-26
7.951652919e-26
3.142729904e-25
1.146292788e-24
2.785072623e-24
8.122046014e-32
1.951515023e-24
2.092630941e-24
0.00113604732
0.0001726338693
0.5990777768
0.4634399032
7.52084239e-24
1.228357897e-23
1.033509221e-24
3.770368148e-24
4.773341748e-25
2.694376933e-24
4.262027661e-25
0.0001187830617
8.122065126e-05
0.0002762583375
0.0001299871297
0.0001771408367
3.108914799e-06
0.2293311095
3.763034827e-06
1.933678271e-27
4.179634638e-19
1.322156434e-27
9.893273293e-28
9.644255696e-28
7.032700844e-28
5.011173181e-28
5.12297979e-28
3.716070303e-28
2.42932883e-28
2.664878079e-28
1.876560692e-28
1.066054227e-28
1.287856195e-28
8.546151747e-29
4.17424127e-29
5.451867315e-29
3.373330424e-29
2.040421934e-29
5.320849959e-05
3.354078032e-05
0.0001081673272
4.885352102e-05
6.342600844e-05
5.82025016e-06
0.160155532
1.048304049e-05
8.40478476e-28
4.205664757e-18
5.040529949e-28
4.667993231e-28
3.830041026e-28
2.915859381e-28
2.581175565e-28
2.220954313e-28
1.686484367e-28
1.365888698e-28
1.269859992e-28
9.422899266e-29
6.483386239e-29
6.827180712e-29
4.765173045e-29
2.574879441e-29
3.144314109e-29
1.937555405e-29
1.860730148e-29
1.158654183e-29
1.415728019e-29
1.21745698e-28
2.039239062e-05
1.141703417e-05
3.599999147e-05
1.519320819e-05
1.905945424e-05
2.173551457e-05
0.08110811514
5.316266592e-05
2.870275196e-28
8.529241361e-17
1.513760013e-28
1.71017552e-28
1.173349961e-28
9.126433121e-29
1.024870532e-28
7.119730053e-29
5.56400517e-29
6.027761238e-29
4.349406737e-29
3.391992538e-29
3.293849362e-29
2.625987403e-29
2.00047387e-29
1.450826036e-29
1.474862556e-29
1.013452395e-29
1.011245862e-29
5.898648167e-30
7.123534173e-30
2.457482626e-29
4.98072918e-30
5.307829239e-06
3.188298651e-06
2.276572229e-05
8.622259952e-06
4.24831701e-06
4.701951622e-06
3.155060667e-05
0.0001650559466
0.09284113305
0.0008274848979
0.2041604763
6.967502221e-29
6.119987132e-15
2.268137923e-29
4.155948442e-29
1.698117366e-29
1.266729151e-29
2.561572586e-28
2.505998648e-29
9.396714129e-30
6.914342274e-30
1.525270737e-29
5.02646531e-30
3.593085375e-30
9.333736733e-30
2.504629571e-30
1.685146265e-30
8.234788061e-30
5.81280074e-30
1.084037319e-30
6.686689575e-31
3.933435759e-31
1.418690061e-30
)
;

boundaryField
{
    walls
    {
        type            zeroGradient;
    }
    wallFilmFace_top
    {
        type            zeroGradient;
    }
    region0_to_wallFilmRegion_wallFilmFace
    {
        type            zeroGradient;
    }
    mirrorFace_top
    {
        type            zeroGradient;
    }
    region0_to_wallFilmRegion_mirrorFace
    {
        type            zeroGradient;
    }
    procBoundary3to2
    {
        type            processor;
        value           nonuniform List<scalar> 
64
(
0.06138751431
0.002922969711
0.01245349554
0.0805571646
0.04513444634
0.00885863283
0.001523865275
0.0002180651141
1.591154157e-05
0.262524687
0.101438443
0.1946232721
0.1946232721
0.02159509564
0.1125416799
0.1245579859
0.23765563
0.8168635933
2.002402732
0.3794862831
0.09951650807
0.0229675023
1.097421203e-05
1.097421203e-05
0.0002807869984
0.0002294051347
0.0002294051347
0.5156820428
0.0006266405872
0.0006266405872
0.03650471568
0.0466809349
0.0466809349
0.03959343467
0.02614066606
0.6711647117
0.02037883706
0.346825635
0.03105971144
0.02305615675
0.005329255167
0.0001531210136
7.490816555e-05
3.626942975e-05
1.507333703e-05
4.050931888e-06
0.346825635
0.02305615675
0.9545742215
0.006932590336
0.002190167433
0.03962735698
0.0805571646
0.02439530424
0.004962373886
0.002617219273
0.0004458124722
0.0005297663697
8.857058631e-05
2.558674788e-05
5.306320306e-05
2.389607108e-05
8.637913506e-06
2.333264305e-06
)
;
    }
}


// ************************************************************************* //
