/*--------------------------------*- C++ -*----------------------------------*\
  =========                 |
  \\      /  F ield         | OpenFOAM: The Open Source CFD Toolbox
   \\    /   O peration     | Website:  https://openfoam.org
    \\  /    A nd           | Version:  8
     \\/     M anipulation  |
\*---------------------------------------------------------------------------*/
FoamFile
{
    version     2.0;
    format      ascii;
    class       volScalarField;
    location    "1.2/wallFilmRegion";
    object      kappa;
}
// * * * * * * * * * * * * * * * * * * * * * * * * * * * * * * * * * * * * * //

dimensions      [1 1 -3 -1 0 0 0];

internalField   nonuniform List<scalar> 
1342
(
0.6088098505
0.6088099892
0.6088099925
0.6088099959
0.608809996
0.6088099956
0.6088099955
0.6088099997
0.6088099998
0.6088099998
0.6088099996
0.608809999
0.6088099899
0.6088099955
0.6088099955
0.6088099955
0.6088099955
0.6088099955
0.6088093528
0.6088095848
0.6088094607
0.6088092561
0.6088091037
0.6088088907
0.6088089325
0.6088099994
0.6088099997
0.6088099997
0.6088099996
0.6088099995
0.6088099828
0.608808967
0.6088089834
0.6088089312
0.608808908
0.6088088665
0.608808967
0.6088087374
0.6088086235
0.6088089711
0.608808835
0.6088087141
0.6088087289
0.6088099997
0.6088099997
0.6088099996
0.6088085919
0.6088087639
0.608808649
0.6088086076
0.6088085492
0.6088099993
0.6088099997
0.6088084748
0.6088083844
0.6088082952
0.6088083213
0.6088084314
0.6088085298
0.6088087215
0.6088087878
0.6088085116
0.608808623
0.6088085331
0.6088099982
0.6088099997
0.6088083816
0.6088083408
0.608808299
0.6088083086
0.6088083404
0.6088083861
0.6088084659
0.6088086662
0.6088084937
0.6088084169
0.6088099891
0.6088099998
0.6088083983
0.608808083
0.6088080063
0.6088079208
0.6088079733
0.6088081605
0.6088085784
0.6088085565
0.608808572
0.6088084316
0.6088083745
0.6088098926
0.6088099992
0.6088086859
0.60880873
0.6088087839
0.6088087839
0.6088086918
0.6088085564
0.6088084712
0.6088094614
0.6088099123
0.6088094742
0.6088095829
0.60880973
0.6088098273
0.6088099894
0.608809995
0.6088098814
0.6088098678
0.608809996
0.6088098415
0.6088098006
0.6088099977
0.6088099979
0.6088099981
0.6088099981
0.6088099982
0.6088099984
0.608809998
0.6088099986
0.6088099986
0.6088099939
0.6088099985
0.6088099964
0.608809994
0.6088099954
0.6088099982
0.6088099913
0.6088099927
0.6088099929
0.6088099954
0.6088099965
0.6088099977
0.6088099986
0.6088099982
0.6088100073
0.608809999
0.6088099996
0.6088099967
0.6088099952
0.608809996
0.6088099949
0.6088099988
0.6088099835
0.6088099994
0.608809999
0.6088099998
0.6088099998
0.608809999
0.6088099997
0.6088099995
0.6088099989
0.6088099993
0.6088099992
0.6088099995
0.6088099995
0.6088100078
0.6088100047
0.6088100164
0.6088100043
0.6088099989
0.6088100026
0.6088099955
0.6088099999
0.6088100018
0.6088100314
0.6088100012
0.6088100104
0.6088099996
0.6088099961
0.6088099965
0.6088099956
0.6088099952
0.6088099952
0.6088099948
0.6088099918
0.6088099944
0.6088099907
0.6088099913
0.6088099903
0.6088099901
0.6088099949
0.608809981
0.6088099916
0.6088100003
0.6088100008
0.6088099901
0.6088100011
0.6088099911
0.6088099966
0.6088100004
0.6088099995
0.6088100021
0.60881001
0.6088100173
0.6088101858
0.6088100626
0.6088106498
0.6088101613
0.6088099967
0.6088100018
0.6088099977
0.6088100301
0.6088100148
0.6088100328
0.6088099992
0.6088100153
0.6088100011
0.6088099956
0.608809997
0.608809996
0.6088099949
0.6088099955
0.6088099948
0.6088099933
0.6088099936
0.6088099934
0.608809989
0.6088099918
0.6088099894
0.6088099913
0.6088099915
0.6088099913
0.6088099901
0.608809991
0.6088099906
0.6088099902
0.6088099901
0.6088099899
0.6088100036
0.6088099922
0.6088099986
0.6088100448
0.6088100069
0.6088100223
0.6088101522
0.6088100459
0.6088100462
0.6088099987
0.6088100038
0.60881
0.6088100387
0.6088100213
0.6088100465
0.6088100225
0.6088100467
0.6088100593
0.6088099991
0.6088100761
0.6088100844
0.6088099958
0.6088100756
0.6088100561
0.6088099941
0.6088100342
0.6088100171
0.60880999
0.6088099969
0.6088099909
0.608809992
0.6088099893
0.6088099931
0.6088099926
0.6088099923
0.6088099961
0.60880999
0.6088100034
0.6088099915
0.6088099992
0.6088099904
0.6088100133
0.6088099985
0.6088099961
0.6088099995
0.6088100158
0.6088100047
0.6088100131
0.6088100334
0.6088100263
0.6088100319
0.6088100015
0.6088100093
0.6088100032
0.6088100606
0.6088100254
0.6088100871
0.6088100996
0.6088101164
0.6088101846
0.6088101809
0.6088102841
0.6088103699
0.608810176
0.6088103815
0.6088103507
0.6088100485
0.608810289
0.6088101982
0.6088100184
0.6088101111
0.6088100253
0.6088099939
0.6088099898
0.6088099945
0.6088102288
0.6088101199
0.6088102639
0.6088104887
0.6088105486
0.6088105666
0.6088100224
0.608810584
0.6088100286
0.608810001
0.6088100024
0.6088100025
0.6088100118
0.6088100056
0.6088100112
0.6088100298
0.6088100201
0.6088100276
0.608810008
0.6088100157
0.6088100141
0.608810145
0.6088101507
0.6088102908
0.6088103608
0.6088105105
0.6088106825
0.6088107017
0.6088107139
0.6088107221
0.6088107063
0.6088107103
0.6088106956
0.6088101867
0.6088102099
0.6088100913
0.6088100224
0.6088100468
0.6088100194
0.6088102111
0.6088101735
0.6088102582
0.6088101583
0.6088102286
0.608810553
0.6088104186
0.6088102788
0.6088100319
0.6088100857
0.6088100317
0.6088100037
0.6088100055
0.6088100038
0.6088100104
0.6088100055
0.6088100105
0.608810026
0.608810022
0.6088100277
0.6088100347
0.6088100279
0.6088100655
0.6088103916
0.6088103253
0.6088104597
0.6088106981
0.6088105162
0.6088104266
0.6088107019
0.608810312
0.6088102284
0.6088106482
0.6088101793
0.6088100543
0.6088100356
0.6088100147
0.6088100139
0.6088100184
0.6088100158
0.6088099953
0.6088101167
0.6088100276
0.6088101314
0.6088100262
0.6088100274
0.6088100947
0.608810029
0.6088100229
0.6088100189
0.6088100142
0.6088100075
0.6088100032
0.6088100032
0.6088100047
0.6088100149
0.6088100112
0.6088100217
0.6088100341
0.6088100346
0.6088100465
0.6088101077
0.6088100694
0.6088101593
0.6088104908
0.6088102716
0.6088102069
0.6088104403
0.6088101455
0.6088101047
0.6088103244
0.6088100771
0.6088100376
0.6088100017
0.6088100019
0.6088099987
0.6088099993
0.6088099994
0.6088099993
0.6088099994
0.6088099994
0.6088089238
0.6088099996
0.6088087751
0.6088088996
0.6088087384
0.6088087037
0.6088088302
0.6088086529
0.6088086156
0.6088088356
0.6088085974
0.6088085894
0.6088089751
0.6088086222
0.608808724
0.6088091014
0.608808794
0.6088088751
0.6088092147
0.6088089709
0.6088090741
0.6088091868
0.608809216
0.6088092696
0.6088092289
0.6088095952
0.6088093369
0.6088099994
0.6088099994
0.6088090319
0.6088086046
0.6088085043
0.6088084599
0.6088085884
0.6088087356
0.6088099993
0.6088099994
0.6088085536
0.6088085033
0.6088084545
0.6088084148
0.6088086243
0.6088090055
0.6088086746
0.6088087126
0.6088090132
0.6088088014
0.6088090672
0.6088088769
0.6088084481
0.608809999
0.6088099994
0.6088099249
0.6088099997
0.6088099835
0.6088084348
0.60880844
0.6088083347
0.6088082885
0.6088083076
0.608808305
0.6088083799
0.6088083262
0.60880836
0.6088084789
0.6088086047
0.6088087056
0.6088085278
0.6088085585
0.6088085587
0.608808436
0.60880875
0.6088099967
0.6088099993
0.6088083643
0.6088083438
0.6088083124
0.608808311
0.6088083251
0.6088083138
0.6088083176
0.6088083593
0.6088083209
0.6088084221
0.6088084934
0.6088087779
0.6088099908
0.6088091563
0.6088081097
0.6088083086
0.6088086243
0.6088099974
0.6088099977
0.6088099947
0.6088099943
0.6088099898
0.6088096995
0.6088099867
0.6088096412
0.6088099873
0.6088095126
0.6088099896
0.6088094867
0.6088099924
0.6088095565
0.6088099934
0.6088095722
0.6088098181
0.608809994
0.6088096827
0.6088099974
0.6088099979
0.6088099982
0.608809997
0.6088099935
0.6088099902
0.6088099934
0.608809997
0.6088099992
0.6088099957
0.6088099949
0.6088099702
0.6088099941
0.6088099298
0.6088099984
0.608809999
0.608809999
0.6088099989
0.6088099989
0.6088099997
0.608810001
0.6088099955
0.6088100146
0.6088099973
0.6088099956
0.608809993
0.6088099917
0.6088099904
0.6088099901
0.6088099908
0.6088099803
0.60881
0.6088100005
0.6088100007
0.6088100016
0.608810185
0.6088100023
0.6088100115
0.6088100103
0.6088099964
0.6088099952
0.6088099943
0.6088099894
0.6088099889
0.6088099876
0.6088099907
0.6088099899
0.608809999
0.6088100142
0.6088100997
0.6088100023
0.608810018
0.6088100322
0.6088100059
0.6088099969
0.608809995
0.6088099931
0.608809989
0.6088099926
0.6088099914
0.6088099901
0.6088099937
0.608810005
0.6088100327
0.6088100085
0.6088100244
0.6088100698
0.6088101434
0.6088101895
0.6088101511
0.6088100583
0.6088099895
0.6088100231
0.6088105407
0.6088103786
0.6088099992
0.6088100051
0.6088100226
0.6088100133
0.6088100192
0.6088102176
0.6088105487
0.608810725
0.6088103026
0.6088100798
0.6088099901
0.6088101505
0.6088105341
0.6088105714
0.6088100049
0.6088100059
0.6088100181
0.6088100183
0.6088102431
0.6088105924
0.6088107105
0.6088106927
0.6088100539
0.6088100259
0.6088099949
0.6088100637
0.6088101062
0.6088101811
0.6088100404
0.6088100046
0.6088100072
0.6088100269
0.6088100432
0.6088103926
0.6088105001
0.6088103737
0.6088100111
0.6088100028
0.6088099954
0.6088099969
0.6088099976
0.6088099985
0.6088100002
0.6088100063
0.6088100235
0.6088099979
0.6088099925
0.6088101588
0.6088101251
0.608809996
0.6088099955
0.6088099956
0.6088099993
0.6088099993
0.6088099994
0.6088089272
0.608808853
0.6088088325
0.6088088662
0.6088090325
0.6088091673
0.608809272
0.608809342
0.6088092158
0.6088094968
0.6088095278
0.6088095393
0.6088092021
0.6088089437
0.6088088615
0.6088099994
0.6088099996
0.6088099997
0.6088086435
0.6088085917
0.6088085514
0.6088084716
0.6088084965
0.6088084406
0.6088086618
0.6088085714
0.6088088284
0.6088087029
0.608808665
0.6088088301
0.6088085556
0.6088087058
0.6088084211
0.6088082549
0.608808723
0.6088087078
0.6088084829
0.6088099993
0.6088099989
0.6088099995
0.608809129
0.608809153
0.6088084539
0.6088085462
0.6088085199
0.608808469
0.6088083693
0.608808485
0.6088083575
0.6088084054
0.608808479
0.608808672
0.6088084911
0.6088085159
0.6088084397
0.6088099984
0.6088099937
0.6088085616
0.6088087614
0.6088085225
0.608808507
0.608808378
0.6088083955
0.608809971
0.6088099998
0.6088082365
0.6088081094
0.6088082487
0.6088081449
0.6088082592
0.6088082228
0.6088082084
0.6088082655
0.6088099513
0.6088099998
0.608808465
0.6088085259
0.6088085768
0.6088085718
0.6088084849
0.6088084119
0.6088084032
0.608809917
0.6088099997
0.6088088076
0.6088088205
0.6088088125
0.6088087414
0.6088086381
0.6088085071
0.6088084
0.6088097978
0.6088099995
0.6088091345
0.6088089863
0.6088089244
0.6088088408
0.6088087155
0.6088085656
0.6088084876
0.6088099977
0.6088099984
0.6088099978
0.6088099991
0.6088099965
0.6088099965
0.6088099978
0.6088099977
0.608809999
0.6088099989
0.6088099921
0.6088097026
0.6088099971
0.6088099957
0.6088099989
0.6088091411
0.608809988
0.6088096818
0.6088099934
0.608809991
0.6088091521
0.6088091314
0.6088099863
0.6088095577
0.6088099892
0.6088099868
0.6088090903
0.608809087
0.6088099885
0.6088094843
0.6088099882
0.6088099899
0.6088091158
0.6088091374
0.6088099917
0.6088095348
0.6088099912
0.6088099939
0.608809176
0.6088092784
0.608809993
0.6088095564
0.6088099945
0.6088099949
0.6088093158
0.6088093572
0.6088099938
0.6088096142
0.6088099948
0.6088099945
0.6088093717
0.6088093639
0.6088099943
0.6088099946
0.6088093724
0.6088099947
0.6088099946
0.6088099942
0.6088099933
0.6088099932
0.6088099923
0.6088096328
0.6088099895
0.608809849
0.6088098794
0.6088099888
0.6088099888
0.6088099902
0.6088099904
0.6088098865
0.6088098861
0.6088099949
0.6088099944
0.6088099957
0.6088099956
0.6088099952
0.6088097583
0.6088097176
0.6088096964
0.6088099956
0.6088099952
0.6088096053
0.6088100048
0.6088099956
0.6088099955
0.6088099955
0.6088099955
0.6088099954
0.6088099954
0.6088093669
0.6088094077
0.6088092731
0.6088099969
0.608809999
0.6088099996
0.6088099992
0.6088099972
0.6088099992
0.6088099994
0.6088099997
0.6088099996
0.6088099997
0.608809998
0.6088099994
0.6088099994
0.6088099998
0.6088099997
0.6088099997
0.6088099992
0.6088099994
0.6088099994
0.6088099997
0.6088099997
0.6088099997
0.6088100023
0.6088099991
0.6088099986
0.6088099996
0.6088099996
0.6088099997
0.6088100127
0.6088099971
0.6088099937
0.6088099971
0.6088099994
0.6088099977
0.6088100406
0.6088099908
0.608809992
0.6088099548
0.6088099889
0.6088099226
0.6088099956
0.6088099936
0.6088099928
0.6088099955
0.6088093825
0.608808737
0.608810155
0.6088099927
0.6088099929
0.6088099955
0.6088085051
0.6088085794
0.6088101499
0.6088099938
0.6088099948
0.6088099955
0.6088087364
0.6088088725
0.6088100182
0.6088099951
0.608809996
0.6088099955
0.6088089372
0.6088089577
0.6088099955
0.6088099958
0.608809996
0.6088092692
0.60880899
0.6088093441
0.6088091754
0.6088094474
0.6088092214
0.6088095437
0.6088090447
0.6088083882
0.6088095353
0.6088093204
0.608809043
0.6088092542
0.6088093568
0.6088091787
0.6088090775
0.6088091909
0.6088090212
0.6088089409
0.6088089522
0.6088090528
0.6088088099
0.6088087941
0.6088089592
0.6088089275
0.608808833
0.6088090905
0.6088090681
0.6088089119
0.6088087913
0.6088099983
0.6088099996
0.6088099997
0.6088099997
0.6088099997
0.6088099997
0.6088099997
0.6088099997
0.6088099997
0.6088099997
0.6088099978
0.6088099996
0.6088099965
0.6088097174
0.6088096404
0.6088087966
0.6088090835
0.608808741
0.6088087552
0.6088089515
0.6088088832
0.6088087955
0.6088089063
0.6088087685
0.6088087766
0.6088089139
0.6088086848
0.6088086798
0.6088090118
0.60880889
0.6088087306
0.6088087391
0.6088087044
0.6088099994
0.6088096082
0.6088084054
0.6088085112
0.6088090774
0.6088088978
0.6088087231
0.6088080211
0.6088082072
0.6088082975
0.6088086635
0.6088088531
0.6088090241
0.6088087922
0.6088088612
0.6088089583
0.6088088986
0.6088088072
0.6088087415
0.6088087615
0.6088088178
0.6088087548
0.6088086336
0.6088088196
0.6088086477
0.6088085653
0.6088087111
0.6088085926
0.6088086246
0.6088086978
0.6088087023
0.6088086299
0.6088085596
0.6088086348
0.6088099995
0.6088099996
0.6088099997
0.6088099996
0.6088099997
0.6088099996
0.6088099998
0.6088099998
0.6088090818
0.6088085597
0.6088099264
0.6088085832
0.608808568
0.6088086381
0.6088086118
0.6088086241
0.6088086166
0.6088086913
0.6088086301
0.6088088229
0.6088086765
0.608808583
0.608808635
0.608808746
0.6088085691
0.6088084477
0.6088085382
0.6088084466
0.6088084375
0.6088084467
0.6088099986
0.6088099991
0.6088099993
0.6088084109
0.6088083737
0.6088083363
0.6088083909
0.608808422
0.6088084563
0.6088084958
0.6088099988
0.6088099974
0.6088083172
0.6088082976
0.6088086222
0.6088085433
0.6088084742
0.6088085232
0.6088085222
0.6088087385
0.6088087763
0.6088085884
0.608808638
0.6088085642
0.6088085164
0.6088085068
0.6088084877
0.6088085287
0.6088086074
0.6088085795
0.6088084868
0.6088084875
0.6088085456
0.6088086026
0.6088099957
0.6088099993
0.6088099979
0.6088099994
0.6088099998
0.6088090976
0.6088082892
0.6088084709
0.6088083481
0.6088085394
0.6088084699
0.6088085042
0.6088084684
0.6088084454
0.6088084799
0.608808424
0.6088084651
0.6088083839
0.6088085468
0.6088084852
0.6088084131
0.608808327
0.6088084857
0.6088085679
0.6088083885
0.6088099987
0.6088099978
0.6088099995
0.6088099998
0.608808419
0.6088084464
0.6088085174
0.6088084947
0.6088086123
0.6088084102
0.6088083534
0.6088084903
0.6088084026
0.6088084249
0.6088099916
0.6088099956
0.6088099975
0.6088099997
0.6088083397
0.6088083315
0.6088083213
0.6088083286
0.6088083452
0.6088083734
0.6088084016
0.6088099815
0.608809976
0.6088099935
0.6088099853
0.6088099996
0.6088099998
0.6088083143
0.6088082205
0.6088082326
0.6088080582
0.6088081427
0.6088079557
0.6088079402
0.6088080594
0.6088080293
0.6088080434
0.6088080048
0.6088080575
0.6088083022
0.6088081672
0.6088084513
0.6088084746
0.60880852
0.6088085606
0.6088084264
0.6088084918
0.6088086096
0.6088085307
0.6088086346
0.6088087501
0.6088086948
0.6088086141
0.6088085324
0.6088084867
0.6088085468
0.6088085058
0.6088084437
0.6088084296
0.6088084739
0.6088084557
0.6088084941
0.608808469
0.6088085086
0.6088084072
0.6088098848
0.6088099777
0.6088099154
0.6088099881
0.6088099304
0.608809996
0.6088099998
0.6088087225
0.6088089433
0.6088087089
0.608808631
0.6088086016
0.608808531
0.608808591
0.6088088103
0.6088086325
0.6088086601
0.6088087253
0.6088086115
0.6088086642
0.6088085558
0.6088086354
0.6088085742
0.6088085035
0.6088084358
0.6088084543
0.6088084319
0.6088085242
0.6088084538
0.6088084383
0.608808413
0.6088084677
0.6088084563
0.6088099907
0.6088099592
0.6088099998
0.6088099998
0.6088082392
0.6088084626
0.6088086702
0.6088084865
0.6088084717
0.608808366
0.6088084067
0.6088099576
0.608809947
0.6088099795
0.6088099626
0.6088099727
0.6088094973
0.6088099998
0.6088096852
0.6088082471
0.6088083386
0.6088083527
0.6088082608
0.6088083855
0.6088084169
0.6088082356
0.6088084256
0.6088084233
0.6088082257
0.6088084276
0.6088084046
0.6088082143
0.6088083658
0.6088083485
0.6088083312
0.6088083557
0.6088083724
0.6088084076
0.6088099332
0.6088099158
0.6088099634
0.6088099366
0.608809951
0.6088098374
0.6088099997
0.6088099319
0.6088084957
0.6088086275
0.6088086474
0.6088085533
0.6088086628
0.608808702
0.6088085878
0.6088087127
0.608808698
0.6088085247
0.6088086577
0.6088086136
0.6088084475
0.6088085628
0.6088085156
0.608808402
0.6088084599
0.6088084223
0.6088084229
0.6088083919
0.6088083909
0.6088084654
0.6088098937
0.6088098573
0.6088099344
0.6088098838
0.6088099049
0.6088099755
0.6088099997
0.6088099898
0.6088088287
0.6088090669
0.6088090153
0.6088088276
0.6088089436
0.6088089149
0.6088087808
0.6088088929
0.6088088577
0.6088086904
0.6088088228
0.6088087637
0.6088085701
0.6088087025
0.6088086285
0.6088084469
0.6088085502
0.6088084744
0.6088083786
0.6088084369
0.6088084134
0.6088084329
0.6088085398
0.6088097631
0.6088095376
0.6088098585
0.6088098288
0.6088096168
0.6088096645
0.6088099058
0.6088099956
0.6088099997
0.6088099984
0.6088099998
0.6088090826
0.6088086467
0.6088090591
0.6088089458
0.6088089702
0.608808912
0.6088087441
0.6088088842
0.6088088803
0.6088088425
0.6088087818
0.6088087974
0.6088087373
0.6088086396
0.6088086755
0.6088086303
0.6088086327
0.6088085045
0.6088085947
0.6088085449
0.6088086147
0.6088085143
)
;

boundaryField
{
    walls
    {
        type            zeroGradient;
    }
    wallFilmFace_top
    {
        type            zeroGradient;
    }
    region0_to_wallFilmRegion_wallFilmFace
    {
        type            zeroGradient;
    }
    mirrorFace_top
    {
        type            zeroGradient;
    }
    region0_to_wallFilmRegion_mirrorFace
    {
        type            zeroGradient;
    }
    procBoundary3to2
    {
        type            processor;
        value           nonuniform List<scalar> 
64
(
0.6088099994
0.6088099964
0.6088099989
0.6088099996
0.6088099995
0.6088099984
0.6088099938
0.6088099713
0.608809816
0.6088099971
0.6088099973
0.6088099976
0.6088099976
0.6088099981
0.6088099755
0.6088099755
0.6088099781
0.6088099871
0.6088099914
0.608809992
0.6088099909
0.6088099897
0.6088102625
0.6088102625
0.6088100294
0.608810041
0.608810041
0.6088099884
0.6088100208
0.6088100208
0.6088099992
0.6088099993
0.6088099993
0.6088099993
0.6088099991
0.6088099977
0.6088099987
0.6088099976
0.6088099973
0.6088099992
0.6088099973
0.6088099638
0.6088099408
0.6088099112
0.6088098664
0.6088097298
0.6088099976
0.6088099992
0.6088099989
0.6088099983
0.6088099954
0.6088099995
0.6088099996
0.6088099992
0.6088099976
0.6088099953
0.6088099798
0.6088099854
0.6088099312
0.6088098455
0.6088099277
0.608809891
0.6088098277
0.6088094505
)
;
    }
}


// ************************************************************************* //
