/*--------------------------------*- C++ -*----------------------------------*\
  =========                 |
  \\      /  F ield         | OpenFOAM: The Open Source CFD Toolbox
   \\    /   O peration     | Website:  https://openfoam.org
    \\  /    A nd           | Version:  8
     \\/     M anipulation  |
\*---------------------------------------------------------------------------*/
FoamFile
{
    version     2.0;
    format      ascii;
    class       volScalarField;
    location    "1.2/wallFilmRegion";
    object      mu;
}
// * * * * * * * * * * * * * * * * * * * * * * * * * * * * * * * * * * * * * //

dimensions      [1 -1 -1 0 0 0 0];

internalField   nonuniform List<scalar> 
1342
(
0.0008861494972
0.0008861475606
0.0008861475149
0.0008861474678
0.0008861474666
0.0008861474723
0.0008861474734
0.0008861474144
0.0008861474137
0.0008861474137
0.0008861474157
0.0008861474238
0.0008861475507
0.0008861474734
0.0008861474733
0.0008861474734
0.0008861474735
0.0008861474733
0.0008861564458
0.0008861532069
0.0008861549393
0.0008861577957
0.0008861599233
0.0008861628971
0.0008861623128
0.0008861474188
0.0008861474146
0.000886147414
0.0008861474154
0.0008861474174
0.000886147651
0.0008861618309
0.0008861616026
0.0008861623308
0.0008861626549
0.000886163234
0.0008861618321
0.0008861650376
0.0008861666264
0.0008861617742
0.0008861636743
0.0008861653615
0.0008861651549
0.0008861474148
0.0008861474149
0.0008861474159
0.0008861670687
0.0008861646663
0.0008861662708
0.0008861668492
0.0008861676645
0.0008861474201
0.0008861474146
0.0008861687023
0.0008861699645
0.0008861712108
0.0008861708456
0.0008861693083
0.0008861679347
0.0008861652589
0.000886164334
0.0008861681891
0.000886166634
0.0008861678898
0.0008861474353
0.0008861474142
0.0008861700047
0.0008861705734
0.0008861711578
0.0008861710231
0.0008861705795
0.0008861699415
0.0008861688271
0.0008861660309
0.000886168439
0.0008861695117
0.0008861475619
0.0008861474137
0.000886169771
0.0008861741733
0.0008861752439
0.0008861764372
0.0008861757044
0.0008861730909
0.0008861672564
0.0008861675623
0.0008861673461
0.0008861693067
0.0008861701038
0.0008861489092
0.0008861474215
0.0008861657555
0.0008861651407
0.0008861643882
0.0008861643871
0.000886165674
0.0008861675636
0.0008861687528
0.0008861549298
0.0008861486346
0.000886154751
0.0008861532335
0.0008861511801
0.0008861498212
0.0008861475585
0.0008861474795
0.0008861490661
0.0008861492562
0.0008861474662
0.0008861496236
0.0008861501938
0.0008861474424
0.0008861474391
0.0008861474371
0.0008861474374
0.000886147435
0.0008861474325
0.0008861474382
0.0008861474302
0.0008861474295
0.0008861474952
0.0008861474318
0.0008861474607
0.0008861474946
0.0008861474741
0.0008861474358
0.000886147532
0.0008861475122
0.0008861475089
0.0008861474739
0.0008861474592
0.0008861474419
0.0008861474297
0.0008861474354
0.0008861473078
0.0008861474237
0.0008861474159
0.0008861474561
0.0008861474776
0.0008861474656
0.0008861474816
0.0008861474266
0.000886147641
0.000886147419
0.0008861474239
0.0008861474135
0.0008861474129
0.0008861474248
0.000886147414
0.0008861474168
0.0008861474262
0.0008861474208
0.0008861474215
0.0008861474169
0.0008861474174
0.000886147302
0.0008861473449
0.0008861471808
0.0008861473498
0.0008861474259
0.0008861473744
0.0008861474727
0.0008861474114
0.0008861473858
0.0008861469717
0.0008861473931
0.0008861472657
0.0008861474164
0.0008861474652
0.0008861474586
0.0008861474719
0.0008861474779
0.000886147478
0.0008861474825
0.0008861475251
0.0008861474879
0.00088614754
0.0008861475322
0.0008861475464
0.0008861475481
0.0008861474809
0.0008861476753
0.0008861475277
0.0008861474059
0.0008861473993
0.0008861475484
0.0008861473945
0.0008861475339
0.0008861474583
0.0008861474048
0.0008861474167
0.0008861473809
0.0008861472711
0.0008861471693
0.0008861448167
0.000886146536
0.0008861383388
0.0008861451588
0.000886147457
0.0008861473852
0.000886147443
0.0008861469902
0.0008861472033
0.0008861469529
0.0008861474215
0.0008861471972
0.0008861473949
0.0008861474713
0.0008861474521
0.0008861474666
0.000886147482
0.0008861474736
0.0008861474823
0.0008861475037
0.0008861474991
0.0008861475031
0.000886147564
0.0008861475252
0.0008861475578
0.0008861475321
0.0008861475291
0.0008861475324
0.0008861475491
0.0008861475364
0.0008861475419
0.0008861475478
0.000886147549
0.0008861475508
0.0008861473607
0.0008861475199
0.0008861474304
0.0008861467843
0.0008861473136
0.0008861470993
0.0008861452853
0.0008861467697
0.0008861467657
0.0008861474288
0.0008861473571
0.000886147411
0.0008861468702
0.0008861471133
0.0008861467616
0.0008861470969
0.0008861467583
0.0008861465829
0.0008861474223
0.0008861463475
0.0008861462324
0.0008861474689
0.0008861463546
0.0008861466278
0.000886147493
0.0008861469327
0.0008861471719
0.0008861475495
0.0008861474535
0.0008861475377
0.0008861475217
0.0008861475596
0.0008861475067
0.0008861475138
0.0008861475177
0.0008861474653
0.0008861475494
0.0008861473624
0.0008861475288
0.0008861474212
0.0008861475442
0.0008861472245
0.0008861474306
0.0008861474652
0.0008861474168
0.0008861471895
0.0008861473445
0.0008861472276
0.0008861469447
0.0008861470425
0.000886146965
0.0008861473896
0.0008861472806
0.0008861473654
0.000886146565
0.0008861470561
0.0008861461942
0.0008861460193
0.0008861457856
0.0008861448339
0.0008861448845
0.0008861434441
0.0008861422462
0.000886144953
0.000886142085
0.0008861425149
0.0008861467328
0.0008861433756
0.0008861446441
0.0008861471534
0.0008861458595
0.0008861470572
0.0008861474958
0.000886147553
0.0008861474874
0.0008861442163
0.000886145737
0.0008861437257
0.0008861405879
0.0008861397519
0.0008861395004
0.0008861470978
0.0008861392572
0.0008861470107
0.0008861473963
0.0008861473764
0.0008861473751
0.0008861472451
0.0008861473321
0.0008861472542
0.0008861469939
0.00088614713
0.0008861470254
0.0008861472982
0.0008861471915
0.0008861472131
0.0008861453866
0.0008861453059
0.00088614335
0.0008861423741
0.0008861402837
0.0008861378824
0.0008861376146
0.0008861374447
0.0008861373301
0.0008861375498
0.0008861374937
0.0008861376991
0.000886144804
0.0008861444798
0.0008861461354
0.0008861470975
0.0008861467567
0.0008861471389
0.0008861444627
0.0008861449884
0.0008861438061
0.0008861452001
0.0008861442189
0.0008861396905
0.0008861415661
0.0008861435183
0.0008861469647
0.0008861462144
0.0008861469671
0.0008861473591
0.0008861473332
0.0008861473577
0.0008861472656
0.0008861473342
0.000886147264
0.0008861470477
0.000886147103
0.0008861470231
0.0008861469252
0.0008861470207
0.0008861464961
0.0008861419436
0.0008861428687
0.0008861409921
0.0008861376649
0.0008861402046
0.0008861414542
0.0008861376114
0.0008861430546
0.0008861442214
0.0008861383608
0.0008861449071
0.0008861466517
0.0008861469137
0.0008861472051
0.0008861472169
0.0008861471531
0.0008861471897
0.0008861474756
0.000886145781
0.000886147025
0.0008861455753
0.0008861470439
0.0008861470273
0.0008861460887
0.000886147006
0.0008861470911
0.0008861471461
0.0008861472119
0.0008861473051
0.0008861473655
0.0008861473652
0.0008861473452
0.0008861472017
0.0008861472537
0.0008861471077
0.0008861469341
0.0008861469279
0.0008861467607
0.0008861459062
0.0008861464415
0.000886145187
0.0008861405589
0.0008861436181
0.0008861445222
0.000886141264
0.000886145379
0.0008861459483
0.0008861428817
0.0008861463341
0.0008861468859
0.0008861473864
0.0008861473835
0.000886147428
0.0008861474204
0.0008861474194
0.0008861474202
0.0008861474189
0.0008861474182
0.0008861624346
0.0008861474161
0.0008861645111
0.0008861627729
0.0008861650233
0.0008861655077
0.000886163741
0.0008861662164
0.0008861667367
0.0008861636657
0.0008861669908
0.0008861671029
0.0008861617185
0.0008861666453
0.0008861652237
0.0008861599554
0.0008861642473
0.0008861631149
0.0008861583734
0.0008861617766
0.0008861603359
0.0008861587636
0.0008861583556
0.0008861576067
0.0008861581749
0.000886153061
0.0008861566679
0.0008861474193
0.0008861474181
0.0008861609257
0.0008861668902
0.0008861682918
0.0008861689111
0.0008861671167
0.0008861650619
0.00088614742
0.0008861474186
0.0008861676029
0.0008861683048
0.000886168986
0.000886169541
0.0008861666154
0.0008861612945
0.0008861659133
0.0008861653827
0.0008861611872
0.0008861641436
0.0008861604325
0.0008861630891
0.0008861690761
0.0008861474243
0.0008861474191
0.0008861484593
0.0008861474144
0.0008861476411
0.0008861692614
0.0008861691886
0.0008861706589
0.0008861713036
0.0008861710375
0.0008861710734
0.0008861700283
0.0008861707777
0.0008861703057
0.0008861686457
0.0008861668895
0.0008861654802
0.0008861679628
0.000886167535
0.0008861675312
0.0008861692452
0.0008861648603
0.000886147457
0.0008861474202
0.0008861702455
0.0008861705322
0.0008861709698
0.0008861709895
0.0008861707935
0.00088617095
0.000886170898
0.0008861703159
0.0008861708521
0.0008861694386
0.0008861684434
0.0008861644713
0.0008861475386
0.0008861591885
0.0008861738005
0.0008861710227
0.0008861666155
0.0008861474465
0.0008861474422
0.0008861474849
0.00088614749
0.0008861475524
0.0008861516049
0.0008861475965
0.0008861524194
0.000886147587
0.0008861542153
0.0008861475557
0.0008861545768
0.0008861475161
0.0008861536023
0.0008861475023
0.000886153383
0.0008861499499
0.0008861474941
0.0008861518402
0.0008861474465
0.0008861474394
0.0008861474357
0.0008861474515
0.0008861475008
0.0008861475473
0.0008861475021
0.0008861474519
0.0008861474214
0.000886147471
0.0008861474819
0.0008861478267
0.0008861474924
0.0008861483899
0.0008861474324
0.0008861474245
0.0008861474239
0.0008861474261
0.0008861474257
0.0008861474152
0.0008861473964
0.000886147473
0.0008861472072
0.0008861474481
0.0008861474712
0.0008861475078
0.0008861475267
0.0008861475447
0.0008861475482
0.0008861475391
0.0008861476852
0.0008861474102
0.0008861474035
0.0008861474007
0.0008861473876
0.000886144828
0.0008861473784
0.0008861472496
0.0008861472669
0.0008861474601
0.0008861474769
0.0008861474893
0.0008861475586
0.0008861475647
0.0008861475838
0.00088614754
0.000886147552
0.0008861474246
0.0008861472121
0.0008861460182
0.0008861473777
0.0008861471597
0.0008861469613
0.0008861473273
0.0008861474539
0.0008861474808
0.0008861475067
0.0008861475633
0.0008861475138
0.0008861475309
0.0008861475482
0.0008861474981
0.0008861473406
0.000886146954
0.0008861472911
0.00088614707
0.0008861464353
0.0008861454084
0.0008861447652
0.0008861453006
0.0008861465968
0.0008861475563
0.0008861470875
0.0008861398619
0.0008861421246
0.0008861474214
0.0008861473395
0.0008861470947
0.0008861472242
0.000886147142
0.000886144372
0.0008861397501
0.0008861372896
0.0008861431854
0.0008861462965
0.0008861475492
0.0008861453091
0.0008861399546
0.0008861394328
0.0008861473414
0.0008861473283
0.0008861471578
0.0008861471546
0.0008861440171
0.0008861391406
0.0008861374912
0.0008861377394
0.0008861466577
0.0008861470484
0.0008861474817
0.0008861465216
0.0008861459279
0.0008861448821
0.0008861468467
0.0008861473457
0.0008861473103
0.0008861470349
0.0008861468078
0.0008861419297
0.0008861404281
0.0008861421937
0.0008861472553
0.0008861473707
0.0008861474742
0.000886147453
0.0008861474443
0.0008861474307
0.0008861474074
0.0008861473228
0.0008861470824
0.0008861474396
0.0008861475157
0.0008861451941
0.0008861456636
0.0008861474662
0.0008861474737
0.0008861474714
0.0008861474206
0.0008861474203
0.0008861474185
0.0008861623868
0.0008861634231
0.0008861637086
0.0008861632384
0.0008861609175
0.0008861590354
0.0008861575739
0.0008861565968
0.0008861583587
0.0008861544356
0.0008861540026
0.0008861538416
0.0008861585495
0.0008861621565
0.000886163304
0.0008861474185
0.0008861474153
0.0008861474149
0.0008861663476
0.0008861670717
0.0008861676333
0.0008861687483
0.0008861684005
0.0008861691799
0.0008861660925
0.000886167355
0.0008861637662
0.0008861655179
0.0008861660472
0.0008861637434
0.0008861675746
0.0008861654782
0.0008861694523
0.0008861717726
0.0008861652375
0.0008861654499
0.0008861685898
0.0008861474206
0.0008861474262
0.0008861474168
0.0008861595698
0.0008861592343
0.0008861689947
0.0008861677066
0.0008861680734
0.0008861687837
0.0008861701755
0.0008861685603
0.0008861703407
0.0008861696721
0.0008861686448
0.0008861659505
0.0008861684753
0.0008861681295
0.0008861691932
0.0008861474326
0.0008861474989
0.0008861674905
0.0008861647018
0.0008861680372
0.0008861682537
0.0008861700544
0.0008861698096
0.0008861478158
0.0008861474137
0.00088617203
0.0008861738039
0.00088617186
0.0008861733087
0.0008861717128
0.0008861722214
0.000886172422
0.0008861716253
0.0008861480899
0.0008861474138
0.0008861688399
0.0008861679902
0.0008861672786
0.0008861673491
0.0008861685626
0.000886169581
0.000886169703
0.0008861485684
0.0008861474142
0.0008861640563
0.0008861638774
0.0008861639881
0.0008861649807
0.0008861664229
0.0008861682524
0.0008861697474
0.0008861502331
0.0008861474167
0.0008861594932
0.0008861615618
0.0008861624268
0.0008861635935
0.0008861653428
0.0008861674356
0.0008861685241
0.0008861474425
0.0008861474328
0.0008861474414
0.0008861474226
0.0008861474589
0.0008861474594
0.000886147441
0.0008861474429
0.0008861474238
0.0008861474257
0.0008861475202
0.0008861515628
0.0008861474505
0.0008861474703
0.0008861474257
0.0008861594007
0.0008861475775
0.0008861518524
0.000886147502
0.0008861475365
0.0008861592473
0.000886159537
0.0008861476015
0.0008861535854
0.0008861475617
0.0008861475942
0.0008861601102
0.0008861601569
0.0008861475713
0.0008861546091
0.0008861475757
0.0008861475512
0.0008861597548
0.0008861594521
0.0008861475257
0.0008861539048
0.0008861475328
0.000886147495
0.0008861589131
0.0008861574843
0.0008861475076
0.000886153603
0.0008861474873
0.0008861474815
0.0008861569625
0.0008861563843
0.000886147497
0.0008861527965
0.0008861474827
0.0008861474872
0.0008861561819
0.000886156291
0.0008861474896
0.0008861474861
0.000886156172
0.0008861474844
0.000886147486
0.0008861474915
0.0008861475039
0.0008861475052
0.0008861475185
0.0008861525363
0.0008861475567
0.0008861495179
0.0008861490937
0.000886147567
0.0008861475661
0.0008861475466
0.000886147545
0.000886148995
0.0008861490006
0.000886147481
0.0008861474888
0.0008861474706
0.0008861474712
0.0008861474774
0.0008861507848
0.0008861513529
0.0008861516493
0.0008861474716
0.0008861474777
0.0008861529206
0.000886147344
0.0008861474723
0.0008861474736
0.0008861474736
0.000886147473
0.0008861474748
0.0008861474742
0.0008861562491
0.0008861556796
0.0008861575581
0.0008861474543
0.0008861474239
0.0008861474158
0.0008861474221
0.0008861474492
0.0008861474216
0.0008861474182
0.0008861474139
0.0008861474162
0.0008861474147
0.0008861474379
0.0008861474194
0.0008861474186
0.0008861474136
0.0008861474141
0.0008861474139
0.0008861474222
0.0008861474183
0.0008861474192
0.0008861474142
0.0008861474139
0.0008861474142
0.0008861473777
0.0008861474229
0.0008861474302
0.0008861474158
0.0008861474157
0.0008861474149
0.0008861472328
0.0008861474502
0.0008861474986
0.0008861474504
0.0008861474193
0.0008861474423
0.0008861468437
0.0008861475386
0.0008861475221
0.0008861480417
0.0008861475653
0.0008861484905
0.0008861474715
0.0008861474996
0.0008861475105
0.0008861474733
0.0008861560308
0.0008861650419
0.0008861452464
0.0008861475123
0.0008861475091
0.0008861474733
0.0008861682801
0.000886167242
0.0008861453171
0.0008861474974
0.0008861474826
0.0008861474734
0.0008861650503
0.0008861631504
0.0008861471561
0.0008861474783
0.0008861474668
0.0008861474734
0.0008861622478
0.0008861619613
0.0008861474733
0.0008861474685
0.0008861474657
0.0008861576121
0.0008861615108
0.000886156567
0.0008861589223
0.0008861551246
0.0008861582798
0.0008861537803
0.0008861607461
0.0008861699113
0.0008861538975
0.0008861568973
0.00088616077
0.0008861578224
0.0008861563899
0.0008861588766
0.0008861602891
0.0008861587063
0.0008861610747
0.0008861621961
0.0008861620381
0.0008861606335
0.0008861640253
0.0008861642448
0.0008861619403
0.0008861623827
0.0008861637023
0.0008861601076
0.0008861604202
0.0008861626005
0.000886164284
0.0008861474341
0.0008861474156
0.0008861474142
0.0008861474147
0.0008861474141
0.0008861474143
0.0008861474142
0.0008861474145
0.000886147415
0.000886147414
0.0008861474417
0.0008861474162
0.0008861474593
0.0008861513551
0.0008861524305
0.0008861642105
0.0008861602058
0.0008861649864
0.0008861647889
0.0008861620473
0.0008861630008
0.0008861642263
0.0008861626793
0.0008861646027
0.0008861644892
0.0008861625725
0.0008861657715
0.000886165841
0.0008861612063
0.0008861629066
0.0008861651319
0.0008861650125
0.0008861654974
0.0008861474184
0.0008861528794
0.0008861696721
0.000886168195
0.0008861602902
0.000886162798
0.0008861652367
0.0008861750369
0.0008861724383
0.0008861711783
0.0008861660687
0.000886163421
0.000886161035
0.0008861642718
0.0008861633091
0.0008861619526
0.0008861627868
0.0008861640631
0.0008861649792
0.0008861647008
0.0008861639145
0.0008861647941
0.0008861664866
0.0008861638895
0.0008861662889
0.0008861674389
0.0008861654048
0.0008861670589
0.0008861666122
0.0008861655901
0.0008861655266
0.0008861665377
0.0008861675194
0.0008861664686
0.0008861474177
0.0008861474158
0.0008861474144
0.0008861474158
0.000886147415
0.0008861474152
0.0008861474135
0.0008861474137
0.0008861602293
0.0008861675184
0.0008861484376
0.0008861671903
0.0008861674021
0.000886166423
0.0008861667905
0.0008861666188
0.0008861667232
0.0008861656799
0.0008861665344
0.0008861638428
0.0008861658868
0.0008861671924
0.0008861664671
0.0008861649174
0.000886167387
0.0008861690819
0.0008861678174
0.0008861690967
0.0008861692236
0.0008861690953
0.0008861474298
0.0008861474227
0.0008861474205
0.0008861695944
0.0008861701141
0.0008861706372
0.0008861698744
0.0008861694403
0.0008861689614
0.0008861684095
0.0008861474266
0.0008861474464
0.0008861709038
0.000886171177
0.0008861666448
0.0008861677473
0.0008861687115
0.0008861680275
0.0008861680416
0.0008861650214
0.0008861644941
0.000886167117
0.000886166424
0.0008861674548
0.000886168122
0.0008861682558
0.0008861685235
0.0008861679504
0.0008861668517
0.0008861672416
0.0008861685355
0.0008861685259
0.0008861677146
0.0008861669184
0.00088614747
0.0008861474202
0.0008861474403
0.000886147419
0.0008861474131
0.0008861600084
0.000886171294
0.0008861687569
0.0008861704724
0.0008861678015
0.0008861687718
0.000886168292
0.0008861687917
0.0008861691139
0.0008861686312
0.0008861694127
0.000886168839
0.0008861699716
0.0008861676984
0.0008861685578
0.0008861695641
0.0008861707659
0.000886168551
0.000886167403
0.0008861699082
0.0008861474285
0.0008861474406
0.0008861474174
0.0008861474132
0.0008861694815
0.0008861690991
0.0008861681085
0.0008861684245
0.000886166783
0.0008861696052
0.0008861703983
0.0008861684871
0.000886169711
0.0008861693991
0.0008861475273
0.0008861474721
0.0008861474457
0.0008861474139
0.0008861705886
0.0008861707042
0.0008861708454
0.0008861707437
0.0008861705122
0.0008861701191
0.0008861697245
0.000886147668
0.0008861477452
0.0008861475005
0.0008861476159
0.0008861474159
0.0008861474136
0.0008861709443
0.0008861722533
0.0008861720838
0.0008861745192
0.0008861733391
0.0008861759499
0.0008861761665
0.0008861745029
0.000886174922
0.0008861747261
0.0008861752652
0.0008861745295
0.0008861711132
0.000886172998
0.0008861690309
0.0008861687052
0.0008861680718
0.0008861675049
0.0008861693792
0.0008861684662
0.0008861668212
0.0008861679228
0.0008861664721
0.0008861648596
0.0008861656318
0.0008861667588
0.0008861678988
0.0008861685371
0.0008861676984
0.0008861682701
0.0008861691373
0.0008861693336
0.0008861687156
0.0008861689699
0.0008861684333
0.0008861687838
0.0008861682314
0.0008861696472
0.0008861490192
0.0008861477217
0.000886148592
0.0008861475759
0.0008861483822
0.0008861474661
0.0008861474134
0.0008861652455
0.000886162162
0.0008861654349
0.0008861665221
0.0008861669323
0.0008861679179
0.0008861670801
0.0008861640197
0.0008861665018
0.0008861661157
0.0008861652058
0.0008861667943
0.0008861660584
0.0008861675717
0.0008861664606
0.0008861673152
0.0008861683019
0.000886169247
0.0008861689896
0.0008861693022
0.0008861680137
0.0008861689956
0.0008861692126
0.0008861695659
0.0008861688028
0.0008861689609
0.0008861475405
0.0008861479801
0.000886147413
0.0008861474131
0.0008861719921
0.0008861688735
0.0008861659755
0.0008861685401
0.0008861687458
0.0008861702216
0.0008861696544
0.000886148002
0.0008861481504
0.0008861476967
0.0008861479327
0.0008861477919
0.0008861544278
0.0008861474137
0.0008861518051
0.0008861718816
0.0008861706042
0.0008861704069
0.0008861716907
0.0008861699492
0.0008861695119
0.0008861720429
0.0008861693894
0.0008861694226
0.0008861721812
0.000886169362
0.0008861696825
0.00088617234
0.0008861702242
0.0008861704662
0.0008861707074
0.0008861703657
0.0008861701321
0.0008861696418
0.0008861483431
0.0008861485862
0.0008861479215
0.0008861482961
0.0008861480937
0.0008861496802
0.000886147414
0.0008861483604
0.0008861684113
0.0008861665719
0.0008861662929
0.0008861676073
0.0008861660785
0.0008861655312
0.0008861671258
0.000886165382
0.0008861655867
0.0008861680057
0.00088616615
0.0008861667658
0.0008861690835
0.0008861674745
0.0008861681341
0.0008861697194
0.0008861689106
0.0008861694359
0.000886169427
0.0008861698598
0.000886169874
0.0008861688345
0.0008861488942
0.0008861494022
0.0008861483266
0.0008861490324
0.0008861487379
0.0008861477519
0.0008861474149
0.0008861475521
0.0008861637621
0.0008861604373
0.0008861611575
0.0008861637781
0.0008861621582
0.0008861625596
0.0008861644314
0.0008861628665
0.0008861633573
0.000886165693
0.0008861638444
0.0008861646693
0.0008861673722
0.0008861655246
0.0008861665575
0.0008861690922
0.0008861676499
0.0008861687081
0.0008861700461
0.0008861692321
0.0008861695606
0.0008861692885
0.0008861677956
0.0008861507178
0.0008861538651
0.0008861493863
0.0008861497997
0.0008861527598
0.0008861520942
0.000886148726
0.0008861474717
0.0008861474143
0.0008861474327
0.0008861474136
0.0008861602175
0.0008861663037
0.0008861605458
0.0008861621279
0.0008861617872
0.0008861625989
0.000886164944
0.0008861629878
0.0008861630414
0.0008861635697
0.0008861644168
0.0008861641998
0.0008861650387
0.0008861664018
0.0008861659011
0.0008861665318
0.0008861664984
0.0008861682881
0.0008861670295
0.0008861677239
0.0008861667503
0.0008861681522
)
;

boundaryField
{
    walls
    {
        type            zeroGradient;
    }
    wallFilmFace_top
    {
        type            zeroGradient;
    }
    region0_to_wallFilmRegion_wallFilmFace
    {
        type            zeroGradient;
    }
    mirrorFace_top
    {
        type            zeroGradient;
    }
    region0_to_wallFilmRegion_mirrorFace
    {
        type            zeroGradient;
    }
    procBoundary3to2
    {
        type            processor;
        value           nonuniform List<scalar> 
64
(
0.0008861474185
0.0008861474604
0.000886147425
0.0008861474156
0.0008861474178
0.0008861474328
0.0008861474969
0.0008861478107
0.0008861499784
0.0008861474513
0.0008861474484
0.0008861474435
0.0008861474435
0.0008861474364
0.000886147752
0.0008861477523
0.0008861477155
0.0008861475905
0.0008861475298
0.000886147522
0.0008861475375
0.0008861475545
0.000886143746
0.000886143746
0.0008861469998
0.000886146838
0.000886146838
0.0008861475725
0.0008861471204
0.0008861471204
0.0008861474213
0.0008861474201
0.0008861474201
0.0008861474206
0.0008861474225
0.000886147442
0.0008861474285
0.0008861474434
0.0008861474477
0.0008861474221
0.0008861474478
0.0008861479151
0.0008861482362
0.0008861486504
0.0008861492757
0.0008861511831
0.0008861474434
0.0008861474221
0.0008861474256
0.0008861474344
0.000886147474
0.0008861474178
0.0008861474156
0.0008861474216
0.0008861474439
0.0008861474753
0.000886147692
0.0008861476135
0.0008861483711
0.0008861495678
0.0008861484195
0.0008861489325
0.000886149816
0.0008861550811
)
;
    }
}


// ************************************************************************* //
