/*--------------------------------*- C++ -*----------------------------------*\
  =========                 |
  \\      /  F ield         | OpenFOAM: The Open Source CFD Toolbox
   \\    /   O peration     | Website:  https://openfoam.org
    \\  /    A nd           | Version:  8
     \\/     M anipulation  |
\*---------------------------------------------------------------------------*/
FoamFile
{
    version     2.0;
    format      ascii;
    class       scalarField;
    location    "1.9/lagrangian/reactingCloud1";
    object      age;
}
// * * * * * * * * * * * * * * * * * * * * * * * * * * * * * * * * * * * * * //


35
(
0.2596937342
0.2567842917
0.2557810356
0.2522696395
0.2481562897
0.2171286269
0.2162783525
0.2047671639
0.2012221898
0.1756225055
0.1748842929
0.1960350004
0.2590917805
0.1900549306
0.150479535
0.148477483
0.1465025313
0.1440725256
0.1395980033
0.2499621506
0.1460459944
0.1380360329
0.07609780439
0.08208582834
0.08408183633
0.07205588822
0.06606786427
0.04605788423
0.1447743836
0.03811317057
0.02704754041
0.03608046814
0.1120741415
0.001102269207
0.0002755673018
)


// ************************************************************************* //
