/*--------------------------------*- C++ -*----------------------------------*\
  =========                 |
  \\      /  F ield         | OpenFOAM: The Open Source CFD Toolbox
   \\    /   O peration     | Website:  https://openfoam.org
    \\  /    A nd           | Version:  8
     \\/     M anipulation  |
\*---------------------------------------------------------------------------*/
FoamFile
{
    version     2.0;
    format      ascii;
    class       scalarField;
    location    "1.9/lagrangian/reactingCloud1";
    object      mass0;
}
// * * * * * * * * * * * * * * * * * * * * * * * * * * * * * * * * * * * * * //


35
(
1.077605555e-07
2.198554288e-07
7.490498583e-08
2.514729641e-07
2.126878699e-07
7.40898368e-08
1.992566229e-07
7.32228484e-08
4.906070463e-07
7.993166658e-08
6.934345348e-08
3.131805643e-07
1.293682507e-07
2.198452733e-07
1.09097756e-07
2.248158883e-07
7.010169629e-08
6.855865123e-08
1.3743098e-07
4.101670869e-07
7.085552556e-08
6.768844569e-07
7.806482509e-08
1.496125504e-07
3.004258515e-07
3.170027104e-07
2.402845455e-07
3.196120644e-07
2.677526817e-07
1.79938539e-07
1.158613437e-07
1.301392972e-07
1.789584428e-07
1.276811129e-07
1.882826515e-07
)


// ************************************************************************* //
