/*--------------------------------*- C++ -*----------------------------------*\
  =========                 |
  \\      /  F ield         | OpenFOAM: The Open Source CFD Toolbox
   \\    /   O peration     | Website:  https://openfoam.org
    \\  /    A nd           | Version:  8
     \\/     M anipulation  |
\*---------------------------------------------------------------------------*/
FoamFile
{
    version     2.0;
    format      ascii;
    class       scalarField;
    location    "1.9/lagrangian/reactingCloud1";
    object      nParticle;
}
// * * * * * * * * * * * * * * * * * * * * * * * * * * * * * * * * * * * * * //


35
(
100.4205439
100.5921457
106.3615596
100.0626932
101.4895466
102.0004464
1766.595796
100.2083429
148.9049171
273.3611636
100.7230781
1607.12975
104.4625458
2254.840174
221.2883277
143.8217845
173.6155916
100.1296606
100.3765368
100.5209935
7009.045206
740.2847956
6392.14903
3335.295032
1660.982214
1574.125329
2076.71282
1561.273968
100.1990501
2735.907064
221.273118
3904.859012
2787.973891
193.2061148
194.6126077
)


// ************************************************************************* //
