/*--------------------------------*- C++ -*----------------------------------*\
  =========                 |
  \\      /  F ield         | OpenFOAM: The Open Source CFD Toolbox
   \\    /   O peration     | Website:  https://openfoam.org
    \\  /    A nd           | Version:  8
     \\/     M anipulation  |
\*---------------------------------------------------------------------------*/
FoamFile
{
    version     2.0;
    format      ascii;
    class       labelField;
    location    "1.9/lagrangian/reactingCloud1";
    object      origId;
}
// * * * * * * * * * * * * * * * * * * * * * * * * * * * * * * * * * * * * * //


35
(
1240
1243
1245
1250
1256
1280
1281
1287
1289
1317
1319
932
525
935
1322
1323
1324
1326
1327
526
964
968
999
996
995
1001
1004
1014
566
1018
597
1019
981
1329
1330
)


// ************************************************************************* //
