/*--------------------------------*- C++ -*----------------------------------*\
  =========                 |
  \\      /  F ield         | OpenFOAM: The Open Source CFD Toolbox
   \\    /   O peration     | Website:  https://openfoam.org
    \\  /    A nd           | Version:  8
     \\/     M anipulation  |
\*---------------------------------------------------------------------------*/
FoamFile
{
    version     2.0;
    format      ascii;
    class       Cloud<basicReactingMultiphaseParcel>;
    location    "1.9/lagrangian/reactingCloud1";
    object      positions;
}
// * * * * * * * * * * * * * * * * * * * * * * * * * * * * * * * * * * * * * //

35
(
(0.3882675753 0.007230456525 0.4587599281 0.1457420401) 895 2622 1
(0.400447074 0.1570941262 0.3940771375 0.04838166234) 72 131 1
(0.4557191491 0.4887276113 0.0525188164 0.003034423203) 404 1117 2
(0.0345183884 0.3230373019 0.1409040022 0.5015403075) 459 1360 1
(0.1740393147 0.2732339416 0.0232887622 0.5294379816) 376 1115 1
(0.1053650205 0.5324941362 0.2782774234 0.08386341989) 5334 15634 1
(0.2798792196 0.1839854454 0.1503701155 0.3857652195) 5915 17328 1
(0.3223042705 0.1829249519 0.2168421086 0.2779286689) 7904 23154 2
(0.6549079796 0.2691450056 0.06679425269 0.009152762146) 8628 25183 2
(0.04992149116 0.1517068218 0.6719832919 0.1263883951) 12399 36234 2
(0.2213438529 0.2721754079 0.2571602254 0.2493205138) 13225 38739 1
(0.01588392261 0.5186472462 0.3866908712 0.07877795995) 5583 16290 2
(0.4615998489 0.4287885103 0.07149754198 0.0381140988) 1773 5192 2
(0.155415732 0.5331313356 0.06249186584 0.2489610666) 7893 23123 1
(0.2702077929 0.3524277108 0.1935466696 0.1838178266) 16041 46883 2
(0.1969756199 0.3068223631 0.321086138 0.1751158789) 16071 47057 1
(0.2310382495 0.01528066664 0.2628715613 0.4908095225) 16889 49450 1
(0.0002555150589 0.7189727096 0.1289993286 0.1517724468) 16801 49193 1
(0.1573352114 0.07931442552 0.3730038175 0.3903465456) 16801 49193 2
(0.02903987782 0.2147315366 0.73860142 0.01762716552) 999 525 2
(0.3320308539 0.05069195719 0.451962511 0.1653146779) 16190 47407 2
(0.3908857773 0.08268941894 0.05657827101 0.4698465327) 19504 57279 1
(0.3964516134 0.2323709603 0.1528929209 0.2182845054) 33480 106691 3
(0.5605881523 0.2395106149 0.1922850128 0.007616219919) 63815 189245 2
(0.439295347 0.210552702 0.02306987392 0.3270820771) 64091 189932 2
(0.3902540373 0.02783146034 0.06764206641 0.514272436) 33423 106433 2
(0.1384943004 0.3275927882 0.488231178 0.04568173342) 35024 108953 2
(0.268278744 0.5815432113 0.1230812877 0.02709675697) 37410 115993 1
(0.6805970204 0.02125692162 0.101512761 0.196633297) 16883 49436 1
(0.1853321154 0.1475979037 0.3514247518 0.315645229) 38985 122818 1
(0.3873077948 0.05462854247 0.3825899968 0.1754736659) 51898 159721 2
(0.5069644646 0.0251528814 0.1300394734 0.3378431806) 38982 205087 2
(0.1950856826 0.3097528569 0.2454994269 0.2496620336) 25249 204537 2
(0.2396276873 0.4074041707 0.3351408154 0.01782732663) 51646 203086 2
(0.256624204 0.3140304978 0.1106630189 0.3186822794) 51590 203297 1
)


// ************************************************************************* //
