/*--------------------------------*- C++ -*----------------------------------*\
  =========                 |
  \\      /  F ield         | OpenFOAM: The Open Source CFD Toolbox
   \\    /   O peration     | Website:  https://openfoam.org
    \\  /    A nd           | Version:  8
     \\/     M anipulation  |
\*---------------------------------------------------------------------------*/
FoamFile
{
    version     2.0;
    format      ascii;
    class       scalarField;
    location    "1.9/lagrangian/reactingCloud1";
    object      rho;
}
// * * * * * * * * * * * * * * * * * * * * * * * * * * * * * * * * * * * * * //


35
(
994.5114709
994.511472
994.5114718
994.5114715
994.5114713
994.5114704
994.5114715
994.5114717
994.5114713
994.5114689
994.511469
1000
994.5114696
1000
994.5114685
994.5114686
994.5114689
994.5114689
994.5114689
994.5114693
1000
1000
1000
1000
1000
1000
1000
1000
994.5114691
1000
994.5114764
1000
1000
994.5114864
994.511478
)


// ************************************************************************* //
