/*--------------------------------*- C++ -*----------------------------------*\
  =========                 |
  \\      /  F ield         | OpenFOAM: The Open Source CFD Toolbox
   \\    /   O peration     | Website:  https://openfoam.org
    \\  /    A nd           | Version:  8
     \\/     M anipulation  |
\*---------------------------------------------------------------------------*/
FoamFile
{
    version     2.0;
    format      ascii;
    class       scalarField;
    location    "1.9/lagrangian/reactingCloud1";
    object      T;
}
// * * * * * * * * * * * * * * * * * * * * * * * * * * * * * * * * * * * * * //


35
(
299.9999903
299.9999869
299.9999871
299.9999882
299.9999891
299.9999926
299.9999881
299.9999876
299.9999892
299.999998
299.9999979
300
299.9999956
300
299.9999995
299.9999992
299.9999982
299.9999983
299.9999983
299.9999968
300
300
300
300
300
300
300
300
299.9999976
300
299.9999696
300
300
299.9999331
299.999964
)


// ************************************************************************* //
