/*--------------------------------*- C++ -*----------------------------------*\
  =========                 |
  \\      /  F ield         | OpenFOAM: The Open Source CFD Toolbox
   \\    /   O peration     | Website:  https://openfoam.org
    \\  /    A nd           | Version:  8
     \\/     M anipulation  |
\*---------------------------------------------------------------------------*/
FoamFile
{
    version     2.0;
    format      ascii;
    class       vectorField;
    location    "1.9/lagrangian/reactingCloud1";
    object      U;
}
// * * * * * * * * * * * * * * * * * * * * * * * * * * * * * * * * * * * * * //


35
(
(0.1512730108 0.1489736429 -1.944631121)
(0.08054329569 0.1221604887 -2.076261243)
(0.3199308502 0.501417346 -2.021534405)
(0.3672642474 0.6574067629 -2.148759166)
(0.3313908046 0.5609980819 -2.234452416)
(-0.01567563349 0.2200821923 -1.931508367)
(0.0538885938 0.1232092617 -2.011852528)
(0.02109489693 0.1594988387 -1.850823045)
(0.2656552333 0.231449412 -1.900053407)
(0.07387650539 0.2994427712 -1.742665101)
(-0.02807232955 0.1582324704 -1.581122722)
(0.3238168203 0.8907200583 -3.212349248)
(0.3851148517 -0.02101265595 -1.88355394)
(0.9219796502 0.3645824751 -3.102031699)
(8.199707436e-07 0.1416160305 -1.481069261)
(0.03024603649 0.2085881277 -1.493836565)
(0.03328612735 0.09009695413 -1.368848135)
(0.3127401088 -0.129997534 -1.388180481)
(0.3492038253 -0.1399677409 -1.357503296)
(0.4148178834 0.07270105799 -2.201921501)
(0.2505791673 0.7278121434 -3.001319791)
(1.056739606 0.0467904767 -2.813232963)
(0.6999640766 0.9126973155 -2.132751951)
(0.4019277514 0.4492068516 -2.610298508)
(0.3329389894 0.772690375 -2.517510962)
(0.7949951471 0.7011315205 -2.28534181)
(0.9484591179 0.6751536478 -2.133581731)
(0.6430642289 0.6942584012 -2.161574163)
(0.4524750209 -0.003321760017 -1.320604137)
(1.040861743 0.7910961619 -1.788060978)
(0.8815942005 0.004670204467 -0.2662499746)
(0.3149623692 1.001379631 -1.980012715)
(0.1256767163 0.9357771482 -2.701082658)
(0.2939542199 0.141041022 -0.01110770426)
(0.1941701729 0.3702135141 -0.003325985038)
)


// ************************************************************************* //
