/*--------------------------------*- C++ -*----------------------------------*\
  =========                 |
  \\      /  F ield         | OpenFOAM: The Open Source CFD Toolbox
   \\    /   O peration     | Website:  https://openfoam.org
    \\  /    A nd           | Version:  8
     \\/     M anipulation  |
\*---------------------------------------------------------------------------*/
FoamFile
{
    version     2.0;
    format      ascii;
    class       volScalarField;
    location    "0.4";
    object      alphat;
}
// * * * * * * * * * * * * * * * * * * * * * * * * * * * * * * * * * * * * * //

dimensions      [1 -1 -1 0 0 0 0];

internalField   nonuniform List<scalar> 
67410
(
4.312268297e-07
5.335258063e-07
5.348960281e-07
5.349415822e-07
5.352611177e-07
5.430478428e-07
6.73986396e-07
2.171301954e-06
1.329894417e-05
6.321107928e-05
0.0001873653092
0.0001411896286
0.000104114783
0.0001156089309
0.0001225599768
0.0001259246566
0.0001265129017
0.0001238242389
0.0001123576342
9.640556747e-05
0.0001820668484
6.316094662e-05
0.0002105323136
0.0001028101193
0.0001326138355
0.0001543150237
4.644606681e-07
5.946491086e-07
5.978882501e-07
5.982244009e-07
6.002908383e-07
6.404246473e-07
1.210214212e-06
6.595113743e-06
3.820940163e-05
0.0001425602738
0.0003239594032
0.0001040625949
0.0001191074683
0.0001282087484
0.000134037317
0.0001368034157
0.0001362684127
0.0001319755875
0.0001225724906
0.0001116880514
0.000350572331
0.0001728637559
0.0003571015693
0.0001236242807
0.0001529282304
0.0001738820722
4.648969324e-07
5.965092244e-07
6.010994268e-07
6.019138821e-07
6.091924364e-07
7.440328812e-07
2.455580882e-06
1.613440661e-05
7.805500953e-05
0.0002225764532
9.252191586e-05
0.0001102254396
0.0001215913483
0.0001292543186
0.0001356290941
0.0001402658121
0.0001403324624
0.0001335656503
0.000121667216
0.00011597654
9.730753789e-05
0.0002816533301
9.761312778e-05
0.0001321589391
0.0001589975741
0.0001795341734
4.649301224e-07
5.966894902e-07
6.015250537e-07
6.027114311e-07
6.151609861e-07
8.308452708e-07
3.416661017e-06
2.25602861e-05
9.758753468e-05
0.0002422740842
9.166794489e-05
0.0001064414032
0.0001171645327
0.0001268531061
0.0001357852533
0.0001418285616
0.0001408218019
0.0001318386355
0.0001161328172
0.0001068811678
9.430156015e-05
0.0003445188412
0.0001043667626
0.0001357431378
0.0001551479773
0.0001738391114
4.650397807e-07
5.968923795e-07
6.022658345e-07
6.066928223e-07
6.328214973e-07
8.389685936e-07
2.752910558e-06
1.625399771e-05
6.834546316e-05
0.0001724511945
0.0002912074658
9.305413048e-05
0.0001081517195
0.0001214252949
0.0001317428584
0.0001370501286
0.0001339157393
0.0001222605909
0.0001034450158
9.186367828e-05
9.182249041e-05
0.0001064334912
0.0001306123121
0.0001537741373
0.0001657817685
0.0001819818754
4.653299198e-07
5.984529856e-07
6.164336181e-07
7.018013156e-07
1.057523229e-06
1.837156373e-06
2.195021445e-06
1.349248046e-06
6.137469998e-06
2.985424898e-05
0.0001025532065
0.0002353442396
9.206286209e-05
0.0001091989605
0.000120080047
0.0001237882113
0.000119207329
0.0001069661
9.592714797e-05
0.0001009938925
0.0001187676949
0.0001392060368
0.0001549506593
0.0001703954769
0.0001890188739
0.0002036523349
4.6747267e-07
6.294448594e-07
8.883687725e-07
2.252392768e-06
6.881313892e-06
1.514771673e-05
1.638855733e-05
2.365606874e-06
9.41315479e-06
3.518292784e-05
0.0001074190628
0.0002339904707
0.0003682298493
9.896149543e-05
0.0001056161125
0.0001086948277
0.0001085607911
0.0001080582831
0.000114751176
0.0001304912913
0.0001479465385
0.0001597201152
0.0001646011653
0.000176292452
0.0002059278468
0.0002209592355
5.002348967e-07
1.114918058e-06
4.313599901e-06
1.722053058e-05
4.862505946e-05
8.779033576e-05
8.309285146e-05
1.421559354e-05
4.582357976e-05
0.0001187785562
0.0002431428063
8.987618088e-05
0.0001020954247
0.0001086800325
0.000112530359
0.0001162467395
0.0001206622464
0.0001267074125
0.000136755258
0.000150981984
0.0001629923151
0.0001669254331
0.0001664229276
0.0001732133661
0.0002163387814
0.0002334825861
9.348385569e-07
6.135673772e-06
3.015227606e-05
9.425172932e-05
0.0001914748312
0.0002662915895
0.0002320247796
7.576484048e-05
0.0001555235746
0.0002749058754
9.321303132e-05
0.0001072282639
0.0001148153684
0.0001197171732
0.0001249421802
0.0001309550226
0.0001366616997
0.0001421481881
0.0001500827752
0.0001610711931
0.0001690391936
0.000170533101
0.0001662477573
0.0001641855376
0.0002264758205
0.0002465741168
4.873409887e-06
3.772258179e-05
0.0001344088838
0.0002853142929
9.477175121e-05
0.0001022095519
9.527034071e-05
0.0002527990415
0.0003454685048
9.715140738e-05
0.0001073083355
0.0001162234255
0.0001214694757
0.0001267448027
0.0001337435822
0.0001416174647
0.0001482542192
0.0001529433761
0.0001585016258
0.000167118746
0.0001751418274
0.0001803362604
0.0001769240988
0.0001708828055
0.0002419184858
0.0002633533175
2.745646383e-05
0.0001475019506
0.0003441783288
0.0001059374066
0.000117604522
0.0001203730038
0.0001163348692
0.0001065212854
0.0001098970293
0.0001128522901
0.0001139590876
0.0001200062816
0.00012483491
0.0001306728607
0.000138967095
0.0001485965592
0.0001567673367
0.0001619110862
0.0001665687548
0.0001737607091
0.0001845777765
0.0001998443397
0.0002121490143
0.0002150513977
0.0002653444864
0.0002800106893
0.0001050163545
0.0003526989272
0.0001111498281
0.0001246631291
0.000129494056
0.0001319733845
0.0001322076287
0.000132856606
0.0001306862948
0.0001258242865
0.0001171362851
0.0001215692747
0.0001265630722
0.0001320551323
0.0001411479187
0.0001521041643
0.0001622215131
0.0001691640509
0.0001753486268
0.0001838232123
0.0001969524815
0.0002155706667
0.0002405985335
0.000264635193
0.0002884208041
0.0002952985591
0.0002752768128
0.0001140817608
0.0001300914377
0.0001344838864
0.0001370664648
0.0001420187783
0.0001460554983
0.0001480513643
0.0001488998418
0.0001412267502
0.0001214430695
0.0001228192742
0.0001283370372
0.0001345809495
0.0001441190252
0.0001549050484
0.0001656032964
0.0001744404052
0.0001827299684
0.0001942249852
0.0002102111523
0.0002261389973
0.0002528726155
0.0002832763134
0.0003118564273
0.0003155148122
0.0001117975125
0.0001438057837
0.0001474534111
0.0001407777036
0.0001423351395
0.0001513281473
0.0001586553524
0.0001608509457
0.0001661041702
0.0001621739767
0.0001324510049
0.0001253072392
0.0001319232156
0.0001385675734
0.0001483032597
0.0001593972132
0.0001714888466
0.0001826027398
0.000190599421
0.0002020994019
0.0002319050765
0.000248524258
0.0002752562626
0.0003059499997
0.0003314939739
0.0003267802698
0.0001532744623
0.0001806033795
0.0001744092102
0.0001481045684
0.0001435826475
0.0001558478715
0.0001670159508
0.0001748352378
0.0001853215863
0.0001891716039
0.0001551280552
0.0001301787779
0.000137633484
0.0001437123774
0.0001538551886
0.0001671407861
0.0001827501476
0.000197322272
0.000204964946
0.0001982131943
0.0002434644421
0.0002758076059
0.0002945427463
0.0003187805589
0.000344053457
0.0003293114291
0.0001890017335
0.0002162361952
0.0002123984577
0.0001730176113
0.000136119652
0.0001517924831
0.000172834258
0.0001923169609
0.0002141192746
0.0002255917895
0.0001907530848
0.0001397824395
0.0001473468375
0.0001545402699
0.0001647926225
0.000181343227
0.0002008117213
0.0002189527397
0.0002291852634
0.0002098794108
0.0002203559555
0.0002669613624
0.0002963736179
0.0003251800157
0.0003614189472
0.0003344330867
0.0002120031807
0.0002398865791
0.0002457797401
0.0002316995977
0.0001693138429
0.0001596206869
0.0001802046838
0.0002009742367
0.0002241383321
0.0002350022898
0.0002086695554
0.0001537196052
0.0001578872326
0.0001683404845
0.0001801853539
0.0001983168243
0.0002202617595
0.0002399341712
0.0002513048673
0.0002401733122
0.0002156478056
0.000248649034
0.0003034800258
0.0003430574794
0.0003902000173
0.0003583962221
0.000225129105
0.0002545325687
0.0002702341052
0.0002711087744
0.0002314582412
0.00016621368
0.0001529711097
0.0001695985309
0.0001789972784
0.0001926935962
0.0001735599927
0.0001472524972
0.0001601504937
0.0001758018646
0.0001875338204
0.0002030896163
0.0002247453899
0.0002474980343
0.0002587263756
0.0002371447588
0.0002230851425
0.0002726995631
0.0003096035353
0.0003493932555
0.0003997938996
0.0003907842837
0.0002319031507
0.000259494112
0.0002739031564
0.0002738966802
0.0002415573839
0.0001944159888
0.0001573394852
0.0001340724434
0.0001495064783
0.0001581306608
0.0001361969322
0.0001268172307
0.0001480206517
0.0001697960336
0.0001826923174
0.0001922107215
0.0002036229992
0.0002185487323
0.0002260887318
0.0002010465118
0.0001709930574
0.000179408016
0.0002024402192
0.0002728057336
0.0003541579863
0.0003501902328
0.0001905717319
0.0002055749331
0.0002162653408
0.000211249191
0.0001666146343
0.0001435795026
0.0001177567588
9.028072704e-05
0.0001035410599
0.000125362645
9.359040935e-05
8.769030838e-05
0.0001171317212
0.0001499190165
0.0001720870032
0.0001845243883
0.0001905252993
0.0001938980413
0.0001891824586
0.0001677323968
0.0001518955152
0.0001616033951
0.0001808868775
0.000212498218
0.0002899540937
0.0002814435011
0.0001600552552
0.0001697454492
0.0001597669188
0.0001326190729
0.0001462715272
0.0001546833471
0.0001407764938
0.000111969136
8.972935287e-05
0.0003524242389
0.0001703415329
8.61956034e-05
0.0002213045537
0.0001092137332
0.0001435696407
0.0001662367128
0.0001766273613
0.0001754772816
0.0001625570684
0.0001413938993
0.0001336176738
0.0001445820074
0.0001701093428
0.0001728173282
0.0002425320437
0.0002342755257
0.0001157921403
0.0001292129627
0.0001398327397
0.0001601390358
0.0001774250167
0.0001811609328
0.0001544364991
0.0001281607155
0.0001184179765
0.0001121603232
0.0003651600647
0.0002201474998
6.599893077e-05
0.0001350375585
9.398018165e-05
0.000128390462
0.0001495314891
0.0001535711892
0.0001393229049
0.0001161521735
0.000113124367
0.0001234345628
0.0001486730948
0.0001433725491
0.0001995860259
0.0001911010493
0.0001483092455
0.0001349023487
0.0001720436841
0.0001948357365
0.0002083907514
0.0001902128603
0.0001489139857
0.0001384002049
0.000138416563
0.000131845249
0.0001174280605
0.0001106151958
0.000319164928
8.953875583e-05
8.270521664e-05
0.0002638087086
0.0001047885399
0.0001203532524
0.0001118476683
0.000368695505
0.0003620800239
0.0001010104126
0.0001311450234
0.0001163237192
0.0001531684604
0.0001440134395
0.0001258114189
9.410610741e-05
0.0001333913582
0.0001543348652
0.0001535834979
0.0001461254068
0.000146369243
0.0001524519559
0.000150576678
0.000141532969
0.0001288191451
0.0001416040248
0.0001298708489
9.055744173e-05
0.0001085025966
5.187456448e-05
0.0001344391252
0.0002694465478
0.0002848330633
0.0001562377609
0.0001480273975
0.0002448570544
0.0001084608006
0.0003518267345
0.0001043289443
9.514197497e-05
0.0002843301454
0.0001629793538
0.0003435835988
0.0001148707386
0.0001353741144
0.0001511110569
0.0001612858543
0.0001642292578
0.0001607125965
0.0001517010627
0.0001403217011
0.0001337289359
0.0001342259179
0.0001204582031
0.0003502114738
9.513196215e-05
3.076497085e-05
5.814044299e-05
7.890220062e-05
4.430166059e-05
3.692093364e-05
8.011606956e-05
0.0002787643191
0.0001299525997
0.000167759471
0.000113009368
8.962306962e-05
9.259700334e-05
0.0001228061459
0.0001482692733
0.0001632168265
0.0001706860029
0.0001693717201
0.00016699041
0.0001628539633
0.0001573578355
0.0001535306568
0.0001451193236
0.0001415250893
0.0001168330271
0.0002750499683
6.309090997e-05
1.377002106e-05
1.25938578e-05
8.003001701e-06
6.146413852e-06
1.496792876e-05
8.638133688e-05
2.792736242e-05
3.382188548e-05
0.0001334168029
0.0001211323193
0.0001192994826
0.0001362144015
0.000155625574
0.0001669676872
0.0001704964286
0.0001760683074
0.0001920307229
0.0002069728576
0.0002090750256
0.0001958041341
0.0001699872243
0.0001547876837
0.0001380571522
0.0001062798194
0.000199265741
4.132082622e-05
5.982382355e-06
1.668196044e-06
1.17420329e-06
2.129995675e-06
1.49451371e-05
4.159018211e-06
4.718049159e-06
0.0001443937758
0.0001408473738
0.0001353901113
0.0001411058518
0.0001613426646
0.0001834342859
0.0001953727222
0.0002115218544
0.0002352899927
0.0002527293504
0.0002545073539
0.0002347411181
0.0001971146311
0.00017274229
0.0001387292726
9.714519567e-05
0.0001573986742
3.463560913e-05
5.194820416e-06
1.068548148e-06
6.691448222e-07
7.097427645e-07
1.939541547e-06
8.917440966e-07
9.319756701e-07
0.0001505522585
0.0001523030894
0.0001469136421
0.0001430234729
0.0001457618524
0.0001635943511
0.000188046216
0.0002034613176
0.0002165495641
0.0002309316248
0.0002266169346
0.0002040971349
0.0001800549614
0.0001527675825
0.000119902769
8.999217807e-05
0.0002012440813
7.873712537e-05
1.952106509e-05
3.316326674e-06
8.498611839e-07
6.230009824e-07
6.793996569e-07
6.186420826e-07
6.207961423e-07
6.129008226e-07
0.0001543205409
0.0001599389469
0.0001567883246
0.0001532569543
0.0001502682379
0.0001495621668
0.0001618868247
0.0001849866835
0.0002009574921
0.0002068439703
0.0001959786214
0.0001769480237
0.0001537805762
0.0001304069959
0.0001097649693
9.395780805e-05
0.0003042872045
0.0001948065954
9.306650926e-05
2.741808306e-05
4.925564113e-06
1.007950982e-06
6.289628403e-07
6.043445952e-07
6.033770357e-07
6.033053305e-07
3.787895062e-07
5.12053281e-07
5.176889472e-07
5.180688352e-07
5.180423117e-07
5.185461707e-07
5.354133095e-07
7.728576237e-07
2.963810306e-06
1.619907849e-05
6.422705963e-05
0.0001617918182
0.000276675872
8.737117501e-05
9.42392487e-05
9.935132674e-05
0.0001006760647
9.644778823e-05
0.0003619037807
0.0002341941543
8.016587741e-05
1.764480783e-05
6.216759177e-05
0.0001888254923
0.0003673876815
0.0001087545285
4.017631459e-07
3.295143758e-06
4.417735135e-06
4.447616876e-06
4.351485911e-06
4.143239747e-06
3.508852658e-06
3.084138874e-06
8.220118607e-06
3.004152814e-05
6.400865619e-05
5.598624384e-05
6.212226724e-05
7.08817169e-05
8.99072452e-05
0.0001185227638
0.0001270346657
0.0001038611891
7.152621956e-05
6.667811797e-05
0.0001146919798
6.394015424e-05
6.683428676e-05
5.535972903e-05
6.660672482e-05
0.0001158442917
4.047247568e-07
4.090414883e-06
6.283848587e-06
6.489341622e-06
6.327024151e-06
5.775605504e-06
4.087189482e-06
4.631131925e-06
1.603769917e-05
4.731491765e-05
5.582171917e-05
4.836724593e-05
4.9738706e-05
6.968759032e-05
0.0001184750421
0.0001600392335
0.0001672783387
0.0001327752698
8.136353116e-05
6.095164615e-05
6.111407225e-05
0.0001138393247
6.120251515e-05
6.703008707e-05
8.999621707e-05
0.0001918800768
4.051038481e-07
4.113701873e-06
6.447562262e-06
6.750588179e-06
6.577505272e-06
5.861522895e-06
3.967675096e-06
5.550439184e-06
2.013502895e-05
5.354501517e-05
5.246516781e-05
3.895744621e-05
4.086139687e-05
7.337763611e-05
0.0001380305692
0.0001854288905
0.0001844022884
0.0001464621871
9.244878435e-05
5.939277509e-05
6.505830144e-05
0.0001278613103
7.053901217e-05
8.396050091e-05
0.0001153195377
0.0002028660155
4.057807282e-07
4.078010128e-06
6.394391771e-06
6.706945699e-06
6.498526784e-06
5.796954743e-06
4.038673121e-06
5.045482735e-06
1.624797584e-05
4.436221779e-05
6.499549276e-05
3.452598093e-05
4.080856906e-05
7.397261977e-05
0.0001361669673
0.0001751689364
0.0001688042133
0.0001362340096
9.213513149e-05
6.844063405e-05
9.394977934e-05
9.611128014e-05
8.165162661e-05
0.000105032008
0.0001254656475
0.0001682110773
4.068940091e-07
4.017375755e-06
6.264195185e-06
6.499903039e-06
6.023179951e-06
5.34898671e-06
4.791682828e-06
4.463143089e-06
3.716730716e-06
8.18225348e-06
2.539894541e-05
5.221982491e-05
5.754409475e-05
7.284731046e-05
0.0001081223683
0.0001360014302
0.0001328586863
0.0001128309593
9.0256806e-05
0.0001061692908
8.75725291e-05
8.331256347e-05
9.882302264e-05
0.0001327953419
0.0001460222062
0.0001681479813
4.088681065e-07
3.911480971e-06
5.827402507e-06
5.35144747e-06
4.426883856e-06
4.567365373e-06
4.697423636e-06
3.984269043e-06
4.432599845e-06
9.793624304e-06
2.959032461e-05
6.688414858e-05
8.973344952e-05
7.675961259e-05
8.548669582e-05
9.653394964e-05
0.0001011554765
9.905407421e-05
0.0001016996672
9.982495433e-05
9.019822953e-05
9.79394512e-05
0.000105029025
0.0001400453191
0.0001686717999
0.0001924184989
4.135920116e-07
3.625795386e-06
4.52597382e-06
5.123237931e-06
8.51130946e-06
1.391715997e-05
1.457015725e-05
4.388251497e-06
1.234261951e-05
3.10393931e-05
6.289940809e-05
7.802522585e-05
7.270622247e-05
7.929764406e-05
8.734393885e-05
9.67106979e-05
0.0001048408832
0.0001071749252
0.0001054682636
0.0001077478276
9.294697919e-05
9.559079455e-05
8.182616582e-05
9.489828272e-05
0.0001837445792
0.0002117804758
4.528484163e-07
3.301483497e-06
6.573589775e-06
1.636947102e-05
3.31159648e-05
4.526653102e-05
4.205551803e-05
1.403599571e-05
4.076874756e-05
7.014859065e-05
7.093552432e-05
6.791122206e-05
7.310159949e-05
7.961445898e-05
8.919261767e-05
0.0001021590621
0.0001122834546
0.0001103759036
0.0001002811031
9.735247844e-05
6.641849872e-05
6.201768478e-05
6.234781113e-05
6.728952135e-05
0.0001844132225
0.0002238636685
8.798692355e-07
7.440655715e-06
2.45945849e-05
5.181756913e-05
5.180327511e-05
4.31752346e-05
3.93884862e-05
3.888695089e-05
7.765445309e-05
7.221719737e-05
6.843118489e-05
7.069607699e-05
7.083667092e-05
7.377555071e-05
8.398961144e-05
9.994749996e-05
0.0001095047372
9.986703707e-05
8.175622322e-05
6.263397059e-05
4.304882441e-05
5.027861219e-05
6.753727932e-05
8.345134619e-05
0.0001623868839
0.0002282436339
4.281190702e-06
2.881452044e-05
6.340936659e-05
4.811770556e-05
4.047796982e-05
2.586258083e-05
2.416030649e-05
4.638946029e-05
7.501373713e-05
7.728694291e-05
7.292934616e-05
7.055353103e-05
6.510983704e-05
6.724244934e-05
7.753848028e-05
9.399964473e-05
0.0001028749824
8.86509088e-05
7.120867407e-05
5.645853796e-05
5.677168776e-05
7.016131002e-05
9.523923571e-05
0.0001294370638
0.0001970626659
0.0002418826892
2.148797357e-05
6.490911287e-05
5.069787401e-05
4.495102997e-05
3.04675987e-05
3.12566568e-05
4.062624568e-05
5.508518878e-05
8.455993244e-05
8.550605942e-05
7.515478536e-05
6.985309713e-05
6.41642981e-05
7.320339341e-05
8.404656035e-05
9.448053625e-05
9.925571487e-05
8.863168065e-05
8.026436986e-05
7.833215744e-05
8.588080666e-05
0.0001069820822
0.0001503613818
0.0002210811458
0.0003010188229
0.0003197359809
7.763447407e-05
5.427168213e-05
5.496525348e-05
3.542876369e-05
4.129573815e-05
6.582336113e-05
8.265177004e-05
8.372540843e-05
9.599993749e-05
9.125590237e-05
7.830932942e-05
7.339658284e-05
6.882035824e-05
8.392078592e-05
9.610370193e-05
0.0001035795674
0.0001058712241
0.0001061567306
0.0001057169597
0.0001131664637
0.000121373614
0.0001496972939
0.0002212665301
0.0003408030822
0.0004290252548
0.000437953394
0.0002115635859
6.723884575e-05
6.24291984e-05
3.681302098e-05
5.945347397e-05
0.0001022270979
0.0001294845043
0.0001353533525
0.0001273833114
0.0001116820687
9.607167815e-05
8.320965354e-05
7.074705982e-05
8.820667926e-05
0.0001019651349
0.0001109530763
0.0001247967993
0.0001417592798
0.000148636873
0.0001617973883
0.0001711368354
0.0002032694781
0.0003104205014
0.000452166469
0.000539974643
0.0005251252929
9.868271347e-05
8.640341599e-05
8.459551221e-05
6.280216808e-05
6.547625353e-05
0.0001188125069
0.0001687139166
0.0002062083072
0.0002280866679
0.0002233468216
0.0001755100274
0.0001068508114
7.342436448e-05
8.085621057e-05
9.489036775e-05
0.0001133194747
0.0001477534314
0.000187258965
0.0002066658075
0.0002069193349
0.000232844045
0.0002632014162
0.000363520554
0.0005041970958
0.0006016167363
0.0005727409324
0.0001288774396
0.0001062669978
0.0001297686964
0.000124770815
6.871438535e-05
0.0001037816023
0.0001904769309
0.0002763865979
0.0003717568966
0.0004279850587
0.000398846836
0.0001690337159
0.0001015797824
7.39544985e-05
8.793242353e-05
0.0001306309759
0.0001888081899
0.0002489576432
0.0002797029953
0.000264574184
0.0002268707103
0.0002482945942
0.0003070720604
0.0004587152433
0.0006207010764
0.0005888182684
0.000153757355
0.0001781878959
0.0002399679684
0.0002349321299
0.000137563614
0.0001171232427
0.0001566569987
0.0002442743334
0.0003725973411
0.0004566827669
0.0004432661241
0.000235281885
0.0001236889926
8.432220441e-05
7.744602143e-05
0.0001245767557
0.0002105793705
0.0002858325446
0.000325789083
0.0003177026118
0.0002125914211
0.0002087498747
0.0002507372145
0.0003923233176
0.0006243664097
0.0005865903902
0.0001759288398
0.0002818677357
0.0003782598535
0.0003923358902
0.0002781115237
0.0001233888479
9.140569246e-05
7.204813488e-05
0.0001601615009
0.00031204885
0.0003146424293
0.0001640842954
0.0001148862485
9.633209975e-05
7.668087438e-05
0.000101161339
0.000177684646
0.0002674299693
0.0003163956793
0.0003152415267
0.000213765008
0.000181521361
0.0001646306957
0.0003220125937
0.00055332186
0.0005586480634
0.0001812517527
0.0002979506405
0.0003928429553
0.0004209772273
0.0003810266618
0.0001679790694
0.0001156605919
8.426456051e-05
6.68970235e-05
5.655403582e-05
7.632574926e-05
8.691516624e-05
9.051956825e-05
9.41592135e-05
8.786714907e-05
7.603554148e-05
9.138281502e-05
0.0001611352222
0.0002224047794
0.0002051683783
0.000139447095
0.0001001355204
0.0001175288275
0.0001213906433
0.000392224216
0.0004280317626
0.0001290959898
0.0001600959496
0.00023981031
0.0002360734202
0.000161351414
5.423825387e-05
6.080635988e-05
8.829138625e-05
6.162318547e-05
5.751265724e-05
5.595297692e-05
7.630923014e-05
6.490135987e-05
7.586016575e-05
8.413833134e-05
8.130709383e-05
6.848285484e-05
7.450250753e-05
9.229402124e-05
9.554929697e-05
8.450677736e-05
0.0001331554935
0.0001882656231
0.000125369132
0.0001328353417
0.000170536154
0.0001106086826
9.355155573e-05
9.004283259e-05
8.006177035e-05
5.790375474e-05
5.745942055e-05
5.686667628e-05
6.475595846e-05
0.0001130459558
0.0001261723934
5.960495959e-05
2.379106099e-05
5.159929259e-05
5.559179121e-05
6.390757721e-05
7.166427853e-05
6.977741208e-05
5.766889208e-05
4.89370417e-05
4.058148317e-05
3.360342696e-05
9.40119648e-05
0.0001843920019
6.721696707e-05
7.82332678e-05
7.833077316e-05
0.0002617210341
5.926050446e-05
6.486432149e-05
0.0001328283913
0.0001813070453
0.00020661189
0.0001674873635
8.799604361e-05
7.713556255e-05
7.289548632e-05
9.365712015e-05
3.196345455e-05
7.431541767e-06
3.106128193e-05
5.400776326e-05
5.109051628e-05
5.867773854e-05
5.98284823e-05
5.262892387e-05
3.645644127e-05
2.678056677e-05
2.661866251e-05
5.573272331e-05
2.6265527e-05
7.006012665e-05
6.077886382e-05
0.0001193552115
5.137274488e-05
8.862412544e-05
0.0002181172801
0.0003681171174
0.0004400882594
0.0003631712304
0.0001768172042
9.529646489e-05
6.051289364e-05
5.384312608e-05
5.081169862e-05
2.145771714e-05
1.068664505e-05
1.862377321e-05
3.964690775e-05
4.208772988e-05
4.50106145e-05
4.729952832e-05
5.557137985e-05
5.714755472e-05
1.385378251e-05
1.859642238e-05
3.178636644e-05
6.03151686e-05
5.019987347e-05
5.07480959e-05
5.807094048e-05
5.532275741e-05
8.144445584e-05
0.0002111375034
0.0003677935722
0.0002701874647
0.0001519846714
0.0001205668837
8.75734127e-05
4.699264737e-05
9.38560608e-05
0.0001399685923
2.709026753e-05
6.911689126e-06
9.511361196e-06
1.917861613e-05
3.306432818e-05
4.14541275e-05
3.149962145e-05
2.656981685e-05
2.594219664e-05
2.833161609e-05
4.793308749e-05
4.652586663e-05
3.74162471e-05
0.0001875964117
5.498336539e-05
0.0001191012782
7.736056954e-05
0.0001146756921
0.0002082942007
0.0001825669579
0.0001748227126
0.0001082756216
6.296040746e-05
2.704302477e-05
4.230694973e-05
4.173333601e-05
4.978997014e-05
5.792361381e-05
1.729655492e-05
7.172700273e-06
9.639166045e-06
1.326065517e-05
9.581858352e-06
7.659129169e-06
1.078659956e-05
3.788571521e-05
1.882123291e-05
2.442303751e-05
9.797256333e-05
9.096560588e-05
9.083687239e-05
9.445670172e-05
0.0001316692204
0.0001879049838
0.0002071405323
8.328768192e-05
4.467683496e-05
3.283015735e-05
3.181942158e-05
3.110419393e-05
3.445615329e-05
5.431300779e-05
4.397165173e-05
4.582377161e-05
1.012080145e-05
4.318529481e-06
4.40636513e-06
4.105914586e-06
4.358234204e-06
4.206959551e-06
1.227312423e-05
5.491629083e-06
6.422712652e-06
0.0001228147277
0.0001078846984
9.545834004e-05
0.0001097266449
0.0001495124685
0.0001670851405
7.334948311e-05
5.81201321e-05
9.667505249e-05
0.0001349591048
0.0001419953118
0.0001210674996
6.078178743e-05
2.849177449e-05
4.076809216e-05
3.918507614e-05
2.874562936e-05
6.86764487e-06
4.097861593e-06
5.035829411e-06
5.757134188e-06
5.074718915e-06
4.282924868e-06
4.429795972e-06
4.128632613e-06
0.0001365253307
0.0001394296464
0.0001183680879
0.0001149482825
0.0001220788168
9.835755492e-05
6.796434662e-05
9.167547739e-05
0.0001570206932
0.0002109586427
0.0002163582515
0.000177030178
3.618581406e-05
5.077156517e-05
5.994359294e-05
5.847640356e-05
2.967633212e-05
6.983519917e-06
3.645182355e-06
5.133685407e-06
6.135094902e-06
6.389299045e-06
5.42181921e-06
6.520604177e-06
6.300157655e-06
0.0001444085917
0.0001679578457
0.000146894842
0.000127540242
0.0001196696873
0.0001163432827
0.0001070053509
9.151385779e-05
0.0001130412659
0.0001657679063
0.0001520465135
8.396012714e-05
6.667453293e-05
5.081814007e-05
6.124942978e-05
8.994504307e-05
5.329917122e-05
1.762545982e-05
5.221631219e-06
3.982976534e-06
5.777250444e-06
6.547090647e-06
6.618889434e-06
6.922914961e-06
6.895852658e-06
7.040237948e-06
0.0001491682244
0.0001896235602
0.0001690560149
0.0001269902123
0.0001019964027
0.000104280149
0.0001198251103
0.0001297026434
0.000122493363
0.0001428717525
0.0001514966446
0.0001566957119
0.0001156530573
4.987175232e-05
3.400536611e-05
4.769048681e-05
8.452121726e-05
5.550354132e-05
2.234610272e-05
6.638353795e-06
3.672036735e-06
5.499094464e-06
6.444931081e-06
6.711525724e-06
6.729139007e-06
6.672175312e-06
3.765903706e-07
5.164838783e-07
5.287776824e-07
5.311022287e-07
5.321578796e-07
5.331656566e-07
5.358480804e-07
5.706166376e-07
9.543354262e-07
3.787054035e-06
1.725796324e-05
5.590633463e-05
0.000121356081
0.0001911691378
0.0002415215289
0.0002760899701
0.0002855965983
0.0002619155327
0.0001899016709
0.0001024091589
2.773038914e-05
4.784891793e-06
1.573969966e-05
5.855464995e-05
0.0001444213287
0.0002922225803
4.039152893e-07
6.031056879e-06
1.176631529e-05
1.285051534e-05
1.300548303e-05
1.293475011e-05
1.198923601e-05
7.837573203e-06
4.406583551e-06
7.338247416e-06
1.618546665e-05
2.197106814e-05
2.623331095e-05
3.044674025e-05
3.854001104e-05
5.639578415e-05
7.19130774e-05
5.457412286e-05
3.206562906e-05
3.12716306e-05
4.366349087e-05
2.11072357e-05
1.604123862e-05
2.064045109e-05
3.433260749e-05
0.0001054225011
4.11213918e-07
1.006381907e-05
3.76654284e-05
4.866390478e-05
5.040476012e-05
4.939498225e-05
3.997016409e-05
1.627102492e-05
7.300326755e-06
1.169922391e-05
1.848116204e-05
1.863927914e-05
2.068197169e-05
3.151808127e-05
6.83166785e-05
0.000129881678
0.0001508885649
0.0001099080188
4.729559741e-05
2.966049513e-05
2.883611141e-05
4.388295539e-05
2.253641921e-05
3.269539205e-05
8.5450558e-05
0.0002641616065
4.126170004e-07
1.073012115e-05
4.585799602e-05
6.382216053e-05
6.69937275e-05
6.486163827e-05
4.861518235e-05
1.666453246e-05
8.045252377e-06
1.300383681e-05
1.694285469e-05
1.456461652e-05
2.147446114e-05
5.633480018e-05
0.0001282906203
0.0001845310876
0.0001839715318
0.0001451633369
8.530449586e-05
3.19447972e-05
3.074643133e-05
4.836152721e-05
2.903744916e-05
4.816428529e-05
0.0001245785465
0.0003142864926
4.139928969e-07
1.096157511e-05
4.808616956e-05
6.815235226e-05
7.164235895e-05
6.914507756e-05
5.243340539e-05
1.888439183e-05
7.880912394e-06
1.083669424e-05
1.385231935e-05
1.372804086e-05
3.043522434e-05
7.91178234e-05
0.0001455174842
0.000180742062
0.0001742201368
0.000145022113
9.595835657e-05
3.702767604e-05
3.660495791e-05
4.759052104e-05
3.67017265e-05
5.533852182e-05
0.0001033217092
0.0002190266728
4.162138216e-07
1.124077405e-05
5.003550872e-05
7.130937104e-05
7.402235929e-05
7.180454022e-05
6.588318931e-05
5.105519556e-05
1.539680221e-05
3.381009833e-06
4.700199452e-06
1.267153188e-05
3.149989225e-05
6.686701972e-05
0.0001133582682
0.0001400970511
0.0001394363232
0.0001205199702
8.226539644e-05
4.73929543e-05
3.975413493e-05
3.459046826e-05
4.099006202e-05
5.933142399e-05
7.481831532e-05
0.0001000604217
4.201162931e-07
1.164355679e-05
5.178784108e-05
7.087106245e-05
6.338175811e-05
4.927388274e-05
3.860990574e-05
4.522465932e-05
3.991793643e-05
1.287126147e-05
9.159832532e-06
1.782892651e-05
3.131861435e-05
4.312791415e-05
6.092152747e-05
8.207268398e-05
9.168789453e-05
8.190147372e-05
6.135643855e-05
4.895558258e-05
3.512698706e-05
3.735234729e-05
3.920145863e-05
5.625197021e-05
8.920939722e-05
0.0001099206001
4.259470713e-07
1.190331109e-05
4.782118766e-05
4.929918922e-05
2.675528672e-05
1.597041779e-05
1.047235242e-05
9.964028298e-06
2.059489272e-05
1.495234164e-05
1.980612115e-05
2.908934117e-05
3.454345938e-05
4.159747663e-05
5.032634362e-05
5.997376747e-05
6.738495581e-05
6.726653938e-05
5.765877734e-05
5.00741006e-05
3.488389409e-05
3.481458986e-05
2.8411796e-05
4.766216048e-05
0.000109990705
0.0001372586506
4.360335068e-07
1.054655851e-05
2.674948344e-05
1.932211856e-05
1.255325432e-05
1.065964545e-05
7.218363231e-06
3.314409002e-06
1.52379309e-05
2.287642701e-05
2.88225047e-05
3.019309245e-05
3.335158116e-05
3.807264198e-05
4.603095334e-05
5.802929616e-05
6.918268576e-05
6.817868905e-05
5.199484911e-05
4.353003459e-05
2.195368699e-05
2.264423329e-05
3.326721738e-05
5.170653543e-05
0.0001133283421
0.0001526413685
4.882070382e-07
6.761799018e-06
1.27870207e-05
1.529682595e-05
1.421569574e-05
1.035300579e-05
6.901982898e-06
6.260971626e-06
2.453255324e-05
3.234887117e-05
3.112479716e-05
3.13562128e-05
3.108810743e-05
3.253755244e-05
3.912877377e-05
5.208003899e-05
6.518726989e-05
6.17626093e-05
4.134890795e-05
2.721850039e-05
1.696955448e-05
2.714859291e-05
4.904991177e-05
6.600888211e-05
9.394810914e-05
0.0001460924582
9.446742071e-07
7.449221402e-06
1.539379297e-05
1.652901449e-05
1.184587833e-05
7.849300531e-06
8.453038679e-06
1.443164099e-05
3.252550638e-05
3.791089915e-05
3.402099453e-05
3.168410623e-05
2.991281692e-05
3.40377271e-05
4.191319653e-05
5.243819049e-05
6.449437226e-05
5.762289261e-05
3.788169932e-05
3.032832115e-05
3.801096624e-05
5.004160202e-05
6.960857314e-05
9.818121496e-05
0.0001199210658
0.0001001110055
3.949344444e-06
1.476814882e-05
1.751972667e-05
1.567940253e-05
9.7841969e-06