/*--------------------------------*- C++ -*----------------------------------*\
  =========                 |
  \\      /  F ield         | OpenFOAM: The Open Source CFD Toolbox
   \\    /   O peration     | Website:  https://openfoam.org
    \\  /    A nd           | Version:  8
     \\/     M anipulation  |
\*---------------------------------------------------------------------------*/
FoamFile
{
    version     2.0;
    format      ascii;
    class       volScalarField;
    location    "0.4";
    object      htcConv;
}
// * * * * * * * * * * * * * * * * * * * * * * * * * * * * * * * * * * * * * //

dimensions      [1 0 -1 1 0 0 0];

internalField   uniform 0;

boundaryField
{
    walls
    {
        type            calculated;
        value           uniform 0;
    }
    region0_to_wallFilmRegion_wallFilmFace
    {
        type            convectiveHeatTransfer;
        L               1;
        value           nonuniform List<scalar> 
776
(
0.4109213022
0.512199232
0.6292964383
0.7467675103
0.8664565508
0.9928189509
1.131025302
1.286934446
1.470108235
1.690537717
1.948856121
2.202404179
2.394077511
2.54364647
2.719637231
2.831205919
2.756161726
2.477090097
2.200517273
2.246241892
2.268669119
2.117539821
2.033222139
1.809925889
2.104031461
2.615778737
2.951119733
3.104659124
3.116214029
3.009190797
0.4897097406
0.5643809975
0.6651141138
0.7762472325
0.8959462343
1.027022423
1.175825865
1.350527828
1.56695213
1.834656155
2.12128966
2.334553992
2.458585001
2.495377872
2.555652794
2.702561005
2.753845255
2.567392555
2.479972512
2.330040516
2.023212669
1.863170209
1.851945849
1.731209583
1.917339448
2.277788265
2.61490868
2.84076559
2.965841223
2.984212422
0.5876549148
0.6386369272
0.7147546117
0.8116140431
0.9277533448
1.065158751
1.234576961
1.450557082
1.737210017
2.066936228
2.339032442
2.532580561
2.639427088
2.595663344
2.489787964
2.568990522
2.696285239
2.598438579
2.577518937
2.369854044
2.010880695
2.128672774
2.228780361
1.959635476
2.318053887
2.623747249
2.794649446
2.88540209
3.029791176
3.125972402
0.6892688002
0.7257472293
0.78134276
0.8606076361
0.9705679812
1.115523094
1.31481029
1.586109081
1.933610479
2.254461133
2.504260737
2.699090774
2.778859797
2.70341771
2.417016249
2.041933505
2.193666974
2.344601248
2.402172908
1.950082108
1.71717674
2.176326901
2.266153658
2.278448952
2.75681596
3.048178884
3.102405256
2.988206833
2.964858609
3.066390732
0.7951102241
0.8221830737
0.8624853723
0.9210887013
1.019655396
1.169526983
1.402882558
1.727995784
2.095337023
2.398335204
2.649092291
2.785493323
2.829527282
2.747813566
2.597619557
2.352361473
1.941397005
1.953968079
1.946876879
1.583417637
1.914729968
2.11618033
2.125947421
2.581153942
3.083680358
3.429384281
3.532551882
3.284782888
2.932852814
2.876448461
0.9099554641
0.9305746454
0.9615106116
0.9954347923
1.069195844
1.206034014
1.46061505
1.815465192
2.168718014
2.454529817
2.66440653
2.771033242
2.776494457
2.669951046
2.56280153
2.466813268
2.218807467
1.807406414
1.890520961
1.896690393
2.129958817
2.071346068
2.216724792
2.860651684
3.373320522
3.706115332
3.834178383
3.752426507
3.092339616
2.627551773
1.041501471
1.058400006
1.088969131
1.096833238
1.126035922
1.215609441
1.444415655
1.740237057
2.023922715
2.279524751
2.523683675
2.678749004
2.693473202
2.56935963
2.432030341
2.399474923
2.33322996
1.862342457
1.877972815
1.800224074
2.195322282
2.492475424
2.737494847
3.214488546
3.600897512
3.81463244
3.937235847
3.960948901
3.502318052
2.770939948
1.20091346
1.2183306
1.263912812
1.254108671
1.223478113
1.195912428
1.334926317
1.494926123
1.74798811
2.046285669
2.327127619
2.553018036
2.573942229
2.429200237
2.234759078
2.226907409
2.312904392
1.988030172
1.710461772
1.997045874
2.350355184
2.727114538
3.06745908
3.465004703
3.672966401
3.830750936
3.921639512
4.031462706
3.806522982
3.126949789
1.401979503
1.421246544
1.493225752
1.480519866
1.397315064
1.309312852
1.514055365
1.751869757
2.064176692
2.358019669
2.564410589
2.629469785
2.597356731
2.502509081
2.265770253
2.147302639
2.200179128
2.027858476
1.604667938
1.781907586
2.34569642
2.807153902
3.268096961
3.527028759
3.563119209
3.690433765
3.801546356
3.959721663
3.834056389
3.481484379
1.646313816
1.658174693
1.733888034
1.708812344
1.582040367
1.427104957
1.642831322
1.879934004
2.150263105
2.379876823
2.519872888
2.544985956
2.479659624
2.36865545
2.200942746
2.027533204
1.955303334
1.918957186
1.708197229
1.44649082
2.077216231
2.653146194
3.236978505
3.414245559
3.200704011
3.441250419
3.55340398
3.818994333
3.732174375
3.482967117
1.88784584
1.874727699
1.938648943
1.901299293
1.757528509
1.630336722
1.860870435
2.10177361
2.324837885
2.494587824
2.584557684
2.594860527
2.528426141
2.375567387
2.092921179
1.47539243
1.438238239
1.936629919
1.905956999
1.658123243
1.947083859
2.197852117
3.078216662
3.576854111
2.672888733
3.094660496
3.27116249
3.578183246
3.470651547
3.121541738
2.058303077
2.036969326
2.100900207
2.051452661
1.921304592
1.837598582
2.083680927
2.332827231
2.544465635
2.69283957
2.782799323
2.823065969
2.816469125
2.768061081
2.661329623
2.391343871
2.296023315
2.459825346
2.421211457
2.125642172
1.986444836
2.328058974
3.773791163
3.574134228
3.192535203
2.726589534
3.14137786
3.398779312
3.298173657
2.87716492
2.137150957
2.12889549
2.199487454
2.140231009
2.039586802
1.995075501
2.258330876
2.536826033
2.745396074
2.884285557
2.965129568
2.985598692
2.964127799
2.952149342
2.981083978
3.002060825
2.957324002
2.927265137
2.749004905
2.395626759
1.968137548
2.038504947
2.757882576
3.686778357
2.707826998
3.005426363
3.211443181
3.403387637
3.09670492
2.724344209
2.120480343
2.154106827
2.235879722
2.180827786
2.100526462
2.069319469
2.370736106
2.711581414
2.942293645
3.087719757
3.148194858
3.108314424
3.057904354
3.035039417
3.06173739
3.161221449
3.188888013
3.201242124
3.019521426
2.688283204
2.289819872
2.013163053
2.123541925
2.958641802
2.567119005
2.968185271
3.103323526
3.108353514
2.827242241
2.603023394
2.029876338
2.129918056
2.219939851
2.165566179
2.093287332
2.063622084
2.409822976
2.852314306
3.127301347
3.27826248
3.320526297
3.246230098
3.165446297
3.112899076
3.104977337
3.181054742
3.243975005
3.295726612
3.199328682
2.955859695
2.56890171
2.172806955
1.866723542
2.313990133
2.318369131
2.521544053
2.744750432
2.682208458
2.520646095
2.380279135
1.870942958
2.04455571
2.151480253
2.098343257
2.029730647
2.010004375
2.431399534
2.96861081
3.273982689
3.427075366
3.46971633
3.396093543
3.282299183
3.179763954
3.108571982
3.134100689
3.202972863
3.282984115
3.271207836
3.151946952
2.858149488
2.46760278
2.089411081
2.027922192
2.07927018
2.251909981
2.388838522
2.305219456
2.204525105
2.151465554
1.682628198
1.914864638
2.044795552
1.996584002
1.938770622
2.010764651
2.541815567
3.077780739
3.369545634
3.509341687
3.555255536
3.505376277
3.36946307
3.213529741
3.076830551
3.03173108
3.074614137
3.183707219
3.250275964
3.226536975
3.057064241
2.724118665
2.274641579
1.988601178
1.972046148
1.936144199
2.085735691
1.967236946
1.908590926
1.949625675
1.498439085
1.785118213
1.949726204
1.920038725
1.922054746
2.235038755
2.793548926
3.211166093
3.429530711
3.519550119
3.540913452
3.477060383
3.317728485
3.13199309
2.970371423
2.858046634
2.889039099
2.985885718
3.110544028
3.178511014
3.110730548
2.883669085
2.543481422
2.204008637
1.924614954
1.755487171
1.794467179
1.674732069
1.637063963
1.770404247
1.441475185
1.623540872
1.847926816
1.896488423
2.102008912
2.585882386
3.054852611
3.364065561
3.490746467
3.500349267
3.468231387
3.353472665
3.114817909
2.828287734
2.727408977
2.665645652
2.688381918
2.759174857
2.851250405
3.008796882
3.024991584
2.873475274
2.578371651
2.236009137
1.931225013
1.685662594
1.593209404
1.476969535
1.404084326
1.559298513
1.504235903
1.521758362
1.733484417
1.897543965
2.337621473
2.88514088
3.308180238
3.551105803
3.601331937
3.516215042
3.413393095
3.272777581
2.980655052
2.529896536
2.054653317
1.801963381
2.112094592
1.637457405
2.393211772
2.755776735
2.883658374
2.751425205
2.461999458
2.140407289
1.858513172
1.619008315
1.473224202
1.355532899
1.246552654
1.336715807
1.514503085
1.576491493
1.706416681
1.997979775
2.58421681
3.133563208
3.526569057
3.749305559
3.728655522
3.526473245
3.342817317
3.240904242
3.024381324
2.859757392
2.603473699
2.310127257
1.514483812
2.363458872
2.502152667
2.716948725
2.799147083
2.663651853
2.390332334
2.100923062
1.832214897
1.591735847
1.420802407
1.290256228
1.163321956
1.161607271
1.75608493
1.826574117
2.014265466
2.341954274
2.867093966
3.35145254
3.751353118
3.932189559
3.869818079
3.53929786
3.221983813
3.197085774
2.990264321
2.930844507
3.015792158
2.935838441
2.663399257
3.205176374
2.495304964
2.492586332
2.693043826
2.637340688
2.442626321
2.160721399
1.880516602
1.597526941
1.387583813
1.239201586
1.109882043
1.049433672
2.111601603
2.108581858
2.337475241
2.678584483
3.140445347
3.62347343
3.932449002
4.011797505
3.901217756
3.478982693
2.823877661
3.092507243
2.949368933
2.944263776
2.983010026
3.055059311
3.154396981
3.558503041
2.277142388
2.444333661
2.715832183
2.706723884
2.604445079
2.403985317
2.135593479
1.820109563
1.508190733
1.272684223
1.100704786
0.9851468108
2.337410436
2.2878514
2.533987021
2.891452591
3.337155196
3.828419954
4.130840204
4.168526669
4.034619521
3.712292945
1.922733892
2.869834358
2.909775334
2.859200631
2.731850356
2.952558461
3.323427427
3.599664119
2.938334952
2.766697256
2.950679078
2.806698905
2.504839797
2.19057962
1.890105063
1.617544043
1.412717141
1.221395608
1.074515571
0.9453070848
2.383057027
2.321414074
2.484652356
2.68604899
3.008645388
3.25603952
3.599496508
3.86429788
3.787227026
3.453550473
3.217808425
3.195804322
3.095511423
2.87270221
2.657872631
2.949126343
3.385665776
3.795662756
3.546253106
3.52809401
3.482464699
3.283661182
2.922631183
2.481533493
2.037477376
1.670072209
1.406127475
1.194686233
1.035741585
0.8921464017
2.308293271
2.351744985
2.559235918
2.811637135
3.228698537
3.533557138
3.640102796
3.567151323
3.415181641
3.195261649
3.113856762
3.158378328
3.144475487
3.024057398
2.85836798
2.821992537
3.17767474
3.655965947
3.614269836
3.496770061
3.306449835
3.094016637
2.749186539
2.329347993
1.082954911
0.8899809781
)
;
    }
    region0_to_wallFilmRegion_mirrorFace
    {
        type            convectiveHeatTransfer;
        L               1;
        value           nonuniform List<scalar> 
703
(
4.16839339
4.317114246
4.377234201
4.418549791
4.449258258
4.476150883
4.52005557
4.590390821
4.651659181
4.618831602
4.18473462
4.21031228
4.266856698
4.317688345
4.345880549
4.362747016
4.395294651
4.442669592
4.483325796
4.485207584
4.043725545
3.891487771
3.9237465
3.966847896
3.985103612
4.001097031
4.049631736
4.127433359
4.223183534
4.204672992
1.697746517
2.160293407
1.39392447
1.85309863
1.615566995
1.818906123
2.019798938
1.935187837
2.008320636
2.047751883
2.025060031
2.017578492
1.977390457
1.967240727
1.902636174
1.86020553
1.831927132
1.777759475
1.697851579
2.655899616
2.140758998
2.596882368
3.069995335
3.560230468
2.675672179
3.694879839
3.376796021
3.871713965
3.139531505
3.983049494
3.713239783
3.909841347
3.719167316
3.796232244
1.715480627
1.816617278
1.722458852
1.715230946
1.786835554
1.718027142
1.46337428
1.590711708
1.547842398
1.432187543
1.507025875
1.487917802
1.442069096
1.492762463
1.485327614
1.480993464
1.518418922
1.512134633
1.472204147
1.519591908
1.511050721
1.460127778
1.511219074
1.512957031
1.477390209
1.515874653
1.514533951
1.481850872
1.507772847
1.493418369
1.453335948
1.474302318
1.457554771
1.521303403
1.688879526
1.460061772
1.469679589
1.446106942
1.386433774
1.389860277
1.358852702
1.331394122
1.354232911
1.314999477
1.302471808
1.342367535
1.297046569
1.291348181
1.3505105
1.296221381
1.293808698
1.358130416
1.296298078
1.29370888
1.365345049
1.293361476
1.294135351
1.372616582
1.294912868
1.294505609
1.364125843
1.291620582
1.286853404
1.410772752
1.689762767
1.394507645
1.296221379
1.33419919
1.243853949
1.246679558
1.211315832
1.182390514
1.219252385
1.164427172
1.149378194
1.200108794
1.136393298
1.125783246
1.192752619
1.119184566
1.114182696
1.191688236
1.111613183
1.108771421
1.192847965
1.106696424
1.107338997
1.196115301
1.109132059
1.387765873
1.683330501
1.412936267
1.201211688
1.303061634
1.183606469
1.117534531
1.122480773
1.071383851
1.073502894
1.036937646
1.009859897
1.043176531
0.9873633566
0.9692067623
1.025244858
0.9543502005
0.943236404
1.016734408
0.9351792832
0.9301029043
1.016003212
0.9282059488
0.9310257015
1.462204766
1.795601643
1.71385596
1.178214911
1.344631456
1.206789636
1.024243905
1.087745983
1.002914302
0.936226913
0.9417747137
0.8936237511
0.8790192188
0.854644551
0.8228093332
0.84202477
0.7969154434
0.7766842057
0.8249813008
0.7643518077
0.7576809364
3.907432808
3.910267439
4.07591029
3.951610572
4.135530696
4.151813732
3.967261541
4.165023589
4.177349783
3.981786435
4.189234196
4.199747642
3.991866242
4.208860751
4.217879092
4.008799199
4.228899959
4.245682935
4.077795627
4.274197662
4.322073214
4.283049863
4.397556457
4.494464634
4.264985365
4.554095159
4.488530667
4.040337141
4.3913366
4.308389417
3.923871144
4.245868046
4.191665707
1.852032345
1.601038713
1.799882503
2.08999993
1.99619853
2.114852512
2.113213184
2.191812903
2.207189554
2.017374001
2.184579455
2.118843598
1.879927882
2.041392849
1.963796694
4.149956902
4.235270849
4.269359464
4.296463882
4.320773652
4.356080394
4.429617855
4.566929701
4.569262132
4.432134392
4.092877587
4.310825136
4.328741021
4.344739525
4.358354188
4.470803667
4.518570257
4.567756399
4.597519848
1.64963392
2.418679494
1.87215092
2.080589769
1.826636554
2.021834224
2.250007954
2.159345243
2.241749591
2.202466091
2.278458785
2.250662263
2.050960575
2.189753756
2.10877534
4.256579122
4.179370745
4.21744125
4.351552544
4.269387867
4.29983202
4.398745773
4.435474727
4.461380689
4.494975003
4.424681904
4.441444182
4.552270065
4.462840839
4.628106015
4.643642288
4.562278509
4.564071761
4.587419587
4.554532092
4.538171041
2.085250698
3.021161805
2.632862737
2.18349895
2.329051915
2.161493405
2.259453715
2.173587669
2.193964403
2.123094981
2.144169138
2.055002879
4.112045778
4.022060557
4.239245806
4.060975714
4.088783093
4.293370091
4.117716963
4.335549234
4.225673575
4.417790231
4.246869365
4.352168394
4.358994304
4.473524328
4.352058287
4.33723941
2.514015641
3.406004659
3.063952199
1.972953047
2.577514128
2.160308391
1.646043217
1.939329707
2.161884409
2.61415252
3.676985789
3.768236705
3.826739109
4.102229259
2.269782397
4.094158457
3.137415041
3.867879112
3.453830688
1.915371582
3.314944149
1.49510169
3.365045568
1.402096835
3.357887656
1.598797453
3.355420958
1.508787505
3.350374484
1.38740042
3.457081433
1.376110532
3.682590188
1.402726572
3.370113811
1.365124248
3.207275568
1.725896364
1.760265713
1.784851178
1.559495916
1.447503238
1.445296666
1.472094889
1.487251937
1.461693687
1.465641474
1.485233324
1.468452196
1.928191133
1.677228646
1.521594765
1.426179379
1.370976164
1.349668802
1.350918413
1.359974956
1.361523725
1.369968152
1.371036221
2.046380704
1.685155016
1.368844612
1.271192441
1.231989083
1.209337664
1.197099843
1.194132132
1.191636411
1.194488469
2.014235962
1.679310245
1.308038604
1.155757429
1.093095968
1.056752782
1.032783685
1.020297165
1.014486726
1.927190198
1.712035943
1.306395658
1.093531653
0.975011632
0.9045956313
0.858098676
0.83152699
2.263953602
3.70788796
3.955983539
3.957797503
3.975227409
3.987153433
3.998100103
4.031509335
4.161299846
4.362849724
4.136370776
3.974188538
1.599751379
2.000175915
2.127971407
2.079358402
1.947230465
3.359064971
4.007364454
4.209318882
4.234454167
4.253842385
4.291319081
4.283548564
4.308370501
4.335806057
4.386723619
4.385616064
4.433703597
4.492884437
4.610734842
4.498636242
4.542266361
1.840666093
1.91367555
2.19402112
2.251834711
2.13235701
3.135299838
2.284197287
2.122437389
2.254664619
2.205200022
3.556633902
2.821384688
2.103680353
1.83467202
1.252995503
4.024187724
4.007008564
3.857073809
3.490438276
3.426450159
3.742631969
3.413753617
3.403029709
3.427031201
3.528197672
3.985539014
3.690147129
4.141377947
4.065032078
3.802447596
3.780739659
3.847575401
3.156487749
2.917248074
2.76844324
2.664945119
2.707985292
2.974223271
3.435968744
4.580461103
3.731957073
3.863817844
3.072056567
2.780290132
2.615236899
2.496917852
2.507234749
2.711669656
3.055678705
4.164884954
3.888645654
3.903196497
4.592653477
3.421910008
1.965149328
2.229787905
3.443468335
3.672746447
0.82961354
3.350052166
2.816184233
2.607536001
3.697649098
3.645225863
1.49024837
3.370431294
1.771156448
1.818322338
3.661476663
3.674497761
1.332897845
3.361472166
1.669422578
1.699413352
3.678133876
3.679980088
1.460655667
3.357542431
1.72699147
1.726389038
3.680987425
3.681696626
1.590894839
3.348512764
1.793020342
1.80090312
3.682182164
3.683879307
1.423740228
3.380325639
1.778992794
1.746111353
3.696499836
3.73601443
1.374271253
3.589207156
1.732523304
1.731262757
3.820352912
3.957926168
1.391993358
3.527583595
1.735318757
1.727872486
4.053247117
3.919586691
1.392872469
3.272231487
1.715016529
1.694938949
3.765909598
3.663975514
1.331149109
3.160883581
1.667086419
1.632239281
3.596660826
3.549658778
4.179175418
4.266761795
4.371119682
4.406704263
4.580849007
4.498726928
4.32599493
4.349349101
4.370855652
4.388866632
4.401551169
4.411542701
4.487929208
4.516564141
4.543944934
4.165612056
4.352483977
4.376864661
4.465288191
4.489932688
4.145513834
4.16889292
4.185237076
4.193706469
4.199054937
4.209840515
4.27217582
4.299775876
4.326736017
3.884809149
3.902369276
3.68345959
3.692008995
3.947006592
3.711171222
3.729211206
3.979776237
3.750789357
3.989011122
3.756589173
4.021036963
3.792598064
4.085799754
3.87158682
3.925629861
4.171052998
4.050071488
4.219396479
4.18222606
4.068156424
4.02728603
3.569625035
3.862703201
3.438425688
3.444617307
3.304338055
3.212942137
3.418825274
3.159262554
3.119691673
3.408083851
3.085943741
3.058040404
3.405406944
3.040171981
3.041715739
3.468416292
3.078994409
3.149712991
3.602030025
3.249047011
3.369847362
3.82138808
3.521830997
3.778638043
3.890840592
4.260233733
3.829802127
3.752641511
3.615842022
3.524155574
3.34419116
3.848194651
3.290720848
3.014373254
3.067317346
2.888491758
2.83833011
2.760591664
2.657074273
2.708292574
2.565611664
2.485846171
2.655748888
2.428062448
2.415806314
2.816460785
2.480129764
2.630017693
3.17528082
2.879831829
3.22993939
3.852591995
3.659354793
4.281529481
3.860453457
5.207614591
4.257696328
3.293407758
3.881246524
3.35004186
2.898271253
3.16310997
3.02745954
2.690885205
2.946684736
2.894045397
2.548668006
2.854455961
2.819932379
2.477687251
2.791166197
2.778811677
2.586532181
2.791435894
2.826138656
2.862543536
2.878318332
2.936283754
3.420831437
3.013178239
3.223648204
3.364020129
3.717074536
3.238929442
3.462802558
)
;
    }
    procBoundary2to0
    {
        type            processor;
        value           uniform 0;
    }
    procBoundary2to1
    {
        type            processor;
        value           uniform 0;
    }
    procBoundary2to3
    {
        type            processor;
        value           uniform 0;
    }
}


// ************************************************************************* //
