/*--------------------------------*- C++ -*----------------------------------*\
  =========                 |
  \\      /  F ield         | OpenFOAM: The Open Source CFD Toolbox
   \\    /   O peration     | Website:  https://openfoam.org
    \\  /    A nd           | Version:  8
     \\/     M anipulation  |
\*---------------------------------------------------------------------------*/
FoamFile
{
    version     2.0;
    format      ascii;
    class       volScalarField;
    location    "0.4";
    object      k;
}
// * * * * * * * * * * * * * * * * * * * * * * * * * * * * * * * * * * * * * //

dimensions      [0 2 -2 0 0 0 0];

internalField   nonuniform List<scalar> 
67410
(
5.779977538e-06
6.184052507e-06
6.199930384e-06
6.20045743e-06
6.204135211e-06
6.293828897e-06
7.80330959e-06
2.507992594e-05
0.000153606328
0.0007307843302
0.002168369914
0.004164746697
0.006060828518
0.007478612824
0.008409395859
0.008880194248
0.008965075307
0.008588822051
0.007070184323
0.005202794118
0.002110146862
0.0007294786843
0.002433531206
0.005890538105
0.009823945967
0.01332064267
5.928188463e-06
6.448196755e-06
6.483307354e-06
6.486945339e-06
6.509223634e-06
6.942090744e-06
1.309261282e-05
7.127295441e-05
0.0004132090336
0.001543208206
0.003509757173
0.005670393662
0.00743548262
0.008619551711
0.009423882035
0.00981899439
0.009743728139
0.009140146062
0.007883195165
0.006545069387
0.003802023829
0.001870868945
0.003864954485
0.00799085393
0.01225002495
0.01585276074
5.933754865e-06
6.468357938e-06
6.518110877e-06
6.526920523e-06
6.605424407e-06
8.060698506e-06
2.654841847e-05
0.0001744510322
0.0008447443872
0.002411021266
0.004481328318
0.006367001848
0.00775216143
0.008762504049
0.009650260059
0.01032397643
0.01033647822
0.009364493891
0.007768444359
0.007061622488
0.004971204699
0.003050867313
0.004972637642
0.009137413562
0.01324970364
0.0169084754
5.934177884e-06
6.470310054e-06
6.522719457e-06
6.535541331e-06
6.669869991e-06
8.999023333e-06
3.694708105e-05
0.0002440611925
0.00105669217
0.002625422459
0.004402369149
0.005939494204
0.007198170341
0.008439902384
0.009673443049
0.01055792248
0.01041219376
0.009127655543
0.007081379302
0.006000502
0.004666902288
0.003729075885
0.005667045479
0.009622944165
0.01259756183
0.01583297692
5.935575251e-06
6.472501852e-06
6.530692743e-06
6.578328777e-06
6.859786661e-06
9.086254619e-06
2.978699896e-05
0.0001759355968
0.0007403289174
0.001869190265
0.00315738236
0.004538684954
0.006131783345
0.007732392261
0.009107467134
0.00986150679
0.009419426437
0.007853023616
0.005618032182
0.004418486859
0.004391784694
0.005885448343
0.008887895078
0.0123590754
0.01436015346
0.01731940715
5.939264713e-06
6.489266654e-06
6.682891808e-06
7.601060427e-06
1.143155263e-05
1.983883796e-05
2.371923437e-05
1.460017935e-05
6.637191374e-05
0.0003230174595
0.00111035663
0.002549674228
0.004438178991
0.006251717547
0.007567004523
0.008046736144
0.007463985978
0.006003082253
0.004806502344
0.005304478129
0.007335995968
0.01010877344
0.01255840583
0.01520955325
0.01869593084
0.02170795911
5.966377693e-06
6.822175441e-06
9.607549778e-06
2.429881216e-05
7.422560647e-05
0.0001635321492
0.0001771297351
2.553853823e-05
0.0001016105013
0.0003801064311
0.001161771543
0.002533257283
0.00398923709
0.005126107539
0.00584278368
0.006189778439
0.006169870777
0.006098887994
0.00686302202
0.008876355274
0.01143432222
0.01335998094
0.01420768382
0.01630429886
0.02222489289
0.02558018118
6.380575022e-06
1.204358483e-05
4.650044984e-05
0.0001857576834
0.0005251639308
0.0009492386449
0.000899224726
0.0001534034676
0.0004950340692
0.001284632864
0.002632227963
0.004221085608
0.005453376568
0.006181391597
0.006624530635
0.007064924073
0.00760791909
0.008385565559
0.009766858402
0.0119172402
0.01391664406
0.01462078992
0.01454309226
0.01576699575
0.02454867745
0.02858314673
1.188094314e-05
6.612449019e-05
0.0003252979703
0.001018331327
0.002071420425
0.002883359515
0.002513411358
0.0008185074996
0.001682092694
0.002976403472
0.004542196946
0.006018428937
0.006903415356
0.007503438692
0.008168429067
0.008970332047
0.009767851452
0.01056686823
0.01178091489
0.01358248575
0.0149846149
0.01526637145
0.01451938037
0.01416617563
0.02691401417
0.03189449694
6.179785272e-05
0.0004069595195
0.001452502901
0.003087582304
0.004692139805
0.005466822685
0.004750347375
0.00273494997
0.003740176842
0.0049351888
0.006028516665
0.007076638255
0.007729423608
0.008412125666
0.009363580747
0.01049725743
0.01150444104
0.01224297391
0.01314849298
0.01462486745
0.01608152513
0.01706408337
0.01642845876
0.0153139875
0.03071774445
0.03640301705
0.0003484743479
0.001593842885
0.003724980382
0.00586681109
0.007242930259
0.007594000355
0.00708957883
0.005928210154
0.006314043255
0.006668068003
0.006803585081
0.007546698314
0.008164542787
0.0089435175
0.01011372308
0.01156403025
0.01287219125
0.01372949523
0.01452677088
0.01580951087
0.01784876174
0.0209410902
0.02361476215
0.02425420286
0.03696742236
0.04116976967
0.00133469706
0.003816228829
0.006457984262
0.008140007634
0.008792427206
0.009134435718
0.009164054815
0.009243484746
0.008940176631
0.008294863712
0.007188708745
0.007744372172
0.008392916788
0.009136285789
0.01043785866
0.01212334339
0.01379219417
0.01499597791
0.01610571966
0.01769721827
0.02032555103
0.02436534845
0.03037020367
0.03675625689
0.04368708036
0.04579339292
0.003502554788
0.006794272301
0.008859657139
0.009482195189
0.009855583121
0.01058219564
0.01119112002
0.01149282604
0.0116146077
0.01045440928
0.007725482969
0.007902916694
0.008629836856
0.009490380657
0.01088514559
0.01257838831
0.01437813481
0.01595218386
0.01749794842
0.01976198683
0.02316119001
0.02681474465
0.03354253761
0.04211009497
0.05107816766
0.05228754587
0.007617253452
0.01080927412
0.01138865151
0.01039214772
0.01062979874
0.01201689573
0.01320839949
0.01356837845
0.01445949865
0.01379140297
0.009191227568
0.008224018608
0.009118664691
0.01006279075
0.01152902283
0.0133204194
0.01541933821
0.01748355932
0.01904515468
0.02139942022
0.0281989508
0.0323965798
0.0397503931
0.04912952312
0.0577074572
0.0560793296
0.01435882978
0.01707460209
0.01594245914
0.01149727355
0.01081429567
0.01274275177
0.01463154735
0.01602403252
0.01799962369
0.0187721453
0.01262358678
0.00887440952
0.009925191638
0.01082564467
0.01240907792
0.01464550739
0.01751130357
0.02041997465
0.0220350736
0.02057296646
0.0310594236
0.03990925267
0.04552194136
0.05332649151
0.06214224331
0.05691928809
0.02189009246
0.02451599676
0.02366813517
0.01568908338
0.009698391427
0.01206993419
0.01565353365
0.01938425393
0.02404038091
0.02671112199
0.01912225876
0.01023620229
0.01137572157
0.01252105676
0.01423737094
0.01724202318
0.02114866198
0.02515117067
0.02756093943
0.02310381995
0.02541678761
0.0373550965
0.04605073
0.05545651207
0.06857143091
0.05865479532
0.02758583314
0.03020198235
0.03171120251
0.0281801976
0.01501590422
0.01334912675
0.01702669513
0.02118441256
0.02636249808
0.02900032601
0.02289026087
0.0123883127
0.01305976264
0.01485714601
0.01702479717
0.02062776274
0.02545604764
0.03021947152
0.03315541188
0.03026957536
0.02438062443
0.03231950491
0.04825595138
0.06175800753
0.07999847873
0.06737376672
0.03113380204
0.03401987553
0.03835945108
0.03861008219
0.02812179628
0.01447838899
0.01225925281
0.01508073115
0.01680204521
0.01948568005
0.01581400195
0.0113552146
0.01342950551
0.01620235392
0.01844717229
0.02164017942
0.02650945286
0.03216228198
0.03514988158
0.02951292034
0.02602359097
0.03895155529
0.05030487146
0.06413512737
0.08406307767
0.08026253815
0.03305591091
0.0353736332
0.03942471137
0.03942571957
0.03065544608
0.01984526349
0.01298233871
0.009414264875
0.0117177824
0.01311880109
0.009719729859
0.008405299678
0.01145583621
0.0151013925
0.01750376316
0.01938344735
0.02175538023
0.02505939457
0.02681255196
0.02118619791
0.01528577762
0.01683048892
0.02145137147
0.03900758803
0.06586430133
0.06440769383
0.02230286761
0.02218010928
0.02455417007
0.02344088192
0.01456796475
0.01080265223
0.007254433806
0.004260739333
0.005613359682
0.008243144469
0.004584921437
0.004008406242
0.007153326429
0.01174841281
0.01551083571
0.01785642583
0.01904547822
0.01972249007
0.01876323301
0.01473215304
0.01207820169
0.01368501298
0.01715584985
0.02363542958
0.04409868665
0.04152711913
0.01571056343
0.01511193981
0.0133901238
0.009207085471
0.01120834583
0.01254234115
0.01038631781
0.00656310966
0.00419990445
0.003816076284
0.001843635476
0.0009318987095
0.002392717928
0.006212972225
0.01076658091
0.01446654004
0.01635256498
0.01614811809
0.01384805298
0.01045936831
0.009344264232
0.01094928518
0.01516859527
0.01561358698
0.03081094073
0.02872519495
0.008203887337
0.008741316817
0.01023884672
0.01343782487
0.01651132254
0.0172321631
0.01252575586
0.008604967298
0.007330506336
0.006579477801
0.00395212149
0.002374686444
0.0007107932436
0.001460041581
0.004595319788
0.008599555548
0.01169373375
0.01235163827
0.01016354555
0.007049023587
0.006690627804
0.007974801582
0.01158562586
0.01074129152
0.02081918516
0.01906534901
0.004797637945
0.009521631785
0.01551389466
0.01992287905
0.0228252448
0.01904372718
0.01163302637
0.01002422712
0.01003439744
0.009113236441
0.007216779324
0.006362296122
0.003447589788
0.0009651556815
0.0008932725378
0.002851138775
0.00571924932
0.007564452108
0.006539394477
0.003990866318
0.003919667823
0.005331941594
0.009010501034
0.007066475638
0.01222941367
0.01080432927
0.001601745078
0.004628078532
0.009321497158
0.01250555588
0.01238861807
0.01118569533
0.01120550473
0.01217526006
0.01189568111
0.01052275739
0.00868895138
0.01028995863
0.008665160757
0.004239806759
0.001168614029
0.0005592590248
0.001452381354
0.002913640367
0.003082138473
0.001689627483
0.001600560431
0.00264977535
0.006152906472
0.003807811182
0.005658120162
0.004704845391
0.003622464534
0.001762909164
0.003718704915
0.006891796731
0.009575603375
0.0119441212
0.01362552421
0.01414572882
0.01355904058
0.01208625778
0.01033962538
0.009407338016
0.009459141981
0.00759140728
0.003789030397
0.001027023001
0.000331502996
0.0006273997826
0.0008523070927
0.0004785565085
0.000398688916
0.000865817463
0.003017686829
0.001404849788
0.00181233699
0.007822801123
0.004194858898
0.004457392705
0.007859086592
0.01149235114
0.01395222387
0.01527815166
0.01505961766
0.01464612707
0.01393304793
0.01303055627
0.01239519061
0.01107402177
0.01049935621
0.007130110275
0.00297386504
0.000680790901
0.0001483451292
0.0001358198151
8.637060894e-05
6.631774824e-05
0.0001615337012
0.0009337834682
0.0003014989786
0.0003650059497
0.01092050444
0.007680020924
0.007432506178
0.009691284809
0.01267309069
0.01461195133
0.01525434851
0.01627245459
0.01935763251
0.02250320646
0.02297333107
0.02014489209
0.01516483464
0.0125654475
0.009977413129
0.005894099224
0.002154443396
0.0004460089278
6.450076777e-05
1.801337101e-05
1.26910807e-05
2.299052268e-05
0.0001613189187
4.487030339e-05
5.0897747e-05
0.01279852532
0.01039790905
0.009596253082
0.01040432474
0.0136034807
0.01762300937
0.02001995267
0.02347734389
0.0290693238
0.03356399368
0.03405080627
0.02893720511
0.02038773711
0.01562678206
0.01004485452
0.00491013622
0.001701193598
0.0003740615818
5.60960628e-05
1.156009226e-05
7.251122762e-06
7.687291895e-06
2.093991857e-05
9.646889615e-06
1.0081617e-05
0.01391649355
0.01216442491
0.01131511322
0.01071543746
0.01110990022
0.01398316201
0.01851088576
0.0217043381
0.02460055444
0.02798954006
0.02694470056
0.02183913526
0.01697666426
0.01219116168
0.007496871768
0.004224123402
0.002179178971
0.0008523836511
0.0002112073496
3.587095374e-05
9.205434691e-06
6.754412129e-06
7.360752046e-06
6.706873829e-06
6.73018723e-06
6.645153161e-06
0.01462278716
0.01341646559
0.01289114899
0.01231502224
0.01183419392
0.01170761669
0.01369657367
0.01790707319
0.02116484731
0.02244079694
0.02012833273
0.01639363067
0.01236481001
0.008883174038
0.006298171359
0.004620397705
0.003298416877
0.002111507019
0.001008336927
0.0002968635807
5.330226071e-05
1.091660817e-05
6.819066563e-06
6.553194679e-06
6.542740657e-06
6.541987717e-06
5.561945691e-06
6.317586255e-06
6.387071919e-06
6.391757259e-06
6.391432951e-06
6.397582743e-06
6.604337736e-06
9.518091544e-06
3.642964036e-05
0.0001991741447
0.0007904690209
0.001993185265
0.003410785265
0.004547663
0.005292914248
0.005884821735
0.006044783011
0.005548668908
0.004464435523
0.002888196319
0.000988236406
0.0002167726383
0.0007638638039
0.002323602665
0.004525579264
0.007032765262
5.89909884e-06
1.048958305e-05
1.150661445e-05
1.170162424e-05
1.186309474e-05
1.209685671e-05
1.308074998e-05
2.223719117e-05
8.906043236e-05
0.0003914789278
0.00116154256
0.002107388831
0.002850020318
0.003483056096
0.004662183789
0.006226486894
0.006658990719
0.005321176518
0.003421840269
0.002987223892
0.001994722178
0.0007922576336
0.00125079237
0.002704033309
0.004072109942
0.007609583476
5.942552543e-06
1.126344478e-05
1.316808019e-05
1.364373908e-05
1.391073176e-05
1.42918882e-05
1.669016892e-05
3.981528887e-05
0.0001798044579
0.0006532210068
0.001425792427
0.001925555155
0.002219163415
0.003498367932
0.006225741914
0.008451688902
0.008804427502
0.006930886401
0.00415318995
0.003050149537
0.002606456678
0.001718573098
0.002006561035
0.003787168218
0.005932463068
0.01282849492
5.948113384e-06
1.14584532e-05
1.361465069e-05
1.422566244e-05
1.447845924e-05
1.482353019e-05
1.811012332e-05
4.959557738e-05
0.0002184468161
0.0006930850079
0.001260013157
0.001372489363
0.00171856266
0.003661463433
0.007176513197
0.009738555283
0.009658098942
0.007654117201
0.004783578804
0.002830367468
0.002668332683
0.002295908512
0.002541591816
0.004925967447
0.007772073184
0.01429822856
5.958042349e-06
1.169762334e-05
1.403417824e-05
1.472500182e-05
1.496698374e-05
1.525757948e-05
1.794482256e-05
4.296371397e-05
0.0001680737423
0.0004997687835
0.0009238385565
0.00104372613
0.001594141049
0.003612662461
0.007024342135
0.009180741051
0.00886100807
0.007202195345
0.004741995152
0.002726101292
0.002561837811
0.002900846909
0.003926494098
0.006861959106
0.009252309093
0.01348897574
5.974372877e-06
1.204220267e-05
1.463121652e-05
1.552149789e-05
1.598635028e-05
1.674707323e-05
1.717125578e-05
1.665545678e-05
2.629707862e-05
8.486706017e-05
0.0003208984297
0.0009294890369
0.001959101027
0.003433374475
0.005532754371
0.007163053999
0.007087424182
0.006023653061
0.004249023412
0.003200089761
0.003271840754
0.004181820854
0.006295272981
0.01098631257
0.01282964037
0.01605381178
6.0033205e-06
1.257437472e-05
1.573569091e-05
1.807510931e-05
2.257312953e-05
3.167773657e-05
3.541044094e-05
1.959548112e-05
3.660081083e-05
0.0001078025812
0.0003859725672
0.001104047795
0.002188877586
0.0032090164
0.004165801693
0.004986721019
0.005324845459
0.00505167843
0.004451236634
0.004523734045
0.004970751726
0.006319202007
0.009284352501
0.01606263632
0.01760054481
0.02039048811
6.072298655e-06
1.380749803e-05
2.06564799e-05
3.785057625e-05
8.085087604e-05
0.0001448104043
0.0001520675569
4.50364828e-05
0.0001441156345
0.0003942067351
0.0009907209274
0.001931761749
0.002842381535
0.003627872225
0.004308346359
0.00500615081
0.005644064064
0.005883100074
0.005709466755
0.006137850355
0.006000034856
0.00762286593
0.009701469316
0.01383125189
0.02387349289
0.02412575901
6.643373573e-06
2.102138457e-05
5.902663296e-05
0.0001752860806
0.0003863739817
0.0005753992098
0.0005175894021
0.000212491447
0.00061605562
0.00118247902
0.002010178787
0.002867300248
0.003543378772
0.00414838566
0.004878320939
0.005865454039
0.006809482375
0.006918278595
0.006397977458
0.006290405313
0.004966676953
0.005938918222
0.008884037136
0.01053370707
0.02824842293
0.02752369635
1.285911495e-05
7.529997822e-05
0.0002836605924
0.0007024265958
0.001100962587
0.001157244788
0.0009577706731
0.0008951347926
0.001824540905
0.002366422883
0.002911058937
0.003470576615
0.003748695211
0.004148592922
0.005006658294
0.006376739092
0.007475461371
0.006984773164
0.005876222308
0.00469765065
0.003804720373
0.005387117365
0.009497357608
0.01256019612
0.0246525088
0.02973119769
6.243733008e-05
0.0003538892936
0.0009791249276
0.001497524082
0.001519239548
0.001320736986
0.001314072017
0.002281460069
0.003464012852
0.003546467527
0.003559185582
0.003718056009
0.003614782305
0.003921888993
0.004840176161
0.006440199649
0.007645468536
0.006717147849
0.005580341361
0.004704587028
0.00508656712
0.006978592176
0.01126471781
0.01850783387
0.02468933581
0.03053563028
0.0003136442582
0.001125537458
0.001896596521
0.001935795332
0.002013825929
0.002693146489
0.003395127762
0.004086689001
0.00512857731
0.00458019914
0.003946700309
0.003844049936
0.003659458151
0.004385875627
0.005419124744
0.006732433822
0.007708226655
0.007031791633
0.006576679348
0.006748339766
0.007722908761
0.0102967436
0.0160449632
0.02586229172
0.03553284575
0.03972388436
0.001134535078
0.002287290324
0.002791775472
0.002233762627
0.003611661614
0.005926415931
0.007379528626
0.007356434714
0.007020784473
0.005690841312
0.004470988939
0.004150524244
0.004039439004
0.005195106707
0.006372466658
0.007459948056
0.008261388226
0.008678111715
0.009001844096
0.01013092869
0.01126700204
0.01468221273
0.02342420115
0.03887488584
0.04952642262
0.05362126581
0.00309528165
0.003983141845
0.004122962512
0.003057303835
0.005342163055
0.009247608274
0.01156771676
0.01207839762
0.01048785348
0.008375887775
0.006440347307
0.004876469953
0.004302529385
0.005672321629
0.00697519426
0.008185090154
0.01000297007
0.0120852989
0.01326105068
0.01540544128
0.01710660567
0.02127552247
0.03401318006
0.05145016676
0.06232697631
0.06169864771
0.006863175734
0.006635194268
0.007009875921
0.005385285591
0.005823986195
0.01071609951
0.01477322687
0.01763315738
0.01920538664
0.01841315882
0.01401408936
0.006908252939
0.004695087714
0.005599054586
0.006939045718
0.009030206727
0.01276864557
0.01699567274
0.01944157
0.02063259881
0.02573089263
0.03020899867
0.04249998574
0.0591681039
0.07086800574
0.06566951802
0.01174289683
0.00992128991
0.01250830058
0.01130492941
0.005415584512
0.009505380927
0.01660325189
0.02263431785
0.03012008842
0.03550364839
0.03502951739
0.01294948044
0.006730523287
0.005276253591
0.00714214383
0.01153878527
0.01774649438
0.02432557139
0.028187804
0.02790208334
0.02364349931
0.02958919326
0.03801234459
0.05762559477
0.07733433665
0.07034678802
0.0167487098
0.01810080519
0.02431524829
0.02393327328
0.01176901584
0.009259888893
0.01315586146
0.01997126584
0.02993345776
0.03710386571
0.03776861488
0.02040561232
0.008582013005
0.005804522227
0.006816389487
0.01271069642
0.0222580335
0.03060420776
0.03541325106
0.03705045219
0.02093380763
0.02256088826
0.03053077885
0.05213858796
0.08810477316
0.07877383514
0.02196348364
0.02978942053
0.0390680595
0.04113399283
0.0301132448
0.009558969558
0.00621378641
0.004987546068
0.01252379349
0.02533863574
0.02578680507
0.01211056296
0.007489658287
0.006430530115
0.007246777324
0.0115841742
0.02115084461
0.03189789261
0.03794988629
0.04167210195
0.02207932827
0.01944769684
0.0213635853
0.05036317275
0.08583986934
0.08530181749
0.02333967539
0.03165007177
0.04034983396
0.04338155049
0.04200903714
0.01565325255
0.00883692778
0.005087628411
0.004209766104
0.003577980716
0.004662088854
0.005102926276
0.00523170923
0.005755592705
0.005961030084
0.006920383306
0.01047497988
0.01969242815
0.02769110729
0.02560549967
0.01292021248
0.01027332823
0.01278151827
0.01589624238
0.06873791521
0.06715631794
0.01180712727
0.01704695081
0.02611923415
0.02484198976
0.0162868472
0.004286734876
0.003272590083
0.001961526972
0.002525682802
0.003086152262
0.001704462288
0.001754446687
0.002684599664
0.004250336762
0.00534332779
0.005587745473
0.006191577774
0.008232508891
0.01066395006
0.01086000569
0.007456324062
0.01251994358
0.01717122852
0.01389733482
0.01849802891
0.02556844547
0.008659511752
0.007089505479
0.007440979256
0.007190130327
0.004631843412
0.00415438413
0.003442451014
0.002949650584
0.001900340754
0.001998836372
0.0007324770089
0.0003209326436
0.0007179774677
0.001946300205
0.003431506393
0.00457439179
0.004778475609
0.004580918603
0.004476065279
0.003827698426
0.002574550485
0.00830015793
0.01654217217
0.006183422643
0.007750240619
0.009649082618
0.003835143022
0.003187220391
0.004993588169
0.01066418735
0.01409134185
0.01588660686
0.01375541647
0.005814789367
0.003659281738
0.002397406599
0.001178994187
0.0008300444679
0.0002268220141
0.0004232726236
0.001233610664
0.002434379651
0.003441273219
0.003754076558
0.003240337863
0.001852258358
0.0009571205866
0.002186623183
0.004643126602
0.001736342432
0.004958095708
0.005065991544
0.001747903693
0.002740884804
0.006682870311
0.01713421168
0.02919973678
0.03729978646
0.03483019955
0.0153762754
0.007227108198
0.003062453338
0.002102920349
0.004634381566
0.002177048465
0.0002858759843
0.0002243580862
0.0006720628277
0.001436803653
0.002078529056
0.002040410533
0.001148675108
0.0007640071308
0.0005361868424
0.0009807348744
0.001168918314
0.003292925426
0.002942059441
0.0007422322637
0.001487938673
0.003020381108
0.005706430442
0.01644117006
0.03240568248
0.02413411011
0.01252403767
0.008277115284
0.005530703522
0.006113222278
0.01757326341
0.02930338742
0.003695219968
0.000428897765
0.0001391587096
0.000287092743
0.0006415217225
0.0007623238583
0.0004234054046
0.0002935767768
0.0003430567916
0.0008880014331
0.000694839408
0.001437600927
0.001128502569
0.002747560628
0.001145633033
0.001755033663
0.003826639555
0.007545555689
0.01683593242
0.01479077329
0.01370450758
0.009116477372
0.005276905537
0.002109101927
0.004305543441
0.005166114754
0.002316191998
0.0008834221155
0.0001894215756
7.248501885e-05
0.0001241271975
0.0001689223948
0.0001037179234
7.251595425e-05
0.0001121195427
0.0004972863759
0.0002113273033
0.0003693123286
0.006788416143
0.003395670658
0.002453936074
0.003887733444
0.007036703393
0.01270145209
0.01781001981
0.01000785493
0.006121039128
0.004557140432
0.004455631473
0.003884443197
0.00238962558
0.002205947134
0.00166233681
0.0005609985562
0.0001016166513
3.487146119e-05
3.588437737e-05
2.811733434e-05
2.38935595e-05
2.976833444e-05
0.0001301998852
4.823943331e-05
6.929560057e-05
0.01069237418
0.006592717707
0.004956589272
0.005781327077
0.008666113854
0.01203842632
0.008854865391
0.008987093194
0.01506268602
0.02031014952
0.02026210585
0.01713536084
0.008698019297
0.002083599618
0.001749724188
0.001180658062
0.0003533687267
6.661000424e-05
2.227573879e-05
1.742271604e-05
1.685726341e-05
1.659601656e-05
3.00583453e-05
1.884223933e-05
2.117193422e-05
0.01322968685
0.009784914394
0.007473466616
0.007049826418
0.008045723368
0.008105776356
0.009411441331
0.0149278469
0.02552349132
0.03289275279
0.03377104568
0.02987384452
0.004530394554
0.002649917583
0.00241244777
0.001190058031
0.0003325212732
6.695828837e-05
2.042861693e-05
1.551930693e-05
1.546532673e-05
1.536088627e-05
1.646592975e-05
1.574389124e-05
1.571640386e-05
0.01480882967
0.01271927372
0.0105627176
0.008678114765
0.008057607377
0.00827998844
0.00858501095
0.0101159926
0.01608355884
0.02368393448
0.02155666846
0.00932120204
0.004124278888
0.002758831538
0.00218733156
0.001342744308
0.0005840401857
0.0001814929291
4.486081741e-05
1.79437911e-05
1.498651001e-05
1.483616321e-05
1.482113505e-05
1.489384523e-05
1.464850453e-05
1.498530523e-05
0.01580396208
0.01462235856
0.01341138943
0.0104138816
0.008490028568
0.008494479596
0.009660856319
0.01025398892
0.009704060245
0.0132475895
0.01201768481
0.009650085249
0.006591433465
0.002576353093
0.001411146644
0.001292831826
0.001110938447
0.0006180740035
0.0002332057457
6.113121393e-05
1.976740487e-05
1.468997422e-05
1.425017197e-05
1.437036327e-05
1.403278012e-05
1.42772161e-05
5.529680221e-06
6.372186084e-06
6.523711642e-06
6.552354564e-06
6.565368532e-06
6.57779518e-06
6.610723919e-06
7.037079616e-06
1.174671984e-05
4.65484634e-05
0.0002122278062
0.0006881237948
0.001494914413
0.00235641501
0.002977891426
0.003404600929
0.003522116353
0.003230374438
0.002341499401
0.001262156174
0.0003415510188
5.877549474e-05
0.0001931868513
0.0007196533616
0.00177699638
0.003598356569
5.930646096e-06
1.204228078e-05
1.521710593e-05
1.618909104e-05
1.681216206e-05
1.75583243e-05
1.841002887e-05
1.974685472e-05
2.989117971e-05
9.013706461e-05
0.000287349604
0.0006303864192
0.0009757705423
0.001273987948
0.001763504745
0.002746092518
0.00360248809
0.002668270636
0.001382410515
0.001207589634
0.000768455012
0.0002618320196
0.000328945188
0.0008469983158
0.001918830321
0.006595346564
6.03769947e-06
1.451170603e-05
2.646413516e-05
3.19111258e-05
3.435369733e-05
3.65788377e-05
3.785221595e-05
3.715316548e-05
5.454084665e-05
0.0001520776933
0.0003720177051
0.0005936764593
0.000808625763
0.001468314398
0.003454348798
0.006779545729
0.007906900522
0.005730346525
0.002389790424
0.001317448262
0.001082455565
0.0007010939063
0.0006727985738
0.001710153029
0.005268334092
0.01723177133
6.058270895e-06
1.527265525e-05
3.094533271e-05
3.946909801e-05
4.276912712e-05
4.490016579e-05
4.46338179e-05
4.115216723e-05
6.141756451e-05
0.0001601833635
0.0003307876102
0.0004771685177
0.000949428765
0.002811098288
0.006620601798
0.009605667496
0.009506615699
0.007615316311
0.004629543848
0.001428242884
0.001156860413
0.001013915777
0.000962743044
0.002599780588
0.007779252891
0.02085479436
6.0784428e-06
1.595965025e-05
3.391501817e-05
4.409210633e-05
4.780076671e-05
4.989444389e-05
4.904983114e-05
4.353250681e-05
5.651904693e-05
0.0001312430262
0.0002737283855
0.0005135123706
0.001443838401
0.004009356729
0.007513648693
0.009354366369
0.009011826184
0.00773246482
0.005365741343
0.001573690848
0.001050504553
0.001101221019
0.001368115326
0.003006344573
0.006508839983
0.01490337529
6.111007105e-06
1.69652859e-05
3.79275151e-05
4.999770966e-05
5.374175888e-05
5.626891838e-05
5.79572982e-05
5.688742317e-05
4.431259566e-05
4.44501593e-05
0.0001237406309
0.0004493783952
0.001388675362
0.003335346069
0.005899696813
0.007412698235
0.007496265519
0.006667531477
0.004545253338
0.001522221063
0.0009738908918
0.001237364039
0.002019708713
0.003805191772
0.005364958158
0.007757945134
6.168241235e-06
1.850627945e-05
4.370813882e-05
5.785271523e-05
5.931575568e-05
6.014914609e-05
5.99594697e-05
6.738737808e-05
7.487751225e-05
6.63728305e-05
0.0001154226039
0.0003377117155
0.0008586518234
0.001710635875
0.002921392334
0.004297209962
0.005039616093
0.004447551236
0.002788347504
0.00154512922
0.001392358604
0.00188710709
0.002713890917
0.004849571717
0.007828700968
0.01020288904
6.253771834e-06
2.06563225e-05
5.027998516e-05
6.431212099e-05
6.185524295e-05
6.610940779e-05
6.358667351e-05
5.855002144e-05
9.636477767e-05
0.0001324540984
0.0002762210799
0.0005871701201
0.001026634497
0.001535487879
0.002089490327
0.002665209795
0.003115680724
0.003079594556
0.002313747829
0.00201883364
0.001754553457
0.002396004143
0.003232047176
0.006151096291
0.01192616979
0.01398800972
6.401378952e-06
2.349059832e-05
5.593054185e-05
7.71634088e-05
9.534006393e-05
0.0001253518659
0.000122458345
8.266773687e-05
0.0001887303239
0.0003344875264
0.0006172810213
0.0009783268351
0.001312310002
0.001653105163
0.002095713534
0.002719016861
0.003393328615
0.003457678858
0.002585497563
0.00210454347
0.001517521474
0.002457143429
0.005207682803
0.008030058807
0.01569750574
0.01706882576
7.16090654e-06
3.11402381e-05
8.206792912e-05
0.0001557931382
0.0002236986733
0.000267184182
0.0002662089461
0.0002751409603
0.0005500673658
0.0007684434974
0.001020392726
0.001259245895
0.001393845621
0.001581582183
0.002004158563
0.002794897372
0.0037341304
0.003658301841
0.002517076828
0.001793426235
0.001719355631
0.003561402683
0.007746863036
0.009867906659
0.01533261002
0.01756952204
1.380496816e-05
7.336875661e-05
0.0002029842135
0.0003402013132
0.000381041776
0.0004417245589
0.000627438337
0.0009230662079
0.001293522256
0.001355914452
0.001385932074
0.00142849715
0.001486539231
0.001825815815
0.002343556925
0.003082871782
0.004104397577
0.003881543632
0.002771406736
0.002500684717
0.003648377267
0.005582623908
0.009555526834
0.01390826538
0.01590904846
0.01227653509
5.759762857e-05
0.0002348161196
0.0004551762706
0.0005248053875
0.000574843913
0.001197142261
0.002308954696
0.002451576514
0.002383143757
0.002008212627
0.001742974025
0.001575883682
0.001943158757
0.00306366294
0.003651118371
0.004124194586
0.004935545112
0.005011563408
0.004397429299
0.004679491679
0.006095042203
0.0084410995
0.01180873345
0.01969495317
0.02440586375
0.03094036329
0.0002520455432
0.0005798140357
0.0007766242568
0.0006640527818
0.00114167792
0.004181513058
0.006230294503
0.005573928546
0.004500726225
0.003141726955
0.002819353484
0.001863608676
0.002669986486
0.003914795716
0.004651417843
0.005597103723
0.006916735296
0.007875117775
0.007423762299
0.007748735372
0.009496754479
0.01388249392
0.02127400631
0.03509733609
0.0404161497
0.04968152793
0.0008705141903
0.001141973592
0.001321744567
0.001026291928
0.003078386194
0.008656742136
0.01106158532
0.01119124442
0.0104136032
0.00749171555
0.007378906852
0.002796950218
0.002745033537
0.004091452633
0.005292838464
0.006758549306
0.009239775086
0.01182969731
0.01226480735
0.01285471843
0.0145737372
0.02023401827
0.03295401497
0.04831194204
0.05420017414
0.05818398693
0.002381593017
0.002057899022
0.002574883847
0.002302047123
0.003802550481
0.0104803213
0.01514400019
0.01927269532
0.02341290913
0.02277771387
0.02156730744
0.006880422804
0.002558673131
0.003747533207
0.005237945003
0.00767955143
0.01180275132
0.01682816578
0.01989701316
0.02093350959
0.02171671177
0.02588357159
0.04102919194
0.05537795251
0.06180320987
0.06125848357
0.004863454385
0.003245120906
0.005714643811
0.006502724219
0.003287647926
0.009280298003
0.01686951278
0.02459347102
0.03393183896
0.0402779196
0.04118309459
0.02029107022
0.004910797932
0.002314781531
0.005087265816
0.01019416641
0.01672562914
0.02412356381
0.02940898102
0.03243643204
0.02770398194
0.02254700279
0.03137139096
0.06263251029
0.07133742891
0.06528218574
0.008170111738
0.007770086956
0.01775531324
0.01884859506
0.007396701338
0.004543658491
0.007995083941
0.02097946387
0.03534792125
0.04367103189
0.04507913265