/*--------------------------------*- C++ -*----------------------------------*\
  =========                 |
  \\      /  F ield         | OpenFOAM: The Open Source CFD Toolbox
   \\    /   O peration     | Website:  https://openfoam.org
    \\  /    A nd           | Version:  8
     \\/     M anipulation  |
\*---------------------------------------------------------------------------*/
FoamFile
{
    version     2.0;
    format      ascii;
    class       volScalarField;
    location    "0.4";
    object      O2;
}
// * * * * * * * * * * * * * * * * * * * * * * * * * * * * * * * * * * * * * //

dimensions      [0 0 0 0 0 0 0];

internalField   nonuniform List<scalar> 
67410
(
0.2100069162
0.2100069162
0.2100069173
0.2100069196
0.2100069234
0.2100069296
0.2100069399
0.2100069567
0.2100069705
0.2100069203
0.2100067208
0.2100064291
0.2100061573
0.2100059765
0.2100058768
0.2100058338
0.2100058289
0.2100058719
0.2100060959
0.2100064155
0.2100068852
0.2100070919
0.2100069876
0.2100066707
0.2100062492
0.2100058869
0.2100069169
0.2100069121
0.2100069108
0.2100069129
0.2100069167
0.2100069229
0.210006933
0.2100069438
0.2100069172
0.2100067599
0.2100064728
0.2100061687
0.2100059623
0.2100058693
0.2100058156
0.2100057759
0.2100057624
0.2100058203
0.2100060143
0.2100062335
0.2100066782
0.2100069575
0.2100068091
0.2100064274
0.2100060183
0.2100057957
0.2100069197
0.210006913
0.2100069094
0.2100069112
0.2100069153
0.210006922
0.2100069319
0.2100069295
0.2100068459
0.2100066212
0.2100063386
0.2100061136
0.2100059991
0.2100059287
0.2100058318
0.210005719
0.2100056639
0.2100057598
0.2100060787
0.2100062563
0.2100065701
0.2100068826
0.2100067734
0.2100064309
0.2100060139
0.2100058357
0.2100069245
0.2100069177
0.2100069139
0.2100069158
0.2100069198
0.210006926
0.2100069333
0.2100069181
0.2100068103
0.2100065995
0.2100063882
0.210006239
0.2100061368
0.2100060056
0.2100058308
0.2100056652
0.2100056092
0.2100057679
0.2100062294
0.2100065303
0.2100067388
0.2100069475
0.2100069391
0.2100065967
0.2100061316
0.2100058994
0.2100069317
0.2100069251
0.2100069216
0.210006924
0.2100069284
0.2100069344
0.2100069414
0.2100069334
0.2100068676
0.2100067333
0.2100066115
0.210006494
0.2100063382
0.2100061425
0.2100059306
0.2100057673
0.2100057654
0.2100060324
0.2100065148
0.2100067921
0.2100069461
0.2100070764
0.2100070292
0.210006399
0.2100062215
0.2100058499
0.2100069418
0.2100069357
0.2100069334
0.2100069372
0.2100069434
0.210006949
0.2100069548
0.2100069586
0.2100069698
0.210006955
0.2100068769
0.2100067253
0.2100065337
0.2100063531
0.2100062147
0.2100061447
0.2100062069
0.2100063987
0.2100065648
0.2100066966
0.2100068839
0.2100069406
0.2100065874
0.210005548
0.2100060588
0.2100056548
0.210006956
0.2100069512
0.2100069521
0.2100069604
0.2100069686
0.2100069687
0.2100069709
0.2100069793
0.2100069943
0.2100069623
0.2100068312
0.2100066092
0.2100064315
0.2100063605
0.2100063659
0.2100063684
0.2100063111
0.2100062101
0.2100062204
0.2100064093
0.2100065449
0.2100063173
0.2100056947
0.2100046738
0.2100054455
0.2100053235
0.2100069764
0.2100069749
0.2100069828
0.2100069887
0.2100069639
0.2100069127
0.2100069181
0.2100069975
0.2100069714
0.2100068026
0.2100065184
0.2100062361
0.2100060892
0.210006068
0.2100060562
0.2100059655
0.2100058281
0.2100057651
0.2100058712
0.2100060402
0.2100059653
0.210005558
0.21000501
0.2100042192
0.2100046088
0.2100048366
0.2100070069
0.2100070106
0.210007008
0.2100069339
0.2100067757
0.2100066446
0.2100067136
0.2100069613
0.2100068241
0.2100064912
0.2100061344
0.2100058848
0.2100058138
0.2100057939
0.2100057172
0.2100055941
0.2100054954
0.2100054801
0.2100055599
0.2100056148
0.2100054447
0.2100050846
0.2100046946
0.2100039189
0.2100043162
0.2100043982
0.2100070521
0.2100070344
0.2100069077
0.2100066293
0.2100063391
0.2100062187
0.2100064077
0.2100067759
0.2100065646
0.2100061678
0.2100058577
0.2100056985
0.210005654
0.2100055948
0.2100054956
0.2100053943
0.2100053144
0.2100052727
0.2100052943
0.2100053098
0.2100052004
0.2100049884
0.2100047235
0.2100041059
0.2100044634
0.2100043147
0.2100070973
0.2100069344
0.2100065586
0.2100061242
0.2100058684
0.2100058769
0.2100061096
0.2100064407
0.2100062633
0.2100059364
0.2100057592
0.2100056237
0.2100055435
0.2100054546
0.2100053564
0.2100052623
0.2100051665
0.2100050864
0.2100050876
0.2100051191
0.2100050373
0.2100049517
0.2100049326
0.2100049029
0.2100044694
0.2100042681
0.2100070768
0.2100066515
0.2100060892
0.2100056916
0.2100056411
0.2100057202
0.2100058768
0.2100060485
0.2100059547
0.2100058106
0.2100057745
0.2100055889
0.2100054626
0.2100053635
0.2100052598
0.2100051533
0.2100050196
0.2100048915
0.2100048838
0.2100049463
0.2100048203
0.2100046882
0.2100045217
0.2100042795
0.2100041887
0.2100042211
0.210006961
0.2100063352
0.2100057636
0.2100055257
0.2100055802
0.2100055897
0.2100056156
0.2100057406
0.2100056778
0.2100057354
0.210005838
0.2100055751
0.2100054073
0.2100052776
0.2100051438
0.2100050119
0.210004859
0.2100047014
0.2100046948
0.2100048725
0.2100047851
0.210004729
0.2100046352
0.2100044246
0.2100038979
0.2100040344
0.2100067905
0.2100061548
0.2100057188
0.2100055434
0.210005544
0.2100054303
0.2100053695
0.2100055043
0.2100054993
0.2100057054
0.2100059064
0.210005584
0.2100053701
0.2100052028
0.2100050187
0.2100048333
0.2100046514
0.2100044867
0.2100044898
0.2100048378
0.2100047706
0.2100047404
0.2100045657
0.2100042166
0.2100037623
0.2100039741
0.2100064694
0.2100060226
0.2100058743
0.2100057808
0.2100056363
0.2100054217
0.2100052782
0.2100053592
0.2100054826
0.2100057178
0.2100059323
0.210005641
0.2100053801
0.210005184
0.2100049398
0.2100046903
0.2100044678
0.2100042909
0.2100042767
0.2100048052
0.2100049393
0.2100048094
0.2100047206
0.2100043876
0.2100039047
0.2100041709
0.2100059172
0.2100057328
0.2100059095
0.2100061384
0.2100059102
0.2100055707
0.2100053107
0.2100053003
0.2100054155
0.2100055947
0.2100058879
0.2100057837
0.2100054743
0.210005262
0.2100049953
0.2100046998
0.2100044276
0.2100042008
0.2100041506
0.2100046654
0.2100050998
0.2100051052
0.2100049993
0.2100046463
0.2100040139
0.21000456
0.2100053974
0.2100054829
0.2100056483
0.2100058152
0.2100060004
0.210005683
0.2100055429
0.2100056189
0.2100056573
0.2100057754
0.2100060766
0.210006103
0.2100058327
0.2100055984
0.210005329
0.2100049941
0.2100045931
0.2100042336
0.2100041819
0.2100046854
0.2100048527
0.2100052021
0.2100046629
0.2100041743
0.2100036347
0.2100045667
0.2100050965
0.2100054158
0.2100053954
0.2100054604
0.2100056403
0.2100061855
0.2100059326
0.2100058238
0.2100060096
0.2100061813
0.2100064197
0.2100063711
0.210006132
0.2100059101
0.2100057025
0.2100054499
0.2100051477
0.2100048229
0.210004812
0.210005293
0.2100051222
0.2100045282
0.2100042306
0.2100042304
0.2100039318
0.2100040519
0.210005001
0.2100054591
0.2100052874
0.2100052244
0.2100053641
0.2100057331
0.2100062506
0.2100063965
0.2100061652
0.2100063285
0.210006728
0.210006674
0.2100063982
0.2100061546
0.2100059753
0.2100058437
0.2100056902
0.2100054889
0.2100054443
0.2100055323
0.2100054418
0.2100053532
0.2100054273
0.2100054856
0.2100050102
0.2100042085
0.2100057755
0.2100057457
0.2100053872
0.2100051437
0.210005282
0.2100056903
0.2100062406
0.2100067712
0.2100067355
0.2100065743
0.2100070476
0.2100071026
0.210006757
0.2100064175
0.210006128
0.210005928
0.2100058377
0.2100057495
0.2100057185
0.2100056419
0.2100054164
0.2100051573
0.2100050218
0.2100057782
0.21000564
0.2100053895
0.2100062859
0.2100060632
0.2100058106
0.2100056011
0.2100055101
0.2100057607
0.210006221
0.2100066293
0.2100067879
0.2100068056
0.2100071098
0.2100074506
0.2100071143
0.2100068363
0.2100064801
0.2100061397
0.2100059405
0.2100058681
0.2100059027
0.2100058501
0.210005714
0.2100055589
0.2100053716
0.2100059585
0.2100059606
0.2100058415
0.2100065356
0.2100060335
0.2100056743
0.2100055228
0.2100054827
0.2100057643
0.2100062918
0.2100063063
0.2100061037
0.2100062128
0.210006859
0.2100076914
0.2100073589
0.2100073403
0.2100070261
0.2100066179
0.2100063156
0.2100061267
0.2100061527
0.2100061524
0.2100060129
0.2100058925
0.2100056479
0.2100059996
0.2100060701
0.2100059876
0.2100067
0.2100060103
0.2100055293
0.2100054291
0.2100055636
0.2100059761
0.2100060119
0.2100055321
0.2100053383
0.2100057391
0.2100063979
0.2100077154
0.2100067945
0.2100071693
0.2100071893
0.2100070242
0.2100068221
0.2100065568
0.2100065188
0.2100065263
0.2100063761
0.2100061904
0.2100058374
0.2100061493
0.2100062171
0.210006225
0.2100070969
0.2100066853
0.2100062866
0.2100061871
0.2100062512
0.2100058718
0.2100051919
0.210004946
0.2100053886
0.2100065981
0.2100085445
0.2100124449
0.2100073151
0.2100073874
0.2100073742
0.2100072633
0.2100074272
0.2100069405
0.2100068864
0.2100068484
0.2100067405
0.2100065573
0.2100061461
0.2100064811
0.2100065209
0.2100066028
0.2100070162
0.2100070746
0.2100069309
0.2100065663
0.2100058376
0.2100050027
0.2100045692
0.2100045619
0.2100047743
0.2100052287
0.2100059279
0.2100064148
0.2100058822
0.2100059275
0.2100064804
0.210006942
0.2100070915
0.2100070377
0.2100070025
0.2100069802
0.2100069415
0.2100068435
0.2100065508
0.2100067947
0.2100068231
0.2100066769
0.2100068402
0.2100067302
0.2100061152
0.2100052503
0.2100046692
0.2100045815
0.2100046889
0.2100049414
0.2100053486
0.2100061969
0.2100067264
0.2100064368
0.2100058635
0.2100061762
0.2100066839
0.2100070016
0.2100070224
0.2100069974
0.2100069746
0.2100069598
0.210006938
0.2100068314
0.2100069269
0.2100069375
0.2100062742
0.2100063409
0.2100062491
0.2100058286
0.2100052173
0.2100048894
0.2100049123
0.2100048873
0.210004602
0.2100043073
0.2100044471
0.2100049351
0.2100054565
0.2100055437
0.2100056752
0.2100061457
0.2100066763
0.2100069216
0.2100069568
0.2100069404
0.2100069285
0.2100069218
0.210006909
0.2100069196
0.2100069209
0.2100059129
0.2100059403
0.2100059931
0.2100059789
0.2100056738
0.2100051027
0.2100047666
0.2100043759
0.2100037659
0.2100034052
0.2100039118
0.2100048325
0.2100054575
0.2100057312
0.2100060197
0.2100062815
0.2100066166
0.2100068592
0.2100069189
0.2100069115
0.2100069011
0.2100068953
0.2100068944
0.2100068959
0.2100068928
0.2100055955
0.2100056374
0.2100056938
0.210005762
0.2100058486
0.2100056847
0.2100050548
0.2100045856
0.2100043828
0.2100042706
0.2100047256
0.2100051377
0.2100055475
0.2100058315
0.2100059493
0.2100060545
0.2100063139
0.2100066468
0.2100068412
0.2100068848
0.2100068819
0.2100068763
0.210006874
0.2100068752
0.2100068726
0.2100068779
0.2100052614
0.2100052951
0.2100053272
0.2100053345
0.2100054088
0.2100056449
0.2100056798
0.2100050733
0.2100045932
0.2100045061
0.2100050363
0.2100052418
0.2100054408
0.2100055126
0.2100055234
0.210005655
0.2100059297
0.2100062466
0.2100065721
0.2100067923
0.2100068605
0.2100068648
0.2100068615
0.210006863
0.2100068606
0.2100068696
0.2100064632
0.2100064679
0.210006473
0.2100064816
0.2100064953
0.210006517
0.2100065517
0.2100066078
0.2100066931
0.2100067904
0.2100068188
0.2100067061
0.2100065201
0.210006369
0.2100062687
0.2100061935
0.2100061788
0.2100062674
0.2100064625
0.2100066958
0.2100069363
0.2100070216
0.2100070232
0.2100069288
0.210006736
0.2100065606
0.2100064679
0.2100064705
0.2100064732
0.2100064815
0.2100064953
0.2100065172
0.2100065525
0.2100066082
0.2100066819
0.2100067327
0.2100066957
0.210006588
0.2100064903
0.2100064097
0.2100062625
0.2100060868
0.2100060318
0.2100062129
0.2100064825
0.2100066088
0.210006804
0.2100069601
0.2100069292
0.2100067949
0.2100066699
0.2100065684
0.2100064739
0.2100064747
0.2100064711
0.2100064776
0.2100064919
0.2100065153
0.2100065538
0.2100066128
0.2100066759
0.210006685
0.2100066187
0.2100065536
0.2100065161
0.2100063641
0.2100060724
0.2100058117
0.210005724
0.2100059248
0.2100063452
0.2100065745
0.210006716
0.2100069017
0.2100068875
0.2100067267
0.2100065777
0.2100064022
0.2100064839
0.2100064845
0.2100064798
0.2100064857
0.2100064997
0.2100065219
0.2100065579
0.2100066094
0.2100066551
0.2100066456
0.2100065908
0.21000656
0.2100065121
0.2100063029
0.2100059383
0.2100056298
0.2100055328
0.2100057385
0.2100062363
0.2100066239
0.2100067376
0.2100068571
0.2100068384
0.2100066312
0.2100064206
0.2100062626
0.2100064991
0.2100065004
0.2100064965
0.2100065035
0.2100065188
0.2100065407
0.2100065753
0.2100066203
0.2100066653
0.2100066689
0.2100066468
0.2100066333
0.2100065749
0.2100063536
0.210005979
0.2100056698
0.2100055828
0.2100058053
0.2100063351
0.210006747
0.210006818
0.2100068108
0.2100067203
0.2100065284
0.2100063168
0.2100061829
0.2100065213
0.2100065238
0.2100065221
0.2100065317
0.2100065492
0.2100065683
0.2100065949
0.2100066192
0.2100066723
0.210006727
0.2100067699
0.2100067637
0.2100066795
0.2100065122
0.2100062689
0.2100060377
0.210005988
0.2100061949
0.2100065329
0.2100067112
0.2100067116
0.2100066932
0.2100067004
0.2100066742
0.2100062701
0.2100061424
0.2100065535
0.2100065586
0.2100065622
0.2100065787
0.2100066039
0.2100066253
0.2100066531
0.2100066674
0.2100067301
0.2100067872
0.2100068247
0.2100067887
0.210006692
0.2100066013
0.2100065366
0.2100064914
0.2100064684
0.2100064568
0.2100064581
0.2100064446
0.2100064854
0.2100067438
0.2100069489
0.2100068654
0.2100063317
0.2100060372
0.2100065994
0.2100066094
0.2100066229
0.2100066491
0.2100066778
0.2100066889
0.2100067131
0.2100067369
0.2100068041
0.2100068083
0.2100067506
0.2100066287
0.2100065179
0.2100064642
0.2100064519
0.2100064196
0.210006332
0.2100062276
0.2100062022
0.2100062336
0.2100064104
0.2100068381
0.2100068844
0.2100064163
0.2100064791
0.2100059159
0.210006664
0.2100066811
0.2100067059
0.2100067258
0.2100067261
0.2100067058
0.2100067369
0.2100068213
0.2100068599
0.2100067505
0.2100065826
0.2100064199
0.2100063251
0.2100062807
0.2100062407
0.2100061727
0.2100060859
0.2100060406
0.2100060681
0.2100061928
0.2100063841
0.2100066528
0.2100064584
0.210005552
0.2100064892
0.2100058532
0.2100067523
0.2100067721
0.2100067801
0.2100067407
0.2100066939
0.2100066822
0.2100067458
0.2100068475
0.2100068173
0.2100066092
0.2100064027
0.2100062751
0.2100062098
0.2100061392
0.210006075
0.2100060416
0.2100060061
0.2100059763
0.2100059846
0.2100060937
0.2100061104
0.210006189
0.2100059607
0.2100054353
0.2100061708
0.2100058129
0.2100068649
0.2100068491
0.2100067788
0.2100066875
0.2100067176
0.2100067181
0.2100067621
0.2100067501
0.2100066978
0.2100064717
0.2100062775
0.2100061811
0.2100060969
0.2100059665
0.2100058853
0.2100059189
0.2100059406
0.2100058893
0.2100058387
0.2100058606
0.2100057507
0.2100057766
0.210005721
0.2100056032
0.2100056934
0.210005787
0.2100069801
0.2100068547
0.2100067135
0.2100066992
0.2100067102
0.2100065396
0.2100064738
0.2100065243
0.2100065746
0.2100064055
0.2100062135
0.2100060753
0.2100059182
0.2100057018
0.2100055879
0.21000567
0.2100057908
0.2100057387
0.2100056545
0.2100056059
0.2100054698
0.2100054195
0.2100054635
0.2100059139
0.2100051254
0.2100051904
0.2100070528
0.2100068064
0.2100066902
0.2100067225
0.2100065013
0.2100061059
0.2100059414
0.2100061408
0.2100064888
0.210006415
0.2100062138
0.2100059814
0.2100057345
0.210005456
0.2100053056
0.2100053518
0.2100054926
0.2100054835
0.2100054568
0.2100054457
0.2100053799
0.2100053011
0.2100052742
0.2100051203
0.2100044123
0.2100045489
0.2100070456
0.2100067625
0.2100066729
0.2100066187
0.2100062081
0.2100057264
0.2100055535
0.2100057898
0.2100063542
0.2100064511
0.2100062893
0.2100059961
0.2100056595
0.2100053256
0.210005112
0.2100050692
0.2100051215
0.2100051372
0.2100052183
0.2100053422
0.2100054159
0.2100053449
0.2100050378
0.210004504
0.2100039359
0.210004157
0.2100069298
0.2100067244
0.2100066689
0.210006634
0.2100062369
0.2100056311
0.2100053551
0.2100055034
0.2100058654
0.2100061871
0.2100062959
0.210006127
0.2100057919
0.2100054177
0.2100051143
0.2100049427
0.2100048415
0.2100047902
0.2100049507
0.2100053603
0.2100054383
0.2100055222
0.2100051146
0.2100044745
0.2100038549
0.210004028
0.2100067128
0.2100066543
0.2100066268
0.2100065814
0.2100064819
0.2100058137
0.2100054217
0.210005463
0.2100055207
0.2100056635
0.2100059523
0.2100063165
0.2100061004
0.2100058366
0.2100055125
0.210005099
0.2100047753
0.2100045454
0.2100046644
0.2100051959
0.2100054873
0.2100054607
0.2100055004
0.2100052081
0.2100041974
0.2100041416
0.2100065232
0.2100065045
0.2100062917
0.2100063725
0.2100065128
0.2100063571
0.2100062123
0.2100059972
0.2100058032
0.2100057789
0.2100059944
0.2100064144
0.2100064629
0.2100063551
0.2100061195
0.2100056828
0.2100049949
0.210004535
0.2100045667
0.2100050447
0.2100057086
0.2100055934
0.2100056226
0.2100055133
0.2100042032
0.210004158
0.2100063913
0.2100060298
0.2100057056
0.2100057817
0.2100062047
0.2100066783
0.2100065846
0.210006685
0.2100064236
0.2100061486
0.2100062608
0.210006591
0.2100065988
0.2100066539
0.2100065102
0.210006147
0.210005652
0.2100050362
0.2100048852
0.2100052211
0.2100058681
0.2100058596
0.2100061447
0.2100056612
0.2100045936
0.2100038426
0.2100065617
0.2100058913
0.2100053903
0.2100053426
0.2100056584
0.2100064451
0.2100067139
0.2100068201
0.210006703
0.2100067481
0.2100068418
0.2100068577
0.2100067045
0.2100067151
0.2100068374
0.2100067786
0.2100064894
0.2100059491
0.2100057464
0.2100056649
0.210006272
0.2100059725
0.2100056934
0.2100062207
0.2100053219
0.2100042185
0.2100066031
0.2100060611
0.210005387
0.2100053317
0.2100057628
0.2100064029
0.2100066712
0.2100069844
0.2100069291
0.2100068239
0.2100069926
0.2100070726
0.2100068931
0.210006728
0.2100067295
0.2100068104
0.2100068223
0.2100065864
0.210006368
0.2100062304
0.2100064027
0.2100052164
0.2100049027
0.2100053211
0.2100060132
0.2100057637
0.210006866
0.210006738
0.2100065414
0.2100062784
0.2100062768
0.2100063871
0.2100066313
0.2100068092
0.2100069693
0.2100069571
0.2100070319
0.2100071783
0.2100070236
0.2100069242
0.2100068023
0.2100067254
0.2100068251
0.2100068433
0.2100068441
0.2100066859
0.2100067571
0.2100058492
0.21000566
0.2100061099
0.2100064063
0.2100062526
0.2100069533
0.2100066854
0.2100064313
0.2100059834
0.2100058179
0.210005841
0.2100060622
0.210006569
0.2100067553
0.2100069324
0.2100069865
0.2100070799
0.2100069571
0.2100070034
0.2100069669
0.2100068226
0.2100067959
0.2100067198
0.210006784
0.2100067397
0.2100067633
0.2100064479
0.2100063463
0.2100065511
0.2100064327
0.2100063771
0.2100069994
0.2100067053
0.2100063858
0.2100058452
0.2100056173
0.2100056873
0.2100058822
0.2100062999
0.210006717
0.2100070309
0.2100069832
0.2100071655
0.210006823
0.2100069131
0.2100069202
0.210006895
0.2100068785
0.2100067774
0.2100067767
0.21000675
0.2100067215
0.2100066587
0.2100066271
0.2100066146
0.2100064925
0.2100065386
0.2100071735
0.2100070033
0.2100068227
0.2100066068
0.2100062975
0.2100061156
0.2100063621
0.210006978
0.2100073033
0.2100075436
0.2100080328
0.2100058356
0.2100043742
0.210006496
0.2100068766
0.2100068655
0.2100069282
0.2100067914
0.2100068298
0.210006772
0.2100067326
0.2100066524
0.2100065821
0.2100066347
0.2100066361
0.2100066747
0.2100070795
0.2100071027
0.2100070434
0.2100068256
0.2100064707
0.2100063791
0.2100068824
0.2100070385
0.2100068938
0.2100066769
0.2100067355
0.2100064468
0.2100066763
0.2100064291
0.2100066753
0.2100067722
0.2100067713
0.2100067418
0.2100067462
0.2100067152
0.2100066996
0.2100066563
0.2100066211
0.2100066465
0.2100066805
0.2100068179
0.2100069578
0.210006956
0.210006689
0.2100065298
0.2100068241
0.2100068439
0.2100067167
0.2100066728
0.2100065442
0.2100063804
0.21000643
0.2100065716
0.2100064743
0.2100065837
0.2100066849
0.2100067621
0.2100066867
0.2100066641
0.2100066324
0.2100066189
0.210006599
0.2100066084
0.2100065909
0.2100066038
0.2100064015
0.2100065624
0.2100065648
0.2100063525
0.2100063583
0.2100065814
0.2100064824
0.2100061455
0.2100054622
0.2100048203
0.2100046611
0.2100049364
0.2100057872
0.2100064074
0.2100064709
0.2100065214
0.2100066736
0.2100066532
0.2100066119
0.2100065715
0.2100065515
0.2100065347
0.210006546
0.2100065239
0.2100065262
0.210006035
0.2100062151
0.2100062737
0.210006165
0.2100060381
0.2100061184
0.2100060667
0.2100055046
0.2100045396
0.2100038096
0.2100039358
0.2100046863
0.2100061829
0.2100062559
0.2100063198
0.2100064805
0.2100066309
0.2100066311
0.2100065836
0.2100065387
0.2100065112
0.2100064923
0.2100064897
0.2100064776
0.2100064723
0.2100057429
0.2100059858
0.2100061852
0.2100061683
0.2100060894
0.2100060155
0.2100060632
0.2100061069
0.2100056631
0.2100052783
0.2100051509
0.2100053536
0.210005662
0.2100060264
0.2100061993
0.2100063587
0.2100065169
0.2100065823
0.2100065627
0.2100065168
0.2100064834
0.2100064632
0.2100064538
0.2100064479
0.210006442
0.2100064463
0.2100055052
0.2100058241
0.2100061244
0.2100061956
0.2100060459
0.2100058912
0.2100058209
0.2100057225
0.2100054316
0.2100050668
0.2100048047
0.2100046657
0.2100048736
0.2100056459
0.2100061312
0.2100062959
0.2100063738
0.2100064707
0.2100065357
0.2100065303
0.2100064893
0.2100064576
0.21000644
0.2100064354
0.2100064285
0.21000644
0.2100061564
0.2100061612
0.2100061656
0.2100061727
0.2100061836
0.2100062004
0.2100062265
0.2100062684
0.2100063362
0.2100064389
0.2100065598
0.2100066347
0.2100066144
0.2100065329
0.2100064457
0.2100063686
0.2100063345
0.2100064018
0.2100065616
0.210006686
0.2100067323
0.2100067369
0.2100067632
0.2100068016
0.2100067556
0.2100066428
0.2100061612
0.2100061659
0.2100061689
0.2100061755
0.2100061865
0.2100062033
0.2100062294
0.2100062704
0.2100063331
0.2100064132
0.2100064811
0.2100065019
0.210006476
0.210006419
0.2100063135
0.21000615
0.2100060333
0.2100061813
0.2100064513
0.2100065704
0.2100066578
0.2100067247
0.2100067188
0.2100066879
0.2100065975
0.210006443
0.2100061664
0.2100061699
0.2100061668
0.2100061708
0.2100061814
0.2100061988
0.2100062261
0.2100062693
0.2100063323
0.2100063975
0.2100064284
0.2100064148
0.2100063714
0.2100062649
0.2100060429
0.2100057653
0.2100056258
0.2100058069
0.2100062155
0.2100065013
0.2100066062
0.2100067267
0.2100067379
0.2100066646
0.2100065004
0.2100061975
0.2100061749
0.2100061782
0.210006173
0.2100061752
0.2100061851
0.2100062015
0.2100062268
0.2100062651
0.210006317
0.2100063584
0.2100063607
0.2100063262
0.2100062501
0.210006065
0.2100057651
0.2100054606
0.2100053239
0.2100054751
0.21000595
0.2100064632
0.2100065936
0.2100067194
0.2100067572
0.2100066561
0.2100064346
0.210006113
0.2100061873
0.210006191
0.2100061859
0.2100061883
0.2100061988
0.2100062154
0.2100062408
0.2100062769
0.2100063262
0.2100063624
0.2100063609
0.2100063161
0.210006207
0.2100059898
0.2100057003
0.2100054019
0.2100052422
0.2100053558
0.2100058651
0.2100065248
0.2100066777
0.2100067564
0.2100067494
0.2100066262
0.2100064323
0.2100061965
0.210006205
0.2100062094
0.2100062051
0.2100062087
0.2100062202
0.2100062356
0.2100062575
0.2100062822
0.2100063251
0.2100063753
0.2100064249
0.2100064444
0.2100063894
0.2100062205
0.2100059458
0.2100056585
0.2100054888
0.2100055937
0.2100060924
0.2100066438
0.2100067307
0.2100067509
0.2100067255
0.2100066197
0.2100064794
0.2100063545
0.2100062298
0.2100062357
0.2100062338
0.2100062408
0.2100062563
0.2100062742
0.210006299
0.2100063209
0.210006373
0.2100064332
0.2100065098
0.2100065719
0.2100065826
0.2100065273
0.2100064059
0.2100062429
0.2100061344
0.2100062083
0.2100064354
0.210006631
0.2100066475
0.2100066844
0.2100066966
0.2100065857
0.2100065363
0.2100063909
0.2100062645
0.2100062732
0.2100062759
0.2100062892
0.2100063106
0.2100063299
0.2100063566
0.210006378
0.2100064433
0.210006493
0.2100065404
0.210006558
0.2100065504
0.2100065445
0.2100065573
0.2100065775
0.2100065693
0.2100065244
0.2100065033
0.2100065046
0.2100065161
0.2100065683
0.2100065684
0.2100063281
0.2100064978
0.2100063166
0.210006313
0.2100063263
0.2100063367
0.2100063573
0.2100063786
0.2100063909
0.2100064149
0.2100064639
0.2100065481
0.2100065582
0.2100065401
0.2100064916
0.2100064422
0.2100064217
0.2100064377
0.2100064566
0.2100064259
0.2100063819
0.210006366
0.2100063982
0.2100064126
0.2100064374
0.2100061855
0.2100055935
0.2100064433
0.2100062562
0.2100063811
0.2100064001
0.2100064166
0.2100064305
0.2100064296
0.2100064244
0.2100064388
0.2100065462
0.210006644
0.2100065791
0.2100064923
0.2100064107
0.210006342
0.2100062846
0.2100062621
0.2100062769
0.2100062658
0.2100062447
0.2100062199
0.2100062624
0.2100062215
0.2100062206
0.2100057376
0.2100053717
0.2100063891
0.2100062197
0.210006475
0.2100064927
0.210006495
0.2100064745
0.2100064456
0.2100064256
0.2100064006
0.2100065539
0.2100066881
0.2100065621
0.2100064305
0.2100063351
0.2100062162
0.2100060602
0.2100059733
0.2100060036
0.210006055
0.2100060585
0.2100059832
0.2100059211
0.2100057516
0.2100056679
0.2100053948
0.2100054257
0.2100058322
0.2100060572
0.2100065974
0.2100065834
0.2100065407
0.2100064868
0.210006414
0.2100063047
0.2100061698
0.2100063882
0.2100066461
0.2100065346
0.210006376
0.2100062525
0.210006013
0.2100057151
0.2100055708
0.2100055864
0.2100057207
0.210005778
0.2100056712
0.2100055737
0.2100053969
0.2100052725
0.2100053157
0.2100056158
0.2100051874
0.210005389
0.2100067348
0.2100066496
0.2100065657
0.2100064916
0.2100062867
0.2100060087
0.2100058757
0.2100060976
0.2100064859
0.2100065138
0.210006341
0.2100062009
0.2100058061
0.2100054325
0.2100051699
0.2100050918
0.2100052699
0.2100054119
0.2100053673
0.2100053054
0.2100052106
0.2100050387
0.2100050111
0.2100049206
0.2100044849
0.2100046017
0.2100068469
0.2100066911
0.2100065861
0.2100064811
0.2100060725
0.2100056948
0.2100055253
0.2100056934
0.2100060704
0.2100064041
0.2100062881
0.2100062758
0.2100057783
0.2100053066
0.2100049145
0.210004749
0.2100048553
0.2100049899
0.2100050509
0.2100050881
0.2100051454
0.2100049984
0.2100047031
0.2100042372
0.2100038055
0.2100040104
0.210006885
0.2100067124
0.2100066067
0.2100065263
0.2100060898
0.2100055354
0.2100052502
0.2100052556
0.2100054488
0.2100058354
0.2100060042
0.210006391
0.2100059752
0.2100054372
0.2100049534
0.2100046668
0.210004593
0.2100045918
0.2100047033
0.210004935
0.2100052821
0.2100052127
0.2100047465
0.2100041742
0.2100035749
0.2100036883
0.2100068085
0.2100066182
0.2100064778
0.2100065043
0.2100063645
0.2100057299
0.2100054439
0.2100053347
0.2100052707
0.2100054033
0.2100056886
0.2100063218
0.2100063962
0.2100061127
0.2100054639
0.2100048429
0.2100045297
0.2100043325
0.2100044519
0.2100048194
0.210005572
0.2100057347
0.2100056728
0.2100047669
0.2100037591
0.2100036441
0.2100067076
0.210006439
0.2100061425
0.2100063342
0.2100067434
0.2100065847
0.2100062641
0.2100058448
0.2100055009
0.2100054192
0.2100055692
0.2100059129
0.2100065336
0.2100064462
0.2100060813
0.2100054864
0.2100048581
0.2100044353
0.2100044901
0.2100047515
0.2100058137
0.2100059231
0.2100058561
0.2100055823
0.2100039735
0.2100036998
0.2100065458
0.2100059973
0.2100056601
0.210005806
0.2100062478
0.2100068101
0.2100066934
0.2100065129
0.2100060443
0.2100056997
0.2100056905
0.2100058977
0.2100065762
0.2100065661
0.2100065064
0.2100061839
0.2100058444
0.210004947
0.2100048481
0.2100048146
0.210006054
0.2100061365
0.2100060805
0.2100056436
0.2100044946
0.2100037483
0.210006489
0.2100057619
0.2100053142
0.2100053453
0.2100056831
0.2100063348
0.2100068379
0.2100068359
0.2100066486
0.2100064729
0.2100064906
0.2100066252
0.2100067314
0.2100066791
0.2100066441
0.2100065603
0.2100064756
0.2100057921
0.2100062484
0.2100052447
0.2100064096
0.2100059583
0.2100056974
0.2100059732
0.210005099
0.2100046616
0.210006548
0.2100059008
0.2100053897
0.2100054898
0.2100058362
0.2100061336
0.2100066747
0.2100068125
0.2100067182
0.2100065861
0.2100065833
0.2100066613
0.210006695
0.2100066626
0.2100066892
0.2100066356
0.2100066883
0.2100063324
0.2100060881
0.2100057465
0.210006175
0.2100051782
0.2100047475
0.2100048047
0.2100058077
0.2100058227
0.2100069515
0.2100067845
0.2100065898
0.210006333
0.2100061768
0.2100062431
0.2100064458
0.2100066764
0.2100067675
0.2100067433
0.2100066912
0.2100067054
0.2100066961
0.2100067052
0.2100066987
0.2100066622
0.2100067126
0.2100065889
0.2100065003
0.2100060439
0.2100063004
0.2100053924
0.2100052898
0.2100054515
0.2100063062
0.2100065512
0.2100069721
0.2100066815
0.2100064754
0.2100062191
0.2100058571
0.210005663
0.2100057779
0.2100063484
0.2100065528
0.2100064665
0.210006318
0.2100059843
0.2100062607
0.210006431
0.2100065643
0.2100065884
0.2100066722
0.2100065993
0.2100066538
0.2100063073
0.2100064296
0.2100058762
0.2100059086
0.2100060463
0.210006424
0.2100064741
0.2100068956
0.2100066943
0.2100063396
0.2100058964
0.2100056301
0.2100055888
0.2100056746
0.2100058339
0.2100064711
0.2100064711
0.2100065689
0.2100061618
0.2100062967
0.2100065041
0.2100065021
0.2100065289
0.2100065573
0.2100065449
0.2100065876
0.2100064367
0.2100064607
0.2100061948
0.2100062416
0.2100063143
0.2100064635
0.210006498
0.210006965
0.2100068686
0.2100067606
0.2100065696
0.2100061656
0.2100060326
0.2100061698
0.2100063596
0.2100062355
0.2100057153
0.2100049043
0.210001146
0.21000252
0.2100058967
0.210006206
0.2100063174
0.2100060937
0.2100063874
0.2100064759
0.210006421
0.2100064229
0.2100063166
0.2100063379
0.2100063533
0.2100064284
0.2100064169
0.2100069644
0.2100069304
0.21000691
0.2100068337
0.21000665
0.2100064681
0.210006499
0.210006389
0.2100062868
0.2100061889
0.2100063603
0.2100065669
0.2100064658
0.2100064253
0.2100063608
0.2100064142
0.2100063451
0.2100063523
0.2100063703
0.2100063433
0.2100063395
0.2100063032
0.2100063247
0.2100063058
0.2100063391
0.2100069438
0.2100069815
0.2100069741
0.2100068888
0.2100067507
0.2100066328
0.2100064308
0.2100062834
0.2100062095
0.2100057785
0.2100051928
0.210005026
0.2100054282
0.2100060227
0.2100062718
0.210006319
0.2100063317
0.2100063004
0.2100062992
0.2100062714
0.2100062616
0.2100062452
0.2100062617
0.2100062355
0.2100062476
0.2100065925
0.2100067327
0.2100067746
0.2100066627
0.2100065212
0.2100063555
0.2100061676
0.2100060403
0.2100054322
0.2100047126
0.2100043561
0.210004513
0.2100052388
0.2100062301
0.2100063195
0.2100063535
0.2100063361
0.2100062862
0.2100062527
0.2100062229
0.2100062072
0.2100061932
0.2100061977
0.2100061817
0.2100061845
0.2100062655
0.2100064858
0.2100065797
0.2100064786
0.2100063211
0.2100062162
0.2100061446
0.2100058196
0.2100046411
0.2100036378
0.2100035577
0.2100041876
0.2100055482
0.2100061285
0.2100062705
0.2100063139
0.2100063139
0.2100062685
0.2100062274