/*--------------------------------*- C++ -*----------------------------------*\
  =========                 |
  \\      /  F ield         | OpenFOAM: The Open Source CFD Toolbox
   \\    /   O peration     | Website:  https://openfoam.org
    \\  /    A nd           | Version:  8
     \\/     M anipulation  |
\*---------------------------------------------------------------------------*/
FoamFile
{
    version     2.0;
    format      ascii;
    class       volScalarField;
    location    "0.4";
    object      p;
}
// * * * * * * * * * * * * * * * * * * * * * * * * * * * * * * * * * * * * * //

dimensions      [1 -1 -2 0 0 0 0];

internalField   nonuniform List<scalar> 
67410
(
100003.7119
100003.7121
100003.7125
100003.7132
100003.7142
100003.7157
100003.7177
100003.7203
100003.7233
100003.726
100003.7278
100003.7305
100003.7375
100003.7471
100003.7576
100003.7671
100003.7719
100003.7718
100003.7694
100003.7774
100003.7821
100003.791
100003.7959
100003.8036
100003.8123
100003.8276
100003.7125
100003.7127
100003.7131
100003.7137
100003.7147
100003.716
100003.7176
100003.7195
100003.7212
100003.7207
100003.7193
100003.7201
100003.7215
100003.7229
100003.7266
100003.7328
100003.7392
100003.7388
100003.7471
100003.7601
100003.7686
100003.7772
100003.7794
100003.7829
100003.7745
100003.7706
100003.7139
100003.714
100003.7144
100003.715
100003.716
100003.7173
100003.719
100003.7208
100003.7217
100003.7212
100003.7211
100003.7211
100003.7209
100003.7231
100003.7303
100003.741
100003.7492
100003.7469
100003.7497
100003.762
100003.7739
100003.7816
100003.7858
100003.7929
100003.7792
100003.7824
100003.7161
100003.7162
100003.7165
100003.7171
100003.718
100003.7192
100003.7207
100003.7218
100003.7218
100003.7206
100003.7203
100003.72
100003.72
100003.7229
100003.7311
100003.7426
100003.7514
100003.7507
100003.7521
100003.7619
100003.7741
100003.7781
100003.7741
100003.7769
100003.7694
100003.781
100003.7191
100003.7193
100003.7196
100003.7203
100003.7212
100003.7222
100003.7236
100003.7243
100003.725
100003.7239
100003.7241
100003.7253
100003.7267
100003.7292
100003.7367
100003.7481
100003.7584
100003.7637
100003.764
100003.7648
100003.7637
100003.7511
100003.7348
100003.7277
100003.7451
100003.7748
100003.7233
100003.7234
100003.7239
100003.7245
100003.7255
100003.7264
100003.7273
100003.7278
100003.7302
100003.7313
100003.7325
100003.7331
100003.7348
100003.739
100003.7468
100003.7574
100003.7676
100003.7697
100003.7593
100003.7418
100003.722
100003.6896
100003.6655
100003.6282
100003.7001
100003.7704
100003.7287
100003.7288
100003.7293
100003.73
100003.7311
100003.7316
100003.7317
100003.7327
100003.7365
100003.738
100003.7386
100003.738
100003.7387
100003.7427
100003.7493
100003.757
100003.761
100003.751
100003.7288
100003.6976
100003.6647
100003.6122
100003.5973
100003.5856
100003.6486
100003.8055
100003.7355
100003.7354
100003.736
100003.7361
100003.7351
100003.733
100003.7322
100003.7369
100003.7417
100003.7406
100003.7392
100003.7368
100003.7344
100003.7334
100003.7342
100003.7353
100003.7297
100003.7116
100003.6878
100003.6574
100003.6265
100003.5915
100003.645
100003.7623
100003.6163
100003.8709
100003.744
100003.743
100003.7423
100003.7384
100003.7341
100003.7311
100003.7299
100003.7384
100003.7426
100003.7397
100003.7367
100003.7303
100003.722
100003.714
100003.7083
100003.7046
100003.6987
100003.6858
100003.6682
100003.6459
100003.6379
100003.6418
100003.7764
100004.1175
100003.6905
100003.9353
100003.7544
100003.7501
100003.7442
100003.7356
100003.7296
100003.7262
100003.7257
100003.736
100003.7415
100003.7399
100003.7338
100003.7224
100003.709
100003.6971
100003.6895
100003.687
100003.6851
100003.68
100003.6707
100003.6601
100003.6744
100003.7064
100003.8365
100004.1085
100003.8332
100003.9443
100003.7666
100003.7522
100003.7424
100003.7312
100003.7217
100003.7186
100003.7177
100003.7321
100003.7456
100003.7453
100003.7353
100003.7197
100003.7014
100003.6894
100003.6853
100003.6855
100003.6884
100003.6938
100003.6966
100003.6989
100003.7294
100003.7788
100003.8512
100003.9753
100003.8838
100003.9055
100003.7788
100003.7519
100003.7432
100003.7266
100003.7175
100003.7255
100003.7279
100003.7337
100003.7556
100003.7605
100003.7464
100003.7271
100003.7064
100003.7026
100003.7089
100003.7125
100003.7151
100003.7306
100003.7472
100003.7512
100003.7766
100003.8365
100003.9093
100003.9673
100003.9445
100003.9248
100003.7894
100003.7553
100003.7477
100003.7252
100003.7318
100003.7626
100003.7769
100003.765
100003.7713
100003.7855
100003.7686
100003.7475
100003.7282
100003.7371
100003.7548
100003.7667
100003.7747
100003.7958
100003.8202
100003.8187
100003.8209
100003.8761
100003.9491
100004.0157
100004.0783
100004.0117
100003.7986
100003.7616
100003.7612
100003.7388
100003.7648
100003.8154
100003.8418
100003.8257
100003.7979
100003.8148
100003.8033
100003.7789
100003.7547
100003.7726
100003.807
100003.8387
100003.8658
100003.8908
100003.9079
100003.9042
100003.8685
100003.8941
100003.9861
100004.0988
100004.1657
100004.0919
100003.8018
100003.7591
100003.7751
100003.7568
100003.7779
100003.831
100003.8724
100003.8746
100003.8489
100003.8526
100003.8512
100003.8204
100003.7781
100003.8032
100003.8571
100003.9157
100003.9721
100004.0101
100003.9881
100003.9761
100003.954
100003.8933
100003.9717
100004.115
100004.2076
100004.1505
100003.8113
100003.7541
100003.781
100003.7878
100003.7889
100003.8029
100003.8532
100003.8794
100003.8908
100003.8893
100003.9059
100003.8642
100003.7929
100003.7927
100003.8512
100003.9437
100004.0471
100004.1241
100004.0804
100004.0543
100004.0072
100003.9451
100003.9318
100004.0555
100004.2205
100004.2009
100003.8382
100003.7623
100003.7957
100003.8046
100003.8351
100003.8278
100003.8117
100003.8372
100003.8671
100003.8832
100003.9041
100003.885
100003.8187
100003.8013
100003.842
100003.933
100004.0692
100004.1748
100004.169
100004.0352
100004.0404
100004.0063
100003.9395
100004.0389
100004.2865
100004.2743
100003.8929
100003.8281
100003.874
100003.824
100003.8228
100003.839
100003.8434
100003.8158
100003.8377
100003.8585
100003.8866
100003.8783
100003.8304
100003.7995
100003.8224
100003.9047
100004.0457
100004.1776
100004.1874
100004.1197
100004.0464
100003.9184
100003.888
100004.0811
100004.3811
100004.4272
100003.8987
100003.8378
100003.8988
100003.8692
100003.8222
100003.8146
100003.8454
100003.8526
100003.8541
100003.8529
100003.8737
100003.8832
100003.8452
100003.8122
100003.8017
100003.8343
100003.9223
100004.0315
100004.1032
100004.0202
100003.9398
100003.8857
100004.0056
100004.0138
100004.1189
100004.3013
100003.8672
100003.7983
100003.8647
100003.8792
100003.851
100003.8105
100003.833
100003.8588
100003.893
100003.9183
100003.9282
100003.9634
100003.8929
100003.8478
100003.8206
100003.8042
100003.8245
100003.8624
100003.9
100003.9112
100003.8734
100003.911
100004.0099
100003.9799
100003.8734
100003.8516
100003.8556
100003.7879
100003.7923
100003.7906
100003.8015
100003.8031
100003.8122
100003.8499
100003.8799
100003.9188
100003.8941
100004.0477
100003.909
100003.8874
100003.8567
100003.8255
100003.8166
100003.8102
100003.824
100003.8252
100003.7984
100003.8156
100003.8386
100003.8171
100003.7886
100003.7884
100003.8636
100003.8191
100003.8219
100003.8203
100003.8377
100003.8538
100003.8509
100003.8552
100003.8876
100003.9734
100004.0169
100004.3944
100004.0081
100004.0004
100003.9334
100003.8522
100003.8398
100003.801
100003.7933
100003.7843
100003.7629
100003.7601
100003.7533
100003.7607
100003.7579
100003.7647
100003.8557
100003.8002
100003.7853
100003.8052
100003.8652
100003.9001
100003.8886
100003.863
100003.8628
100003.904
100003.8537
100004.1185
100003.7445
100003.8838
100003.8716
100003.8392
100003.851
100003.7946
100003.7791
100003.7637
100003.747
100003.7427
100003.7296
100003.7513
100003.7563
100003.7707
100003.8824
100003.8448
100003.8352
100003.8215
100003.8378
100003.8553
100003.8591
100003.8914
100004.0991
100004.6146
100005.3361
100008.5751
100004.2775
100004.2026
100004.0371
100003.8912
100004.0559
100003.7901
100003.7922
100003.7551
100003.7407
100003.7376
100003.7277
100003.7433
100003.7509
100003.7695
100003.8778
100003.8491
100003.8434
100003.8195
100003.7931
100003.7629
100003.7422
100003.7593
100003.8164
100003.9156
100004.0321
100004.3495
100003.8644
100003.7428
100003.7418
100003.7614
100003.7796
100003.7603
100003.7546
100003.7412
100003.7319
100003.7307
100003.7235
100003.7339
100003.7408
100003.8795
100003.8525
100003.8436
100003.7993
100003.7467
100003.6938
100003.7004
100003.7824
100003.9588
100004.2162
100004.5228
100004.6726
100004.2726
100003.8333
100003.8491
100003.7889
100003.7794
100003.7483
100003.7361
100003.7264
100003.7201
100003.7202
100003.7164
100003.7251
100003.728
100003.8849
100003.8346
100003.8185
100003.7617
100003.6885
100003.6169
100003.6794
100003.8706
100004.1204
100004.2794
100004.2568
100004.0683
100003.8013
100003.6309
100003.6734
100003.7025
100003.7234
100003.7226
100003.7178
100003.7117
100003.7075
100003.7066
100003.706
100003.7076
100003.7087
100003.903
100003.8274
100003.8219
100003.7949
100003.7554
100003.6587
100003.6932
100003.9304
100004.2437
100004.4083
100004.3373
100004.0882
100003.7613
100003.6836
100003.6989
100003.7013
100003.7039
100003.7036
100003.7012
100003.6982
100003.6961
100003.6957
100003.6955
100003.699
100003.6976
100003.9199
100003.8188
100003.8151
100003.8067
100003.8245
100003.8134
100003.7609
100003.7276
100003.8816
100003.9795
100003.9177
100003.7692
100003.6948
100003.6807
100003.6895
100003.6908
100003.6919
100003.6921
100003.6911
100003.6891
100003.6876
100003.6871
100003.6869
100003.6895
100003.6886
100003.6923
100003.9327
100003.8112
100003.8026
100003.7938
100003.8305
100003.8887
100003.9287
100003.8609
100003.7752
100003.7593
100003.7463
100003.7311
100003.6971
100003.6749
100003.676
100003.6789
100003.6795
100003.6803
100003.6815
100003.682
100003.6814
100003.6811
100003.681
100003.6836
100003.6829
100003.6892
100003.5894
100003.5895
100003.5898
100003.5904
100003.5912
100003.5924
100003.594
100003.5961
100003.5985
100003.6006
100003.6003
100003.5964
100003.591
100003.5913
100003.5963
100003.6026
100003.6063
100003.6055
100003.6115
100003.6278
100003.6441
100003.6516
100003.6513
100003.6378
100003.6194
100003.612
100003.5899
100003.59
100003.5903
100003.5908
100003.5915
100003.5925
100003.5937
100003.595
100003.5958
100003.5942
100003.5879
100003.5781
100003.5744
100003.5773
100003.5812
100003.5853
100003.5903
100003.5908
100003.5946
100003.6074
100003.6279
100003.6347
100003.6273
100003.6039
100003.5922
100003.5888
100003.5911
100003.5912
100003.5915
100003.5919
100003.5926
100003.5935
100003.5947
100003.5959
100003.5961
100003.5933
100003.5875
100003.5833
100003.5858
100003.5897
100003.5918
100003.5956
100003.5994
100003.6011
100003.6044
100003.6095
100003.623
100003.6285
100003.6196
100003.6026
100003.6065
100003.6072
100003.593
100003.5931
100003.5932
100003.5936
100003.5941
100003.5949
100003.5958
100003.5965
100003.596
100003.593
100003.5884
100003.5875
100003.5901
100003.592
100003.5938
100003.5969
100003.6005
100003.6012
100003.6039
100003.6043
100003.6065
100003.5952
100003.5698
100003.5391
100003.5912
100003.6007
100003.5956
100003.5957
100003.5957
100003.596
100003.5964
100003.5971
100003.5982
100003.5992
100003.5998
100003.5984
100003.5968
100003.5963
100003.5972
100003.5985
100003.6007
100003.6039
100003.6077
100003.6084
100003.6103
100003.5967
100003.5695
100003.5001
100003.4291
100003.388
100003.5333
100003.574
100003.5991
100003.599
100003.5989
100003.5989
100003.5991
100003.5995
100003.6008
100003.6024
100003.6048
100003.6058
100003.6065
100003.6061
100003.605
100003.6048
100003.6071
100003.6111
100003.6148
100003.6136
100003.5958
100003.5386
100003.4565
100003.3353
100003.3158
100003.3232
100003.3992
100003.5107
100003.6034
100003.6031
100003.6026
100003.6019
100003.6015
100003.6014
100003.6032
100003.6063
100003.6101
100003.6114
100003.6118
100003.6102
100003.6084
100003.6081
100003.6097
100003.612
100003.6101
100003.5855
100003.5385
100003.4355
100003.3438
100003.319
100003.3909
100003.3724
100003.3
100003.4393
100003.6087
100003.6078
100003.6065
100003.6037
100003.6007
100003.5977
100003.6007
100003.6094
100003.6148
100003.6139
100003.6106
100003.6028
100003.5947
100003.5884
100003.583
100003.5748
100003.56
100003.5213
100003.4713
100003.3743
100003.3516
100003.3988
100003.4243
100003.4096
100003.2923
100003.3801
100003.6147
100003.6121
100003.6077
100003.5973
100003.5873
100003.5826
100003.5886
100003.6089
100003.6157
100003.6108
100003.6013
100003.585
100003.5704
100003.5556
100003.5397
100003.5255
100003.5147
100003.4872
100003.4549
100003.3964
100003.4238
100003.4423
100003.4618
100003.4725
100003.3088
100003.3881
100003.6212
100003.614
100003.6001
100003.5768
100003.5635
100003.5681
100003.5784
100003.5999
100003.6099
100003.6023
100003.5896
100003.5704
100003.5522
100003.5329
100003.5146
100003.5041
100003.5013
100003.4879
100003.4708
100003.4414
100003.4733
100003.4593
100003.5136
100003.5063
100003.3711
100003.3959
100003.6261
100003.6064
100003.5784
100003.5499
100003.5624
100003.5755
100003.5788
100003.582
100003.5988
100003.5947
100003.5852
100003.5634
100003.5433
100003.5293
100003.5208
100003.5179
100003.5171
100003.5114
100003.5052
100003.5064
100003.5356
100003.5507
100003.5972
100003.6167
100003.4764
100003.4269
100003.628
100003.5893
100003.5578
100003.5506
100003.5797
100003.5786
100003.5876
100003.5746
100003.5908
100003.5974
100003.5913
100003.567
100003.5519
100003.5571
100003.554
100003.5533
100003.5525
100003.5504
100003.5514
100003.5574
100003.5705
100003.5877
100003.6023
100003.5951
100003.5525
100003.4822
100003.6256
100003.569
100003.5564
100003.5638
100003.5821
100003.5882
100003.6017
100003.5922
100003.5967
100003.6092
100003.608
100003.5777
100003.569
100003.5789
100003.584
100003.59
100003.5913
100003.5959
100003.6019
100003.608
100003.6027
100003.624
100003.641
100003.6454
100003.6332
100003.5621
100003.6195
100003.5597
100003.5685
100003.5621
100003.5896
100003.6024
100003.623
100003.6169
100003.6184
100003.6235
100003.6349
100003.5911
100003.5783
100003.5968
100003.6115
100003.627
100003.6383
100003.647
100003.6487
100003.6606
100003.6177
100003.6202
100003.6495
100003.6847
100003.6945
100003.6365
100003.5992
100003.5468
100003.5725
100003.5604
100003.5876
100003.607
100003.6371
100003.6492
100003.6553
100003.653
100003.678
100003.6104
100003.5871
100003.6065
100003.6323
100003.6622
100003.6887
100003.7045
100003.6895
100003.7163
100003.6565
100003.6011
100003.6141
100003.676
100003.7166
100003.6895
100003.5719
100003.5349
100003.573
100003.5683
100003.5744
100003.5934
100003.6261
100003.6512
100003.6689
100003.676
100003.6962
100003.6376
100003.5802
100003.5966
100003.6253
100003.666
100003.7208
100003.756
100003.7565
100003.7315
100003.721
100003.6199
100003.5187
100003.5915
100003.6849
100003.7162
100003.5751
100003.5416
100003.5839
100003.5811
100003.6071
100003.5836
100003.5915
100003.6245
100003.6529
100003.6762
100003.6833
100003.6548
100003.5911
100003.6048
100003.637
100003.6721
100003.7353
100003.7826
100003.8001
100003.698
100003.6848
100003.5977
100003.4841
100003.5443
100003.6483
100003.7102
100003.6042
100003.5714
100003.6007
100003.5709
100003.5877
100003.616
100003.6104
100003.6167
100003.6517
100003.667
100003.6727
100003.6451
100003.573
100003.5904
100003.6203
100003.6523
100003.7279
100003.7764
100003.8267
100003.7605
100003.6631
100003.4895
100003.5298
100003.5673
100003.6509
100003.7272
100003.6098
100003.5817
100003.616
100003.6091
100003.5832
100003.5878
100003.6311
100003.6394
100003.6382
100003.6536
100003.6666
100003.6621
100003.579
100003.565
100003.6107
100003.6514
100003.7103
100003.7675
100003.9495
100003.7664
100003.7148
100003.6157
100003.6292
100003.5972
100003.6441
100003.6444
100003.603
100003.5795
100003.6201
100003.6155
100003.5964
100003.5975
100003.6232
100003.6663
100003.6744
100003.6747
100003.7011
100003.7042
100003.6346
100003.5673
100003.5668
100003.5892
100003.6434
100003.6638
100003.7108
100003.6976
100003.6775
100003.6176
100003.6491
100003.6257
100003.5613
100003.5889
100003.608
100003.5636
100003.5846
100003.5829
100003.5966
100003.5909
100003.6059
100003.6206
100003.6234
100003.6321
100003.6654
100003.7352
100003.6655
100003.6267
100003.5857
100003.5561
100003.6008
100003.6273
100003.6735
100003.6528
100003.6492
100003.6432
100003.6353
100003.6336
100003.5696
100003.6432
100003.6619
100003.6111
100003.6243
100003.6081
100003.6137
100003.6041
100003.6011
100003.5684
100003.5626
100003.6044
100003.6651
100003.6845
100003.6241
100003.6409
100003.6524
100003.5872
100003.6087
100003.5791
100003.614
100003.6068
100003.6006
100003.6122
100003.5916
100003.6016
100003.5171
100003.5674
100003.6664
100003.5934
100003.599
100003.5971
100003.5902
100003.5731
100003.5132
100003.452
100003.4822
100003.5798
100003.6149
100003.635
100003.5665
100003.5905
100003.622
100003.611
100003.6268
100003.587
100003.5961
100003.5869
100003.5667
100003.5848
100003.5739
100003.5826
100003.5257
100003.5894
100003.7323
100003.6792
100003.6464
100003.6104
100003.5713
100003.481
100003.4574
100003.5868
100003.7218
100003.8138
100004.0155
100003.2014
100003.0497
100003.271
100003.6018
100003.5999
100003.7099
100003.5824
100003.6266
100003.599
100003.5809
100003.5749
100003.5568
100003.5813
100003.5611
100003.6041
100003.7351
100003.6943
100003.6624
100003.5592
100003.4126
100003.3413
100003.4412
100003.4861
100003.5023
100003.4632
100003.4793
100002.9836
100003.3928
100003.3609
100003.5008
100003.562
100003.582
100003.5899
100003.6024
100003.596
100003.5864
100003.5821
100003.5676
100003.5853
100003.585
100003.7511
100003.699
100003.6434
100003.468
100003.3498
100003.4029
100003.4572
100003.4933
100003.5856
100003.688
100003.7315
100003.6997
100003.5467
100003.388
100003.4953
100003.5266
100003.6008
100003.5843
100003.5918
100003.5883
100003.5834
100003.582
100003.5746
100003.584
100003.5803
100003.7186
100003.6399
100003.5817
100003.4157
100003.345
100003.4052
100003.4172
100003.4579
100003.5429
100003.5964
100003.5949
100003.4797
100003.4962
100003.4407
100003.4501
100003.4741
100003.5549
100003.5678
100003.577
100003.5768
100003.5744
100003.5738
100003.5712
100003.5747
100003.5746
100003.6888
100003.6068
100003.5816
100003.4855
100003.3677
100003.3237
100003.3811
100003.4392
100003.5407
100003.6404
100003.65
100003.5637
100003.5154
100003.4357
100003.4586
100003.4995
100003.5466
100003.5595
100003.5658
100003.5669
100003.5663
100003.5666
100003.5654
100003.569
100003.567
100003.6403
100003.5515
100003.5568
100003.5151
100003.4828
100003.3906
100003.3279
100003.3715
100003.4344
100003.4767
100003.4909
100003.4692
100003.4493
100003.4299
100003.4792
100003.5126
100003.5431
100003.5543
100003.5589
100003.5598
100003.5597
100003.56
100003.5596
100003.5622
100003.5614
100003.5649
100003.6109
100003.522
100003.5466
100003.5194
100003.5136
100003.4949
100003.4398
100003.3565
100003.3713
100003.4424
100003.4561
100003.467
100003.4627
100003.4761
100003.5001
100003.5182
100003.5338
100003.544
100003.5505
100003.5537
100003.5545
100003.5551
100003.5552
100003.5578
100003.5573
100003.5621
100003.4648
100003.4649
100003.4651
100003.4655
100003.466
100003.4667
100003.4675
100003.4685
100003.4696
100003.4705
100003.4712
100003.4714
100003.4714
100003.4715
100003.4729
100003.4754
100003.4788
100003.4808
100003.485
100003.4898
100003.4948
100003.4983
100003.5012
100003.5016
100003.503
100003.5035
100003.4653
100003.4653
100003.4655
100003.4658
100003.4663
100003.4668
100003.4674
100003.468
100003.4682
100003.4679
100003.4675
100003.4672
100003.4669
100003.4667
100003.4664
100003.4684
100003.4724
100003.4765
100003.4818
100003.486
100003.4893
100003.4918
100003.4931
100003.4945
100003.4957
100003.4941
100003.4663
100003.4663
100003.4664
100003.4667
100003.4671
100003.4676
100003.4682
100003.4688
100003.4693
100003.4697
100003.4707
100003.4721
100003.4733
100003.4727
100003.4735
100003.4763
100003.4796
100003.4822
100003.4858
100003.4885
100003.49
100003.4908
100003.4934
100003.4964
100003.4984
100003.4992
100003.4679
100003.4679
100003.4679
100003.468
100003.4683
100003.4687
100003.4692
100003.4696
100003.4699
100003.47
100003.4708
100003.4719
100003.4723
100003.4717
100003.4721
100003.4745
100003.4784
100003.4819
100003.4847
100003.484
100003.4846
100003.4839
100003.487
100003.4885
100003.4914
100003.4947
100003.4701
100003.47
100003.4699
100003.47
100003.4702
100003.4705
100003.4711
100003.4715
100003.4721
100003.4724
100003.4733
100003.4749
100003.4757
100003.4754
100003.4752
100003.4779
100003.4828
100003.4861
100003.4869
100003.4804
100003.4794
100003.478
100003.4845
100003.4864
100003.4901
100003.4953
100003.4728
100003.4727
100003.4725
100003.4723
100003.4725
100003.4727
100003.4733
100003.4738
100003.4748
100003.4749
100003.4752
100003.4754
100003.4756
100003.4756
100003.4758
100003.4791
100003.4852
100003.4864
100003.4824
100003.4691
100003.4688
100003.4704
100003.4898
100003.4918
100003.4858
100003.4844
100003.4761
100003.4758
100003.4754
100003.475
100003.4751
100003.4753
100003.4759
100003.4766
100003.4778
100003.4773
100003.4768
100003.4753
100003.4739
100003.4729
100003.473
100003.4754
100003.4799
100003.4759
100003.4674
100003.4538
100003.4594
100003.4689
100003.4754
100003.4702
100003.4911
100003.4664
100003.4798
100003.4792
100003.4785
100003.4779
100003.4781
100003.4782
100003.4788
100003.4794
100003.4806
100003.4787
100003.4765
100003.4725
100003.4686
100003.4645
100003.4603
100003.4564
100003.4547
100003.4469
100003.443
100003.4364
100003.4415
100003.435
100003.4205
100003.4138
100003.4315
100003.4318
100003.4839
100003.4825
100003.4818
100003.4809
100003.4814
100003.4817
100003.4825
100003.4824
100003.4832
100003.4792
100003.4751
100003.4691
100003.4628
100003.4556
100003.4481
100003.4418
100003.4396
100003.4318
100003.4313
100003.4281
100003.4325
100003.417
100003.4274
100003.454
100003.3753
100003.4041
100003.4883
100003.4857
100003.4853
100003.4845
100003.486
100003.4865
100003.4881
100003.486
100003.4858
100003.4807
100003.4763
100003.469
100003.4612
100003.4524
100003.4444
100003.4385
100003.4362
100003.4292
100003.4303
100003.4312
100003.4357
100003.424
100003.4632
100003.4562
100003.383
100003.3503
100003.4925
100003.4884
100003.4892
100003.4891
100003.4921
100003.491
100003.494
100003.4901
100003.4909
100003.4867
100003.4817
100003.4731
100003.4642
100003.4564
100003.449
100003.4428
100003.4395
100003.4351
100003.439
100003.4414
100003.4445
100003.4481
100003.4951
100003.4725
100003.427
100003.3483
100003.4968
100003.4906
100003.494
100003.4935
100003.4909
100003.4882
100003.4905
100003.4929
100003.4975
100003.4983
100003.4919
100003.4823
100003.472
100003.4621
100003.4543
100003.4526
100003.4502
100003.4501
100003.4541
100003.4574
100003.4671
100003.4852
100003.5022
100003.5291
100003.469
100003.4174
100003.4994
100003.4914
100003.4985
100003.4924
100003.4892
100003.491
100003.4999
100003.4997
100003.5104
100003.517
100003.5101
100003.4999
100003.4832
100003.4779
100003.4771
100003.4823
100003.4841
100003.483
100003.4925
100003.5007
100003.5073
100003.5085
100003.5217
100003.5181
100003.4988
100003.4403
100003.5008
100003.4916
100003.5018
100003.493
100003.4908
100003.5064
100003.5168
100003.5233
100003.5383
100003.543
100003.5381
100003.5259
100003.4981
100003.5022
100003.505
100003.5161
100003.5263
100003.5347
100003.552
100003.5634
100003.563
100003.5324
100003.5444
100003.5454
100003.5388
100003.4891
100003.4976
100003.4884
100003.5006
100003.4961
100003.4991
100003.5168
100003.5324
100003.5477
100003.5625
100003.5798
100003.5848
100003.5602
100003.5192
100003.5291
100003.529
100003.5478
100003.5697
100003.5874
100003.6109
100003.6128
100003.6036
100003.5403
100003.526
100003.5421
100003.5567
100003.5328
100003.4957
100003.4826
100003.4997
100003.4929
100003.5036
100003.5043
100003.5232
100003.5503
100003.5727
100003.5946
100003.5937
100003.594
100003.5361
100003.5266
100003.5384
100003.5592
100003.6043
100003.6318
100003.6784
100003.623
100003.6782
100003.5155
100003.5236
100003.5213
100003.5697
100003.5664
100003.4951
100003.4813
100003.4985
100003.5046
100003.5086
100003.5044
100003.52
100003.5535
100003.5775
100003.6008
100003.6096
100003.6349
100003.5664
100003.5652
100003.5482
100003.5666
100003.6227
100003.6532
100003.7641
100003.6058
100003.7383
100003.5558
100003.5458
100003.5128
100003.5546
100003.5915
100003.5104
100003.4913
100003.5121
100003.4985
100003.5144
100003.5276
100003.5335
100003.5598
100003.5714
100003.5782
100003.5766
100003.5716
100003.5557
100003.5393
100003.569
100003.5597
100003.689
100003.6383
100003.8393
100003.6183
100003.7896
100003.5758
100003.5885
100003.5329
100003.5737
100003.604
100003.5298
100003.5106
100003.5274
100003.5208
100003.4989
100003.5334
100003.5262
100003.5558
100003.5665
100003.5828
100003.5887
100003.5784
100003.5574
100003.5637
100003.5808
100003.6
100003.7152
100003.7327
100004.2871
100003.5991
100003.8205
100003.5739
100003.6118
100003.6123
100003.5618
100003.5934
100003.5176
100003.5047
100003.5222
100003.4959
100003.5158
100003.5332
100003.5254
100003.5434
100003.5426
100003.5386
100003.5238
100003.4944
100003.4966
100003.5047
100003.5538
100003.542
100003.6104
100003.5541
100003.6772
100003.5747
100003.6805
100003.5539
100003.5897
100003.5817
100003.5528
100003.6449
100003.5172
100003.5092
100003.5211
100003.5185
100003.5262
100003.5316
100003.5349
100003.5356
100003.5388
100003.5394
100003.5455
100003.5347
100003.5356
100003.5267
100003.5409
100003.5369
100003.599
100003.574
100003.6803
100003.5252
100003.5952
100003.5254
100003.555
100003.5812
100003.5794
100003.7806
100003.5396
100003.5265
100003.5273
100003.5187
100003.5248
100003.5303
100003.5221
100003.5193
100003.4894
100003.416
100003.3212
100003.0241
100003.236
100003.352
100003.4675
100003.48
100003.5564
100003.5308
100003.6182
100003.5205
100003.562
100003.5076
100003.5201
100003.5265
100003.5406
100003.5981
100003.536
100003.5252
100003.524
100003.5155
100003.5181
100003.5243
100003.5304
100003.5118
100003.5231
100003.4937
100003.532
100003.1984
100003.4406
100003.4111
100003.47
100003.4813
100003.5084
100003.499
100003.5382
100003.5004
100003.5189
100003.5012
100003.5068
100003.5184
100003.5174
100003.5566
100003.5779
100003.5579
100003.5508
100003.5366
100003.5254
100003.5177
100003.5045
100003.4703
100003.3813
100003.0254
100002.3399
100000.2893
100002.2515
100002.7247
100003.301
100003.3583
100003.3313
100003.4315
100003.4955
100003.4812
100003.4888
100003.4853
100003.4853
100003.4904
100003.4906
100003.5023
100003.5588
100003.5396
100003.5277
100003.5097
100003.4996
100003.493
100003.4961
100003.4634
100003.4582
100003.4073
100003.4446
100003.3518
100003.4332
100003.5713
100003.3901
100003.4593
100003.4339
100003.4551
100003.4719
100003.4681
100003.4686
100003.469
100003.4676
100003.4709
100003.4724
100003.6223
100003.5888
100003.5637
100003.5332
100003.5233
100003.5097
100003.4649
100003.445
100003.4383
100003.4474
100003.1678
100003.1858
100002.9199
100003.1908
100003.359
100003.3932
100003.4365
100003.4446
100003.4608
100003.4571
100003.4554
100003.4557
100003.4543
100003.4555
100003.459
100003.5491
100003.5132
100003.5087
100003.4872
100003.495
100003.4633
100003.4261
100003.4349
100003.4693
100003.4757
100003.4532
100003.3949
100003.3975
100003.4339
100003.4285
100003.4315
100003.4372
100003.4412
100003.4467
100003.4461
100003.4448
100003.4452
100003.4444
100003.4455
100003.4482
100003.5469
100003.5118
100003.5229
100003.4926
100003.4859
100003.4578
100003.4245
100003.4444
100003.4851
100003.4991
100003.4733
100003.4009
100003.3867
100003.3633
100003.4123
100003.4153
100003.4263
100003.4319
100003.4359
100003.437
100003.4367
100003.4374
100003.437
100003.4386
100003.4396
100003.5205
100003.4844
100003.5033
100003.4812
100003.4881
100003.4765
100003.4627
100003.4477
100003.4241
100003.4839
100003.4352
100003.4316
100003.4086
100003.4183
100003.4222
100003.4232
100003.4259
100003.4282
100003.43
100003.4308
100003.431
100003.4316
100003.4316
100003.4332
100003.4341
100003.4356
100003.5116
100003.4835
100003.5099
100003.4882
100003.4898
100003.4758
100003.4642
100003.4549
100003.4484
100003.4434
100003.4372
100003.4216
100003.4122
100003.4085
100003.4148
100003.4189
100003.421
100003.4231
100003.4249
100003.4262
100003.4268
100003.4276
100003.428
100003.4299
100003.4305
100003.4331
100003.3385
100003.3385
100003.3386
100003.3387
100003.3389
100003.3391
100003.3394
100003.3396
100003.3398
100003.3397
100003.3391
100003.3378
100003.3363
100003.3351
100003.3349
100003.3359
100003.3381
100003.3403
100003.3443
100003.3482
100003.352
100003.3531
100003.3535
100003.3491
100003.3445
100003.336
100003.3388
100003.3388
100003.3389
100003.3389
100003.3391
100003.3392
100003.3393
100003.3392
100003.3388
100003.3377
100003.3357
100003.3328
100003.3303
100003.329
100003.3289
100003.33
100003.3322
100003.3354
100003.34
100003.3437
100003.3474
100003.3475
100003.3461
100003.3396
100003.3349
100003.3282
100003.3396
100003.3396
100003.3395
100003.3395
100003.3396
100003.3397
100003.3398
100003.3397
100003.3394
100003.3383
100003.3365
100003.3348
100003.334
100003.3337
100003.3335
100003.3343
100003.3364
100003.3386
100003.3417
100003.343
100003.3444
100003.343
100003.3409
100003.3358
100003.335
100003.3285
100003.3408
100003.3407
100003.3406
100003.3405
100003.3405
100003.3404
100003.3404
100003.3401
100003.3395
100003.3381
100003.3361
100003.3343
100003.3329
100003.3312
100003.3301
100003.3318
100003.334
100003.3363
100003.3386
100003.3355
100003.3335
100003.3268
100003.3232
100003.3159
100003.3252
100003.3187
100003.3423
100003.3422
100003.342
100003.3418
100003.3417
100003.3417
100003.3417
100003.3415
100003.3411
100003.34
100003.3385
100003.3369
100003.3352
100003.3331
100003.3315
100003.3326
100003.3348
100003.3356
100003.3356
100003.3264
100003.3175
100003.3002
100003.2934
100003.2792
100003.3115
100003.307
100003.3442
100003.344
100003.3437
100003.3433
100003.3431
100003.3429
100003.343