/*--------------------------------*- C++ -*----------------------------------*\
  =========                 |
  \\      /  F ield         | OpenFOAM: The Open Source CFD Toolbox
   \\    /   O peration     | Website:  https://openfoam.org
    \\  /    A nd           | Version:  8
     \\/     M anipulation  |
\*---------------------------------------------------------------------------*/
FoamFile
{
    version     2.0;
    format      ascii;
    class       volScalarField;
    location    "0.4";
    object      p_rgh;
}
// * * * * * * * * * * * * * * * * * * * * * * * * * * * * * * * * * * * * * //

dimensions      [1 -1 -2 0 0 0 0];

internalField   nonuniform List<scalar> 
67410
(
100003.7723
100003.7724
100003.7728
100003.7735
100003.7746
100003.776
100003.778
100003.7806
100003.7836
100003.7864
100003.7882
100003.7908
100003.7978
100003.8074
100003.8179
100003.8275
100003.8323
100003.8321
100003.8298
100003.8377
100003.8425
100003.8514
100003.8562
100003.864
100003.8726
100003.8879
100003.7729
100003.773
100003.7734
100003.774
100003.775
100003.7763
100003.778
100003.7798
100003.7815
100003.781
100003.7797
100003.7805
100003.7818
100003.7833
100003.787
100003.7931
100003.7996
100003.7992
100003.8074
100003.8204
100003.8289
100003.8375
100003.8397
100003.8432
100003.8348
100003.831
100003.7742
100003.7744
100003.7747
100003.7754
100003.7763
100003.7776
100003.7793
100003.7811
100003.782
100003.7816
100003.7815
100003.7815
100003.7812
100003.7834
100003.7906
100003.8013
100003.8096
100003.8072
100003.8101
100003.8224
100003.8342
100003.8419
100003.8462
100003.8532
100003.8396
100003.8428
100003.7764
100003.7765
100003.7769
100003.7775
100003.7784
100003.7795
100003.781
100003.7821
100003.7821
100003.781
100003.7806
100003.7804
100003.7804
100003.7832
100003.7914
100003.8029
100003.8117
100003.8111
100003.8124
100003.8222
100003.8344
100003.8384
100003.8345
100003.8372
100003.8298
100003.8413
100003.7795
100003.7796
100003.78
100003.7806
100003.7815
100003.7826
100003.784
100003.7846
100003.7853
100003.7843
100003.7844
100003.7857
100003.787
100003.7895
100003.797
100003.8084
100003.8187
100003.824
100003.8244
100003.8251
100003.8241
100003.8115
100003.7952
100003.788
100003.8055
100003.8351
100003.7836
100003.7837
100003.7842
100003.7849
100003.7859
100003.7867
100003.7877
100003.7881
100003.7906
100003.7916
100003.7928
100003.7935
100003.7951
100003.7993
100003.8071
100003.8177
100003.8279
100003.8301
100003.8197
100003.8022
100003.7823
100003.7499
100003.7258
100003.6886
100003.7605
100003.8307
100003.789
100003.7891
100003.7897
100003.7904
100003.7914
100003.7919
100003.7921
100003.793
100003.7969
100003.7983
100003.7989
100003.7983
100003.799
100003.803
100003.8097
100003.8174
100003.8213
100003.8113
100003.7892
100003.7579
100003.725
100003.6726
100003.6577
100003.6459
100003.7089
100003.8658
100003.7959
100003.7957
100003.7963
100003.7964
100003.7955
100003.7934
100003.7925
100003.7973
100003.802
100003.8009
100003.7995
100003.7971
100003.7948
100003.7937
100003.7946
100003.7957
100003.79
100003.7719
100003.7482
100003.7178
100003.6868
100003.6518
100003.7054
100003.8226
100003.6766
100003.9312
100003.8044
100003.8033
100003.8027
100003.7987
100003.7944
100003.7914
100003.7902
100003.7988
100003.803
100003.8
100003.797
100003.7906
100003.7823
100003.7744
100003.7686
100003.765
100003.759
100003.7462
100003.7285
100003.7063
100003.6983
100003.7022
100003.8368
100004.1778
100003.7508
100003.9956
100003.8148
100003.8104
100003.8046
100003.796
100003.7899
100003.7865
100003.7861
100003.7964
100003.8019
100003.8003
100003.7942
100003.7827
100003.7694
100003.7575
100003.7499
100003.7474
100003.7454
100003.7404
100003.7311
100003.7205
100003.7347
100003.7667
100003.8968
100004.1688
100003.8935
100004.0046
100003.8269
100003.8126
100003.8027
100003.7915
100003.7821
100003.7789
100003.778
100003.7924
100003.8059
100003.8056
100003.7957
100003.78
100003.7617
100003.7498
100003.7456
100003.7459
100003.7488
100003.7542
100003.7569
100003.7592
100003.7897
100003.8392
100003.9115
100004.0356
100003.9441
100003.9658
100003.8392
100003.8122
100003.8035
100003.7869
100003.7778
100003.7859
100003.7882
100003.7941
100003.8159
100003.8208
100003.8068
100003.7875
100003.7667
100003.763
100003.7693
100003.7728
100003.7755
100003.791
100003.8075
100003.8115
100003.8369
100003.8969
100003.9696
100004.0277
100004.0048
100003.9852
100003.8497
100003.8157
100003.8081
100003.7855
100003.7921
100003.8229
100003.8373
100003.8253
100003.8316
100003.8458
100003.829
100003.8078
100003.7885
100003.7975
100003.8152
100003.8271
100003.8351
100003.8561
100003.8805
100003.8791
100003.8813
100003.9364
100004.0095
100004.076
100004.1387
100004.072
100003.8589
100003.8219
100003.8215
100003.7991
100003.8251
100003.8758
100003.9021
100003.886
100003.8582
100003.8752
100003.8637
100003.8393
100003.8151
100003.833
100003.8674
100003.899
100003.9261
100003.9511
100003.9682
100003.9645
100003.9289
100003.9544
100004.0465
100004.1591
100004.226
100004.1522
100003.8621
100003.8194
100003.8355
100003.8171
100003.8383
100003.8913
100003.9327
100003.9349
100003.9092
100003.9129
100003.9116
100003.8807
100003.8384
100003.8636
100003.9174
100003.976
100004.0325
100004.0704
100004.0484
100004.0365
100004.0143
100003.9536
100004.0321
100004.1753
100004.2679
100004.2109
100003.8717
100003.8144
100003.8413
100003.8481
100003.8492
100003.8633
100003.9135
100003.9398
100003.9511
100003.9496
100003.9663
100003.9245
100003.8533
100003.853
100003.9116
100004.004
100004.1074
100004.1844
100004.1408
100004.1147
100004.0675
100004.0054
100003.9921
100004.1158
100004.2808
100004.2612
100003.8986
100003.8226
100003.856
100003.865
100003.8954
100003.8881
100003.872
100003.8976
100003.9275
100003.9436
100003.9644
100003.9453
100003.879
100003.8616
100003.9023
100003.9933
100004.1296
100004.2351
100004.2293
100004.0955
100004.1007
100004.0667
100003.9998
100004.0992
100004.3468
100004.3347
100003.9533
100003.8884
100003.9343
100003.8843
100003.8832
100003.8993
100003.9038
100003.8761
100003.898
100003.9188
100003.947
100003.9386
100003.8908
100003.8599
100003.8827
100003.9651
100004.106
100004.2379
100004.2477
100004.18
100004.1067
100003.9787
100003.9483
100004.1415
100004.4415
100004.4875
100003.9591
100003.8981
100003.9591
100003.9296
100003.8826
100003.875
100003.9057
100003.9129
100003.9144
100003.9133
100003.934
100003.9436
100003.9056
100003.8725
100003.862
100003.8947
100003.9826
100004.0918
100004.1635
100004.0805
100004.0001
100003.9461
100004.066
100004.0741
100004.1792
100004.3617
100003.9275
100003.8587
100003.925
100003.9396
100003.9113
100003.8709
100003.8933
100003.9191
100003.9533
100003.9787
100003.9885
100004.0237
100003.9533
100003.9081
100003.8809
100003.8645
100003.8849
100003.9228
100003.9604
100003.9716
100003.9338
100003.9713
100004.0703
100004.0403
100003.9337
100003.9119
100003.916
100003.8482
100003.8527
100003.851
100003.8618
100003.8634
100003.8725
100003.9102
100003.9402
100003.9792
100003.9545
100004.108
100003.9693
100003.9478
100003.917
100003.8858
100003.8769
100003.8705
100003.8843
100003.8855
100003.8587
100003.8759
100003.899
100003.8774
100003.8489
100003.8488
100003.924
100003.8795
100003.8823
100003.8806
100003.898
100003.9142
100003.9112
100003.9156
100003.9479
100004.0337
100004.0772
100004.4547
100004.0684
100004.0608
100003.9937
100003.9126
100003.9001
100003.8614
100003.8536
100003.8446
100003.8233
100003.8204
100003.8137
100003.8211
100003.8182
100003.825
100003.916
100003.8606
100003.8456
100003.8656
100003.9255
100003.9604
100003.949
100003.9233
100003.9231
100003.9643
100003.9141
100004.1788
100003.8048
100003.9441
100003.9319
100003.8995
100003.9114
100003.855
100003.8394
100003.824
100003.8073
100003.8031
100003.79
100003.8117
100003.8166
100003.831
100003.9428
100003.9051
100003.8955
100003.8818
100003.8981
100003.9156
100003.9194
100003.9517
100004.1594
100004.6749
100005.3964
100008.6355
100004.3379
100004.263
100004.0975
100003.9516
100004.1162
100003.8504
100003.8525
100003.8155
100003.801
100003.7979
100003.7881
100003.8037
100003.8112
100003.8298
100003.9381
100003.9095
100003.9037
100003.8799
100003.8535
100003.8232
100003.8025
100003.8197
100003.8767
100003.976
100004.0924
100004.4098
100003.9247
100003.8031
100003.8022
100003.8218
100003.8399
100003.8207
100003.8149
100003.8015
100003.7923
100003.791
100003.7839
100003.7943
100003.8011
100003.9398
100003.9128
100003.904
100003.8596
100003.807
100003.7541
100003.7608
100003.8427
100004.0191
100004.2765
100004.5831
100004.733
100004.3329
100003.8936
100003.9095
100003.8492
100003.8398
100003.8087
100003.7964
100003.7867
100003.7805
100003.7806
100003.7767
100003.7854
100003.7883
100003.9452
100003.8949
100003.8789
100003.822
100003.7489
100003.6773
100003.7397
100003.931
100004.1807
100004.3397
100004.3171
100004.1287
100003.8616
100003.6913
100003.7338
100003.7628
100003.7837
100003.7829
100003.7781
100003.772
100003.7679
100003.7669
100003.7663
100003.7679
100003.769
100003.9634
100003.8877
100003.8822
100003.8553
100003.8157
100003.719
100003.7535
100003.9907
100004.3041
100004.4687
100004.3976
100004.1486
100003.8217
100003.7439
100003.7592
100003.7616
100003.7643
100003.7639
100003.7615
100003.7585
100003.7565
100003.756
100003.7558
100003.7593
100003.7579
100003.9802
100003.8791
100003.8754
100003.867
100003.8849
100003.8737
100003.8212
100003.7879
100003.9419
100004.0398
100003.9781
100003.8296
100003.7552
100003.741
100003.7498
100003.7512
100003.7522
100003.7525
100003.7514
100003.7494
100003.7479
100003.7475
100003.7472
100003.7498
100003.749
100003.7526
100003.993
100003.8716
100003.863
100003.8541
100003.8908
100003.949
100003.9891
100003.9212
100003.8356
100003.8197
100003.8066
100003.7914
100003.7575
100003.7352
100003.7364
100003.7392
100003.7399
100003.7406
100003.7419
100003.7423
100003.7417
100003.7414
100003.7413
100003.744
100003.7432
100003.7496
100003.7704
100003.7705
100003.7709
100003.7714
100003.7722
100003.7734
100003.775
100003.7771
100003.7796
100003.7816
100003.7813
100003.7774
100003.772
100003.7723
100003.7773
100003.7837
100003.7873
100003.7865
100003.7925
100003.8088
100003.8252
100003.8327
100003.8323
100003.8188
100003.8004
100003.793
100003.771
100003.7711
100003.7713
100003.7718
100003.7726
100003.7735
100003.7747
100003.776
100003.7768
100003.7752
100003.7689
100003.7592
100003.7555
100003.7583
100003.7622
100003.7663
100003.7714
100003.7718
100003.7757
100003.7884
100003.8089
100003.8158
100003.8083
100003.785
100003.7733
100003.7698
100003.7722
100003.7722
100003.7725
100003.7729
100003.7736
100003.7745
100003.7757
100003.7769
100003.7772
100003.7744
100003.7685
100003.7643
100003.7668
100003.7707
100003.7728
100003.7766
100003.7804
100003.7821
100003.7854
100003.7905
100003.804
100003.8095
100003.8006
100003.7837
100003.7875
100003.7882
100003.774
100003.7741
100003.7743
100003.7746
100003.7751
100003.7759
100003.7769
100003.7775
100003.7771
100003.774
100003.7694
100003.7686
100003.7711
100003.773
100003.7749
100003.778
100003.7815
100003.7822
100003.785
100003.7854
100003.7876
100003.7762
100003.7508
100003.7201
100003.7722
100003.7817
100003.7767
100003.7767
100003.7768
100003.777
100003.7774
100003.7781
100003.7792
100003.7802
100003.7808
100003.7794
100003.7778
100003.7773
100003.7783
100003.7795
100003.7818
100003.7849
100003.7887
100003.7894
100003.7914
100003.7777
100003.7505
100003.6811
100003.6101
100003.5691
100003.7143
100003.755
100003.7801
100003.78
100003.7799
100003.7799
100003.7801
100003.7805
100003.7818
100003.7834
100003.7858
100003.7868
100003.7875
100003.7871
100003.786
100003.7858
100003.7881
100003.7921
100003.7958
100003.7946
100003.7768
100003.7196
100003.6375
100003.5163
100003.4968
100003.5042
100003.5802
100003.6917
100003.7844
100003.7841
100003.7837
100003.7829
100003.7825
100003.7824
100003.7842
100003.7873
100003.7912
100003.7924
100003.7929
100003.7912
100003.7894
100003.7891
100003.7907
100003.793
100003.7911
100003.7665
100003.7196
100003.6166
100003.5249
100003.5
100003.5719
100003.5534
100003.481
100003.6203
100003.7897
100003.7888
100003.7875
100003.7847
100003.7817
100003.7787
100003.7817
100003.7904
100003.7958
100003.795
100003.7916
100003.7838
100003.7757
100003.7694
100003.764
100003.7558
100003.741
100003.7023
100003.6523
100003.5553
100003.5326
100003.5798
100003.6053
100003.5906
100003.4733
100003.5611
100003.7957
100003.7931
100003.7887
100003.7784
100003.7683
100003.7636
100003.7697
100003.7899
100003.7967
100003.7918
100003.7824
100003.766
100003.7515
100003.7366
100003.7207
100003.7066
100003.6957
100003.6682
100003.6359
100003.5774
100003.6048
100003.6233
100003.6428
100003.6535
100003.4898
100003.5692
100003.8022
100003.7951
100003.7811
100003.7578
100003.7445
100003.7491
100003.7594
100003.7809
100003.7909
100003.7833
100003.7706
100003.7514
100003.7332
100003.7139
100003.6956
100003.6851
100003.6823
100003.6689
100003.6518
100003.6224
100003.6544
100003.6404
100003.6946
100003.6873
100003.5521
100003.577
100003.8072
100003.7874
100003.7594
100003.7309
100003.7435
100003.7565
100003.7598
100003.763
100003.7798
100003.7757
100003.7662
100003.7444
100003.7244
100003.7103
100003.7018
100003.6989
100003.6981
100003.6924
100003.6862
100003.6875
100003.7166
100003.7317
100003.7782
100003.7977
100003.6574
100003.608
100003.8091
100003.7703
100003.7388
100003.7316
100003.7607
100003.7597
100003.7687
100003.7557
100003.7718
100003.7784
100003.7724
100003.748
100003.7329
100003.7381
100003.735
100003.7343
100003.7335
100003.7315
100003.7325
100003.7385
100003.7515
100003.7687
100003.7833
100003.7761
100003.7335
100003.6633
100003.8066
100003.75
100003.7374
100003.7448
100003.7631
100003.7692
100003.7827
100003.7732
100003.7777
100003.7902
100003.789
100003.7587
100003.75
100003.7599
100003.765
100003.771
100003.7723
100003.7769
100003.7829
100003.789
100003.7837
100003.805
100003.822
100003.8264
100003.8143
100003.7432
100003.8005
100003.7407
100003.7495
100003.7431
100003.7706
100003.7835
100003.804
100003.7979
100003.7994
100003.8045
100003.8159
100003.7721
100003.7593
100003.7778
100003.7925
100003.808
100003.8193
100003.828
100003.8297
100003.8416
100003.7987
100003.8012
100003.8305
100003.8657
100003.8755
100003.8175
100003.7803
100003.7278
100003.7535
100003.7414
100003.7686
100003.788
100003.8181
100003.8302
100003.8363
100003.834
100003.859
100003.7914
100003.7681
100003.7875
100003.8133
100003.8432
100003.8697
100003.8856
100003.8705
100003.8973
100003.8376
100003.7821
100003.7951
100003.857
100003.8976
100003.8705
100003.7529
100003.7159
100003.754
100003.7493
100003.7555
100003.7744
100003.8071
100003.8323
100003.8499
100003.857
100003.8772
100003.8186
100003.7612
100003.7777
100003.8063
100003.847
100003.9018
100003.9371
100003.9375
100003.9125
100003.9021
100003.8009
100003.6997
100003.7725
100003.8659
100003.8972
100003.7561
100003.7226
100003.7649
100003.7621
100003.7881
100003.7646
100003.7725
100003.8055
100003.8339
100003.8572
100003.8643
100003.8358
100003.7721
100003.7859
100003.818
100003.8531
100003.9163
100003.9636
100003.9811
100003.8791
100003.8658
100003.7788
100003.6651
100003.7253
100003.8293
100003.8912
100003.7853
100003.7524
100003.7817
100003.7519
100003.7687
100003.797
100003.7914
100003.7978
100003.8327
100003.848
100003.8537
100003.8261
100003.754
100003.7714
100003.8013
100003.8333
100003.9089
100003.9574
100004.0077
100003.9415
100003.8441
100003.6705
100003.7108
100003.7483
100003.8319
100003.9082
100003.7908
100003.7627
100003.797
100003.7901
100003.7642
100003.7688
100003.8121
100003.8204
100003.8192
100003.8346
100003.8477
100003.8432
100003.7601
100003.746
100003.7918
100003.8324
100003.8913
100003.9485
100004.1305
100003.9474
100003.8959
100003.7968
100003.8102
100003.7783
100003.8251
100003.8254
100003.784
100003.7605
100003.8011
100003.7965
100003.7774
100003.7785
100003.8043
100003.8473
100003.8554
100003.8557
100003.8821
100003.8852
100003.8157
100003.7483
100003.7478
100003.7702
100003.8244
100003.8448
100003.8918
100003.8786
100003.8585
100003.7986
100003.8301
100003.8067
100003.7423
100003.7699
100003.789
100003.7447
100003.7656
100003.7639
100003.7776
100003.772
100003.7869
100003.8016
100003.8044
100003.8131
100003.8464
100003.9162
100003.8466
100003.8077
100003.7667
100003.7371
100003.7818
100003.8083
100003.8545
100003.8338
100003.8302
100003.8243
100003.8164
100003.8146
100003.7506
100003.8242
100003.8429
100003.7921
100003.8053
100003.7891
100003.7947
100003.7852
100003.7822
100003.7494
100003.7436
100003.7855
100003.8462
100003.8655
100003.8052
100003.8219
100003.8334
100003.7682
100003.7897
100003.7601
100003.795
100003.7878
100003.7816
100003.7933
100003.7726
100003.7826
100003.6981
100003.7484
100003.8474
100003.7745
100003.78
100003.7781
100003.7712
100003.7541
100003.6942
100003.633
100003.6632
100003.7608
100003.7959
100003.816
100003.7475
100003.7715
100003.803
100003.792
100003.8079
100003.768
100003.7772
100003.7679
100003.7477
100003.7659
100003.7549
100003.7636
100003.7067
100003.7704
100003.9133
100003.8602
100003.8274
100003.7914
100003.7523
100003.662
100003.6384
100003.7678
100003.9029
100003.9948
100004.1965
100003.3825
100003.2307
100003.452
100003.7828
100003.7809
100003.891
100003.7634
100003.8076
100003.78
100003.7619
100003.7559
100003.7378
100003.7623
100003.7421
100003.7851
100003.9161
100003.8753
100003.8434
100003.7402
100003.5936
100003.5223
100003.6222
100003.6672
100003.6833
100003.6442
100003.6603
100003.1646
100003.5738
100003.542
100003.6819
100003.743
100003.763
100003.771
100003.7834
100003.7771
100003.7674
100003.7631
100003.7486
100003.7663
100003.766
100003.9321
100003.88
100003.8245
100003.649
100003.5308
100003.5839
100003.6382
100003.6743
100003.7666
100003.8691
100003.9126
100003.8807
100003.7277
100003.569
100003.6763
100003.7076
100003.7818
100003.7653
100003.7728
100003.7693
100003.7645
100003.763
100003.7556
100003.765
100003.7614
100003.8996
100003.8209
100003.7628
100003.5967
100003.5261
100003.5862
100003.5982
100003.6389
100003.7239
100003.7774
100003.776
100003.6607
100003.6772
100003.6217
100003.6311
100003.6552
100003.7359
100003.7488
100003.7581
100003.7578
100003.7554
100003.7548
100003.7522
100003.7557
100003.7556
100003.8698
100003.7878
100003.7626
100003.6665
100003.5488
100003.5047
100003.5621
100003.6202
100003.7218
100003.8214
100003.831
100003.7447
100003.6964
100003.6167
100003.6396
100003.6805
100003.7276
100003.7405
100003.7468
100003.7479
100003.7473
100003.7476
100003.7465
100003.75
100003.7481
100003.8213
100003.7325
100003.7379
100003.6961
100003.6639
100003.5716
100003.5089
100003.5526
100003.6154
100003.6578
100003.6719
100003.6502
100003.6303
100003.611
100003.6602
100003.6936
100003.7241
100003.7353
100003.7399
100003.7408
100003.7407
100003.7411
100003.7406
100003.7432
100003.7424
100003.7459
100003.7919
100003.703
100003.7276
100003.7004
100003.6946
100003.676
100003.6208
100003.5375
100003.5523
100003.6234
100003.6371
100003.6481
100003.6437
100003.6572
100003.6811
100003.6992
100003.7148
100003.7251
100003.7315
100003.7347
100003.7355
100003.7361
100003.7362
100003.7388
100003.7383
100003.7431
100003.7665
100003.7666
100003.7668
100003.7671
100003.7677
100003.7684
100003.7692
100003.7702
100003.7713
100003.7722
100003.7729
100003.7731
100003.7731
100003.7732
100003.7746
100003.7771
100003.7805
100003.7825
100003.7867
100003.7915
100003.7965
100003.8
100003.8029
100003.8033
100003.8047
100003.8052
100003.767
100003.767
100003.7672
100003.7675
100003.768
100003.7685
100003.7691
100003.7697
100003.7699
100003.7696
100003.7692
100003.7689
100003.7686
100003.7684
100003.7681
100003.7701
100003.7741
100003.7782
100003.7835
100003.7877
100003.791
100003.7935
100003.7948
100003.7961
100003.7973
100003.7958
100003.768
100003.768
100003.7681
100003.7684
100003.7688
100003.7693
100003.7699
100003.7705
100003.771
100003.7714
100003.7724
100003.7738
100003.775
100003.7744
100003.7752
100003.778
100003.7813
100003.7839
100003.7875
100003.7902
100003.7917
100003.7925
100003.7951
100003.7981
100003.8001
100003.8009
100003.7696
100003.7696
100003.7696
100003.7697
100003.77
100003.7704
100003.7709
100003.7713
100003.7716
100003.7717
100003.7725
100003.7736
100003.774
100003.7733
100003.7738
100003.7762
100003.7801
100003.7836
100003.7864
100003.7857
100003.7863
100003.7856
100003.7887
100003.7902
100003.7931
100003.7964
100003.7718
100003.7717
100003.7716
100003.7717
100003.7719
100003.7722
100003.7728
100003.7732
100003.7738
100003.7741
100003.775
100003.7766
100003.7774
100003.7771
100003.7769
100003.7796
100003.7845
100003.7878
100003.7886
100003.7821
100003.7811
100003.7797
100003.7862
100003.7881
100003.7918
100003.7969
100003.7745
100003.7744
100003.7742
100003.774
100003.7742
100003.7744
100003.775
100003.7755
100003.7765
100003.7766
100003.7769
100003.7771
100003.7773
100003.7773
100003.7775
100003.7808
100003.7869
100003.7881
100003.7841
100003.7708
100003.7705
100003.7721
100003.7915
100003.7935
100003.7875
100003.7861
100003.7778
100003.7775
100003.7771
100003.7767
100003.7768
100003.777
100003.7776
100003.7783
100003.7795
100003.779
100003.7785
100003.777
100003.7756
100003.7746
100003.7747
100003.7771
100003.7816
100003.7776
100003.7691
100003.7555
100003.7611
100003.7706
100003.7771
100003.7719
100003.7928
100003.7681
100003.7815
100003.7809
100003.7802
100003.7796
100003.7798
100003.7799
100003.7805
100003.7811
100003.7823
100003.7803
100003.7782
100003.7742
100003.7703
100003.7662
100003.762
100003.7581
100003.7564
100003.7486
100003.7447
100003.7381
100003.7432
100003.7367
100003.7222
100003.7155
100003.7332
100003.7335
100003.7856
100003.7842
100003.7835
100003.7826
100003.7831
100003.7834
100003.7842
100003.7841
100003.7849
100003.7809
100003.7768
100003.7707
100003.7645
100003.7573
100003.7498
100003.7434
100003.7413
100003.7335
100003.733
100003.7298
100003.7342
100003.7187
100003.7291
100003.7557
100003.677
100003.7058
100003.7899
100003.7874
100003.787
100003.7862
100003.7877
100003.7882
100003.7898
100003.7877
100003.7875
100003.7824
100003.778
100003.7707
100003.7629
100003.7541
100003.746
100003.7402
100003.7379
100003.7309
100003.732
100003.7329
100003.7374
100003.7257
100003.7648
100003.7579
100003.6847
100003.652
100003.7942
100003.7901
100003.7909
100003.7908
100003.7938
100003.7927
100003.7957
100003.7918
100003.7926
100003.7884
100003.7834
100003.7748
100003.7658
100003.7581
100003.7507
100003.7445
100003.7412
100003.7368
100003.7407
100003.7431
100003.7462
100003.7498
100003.7968
100003.7742
100003.7287
100003.65
100003.7985
100003.7923
100003.7957
100003.7952
100003.7926
100003.7899
100003.7922
100003.7946
100003.7992
100003.8
100003.7936
100003.784
100003.7737
100003.7638
100003.756
100003.7543
100003.7519
100003.7518
100003.7558
100003.7591
100003.7688
100003.7869
100003.8039
100003.8308
100003.7707
100003.7191
100003.8011
100003.7931
100003.8002
100003.7941
100003.7909
100003.7927
100003.8016
100003.8014
100003.8121
100003.8187
100003.8118
100003.8016
100003.7849
100003.7796
100003.7788
100003.784
100003.7858
100003.7847
100003.7942
100003.8024
100003.809
100003.8102
100003.8234
100003.8198
100003.8005
100003.742
100003.8025
100003.7933
100003.8035
100003.7947
100003.7925
100003.8081
100003.8184
100003.825
100003.84
100003.8447
100003.8398
100003.8276
100003.7998
100003.8039
100003.8067
100003.8178
100003.828
100003.8363
100003.8537
100003.8651
100003.8647
100003.8341
100003.8461
100003.847
100003.8405
100003.7907
100003.7993
100003.7901
100003.8023
100003.7978
100003.8008
100003.8185
100003.8341
100003.8494
100003.8642
100003.8815
100003.8865
100003.8619
100003.8209
100003.8308
100003.8307
100003.8495
100003.8714
100003.8891
100003.9126
100003.9145
100003.9053
100003.842
100003.8277
100003.8437
100003.8584
100003.8345
100003.7974
100003.7843
100003.8014
100003.7946
100003.8053
100003.806
100003.8249
100003.852
100003.8744
100003.8963
100003.8954
100003.8957
100003.8378
100003.8283
100003.8401
100003.8609
100003.9059
100003.9335
100003.98
100003.9247
100003.9799
100003.8172
100003.8253
100003.823
100003.8714
100003.8681
100003.7968
100003.783
100003.8002
100003.8063
100003.8103
100003.8061
100003.8217
100003.8552
100003.8792
100003.9025
100003.9113
100003.9366
100003.8681
100003.8669
100003.8499
100003.8683
100003.9244
100003.9548
100004.0657
100003.9075
100004.04
100003.8574
100003.8475
100003.8145
100003.8563
100003.8932
100003.8121
100003.793
100003.8138
100003.8002
100003.8161
100003.8293
100003.8352
100003.8615
100003.8731
100003.8799
100003.8783
100003.8733
100003.8574
100003.841
100003.8707
100003.8614
100003.9906
100003.94
100004.141
100003.92
100004.0913
100003.8775
100003.8902
100003.8346
100003.8754
100003.9057
100003.8315
100003.8123
100003.8291
100003.8225
100003.8006
100003.8351
100003.8279
100003.8575
100003.8682
100003.8845
100003.8904
100003.8801
100003.8591
100003.8654
100003.8825
100003.9017
100004.0169
100004.0344
100004.5888
100003.9008
100004.1222
100003.8756
100003.9135
100003.914
100003.8635
100003.8951
100003.8193
100003.8064
100003.8239
100003.7976
100003.8175
100003.8349
100003.8271
100003.8451
100003.8442
100003.8403
100003.8255
100003.7961
100003.7983
100003.8064
100003.8555
100003.8437
100003.9121
100003.8558
100003.9789
100003.8763
100003.9822
100003.8556
100003.8914
100003.8834
100003.8545
100003.9466
100003.8189
100003.8109
100003.8228
100003.8202
100003.8279
100003.8333
100003.8366
100003.8373
100003.8405
100003.8411
100003.8472
100003.8364
100003.8373
100003.8284
100003.8426
100003.8386
100003.9007
100003.8757
100003.982
100003.8269
100003.8969
100003.8271
100003.8567
100003.8829
100003.8811
100004.0823
100003.8413
100003.8282
100003.829
100003.8204
100003.8265
100003.832
100003.8238
100003.821
100003.7911
100003.7177
100003.6229
100003.3258
100003.5377
100003.6537
100003.7692
100003.7817
100003.8581
100003.8324
100003.9199
100003.8222
100003.8637
100003.8093
100003.8218
100003.8281
100003.8423
100003.8998
100003.8377
100003.8268
100003.8257
100003.8172
100003.8198
100003.8259
100003.8321
100003.8135
100003.8247
100003.7954
100003.8337
100003.5001
100003.7423
100003.7127
100003.7717
100003.783
100003.8101
100003.8007
100003.8399
100003.8021
100003.8206
100003.8029
100003.8085
100003.8201
100003.8191
100003.8583
100003.8796
100003.8596
100003.8525
100003.8383
100003.827
100003.8194
100003.8062
100003.772
100003.683
100003.3271
100002.6416
100000.591
100002.5532
100003.0264
100003.6027
100003.66
100003.633
100003.7331
100003.7972
100003.7829
100003.7905
100003.787
100003.787
100003.7921
100003.7923
100003.804
100003.8604
100003.8413
100003.8294
100003.8114
100003.8013
100003.7947
100003.7978
100003.7651
100003.7599
100003.7089
100003.7463
100003.6535
100003.7349
100003.873
100003.6918
100003.761
100003.7356
100003.7568
100003.7736
100003.7698
100003.7703
100003.7707
100003.7693
100003.7726
100003.7741
100003.924
100003.8905
100003.8654
100003.8349
100003.825
100003.8114
100003.7666
100003.7467
100003.74
100003.7491
100003.4695
100003.4875
100003.2216
100003.4925
100003.6607
100003.6948
100003.7382
100003.7463
100003.7625
100003.7588
100003.7571
100003.7574
100003.756
100003.7572
100003.7607
100003.8508
100003.8149
100003.8104
100003.7889
100003.7967
100003.7649
100003.7278
100003.7366
100003.771
100003.7774
100003.7549
100003.6966
100003.6992
100003.7356
100003.7302
100003.7332
100003.7389
100003.7429
100003.7484
100003.7478
100003.7465
100003.7469
100003.7461
100003.7472
100003.7499
100003.8486
100003.8135
100003.8246
100003.7943
100003.7876
100003.7595
100003.7262
100003.7461
100003.7868
100003.8008
100003.775
100003.7026
100003.6884
100003.6649
100003.714
100003.717
100003.728
100003.7336
100003.7376
100003.7387
100003.7384
100003.7391
100003.7387
100003.7403
100003.7413
100003.8222
100003.7861
100003.805
100003.7829
100003.7898
100003.7782
100003.7644
100003.7494
100003.7258
100003.7856
100003.7369
100003.7333
100003.7102
100003.72
100003.7239
100003.7249
100003.7276
100003.7299
100003.7317
100003.7325
100003.7327
100003.7333
100003.7333
100003.7349
100003.7358
100003.7373
100003.8132
100003.7851
100003.8116
100003.7899
100003.7915
100003.7775
100003.7659
100003.7566
100003.7501
100003.7451
100003.7389
100003.7233
100003.7139
100003.7102
100003.7165
100003.7206
100003.7227
100003.7248
100003.7266
100003.7279
100003.7285
100003.7293
100003.7297
100003.7316
100003.7322
100003.7348
100003.7608
100003.7609
100003.7609
100003.7611
100003.7612
100003.7615
100003.7617
100003.762
100003.7622
100003.762
100003.7614
100003.7602
100003.7586
100003.7575
100003.7573
100003.7583
100003.7605
100003.7627
100003.7667
100003.7706
100003.7743
100003.7755
100003.7759
100003.7715
100003.7669
100003.7584
100003.7612
100003.7612
100003.7612
100003.7613
100003.7614
100003.7616
100003.7617
100003.7616
100003.7612
100003.7601
100003.7581
100003.7552
100003.7526
100003.7514
100003.7513
100003.7524
100003.7546
100003.7578
100003.7624
100003.7661
100003.7698
100003.7699
100003.7685
100003.762
100003.7573
100003.7505
100003.762
100003.762
100003.7619
100003.7619
100003.762
100003.7621
100003.7622
100003.7621
100003.7617
100003.7606
100003.7589
100003.7571
100003.7563
100003.7561
100003.7559
100003.7566
100003.7588
100003.761
100003.7641
100003.7654
100003.7667
100003.7654
100003.7633
100003.7582
100003.7574
100003.7509
100003.7632
100003.7631
100003.763
100003.7629
100003.7628
100003.7628
100003.7628
100003.7625
100003.7619
100003.7605
100003.7585
100003.7567
100003.7552
100003.7536
100003.7525
100003.7542
100003.7563
100003.7587
100003.7609
100003.7579
100003.7559
100003.7492
100003.7456
100003.7383
100003.7476
100003.7411
100003.7647
100003.7646
100003.7644
100003.7642
100003.7641
100003.764
100003.764
100003.7639
100003.7635
100003.7624
100003.7609
100003.7593
100003.7576
100003.7555
100003.7539
100003.7549
100003.7571
100003.758
100003.7579
100003.7488
100003.7398
100003.7226
100003.7158
100003.7016
100003.7338
100003.7294
100003.7666
100003.7664
100003.7661
100003.7657
100003.7654
100003.7653
100003.7654
100003.7654